<?xml version="1.0" encoding="ISO-8859-1"?>
<modeling>
 <generator>
  <i name="program" type="string">vasp </i>
  <i name="version" type="string">5.4.4.18Apr17-6-g9f103f2a35  </i>
  <i name="subversion" type="string">(build Oct 18 2021 20:38:43) complex            parallel </i>
  <i name="platform" type="string">LinuxIFC </i>
  <i name="date" type="string">2024 06 25 </i>
  <i name="time" type="string">16:37:26 </i>
 </generator>
 <incar>
  <i type="string" name="SYSTEM">HECN</i>
  <i type="int" name="ISTART">     0</i>
  <i type="string" name="PREC">normal</i>
  <i type="string" name="ALGO">Fast</i>
  <i type="int" name="ICHARG">     2</i>
  <i type="int" name="NELM">    60</i>
  <i type="int" name="IBRION">     2</i>
  <i name="EDIFF">      0.00001000</i>
  <i name="EDIFFG">     -0.01000000</i>
  <i type="int" name="NSW">   100</i>
  <i type="int" name="ISIF">     3</i>
  <i name="ENCUT">    400.00000000</i>
  <i name="POTIM">      0.50000000</i>
  <i type="logical" name="LREAL"> F  </i>
  <i type="int" name="ISMEAR">     0</i>
  <i name="SIGMA">      0.10000000</i>
  <i type="logical" name="LWAVE"> F  </i>
  <i type="logical" name="LCHARG"> F  </i>
  <v type="int" name="KPOINT_BSE">    -1     0     0     0</v>
  <i type="int" name="NELM">    60</i>
 </incar>
 <structure name="primitive_cell" >
  <crystal>
   <varray name="basis" >
    <v>       8.74329271      -0.01967750      -0.00354605 </v>
    <v>      -0.01411021       8.76740482       0.00617147 </v>
    <v>       0.02795852      -0.00906235       8.78829272 </v>
   </varray>
   <i name="volume">    673.67416412 </i>
   <varray name="rec_basis" >
    <v>       0.11437365       0.00018433      -0.00036367 </v>
    <v>       0.00025675       0.11405917       0.00011680 </v>
    <v>       0.00004597      -0.00008002       0.11378751 </v>
   </varray>
  </crystal>
  <varray name="positions" >
   <v>       0.00354324      -0.01920287       0.02598666 </v>
   <v>       0.00156148       0.00355265       0.24872209 </v>
   <v>       0.00232015      -0.24979981       0.00093854 </v>
   <v>       0.23827435      -0.00038276       0.00271569 </v>
   <v>      -0.24533788      -0.00591344      -0.00882088 </v>
   <v>      -0.00177549       0.23502632       0.00346491 </v>
   <v>       0.00673008      -0.00019692      -0.24902042 </v>
   <v>       0.23376323      -0.02205378       0.24927301 </v>
   <v>       0.00229226      -0.24790105       0.25099911 </v>
   <v>      -0.25565610      -0.25190819       0.00029434 </v>
   <v>       0.27071469      -0.24215358      -0.00155020 </v>
   <v>      -0.25959705      -0.01022457       0.26052600 </v>
   <v>       0.24144012       0.24525084       0.00284083 </v>
   <v>       0.00051352      -0.23998154      -0.25183829 </v>
   <v>      -0.24482591       0.24901626      -0.01041459 </v>
   <v>      -0.00359681       0.27487885       0.25755217 </v>
   <v>       0.01145338       0.23367372      -0.25559177 </v>
   <v>       0.25534152      -0.00107822      -0.25985236 </v>
   <v>      -0.27939625      -0.02357748      -0.22924630 </v>
   <v>       0.26464601      -0.24869197       0.24911312 </v>
   <v>      -0.25841332      -0.26008792       0.24809352 </v>
   <v>       0.24268821       0.25422638       0.24935509 </v>
   <v>      -0.25031300       0.24820108       0.25409932 </v>
   <v>       0.25922405      -0.24113028      -0.25148047 </v>
   <v>      -0.25516120      -0.23993002      -0.25703201 </v>
   <v>       0.00165387      -0.46939210      -0.02910952 </v>
   <v>       0.25620872       0.24266131      -0.24938640 </v>
   <v>       0.01250063       0.00288316       0.48520845 </v>
   <v>      -0.25100113       0.24394796      -0.25457890 </v>
   <v>      -0.47882273       0.02363119      -0.01154756 </v>
   <v>       0.49218378      -0.00748288       0.21798851 </v>
   <v>      -0.00638776      -0.25280077       0.49891173 </v>
   <v>       0.00085197      -0.49982038       0.24644366 </v>
   <v>       0.25729810       0.00056044       0.49398828 </v>
   <v>      -0.24126095      -0.49627522       0.00257455 </v>
   <v>       0.24624730      -0.49666017       0.00563007 </v>
   <v>      -0.48757413      -0.24855106      -0.02097131 </v>
   <v>      -0.25097655       0.00410669      -0.48875592 </v>
   <v>      -0.00321692       0.25566859      -0.49901388 </v>
   <v>      -0.00032319      -0.49938116      -0.24586103 </v>
   <v>       0.49916415       0.24982826      -0.01128586 </v>
   <v>      -0.49745824      -0.00020923      -0.24307889 </v>
   <v>       0.26959907      -0.48192802       0.24421851 </v>
   <v>       0.25039148      -0.24944298       0.49881550 </v>
   <v>      -0.25055074      -0.27242795       0.49557868 </v>
   <v>      -0.27852505      -0.49344680       0.24426951 </v>
   <v>      -0.25316891      -0.48353182      -0.24564998 </v>
   <v>       0.49482825       0.24169206       0.24778333 </v>
   <v>       0.25159931       0.25236223       0.49710914 </v>
   <v>       0.47860951       0.23835042      -0.24551418 </v>
   <v>       0.25433876      -0.49626020      -0.24620434 </v>
   <v>      -0.49389689      -0.26651954       0.28253188 </v>
   <v>      -0.24966311       0.25858394      -0.48531926 </v>
   <v>      -0.49331244      -0.25008082      -0.26671890 </v>
   <v>       0.47115981       0.00027069      -0.45969286 </v>
   <v>       0.00263212       0.49856239      -0.47094634 </v>
   <v>      -0.49913654       0.48018771      -0.01158771 </v>
   <v>       0.49032330      -0.48941171       0.24213003 </v>
   <v>       0.24558738      -0.49773192       0.49357072 </v>
   <v>      -0.49199049      -0.22928704       0.49816403 </v>
   <v>      -0.24067086       0.49720256       0.49714356 </v>
   <v>      -0.49440260       0.24256363      -0.48940234 </v>
   <v>      -0.49518607       0.49812893      -0.24860542 </v>
   <v>      -0.49808512      -0.49016234      -0.49795652 </v>
  </varray>
 </structure>
 <varray name="primitive_index" >
  <v type="int" >        1 </v>
  <v type="int" >       34 </v>
  <v type="int" >       38 </v>
  <v type="int" >       22 </v>
  <v type="int" >       25 </v>
  <v type="int" >       23 </v>
  <v type="int" >       29 </v>
  <v type="int" >        2 </v>
  <v type="int" >       59 </v>
  <v type="int" >        9 </v>
  <v type="int" >       18 </v>
  <v type="int" >       16 </v>
  <v type="int" >       14 </v>
  <v type="int" >       12 </v>
  <v type="int" >       17 </v>
  <v type="int" >        8 </v>
  <v type="int" >       10 </v>
  <v type="int" >       56 </v>
  <v type="int" >       58 </v>
  <v type="int" >       36 </v>
  <v type="int" >       39 </v>
  <v type="int" >       21 </v>
  <v type="int" >       24 </v>
  <v type="int" >       45 </v>
  <v type="int" >       49 </v>
  <v type="int" >       54 </v>
  <v type="int" >       42 </v>
  <v type="int" >       61 </v>
  <v type="int" >       30 </v>
  <v type="int" >       53 </v>
  <v type="int" >       26 </v>
  <v type="int" >       47 </v>
  <v type="int" >       27 </v>
  <v type="int" >       43 </v>
  <v type="int" >       40 </v>
  <v type="int" >       37 </v>
  <v type="int" >       28 </v>
  <v type="int" >       31 </v>
  <v type="int" >       44 </v>
  <v type="int" >       48 </v>
  <v type="int" >       35 </v>
  <v type="int" >       33 </v>
  <v type="int" >        3 </v>
  <v type="int" >       20 </v>
  <v type="int" >       64 </v>
  <v type="int" >       60 </v>
  <v type="int" >       63 </v>
  <v type="int" >       15 </v>
  <v type="int" >       19 </v>
  <v type="int" >        5 </v>
  <v type="int" >       13 </v>
  <v type="int" >       55 </v>
  <v type="int" >       11 </v>
  <v type="int" >        7 </v>
  <v type="int" >       57 </v>
  <v type="int" >        6 </v>
  <v type="int" >        4 </v>
  <v type="int" >       41 </v>
  <v type="int" >       46 </v>
  <v type="int" >       51 </v>
  <v type="int" >       50 </v>
  <v type="int" >       32 </v>
  <v type="int" >       52 </v>
  <v type="int" >       62 </v>
 </varray>
 <kpoints>
  <generation param="Gamma">
   <v type="int" name="divisions">       3        3        3 </v>
   <v name="usershift">      0.00000000       0.00000000       0.00000000 </v>
   <v name="genvec1">      0.33333333      -0.00000000       0.00000000 </v>
   <v name="genvec2">      0.00000000       0.33333333       0.00000000 </v>
   <v name="genvec3">      0.00000000      -0.00000000       0.33333333 </v>
   <v name="shift">      0.00000000       0.00000000       0.00000000 </v>
  </generation>
  <varray name="kpointlist" >
   <v>       0.00000000       0.00000000       0.00000000 </v>
   <v>       0.33333333       0.00000000       0.00000000 </v>
   <v>      -0.00000000       0.33333333      -0.00000000 </v>
   <v>       0.33333333       0.33333333       0.00000000 </v>
   <v>      -0.33333333       0.33333333      -0.00000000 </v>
   <v>       0.00000000       0.00000000       0.33333333 </v>
   <v>       0.33333333       0.00000000       0.33333333 </v>
   <v>      -0.33333333       0.00000000       0.33333333 </v>
   <v>      -0.00000000       0.33333333       0.33333333 </v>
   <v>       0.33333333       0.33333333       0.33333333 </v>
   <v>      -0.33333333       0.33333333       0.33333333 </v>
   <v>       0.00000000      -0.33333333       0.33333333 </v>
   <v>       0.33333333      -0.33333333       0.33333333 </v>
   <v>      -0.33333333      -0.33333333       0.33333333 </v>
  </varray>
  <varray name="weights" >
   <v>       0.03703704 </v>
   <v>       0.07407407 </v>
   <v>       0.07407407 </v>
   <v>       0.07407407 </v>
   <v>       0.07407407 </v>
   <v>       0.07407407 </v>
   <v>       0.07407407 </v>
   <v>       0.07407407 </v>
   <v>       0.07407407 </v>
   <v>       0.07407407 </v>
   <v>       0.07407407 </v>
   <v>       0.07407407 </v>
   <v>       0.07407407 </v>
   <v>       0.07407407 </v>
  </varray>
 </kpoints>
 <parameters>
  <separator name="general" >
   <i type="string" name="SYSTEM">HECN</i>
   <i type="logical" name="LCOMPAT"> F  </i>
  </separator>
  <separator name="electronic" >
   <i type="string" name="PREC">normal</i>
   <i name="ENMAX">    400.00000000</i>
   <i name="ENAUG">    644.87300000</i>
   <i name="EDIFF">      0.00001000</i>
   <i type="int" name="IALGO">    68</i>
   <i type="int" name="IWAVPR">    11</i>
   <i type="int" name="NBANDS">   312</i>
   <i name="NELECT">    502.00000000</i>
   <i type="int" name="TURBO">     0</i>
   <i type="int" name="IRESTART">     0</i>
   <i type="int" name="NREBOOT">     0</i>
   <i type="int" name="NMIN">     0</i>
   <i name="EREF">      0.00000000</i>
   <separator name="electronic smearing" >
    <i type="int" name="ISMEAR">     0</i>
    <i name="SIGMA">      0.10000000</i>
    <i name="KSPACING">      0.50000000</i>
    <i type="logical" name="KGAMMA"> T  </i>
   </separator>
   <separator name="electronic projectors" >
    <i type="logical" name="LREAL"> F  </i>
    <v name="ROPT">      0.00000000      0.00000000      0.00000000      0.00000000      0.00000000      0.00000000      0.00000000</v>
    <i type="int" name="LMAXPAW">  -100</i>
    <i type="int" name="LMAXMIX">     2</i>
    <i type="logical" name="NLSPLINE"> F  </i>
   </separator>
   <separator name="electronic startup" >
    <i type="int" name="ISTART">     0</i>
    <i type="int" name="ICHARG">     2</i>
    <i type="int" name="INIWAV">     1</i>
   </separator>
   <separator name="electronic spin" >
    <i type="int" name="ISPIN">     1</i>
    <i type="logical" name="LNONCOLLINEAR"> F  </i>
    <v name="MAGMOM">      1.00000000      1.00000000      1.00000000      1.00000000      1.00000000      1.00000000      1.00000000      1.00000000      1.00000000      1.00000000      1.00000000      1.00000000      1.00000000      1.00000000      1.00000000      1.00000000      1.00000000      1.00000000      1.00000000      1.00000000
      1.00000000      1.00000000      1.00000000      1.00000000      1.00000000      1.00000000      1.00000000      1.00000000      1.00000000      1.00000000      1.00000000      1.00000000      1.00000000      1.00000000      1.00000000      1.00000000      1.00000000      1.00000000      1.00000000      1.00000000
      1.00000000      1.00000000      1.00000000      1.00000000      1.00000000      1.00000000      1.00000000      1.00000000      1.00000000      1.00000000      1.00000000      1.00000000      1.00000000      1.00000000      1.00000000      1.00000000      1.00000000      1.00000000      1.00000000      1.00000000
      1.00000000      1.00000000      1.00000000      1.00000000</v>
    <i name="NUPDOWN">     -1.00000000</i>
    <i type="logical" name="LSORBIT"> F  </i>
    <v name="SAXIS">      0.00000000      0.00000000      1.00000000</v>
    <i type="logical" name="LSPIRAL"> F  </i>
    <v name="QSPIRAL">      0.00000000      0.00000000      0.00000000</v>
    <i type="logical" name="LZEROZ"> F  </i>
   </separator>
   <separator name="electronic exchange-correlation" >
    <i type="logical" name="LASPH"> F  </i>
    <i type="logical" name="LMETAGGA"> F  </i>
   </separator>
   <separator name="electronic convergence" >
    <i type="int" name="NELM">    60</i>
    <i type="int" name="NELMDL">    -5</i>
    <i type="int" name="NELMIN">     2</i>
    <i name="ENINI">    400.00000000</i>
    <separator name="electronic convergence detail" >
     <i type="logical" name="LDIAG"> T  </i>
     <i type="logical" name="LSUBROT"> F  </i>
     <i name="WEIMIN">      0.00100000</i>
     <i name="EBREAK">      0.00000001</i>
     <i name="DEPER">      0.30000000</i>
     <i type="int" name="NRMM">     4</i>
     <i name="TIME">      0.40000000</i>
    </separator>
   </separator>
   <separator name="electronic mixer" >
    <i name="AMIX">      0.40000000</i>
    <i name="BMIX">      1.00000000</i>
    <i name="AMIN">      0.10000000</i>
    <i name="AMIX_MAG">      1.60000000</i>
    <i name="BMIX_MAG">      1.00000000</i>
    <separator name="electronic mixer details" >
     <i type="int" name="IMIX">     4</i>
     <i type="logical" name="MIXFIRST"> F  </i>
     <i type="int" name="MAXMIX">   -45</i>
     <i name="WC">    100.00000000</i>
     <i type="int" name="INIMIX">     1</i>
     <i type="int" name="MIXPRE">     1</i>
     <i type="int" name="MREMOVE">     5</i>
    </separator>
   </separator>
   <separator name="electronic dipolcorrection" >
    <i type="logical" name="LDIPOL"> F  </i>
    <i type="logical" name="LMONO"> F  </i>
    <i type="int" name="IDIPOL">     0</i>
    <i name="EPSILON">      1.00000000</i>
    <v name="DIPOL">   -100.00000000   -100.00000000   -100.00000000</v>
    <i name="EFIELD">      0.00000000</i>
   </separator>
  </separator>
  <separator name="grids" >
   <i type="int" name="NGX">    48</i>
   <i type="int" name="NGY">    48</i>
   <i type="int" name="NGZ">    48</i>
   <i type="int" name="NGXF">    96</i>
   <i type="int" name="NGYF">    96</i>
   <i type="int" name="NGZF">    96</i>
   <i type="logical" name="ADDGRID"> F  </i>
  </separator>
  <separator name="ionic" >
   <i type="int" name="NSW">   100</i>
   <i type="int" name="IBRION">     2</i>
   <i type="int" name="MDALGO">     0</i>
   <i type="int" name="ISIF">     3</i>
   <i name="PSTRESS">      0.00000000</i>
   <i name="EDIFFG">     -0.01000000</i>
   <i type="int" name="NFREE">     1</i>
   <i name="POTIM">      0.50000000</i>
   <i name="SMASS">     -3.00000000</i>
   <i name="SCALEE">      1.00000000</i>
  </separator>
  <separator name="ionic md" >
   <i name="TEBEG">      0.00010000</i>
   <i name="TEEND">      0.00010000</i>
   <i type="int" name="NBLOCK">     1</i>
   <i type="int" name="KBLOCK">   100</i>
   <i type="int" name="NPACO">   256</i>
   <i name="APACO">     16.00000000</i>
  </separator>
  <separator name="symmetry" >
   <i type="int" name="ISYM">     2</i>
   <i name="SYMPREC">      0.00001000</i>
  </separator>
  <separator name="dos" >
   <i type="int" name="LORBIT">     0</i>
   <v name="RWIGS">     -1.00000000     -1.00000000     -1.00000000     -1.00000000     -1.00000000     -1.00000000     -1.00000000</v>
   <i type="int" name="NEDOS">   301</i>
   <i name="EMIN">     10.00000000</i>
   <i name="EMAX">    -10.00000000</i>
   <i name="EFERMI">      0.00000000</i>
  </separator>
  <separator name="writing" >
   <i type="int" name="NWRITE">     2</i>
   <i type="logical" name="LWAVE"> F  </i>
   <i type="logical" name="LDOWNSAMPLE"> F  </i>
   <i type="logical" name="LCHARG"> F  </i>
   <i type="logical" name="LPARD"> F  </i>
   <i type="logical" name="LVTOT"> F  </i>
   <i type="logical" name="LVHAR"> F  </i>
   <i type="logical" name="LELF"> F  </i>
   <i type="logical" name="LOPTICS"> F  </i>
   <v name="STM">      0.00000000      0.00000000      0.00000000      0.00000000      0.00000000      0.00000000      0.00000000</v>
  </separator>
  <separator name="performance" >
   <i type="int" name="NPAR">    24</i>
   <i type="int" name="NSIM">     4</i>
   <i type="int" name="NBLK">    -1</i>
   <i type="logical" name="LPLANE"> T  </i>
   <i type="logical" name="LSCALAPACK"> T  </i>
   <i type="logical" name="LSCAAWARE"> F  </i>
   <i type="logical" name="LSCALU"> F  </i>
   <i type="logical" name="LASYNC"> F  </i>
   <i type="logical" name="LORBITALREAL"> F  </i>
  </separator>
  <separator name="miscellaneous" >
   <i type="int" name="IDIOT">     3</i>
   <i type="int" name="ISPECIAL">     0</i>
   <i type="logical" name="LMUSIC"> F  </i>
   <v name="POMASS">     50.94100000     92.91000000     91.22400000     14.00100000     12.01100000     51.99600000     95.94000000</v>
   <v name="DARWINR">      0.00000000      0.00000000      0.00000000      0.00000000      0.00000000      0.00000000      0.00000000</v>
   <v name="DARWINV">      1.00000000      1.00000000      1.00000000      1.00000000      1.00000000      1.00000000      1.00000000</v>
   <i type="logical" name="LCORR"> T  </i>
  </separator>
  <i type="logical" name="GGA_COMPAT"> T  </i>
  <i type="logical" name="LBERRY"> F  </i>
  <i type="int" name="ICORELEVEL">     0</i>
  <i type="logical" name="LDAU"> F  </i>
  <i type="int" name="I_CONSTRAINED_M">     0</i>
  <separator name="electronic exchange-correlation" >
   <i type="string" name="GGA">--</i>
   <i type="int" name="VOSKOWN">     0</i>
   <i type="logical" name="LHFCALC"> F  </i>
   <i type="string" name="PRECFOCK"></i>
   <i type="logical" name="LSYMGRAD"> F  </i>
   <i type="logical" name="LHFONE"> F  </i>
   <i type="logical" name="LRHFCALC"> F  </i>
   <i type="logical" name="LTHOMAS"> F  </i>
   <i type="logical" name="LMODELHF"> F  </i>
   <i name="ENCUT4O">     -1.00000000</i>
   <i type="int" name="EXXOEP">     0</i>
   <i type="int" name="FOURORBIT">     0</i>
   <i name="AEXX">      0.00000000</i>
   <i name="HFALPHA">      0.00000000</i>
   <i name="MCALPHA">      0.00000000</i>
   <i name="ALDAX">      1.00000000</i>
   <i name="AGGAX">      1.00000000</i>
   <i name="ALDAC">      1.00000000</i>
   <i name="AGGAC">      1.00000000</i>
   <i type="int" name="NKREDX">     1</i>
   <i type="int" name="NKREDY">     1</i>
   <i type="int" name="NKREDZ">     1</i>
   <i type="logical" name="SHIFTRED"> F  </i>
   <i type="logical" name="ODDONLY"> F  </i>
   <i type="logical" name="EVENONLY"> F  </i>
   <i type="int" name="LMAXFOCK">     0</i>
   <i type="int" name="NMAXFOCKAE">     0</i>
   <i type="logical" name="LFOCKAEDFT"> F  </i>
   <i name="HFSCREEN">      0.00000000</i>
   <i name="HFSCREENC">      0.00000000</i>
   <i type="int" name="NBANDSGWLOW">     0</i>
  </separator>
  <separator name="vdW DFT" >
   <i type="logical" name="LUSE_VDW"> F  </i>
   <i name="Zab_VDW">     -0.84910000</i>
   <i name="PARAM1">      0.12340000</i>
   <i name="PARAM2">      1.00000000</i>
   <i name="PARAM3">      0.00000000</i>
  </separator>
  <separator name="model GW" >
   <i type="int" name="MODEL_GW">     0</i>
   <i name="MODEL_EPS0">      6.31569529</i>
   <i name="MODEL_ALPHA">      1.00000000</i>
  </separator>
  <separator name="linear response parameters" >
   <i type="logical" name="LEPSILON"> F  </i>
   <i type="logical" name="LRPA"> F  </i>
   <i type="logical" name="LNABLA"> F  </i>
   <i type="logical" name="LVEL"> F  </i>
   <i type="int" name="KINTER">     0</i>
   <i name="CSHIFT">      0.10000000</i>
   <i name="OMEGAMAX">     -1.00000000</i>
   <i name="DEG_THRESHOLD">      0.00200000</i>
   <i name="RTIME">     -0.10000000</i>
   <i name="WPLASMAI">      0.00000000</i>
   <v name="DFIELD">      0.00000000      0.00000000      0.00000000</v>
   <v name="WPLASMA">      0.00000000      0.00000000      0.00000000      0.00000000      0.00000000      0.00000000      0.00000000      0.00000000      0.00000000</v>
  </separator>
  <separator name="orbital magnetization" >
   <i type="logical" name="NUCIND"> F  </i>
   <v name="MAGPOS">      0.00000000      0.00000000      0.00000000</v>
   <i type="logical" name="LNICSALL"> T  </i>
   <i type="logical" name="ORBITALMAG"> F  </i>
   <i type="logical" name="LMAGBLOCH"> F  </i>
   <i type="logical" name="LCHIMAG"> F  </i>
   <i type="logical" name="LGAUGE"> T  </i>
   <i type="int" name="MAGATOM">     0</i>
   <v name="MAGDIPOL">      0.00000000      0.00000000      0.00000000</v>
   <v name="AVECCONST">      0.00000000      0.00000000      0.00000000</v>
  </separator>
  <separator name="response functions" >
   <i type="logical" name="LADDER"> F  </i>
   <i type="logical" name="LRPAFORCE"> F  </i>
   <i type="logical" name="LFXC"> F  </i>
   <i type="logical" name="LHARTREE"> T  </i>
   <i type="int" name="IBSE">     0</i>
   <v type="int" name="KPOINT">    -1     0     0     0</v>
   <i type="logical" name="LTCTE"> F  </i>
   <i type="logical" name="LTETE"> F  </i>
   <i type="logical" name="LTRIPLET"> F  </i>
   <i type="logical" name="LFXCEPS"> F  </i>
   <i type="logical" name="LFXHEG"> F  </i>
   <i type="int" name="NATURALO">     2</i>
   <i type="logical" name="L2ORDER"> F  </i>
   <i type="logical" name="LMP2LT"> F  </i>
   <i type="logical" name="LUSEW"> F  </i>
   <i name="ENCUTGW">     -2.00000000</i>
   <i name="ENCUTGWSOFT">     -2.00000000</i>
   <i name="ENCUTLF">     -1.00000000</i>
   <i type="int" name="LMAXMP2">    -1</i>
   <i name="SCISSOR">      0.00000000</i>
   <i type="int" name="NOMEGA">     0</i>
   <i type="int" name="NOMEGAR">     0</i>
   <i type="int" name="NBANDSGW">    -1</i>
   <i type="int" name="NBANDSO">    -1</i>
   <i type="int" name="NBANDSV">    -1</i>
   <i type="int" name="NELM">    60</i>
   <i type="int" name="NELMHF">     1</i>
   <i type="int" name="DIM">     3</i>
   <i type="int" name="ANTIRES">     0</i>
   <i name="OMEGAMAX">    -30.00000000</i>
   <i name="OMEGAMIN">    -30.00000000</i>
   <i name="OMEGATL">   -200.00000000</i>
   <i type="int" name="OMEGAGRID">   140</i>
   <i name="CSHIFT">     -0.10000000</i>
   <i type="logical" name="SELFENERGY"> F  </i>
   <i type="logical" name="LSPECTRAL"> F  </i>
   <i type="logical" name="LSPECTRALGW"> F  </i>
   <i type="logical" name="LSINGLES"> F  </i>
   <i type="logical" name="LFERMIGW"> F  </i>
   <i type="logical" name="ODDONLYGW"> F  </i>
   <i type="logical" name="EVENONLYGW"> F  </i>
   <i type="int" name="NKREDLFX">     1</i>
   <i type="int" name="NKREDLFY">     1</i>
   <i type="int" name="NKREDLFZ">     1</i>
   <i type="int" name="MAXMEM">  2800</i>
   <i type="int" name="TELESCOPE">     0</i>
   <i type="int" name="TAUPAR">     1</i>
   <i type="int" name="OMEGAPAR">    -1</i>
   <i name="LAMBDA">      1.00000000</i>
  </separator>
  <separator name="External order field" >
   <i name="OFIELD_KAPPA">      0.00000000</i>
   <v name="OFIELD_K">      0.00000000      0.00000000      0.00000000</v>
   <i name="OFIELD_Q6_NEAR">      0.00000000</i>
   <i name="OFIELD_Q6_FAR">      0.00000000</i>
   <i name="OFIELD_A">      0.00000000</i>
  </separator>
 </parameters>
 <atominfo>
  <atoms>      64 </atoms>
  <types>       7 </types>
  <array name="atoms" >
   <dimension dim="1">ion</dimension>
   <field type="string">element</field>
   <field type="int">atomtype</field>
   <set>
    <rc><c>V </c><c>   1</c></rc>
    <rc><c>V </c><c>   1</c></rc>
    <rc><c>V </c><c>   1</c></rc>
    <rc><c>V </c><c>   1</c></rc>
    <rc><c>V </c><c>   1</c></rc>
    <rc><c>V </c><c>   1</c></rc>
    <rc><c>V </c><c>   1</c></rc>
    <rc><c>Nb</c><c>   2</c></rc>
    <rc><c>Nb</c><c>   2</c></rc>
    <rc><c>Nb</c><c>   2</c></rc>
    <rc><c>Nb</c><c>   2</c></rc>
    <rc><c>Nb</c><c>   2</c></rc>
    <rc><c>Nb</c><c>   2</c></rc>
    <rc><c>Zr</c><c>   3</c></rc>
    <rc><c>Zr</c><c>   3</c></rc>
    <rc><c>Zr</c><c>   3</c></rc>
    <rc><c>Zr</c><c>   3</c></rc>
    <rc><c>Zr</c><c>   3</c></rc>
    <rc><c>Zr</c><c>   3</c></rc>
    <rc><c>Zr</c><c>   3</c></rc>
    <rc><c>N </c><c>   4</c></rc>
    <rc><c>N </c><c>   4</c></rc>
    <rc><c>N </c><c>   4</c></rc>
    <rc><c>N </c><c>   4</c></rc>
    <rc><c>N </c><c>   4</c></rc>
    <rc><c>N </c><c>   4</c></rc>
    <rc><c>N </c><c>   4</c></rc>
    <rc><c>N </c><c>   4</c></rc>
    <rc><c>N </c><c>   4</c></rc>
    <rc><c>N </c><c>   4</c></rc>
    <rc><c>N </c><c>   4</c></rc>
    <rc><c>N </c><c>   4</c></rc>
    <rc><c>N </c><c>   4</c></rc>
    <rc><c>C </c><c>   5</c></rc>
    <rc><c>C </c><c>   5</c></rc>
    <rc><c>C </c><c>   5</c></rc>
    <rc><c>C </c><c>   5</c></rc>
    <rc><c>C </c><c>   5</c></rc>
    <rc><c>C </c><c>   5</c></rc>
    <rc><c>C </c><c>   5</c></rc>
    <rc><c>C </c><c>   5</c></rc>
    <rc><c>C </c><c>   5</c></rc>
    <rc><c>C </c><c>   5</c></rc>
    <rc><c>C </c><c>   5</c></rc>
    <rc><c>C </c><c>   5</c></rc>
    <rc><c>C </c><c>   5</c></rc>
    <rc><c>C </c><c>   5</c></rc>
    <rc><c>C </c><c>   5</c></rc>
    <rc><c>C </c><c>   5</c></rc>
    <rc><c>C </c><c>   5</c></rc>
    <rc><c>C </c><c>   5</c></rc>
    <rc><c>C </c><c>   5</c></rc>
    <rc><c>Cr</c><c>   6</c></rc>
    <rc><c>Cr</c><c>   6</c></rc>
    <rc><c>Cr</c><c>   6</c></rc>
    <rc><c>Cr</c><c>   6</c></rc>
    <rc><c>Cr</c><c>   6</c></rc>
    <rc><c>Cr</c><c>   6</c></rc>
    <rc><c>Mo</c><c>   7</c></rc>
    <rc><c>Mo</c><c>   7</c></rc>
    <rc><c>Mo</c><c>   7</c></rc>
    <rc><c>Mo</c><c>   7</c></rc>
    <rc><c>Mo</c><c>   7</c></rc>
    <rc><c>Mo</c><c>   7</c></rc>
   </set>
  </array>
  <array name="atomtypes" >
   <dimension dim="1">type</dimension>
   <field type="int">atomspertype</field>
   <field type="string">element</field>
   <field>mass</field>
   <field>valence</field>
   <field type="string">pseudopotential</field>
   <set>
    <rc><c>   7</c><c>V </c><c>     50.94100000</c><c>     13.00000000</c><c> PAW_PBE V_sv 07Sep2000                 </c></rc>
    <rc><c>   6</c><c>Nb</c><c>     92.91000000</c><c>     13.00000000</c><c> PAW_PBE Nb_sv 17Jan2003                </c></rc>
    <rc><c>   7</c><c>Zr</c><c>     91.22400000</c><c>     12.00000000</c><c> PAW_PBE Zr_sv 07Sep2000                </c></rc>
    <rc><c>  13</c><c>N </c><c>     14.00100000</c><c>      5.00000000</c><c> PAW_PBE N 08Apr2002                    </c></rc>
    <rc><c>  19</c><c>C </c><c>     12.01100000</c><c>      4.00000000</c><c> PAW_PBE C 08Apr2002                    </c></rc>
    <rc><c>   6</c><c>Cr</c><c>     51.99600000</c><c>     12.00000000</c><c> PAW_PBE Cr_pv 07Sep2000                </c></rc>
    <rc><c>   6</c><c>Mo</c><c>     95.94000000</c><c>      6.00000000</c><c> PAW_PBE Mo 08Apr2002                   </c></rc>
   </set>
  </array>
 </atominfo>
 <structure name="initialpos" >
  <crystal>
   <varray name="basis" >
    <v>       8.74329271      -0.01967750      -0.00354605 </v>
    <v>      -0.01411021       8.76740482       0.00617147 </v>
    <v>       0.02795852      -0.00906235       8.78829272 </v>
   </varray>
   <i name="volume">    673.67416412 </i>
   <varray name="rec_basis" >
    <v>       0.11437365       0.00018433      -0.00036367 </v>
    <v>       0.00025675       0.11405917       0.00011680 </v>
    <v>       0.00004597      -0.00008002       0.11378751 </v>
   </varray>
  </crystal>
  <varray name="positions" >
   <v>       0.00354324       0.98079713       0.02598666 </v>
   <v>       0.23376323       0.97794622       0.24927301 </v>
   <v>       0.26959907       0.51807198       0.24421851 </v>
   <v>       0.50086346       0.48018771       0.98841229 </v>
   <v>       0.47860951       0.23835042       0.75448582 </v>
   <v>       0.00263212       0.49856239       0.52905366 </v>
   <v>       0.50668756       0.74991918       0.73328110 </v>
   <v>       0.99640319       0.27487885       0.25755217 </v>
   <v>       0.74434390       0.74809181       0.00029434 </v>
   <v>       0.01145338       0.23367372       0.74440823 </v>
   <v>       0.75033689       0.25858394       0.51468074 </v>
   <v>       0.00051352       0.76001846       0.74816171 </v>
   <v>       0.25433876       0.50373980       0.75379566 </v>
   <v>       0.24144012       0.24525084       0.00284083 </v>
   <v>       0.49482825       0.24169206       0.24778333 </v>
   <v>       0.74040295       0.98977543       0.26052600 </v>
   <v>       0.75517409       0.24901626       0.98958541 </v>
   <v>       0.27071469       0.75784642       0.99844980 </v>
   <v>       0.25159931       0.25236223       0.49710914 </v>
   <v>       0.25039148       0.75055702       0.49881550 </v>
   <v>       0.24268821       0.25422638       0.24935509 </v>
   <v>       0.23827435       0.99961724       0.00271569 </v>
   <v>       0.99822451       0.23502632       0.00346491 </v>
   <v>       0.74968700       0.24820108       0.25409932 </v>
   <v>       0.75466212       0.99408656       0.99117912 </v>
   <v>       0.49218378       0.99251712       0.21798851 </v>
   <v>       0.00085197       0.50017962       0.24644366 </v>
   <v>       0.51242587       0.75144894       0.97902869 </v>
   <v>       0.00673008       0.99980308       0.75097958 </v>
   <v>       0.74899887       0.24394796       0.74542110 </v>
   <v>       0.74902345       0.00410669       0.51124408 </v>
   <v>       0.50559740       0.24256363       0.51059766 </v>
   <v>       0.50254176       0.99979077       0.75692111 </v>
   <v>       0.00156148       0.00355265       0.24872209 </v>
   <v>       0.49916415       0.24982826       0.98871414 </v>
   <v>       0.26464601       0.75130803       0.24911312 </v>
   <v>       0.24624730       0.50333983       0.00563007 </v>
   <v>       0.00232015       0.75020019       0.00093854 </v>
   <v>       0.74158668       0.73991208       0.24809352 </v>
   <v>       0.75873905       0.50372478       0.00257455 </v>
   <v>       0.49032330       0.51058829       0.24213003 </v>
   <v>       0.25620872       0.24266131       0.75061360 </v>
   <v>       0.25729810       0.00056044       0.49398828 </v>
   <v>       0.99678308       0.25566859       0.50098612 </v>
   <v>       0.25922405       0.75886972       0.74851953 </v>
   <v>       0.24558738       0.50226808       0.49357072 </v>
   <v>       0.99361224       0.74719923       0.49891173 </v>
   <v>       0.99967681       0.50061884       0.75413897 </v>
   <v>       0.74483880       0.76006998       0.74296799 </v>
   <v>       0.75932914       0.49720256       0.49714356 </v>
   <v>       0.50800951       0.77071296       0.49816403 </v>
   <v>       0.50481393       0.49812893       0.75139458 </v>
   <v>       0.52117727       0.02363119       0.98845244 </v>
   <v>       0.00165387       0.53060790       0.97089048 </v>
   <v>       0.50610311       0.73348046       0.28253188 </v>
   <v>       0.25534152       0.99892178       0.74014764 </v>
   <v>       0.47115981       0.00027069       0.54030714 </v>
   <v>       0.72060375       0.97642252       0.77075370 </v>
   <v>       0.00229226       0.75209895       0.25099911 </v>
   <v>       0.72147495       0.50655320       0.24426951 </v>
   <v>       0.01250063       0.00288316       0.48520845 </v>
   <v>       0.50191488       0.50983766       0.50204348 </v>
   <v>       0.74683109       0.51646818       0.75435002 </v>
   <v>       0.74944926       0.72757205       0.49557868 </v>
  </varray>
 </structure>
 <calculation>
  <scstep>
   <time name="dav">   19.95   20.04</time>
   <time name="total">   19.99   20.08</time>
   <energy>
    <i name="alphaZ">   3995.23272440 </i>
    <i name="ewald"> -40963.78103624 </i>
    <i name="hartreedc"> -10263.46318030 </i>
    <i name="XCdc">   1693.86283340 </i>
    <i name="pawpsdc">  31985.40587996 </i>
    <i name="pawaedc"> -31753.22171266 </i>
    <i name="eentropy">     -0.08475927 </i>
    <i name="bandstr">   2603.56002422 </i>
    <i name="atom">  49398.18131157 </i>
    <i name="e_fr_energy">   6695.69208510 </i>
    <i name="e_wo_entrp">   6695.77684437 </i>
    <i name="e_0_energy">   6695.73446473 </i>
   </energy>
  </scstep>
  <scstep>
   <time name="dav">   20.82   20.90</time>
   <time name="total">   20.82   20.90</time>
   <energy>
    <i name="e_fr_energy">    413.36922099 </i>
    <i name="e_wo_entrp">    413.50131064 </i>
    <i name="e_0_energy">    413.43526582 </i>
   </energy>
  </scstep>
  <scstep>
   <time name="dav">   29.28   29.41</time>
   <time name="total">   29.28   29.41</time>
   <energy>
    <i name="e_fr_energy">   -632.02524877 </i>
    <i name="e_wo_entrp">   -631.91052799 </i>
    <i name="e_0_energy">   -631.96788838 </i>
   </energy>
  </scstep>
  <scstep>
   <time name="dav">   33.16   33.28</time>
   <time name="total">   33.16   33.28</time>
   <energy>
    <i name="e_fr_energy">   -759.20563510 </i>
    <i name="e_wo_entrp">   -759.09305165 </i>
    <i name="e_0_energy">   -759.14934337 </i>
   </energy>
  </scstep>
  <scstep>
   <time name="dav">   36.37   36.53</time>
   <time name="total">   36.64   36.79</time>
   <energy>
    <i name="e_fr_energy">   -774.77793314 </i>
    <i name="e_wo_entrp">   -774.66477563 </i>
    <i name="e_0_energy">   -774.72135439 </i>
   </energy>
  </scstep>
  <scstep>
   <time name="diag">    1.86    1.87</time>
   <time name="diis">   17.70   17.76</time>
   <time name="orth">    0.42    0.42</time>
   <time name="total">   20.27   20.35</time>
   <energy>
    <i name="e_fr_energy">   -829.61994620 </i>
    <i name="e_wo_entrp">   -829.46970657 </i>
    <i name="e_0_energy">   -829.54482639 </i>
   </energy>
  </scstep>
  <scstep>
   <time name="diag">    1.81    1.81</time>
   <time name="diis">   19.30   19.37</time>
   <time name="orth">    0.42    0.42</time>
   <time name="total">   21.81   21.89</time>
   <energy>
    <i name="e_fr_energy">   -653.58770831 </i>
    <i name="e_wo_entrp">   -653.44744954 </i>
    <i name="e_0_energy">   -653.51757893 </i>
   </energy>
  </scstep>
  <scstep>
   <time name="diag">    1.84    1.84</time>
   <time name="diis">   21.86   21.93</time>
   <time name="orth">    0.42    0.42</time>
   <time name="total">   24.41   24.48</time>
   <energy>
    <i name="e_fr_energy">   -636.61224341 </i>
    <i name="e_wo_entrp">   -636.47624725 </i>
    <i name="e_0_energy">   -636.54424533 </i>
   </energy>
  </scstep>
  <scstep>
   <time name="diag">    1.86    1.89</time>
   <time name="diis">   21.83   21.85</time>
   <time name="orth">    0.43    0.43</time>
   <time name="total">   24.40   24.47</time>
   <energy>
    <i name="e_fr_energy">   -625.12290372 </i>
    <i name="e_wo_entrp">   -624.96848474 </i>
    <i name="e_0_energy">   -625.04569423 </i>
   </energy>
  </scstep>
  <scstep>
   <time name="diag">    1.81    1.81</time>
   <time name="diis">   21.77   21.79</time>
   <time name="orth">    0.42    0.42</time>
   <time name="total">   24.28   24.30</time>
   <energy>
    <i name="e_fr_energy">   -624.63131421 </i>
    <i name="e_wo_entrp">   -624.48236671 </i>
    <i name="e_0_energy">   -624.55684046 </i>
   </energy>
  </scstep>
  <scstep>
   <time name="diag">    1.80    1.81</time>
   <time name="diis">   22.06   22.16</time>
   <time name="orth">    0.41    0.41</time>
   <time name="total">   24.56   24.67</time>
   <energy>
    <i name="e_fr_energy">   -623.99779089 </i>
    <i name="e_wo_entrp">   -623.84466352 </i>
    <i name="e_0_energy">   -623.92122720 </i>
   </energy>
  </scstep>
  <scstep>
   <time name="diag">    1.81    1.81</time>
   <time name="diis">   21.86   21.91</time>
   <time name="orth">    0.42    0.42</time>
   <time name="total">   24.38   24.43</time>
   <energy>
    <i name="e_fr_energy">   -623.61260487 </i>
    <i name="e_wo_entrp">   -623.46818542 </i>
    <i name="e_0_energy">   -623.54039514 </i>
   </energy>
  </scstep>
  <scstep>
   <time name="diag">    1.83    1.83</time>
   <time name="diis">   20.72   20.77</time>
   <time name="orth">    0.42    0.42</time>
   <time name="total">   23.26   23.31</time>
   <energy>
    <i name="e_fr_energy">   -624.03878587 </i>
    <i name="e_wo_entrp">   -623.89040410 </i>
    <i name="e_0_energy">   -623.96459498 </i>
   </energy>
  </scstep>
  <scstep>
   <time name="diag">    1.86    1.87</time>
   <time name="diis">   20.57   20.63</time>
   <time name="orth">    0.44    0.44</time>
   <time name="total">   23.16   23.24</time>
   <energy>
    <i name="e_fr_energy">   -623.49081133 </i>
    <i name="e_wo_entrp">   -623.33852960 </i>
    <i name="e_0_energy">   -623.41467046 </i>
   </energy>
  </scstep>
  <scstep>
   <time name="diag">    1.81    1.81</time>
   <time name="diis">   21.34   21.37</time>
   <time name="orth">    0.42    0.42</time>
   <time name="total">   23.85   23.89</time>
   <energy>
    <i name="e_fr_energy">   -623.61032011 </i>
    <i name="e_wo_entrp">   -623.45234731 </i>
    <i name="e_0_energy">   -623.53133371 </i>
   </energy>
  </scstep>
  <scstep>
   <time name="diag">    1.82    1.82</time>
   <time name="diis">   20.30   20.32</time>
   <time name="orth">    0.45    0.45</time>
   <time name="total">   22.86   22.89</time>
   <energy>
    <i name="e_fr_energy">   -623.39407317 </i>
    <i name="e_wo_entrp">   -623.24396091 </i>
    <i name="e_0_energy">   -623.31901704 </i>
   </energy>
  </scstep>
  <scstep>
   <time name="diag">    1.83    1.83</time>
   <time name="diis">   22.14   22.16</time>
   <time name="orth">    0.42    0.42</time>
   <time name="total">   24.67   24.70</time>
   <energy>
    <i name="e_fr_energy">   -623.23199877 </i>
    <i name="e_wo_entrp">   -623.07866800 </i>
    <i name="e_0_energy">   -623.15533339 </i>
   </energy>
  </scstep>
  <scstep>
   <time name="diag">    1.83    1.84</time>
   <time name="diis">   21.73   21.86</time>
   <time name="orth">    0.41    0.42</time>
   <time name="total">   24.26   24.40</time>
   <energy>
    <i name="e_fr_energy">   -623.23640772 </i>
    <i name="e_wo_entrp">   -623.08328910 </i>
    <i name="e_0_energy">   -623.15984841 </i>
   </energy>
  </scstep>
  <scstep>
   <time name="diag">    1.86    1.90</time>
   <time name="diis">   21.50   21.58</time>
   <time name="orth">    0.42    0.44</time>
   <time name="total">   24.06   24.20</time>
   <energy>
    <i name="e_fr_energy">   -623.24717012 </i>
    <i name="e_wo_entrp">   -623.09448239 </i>
    <i name="e_0_energy">   -623.17082625 </i>
   </energy>
  </scstep>
  <scstep>
   <time name="diag">    1.80    1.80</time>
   <time name="diis">   21.38   21.46</time>
   <time name="orth">    0.41    0.41</time>
   <time name="total">   23.89   23.96</time>
   <energy>
    <i name="e_fr_energy">   -623.25584031 </i>
    <i name="e_wo_entrp">   -623.10236662 </i>
    <i name="e_0_energy">   -623.17910347 </i>
   </energy>
  </scstep>
  <scstep>
   <time name="diag">    1.81    1.81</time>
   <time name="diis">   21.23   21.31</time>
   <time name="orth">    0.41    0.41</time>
   <time name="total">   23.74   23.83</time>
   <energy>
    <i name="e_fr_energy">   -623.25555641 </i>
    <i name="e_wo_entrp">   -623.10313898 </i>
    <i name="e_0_energy">   -623.17934769 </i>
   </energy>
  </scstep>
  <scstep>
   <time name="diag">    1.80    1.80</time>
   <time name="diis">   21.60   21.61</time>
   <time name="orth">    0.43    0.44</time>
   <time name="total">   24.13   24.15</time>
   <energy>
    <i name="e_fr_energy">   -623.25175393 </i>
    <i name="e_wo_entrp">   -623.09897635 </i>
    <i name="e_0_energy">   -623.17536514 </i>
   </energy>
  </scstep>
  <scstep>
   <time name="diag">    1.81    1.81</time>
   <time name="diis">   21.73   21.76</time>
   <time name="orth">    0.42    0.42</time>
   <time name="total">   24.25   24.28</time>
   <energy>
    <i name="e_fr_energy">   -623.24364657 </i>
    <i name="e_wo_entrp">   -623.09076085 </i>
    <i name="e_0_energy">   -623.16720371 </i>
   </energy>
  </scstep>
  <scstep>
   <time name="diag">    1.84    1.86</time>
   <time name="diis">   20.89   20.91</time>
   <time name="orth">    0.42    0.42</time>
   <time name="total">   23.44   23.49</time>
   <energy>
    <i name="e_fr_energy">   -623.24449029 </i>
    <i name="e_wo_entrp">   -623.09113768 </i>
    <i name="e_0_energy">   -623.16781398 </i>
   </energy>
  </scstep>
  <scstep>
   <time name="diag">    1.82    1.82</time>
   <time name="diis">   21.35   21.37</time>
   <time name="orth">    0.42    0.42</time>
   <time name="total">   23.88   23.90</time>
   <energy>
    <i name="e_fr_energy">   -623.24502874 </i>
    <i name="e_wo_entrp">   -623.09188375 </i>
    <i name="e_0_energy">   -623.16845625 </i>
   </energy>
  </scstep>
  <scstep>
   <time name="diag">    1.79    1.80</time>
   <time name="diis">   20.85   20.95</time>
   <time name="orth">    0.42    0.42</time>
   <time name="total">   23.34   23.46</time>
   <energy>
    <i name="e_fr_energy">   -623.24525027 </i>
    <i name="e_wo_entrp">   -623.09210968 </i>
    <i name="e_0_energy">   -623.16867997 </i>
   </energy>
  </scstep>
  <scstep>
   <time name="diag">    1.80    1.80</time>
   <time name="diis">   20.65   20.70</time>
   <time name="orth">    0.41    0.41</time>
   <time name="total">   23.15   23.21</time>
   <energy>
    <i name="e_fr_energy">   -623.24568553 </i>
    <i name="e_wo_entrp">   -623.09257285 </i>
    <i name="e_0_energy">   -623.16912919 </i>
   </energy>
  </scstep>
  <scstep>
   <time name="diag">    1.82    1.84</time>
   <time name="diis">   20.49   20.64</time>
   <time name="orth">    0.42    0.42</time>
   <time name="total">   23.02   23.19</time>
   <energy>
    <i name="e_fr_energy">   -623.24582633 </i>
    <i name="e_wo_entrp">   -623.09269222 </i>
    <i name="e_0_energy">   -623.16925928 </i>
   </energy>
  </scstep>
  <scstep>
   <time name="diag">    1.80    1.81</time>
   <time name="diis">   18.47   18.58</time>
   <time name="orth">    0.42    0.42</time>
   <time name="total">   20.98   21.09</time>
   <energy>
    <i name="e_fr_energy">   -623.24603220 </i>
    <i name="e_wo_entrp">   -623.09289564 </i>
    <i name="e_0_energy">   -623.16946392 </i>
   </energy>
  </scstep>
  <scstep>
   <time name="diag">    1.79    1.80</time>
   <time name="diis">   17.32   17.36</time>
   <time name="orth">    0.42    0.42</time>
   <time name="total">   19.81   19.86</time>
   <energy>
    <i name="e_fr_energy">   -623.24613743 </i>
    <i name="e_wo_entrp">   -623.09296771 </i>
    <i name="e_0_energy">   -623.16955257 </i>
   </energy>
  </scstep>
  <scstep>
   <time name="diag">    1.82    1.82</time>
   <time name="diis">   17.31   17.37</time>
   <time name="orth">    0.42    0.42</time>
   <time name="total">   19.83   19.91</time>
   <energy>
    <i name="e_fr_energy">   -623.24621855 </i>
    <i name="e_wo_entrp">   -623.09305757 </i>
    <i name="e_0_energy">   -623.16963806 </i>
   </energy>
  </scstep>
  <scstep>
   <time name="diag">    1.80    1.80</time>
   <time name="diis">   16.75   16.87</time>
   <time name="orth">    0.42    0.42</time>
   <time name="total">   19.25   19.37</time>
   <energy>
    <i name="e_fr_energy">   -623.24626013 </i>
    <i name="e_wo_entrp">   -623.09309433 </i>
    <i name="e_0_energy">   -623.16967723 </i>
   </energy>
  </scstep>
  <scstep>
   <time name="diag">    1.80    1.80</time>
   <time name="diis">   16.50   16.54</time>
   <time name="orth">    0.42    0.42</time>
   <time name="total">   19.00   19.04</time>
   <energy>
    <i name="e_fr_energy">   -623.24629073 </i>
    <i name="e_wo_entrp">   -623.09312636 </i>
    <i name="e_0_energy">   -623.16970855 </i>
   </energy>
  </scstep>
  <scstep>
   <time name="diag">    1.85    1.85</time>
   <time name="diis">   15.22   15.26</time>
   <time name="orth">    0.42    0.42</time>
   <time name="total">   17.78   17.82</time>
   <energy>
    <i name="e_fr_energy">   -623.24631160 </i>
    <i name="e_wo_entrp">   -623.09314763 </i>
    <i name="e_0_energy">   -623.16972961 </i>
   </energy>
  </scstep>
  <scstep>
   <time name="diag">    1.82    1.82</time>
   <time name="diis">   14.49   14.54</time>
   <time name="orth">    0.42    0.42</time>
   <time name="total">   17.02   17.08</time>
   <energy>
    <i name="e_fr_energy">   -623.24632335 </i>
    <i name="e_wo_entrp">   -623.09315989 </i>
    <i name="e_0_energy">   -623.16974162 </i>
   </energy>
  </scstep>
  <scstep>
   <time name="diag">    1.80    1.80</time>
   <time name="diis">   13.57   13.66</time>
   <time name="orth">    0.41    0.41</time>
   <time name="total">   15.81   15.91</time>
   <energy>
    <i name="alphaZ">   3995.23272440 </i>
    <i name="ewald"> -40963.78103624 </i>
    <i name="hartreedc">  -9742.75531558 </i>
    <i name="XCdc">   1684.91997044 </i>
    <i name="pawpsdc">  33624.66582920 </i>
    <i name="pawaedc"> -33415.10917987 </i>
    <i name="eentropy">     -0.15316405 </i>
    <i name="bandstr">  -5204.44747083 </i>
    <i name="atom">  49398.18131157 </i>
    <i name="e_fr_energy">   -623.24633096 </i>
    <i name="e_wo_entrp">   -623.09316691 </i>
    <i name="e_0_energy">   -623.16974894 </i>
   </energy>
  </scstep>
  <structure>
   <crystal>
    <varray name="basis" >
     <v>       8.74329271      -0.01967750      -0.00354605 </v>
     <v>      -0.01411021       8.76740482       0.00617147 </v>
     <v>       0.02795852      -0.00906235       8.78829272 </v>
    </varray>
    <i name="volume">    673.67416412 </i>
    <varray name="rec_basis" >
     <v>       0.11437365       0.00018433      -0.00036367 </v>
     <v>       0.00025675       0.11405917       0.00011680 </v>
     <v>       0.00004597      -0.00008002       0.11378751 </v>
    </varray>
   </crystal>
   <varray name="positions" >
    <v>       0.00354324       0.98079713       0.02598666 </v>
    <v>       0.23376323       0.97794622       0.24927301 </v>
    <v>       0.26959907       0.51807198       0.24421851 </v>
    <v>       0.50086346       0.48018771       0.98841229 </v>
    <v>       0.47860951       0.23835042       0.75448582 </v>
    <v>       0.00263212       0.49856239       0.52905366 </v>
    <v>       0.50668756       0.74991918       0.73328110 </v>
    <v>       0.99640319       0.27487885       0.25755217 </v>
    <v>       0.74434390       0.74809181       0.00029434 </v>
    <v>       0.01145338       0.23367372       0.74440823 </v>
    <v>       0.75033689       0.25858394       0.51468074 </v>
    <v>       0.00051352       0.76001846       0.74816171 </v>
    <v>       0.25433876       0.50373980       0.75379566 </v>
    <v>       0.24144012       0.24525084       0.00284083 </v>
    <v>       0.49482825       0.24169206       0.24778333 </v>
    <v>       0.74040295       0.98977543       0.26052600 </v>
    <v>       0.75517409       0.24901626       0.98958541 </v>
    <v>       0.27071469       0.75784642       0.99844980 </v>
    <v>       0.25159931       0.25236223       0.49710914 </v>
    <v>       0.25039148       0.75055702       0.49881550 </v>
    <v>       0.24268821       0.25422638       0.24935509 </v>
    <v>       0.23827435       0.99961724       0.00271569 </v>
    <v>       0.99822451       0.23502632       0.00346491 </v>
    <v>       0.74968700       0.24820108       0.25409932 </v>
    <v>       0.75466212       0.99408656       0.99117912 </v>
    <v>       0.49218378       0.99251712       0.21798851 </v>
    <v>       0.00085197       0.50017962       0.24644366 </v>
    <v>       0.51242587       0.75144894       0.97902869 </v>
    <v>       0.00673008       0.99980308       0.75097958 </v>
    <v>       0.74899887       0.24394796       0.74542110 </v>
    <v>       0.74902345       0.00410669       0.51124408 </v>
    <v>       0.50559740       0.24256363       0.51059766 </v>
    <v>       0.50254176       0.99979077       0.75692111 </v>
    <v>       0.00156148       0.00355265       0.24872209 </v>
    <v>       0.49916415       0.24982826       0.98871414 </v>
    <v>       0.26464601       0.75130803       0.24911312 </v>
    <v>       0.24624730       0.50333983       0.00563007 </v>
    <v>       0.00232015       0.75020019       0.00093854 </v>
    <v>       0.74158668       0.73991208       0.24809352 </v>
    <v>       0.75873905       0.50372478       0.00257455 </v>
    <v>       0.49032330       0.51058829       0.24213003 </v>
    <v>       0.25620872       0.24266131       0.75061360 </v>
    <v>       0.25729810       0.00056044       0.49398828 </v>
    <v>       0.99678308       0.25566859       0.50098612 </v>
    <v>       0.25922405       0.75886972       0.74851953 </v>
    <v>       0.24558738       0.50226808       0.49357072 </v>
    <v>       0.99361224       0.74719923       0.49891173 </v>
    <v>       0.99967681       0.50061884       0.75413897 </v>
    <v>       0.74483880       0.76006998       0.74296799 </v>
    <v>       0.75932914       0.49720256       0.49714356 </v>
    <v>       0.50800951       0.77071296       0.49816403 </v>
    <v>       0.50481393       0.49812893       0.75139458 </v>
    <v>       0.52117727       0.02363119       0.98845244 </v>
    <v>       0.00165387       0.53060790       0.97089048 </v>
    <v>       0.50610311       0.73348046       0.28253188 </v>
    <v>       0.25534152       0.99892178       0.74014764 </v>
    <v>       0.47115981       0.00027069       0.54030714 </v>
    <v>       0.72060375       0.97642252       0.77075370 </v>
    <v>       0.00229226       0.75209895       0.25099911 </v>
    <v>       0.72147495       0.50655320       0.24426951 </v>
    <v>       0.01250063       0.00288316       0.48520845 </v>
    <v>       0.50191488       0.50983766       0.50204348 </v>
    <v>       0.74683109       0.51646818       0.75435002 </v>
    <v>       0.74944926       0.72757205       0.49557868 </v>
   </varray>
  </structure>
  <varray name="forces" >
   <v>      -0.01052230       0.00471384      -0.02599079 </v>
   <v>       0.00490882       0.02316966       0.00044084 </v>
   <v>      -0.00835555      -0.01027148       0.00232070 </v>
   <v>      -0.00332791       0.01388902       0.01479189 </v>
   <v>       0.01585877       0.02613485      -0.00195348 </v>
   <v>      -0.00742661      -0.00349931      -0.00962561 </v>
   <v>      -0.00492394      -0.01383339       0.00659969 </v>
   <v>      -0.00926383      -0.01202793      -0.00476498 </v>
   <v>       0.00052357       0.00490293      -0.00895950 </v>
   <v>      -0.00776011       0.01855534       0.01248105 </v>
   <v>       0.00092524      -0.00959895      -0.01058712 </v>
   <v>      -0.00085247      -0.00327501       0.00176666 </v>
   <v>      -0.00047632      -0.00256297       0.01148988 </v>
   <v>       0.00015691       0.01000613       0.00001627 </v>
   <v>      -0.00034502      -0.01169860       0.00768115 </v>
   <v>       0.01261687       0.00109594       0.00048332 </v>
   <v>      -0.00768606       0.00184797       0.00699729 </v>
   <v>      -0.00355768       0.00167078      -0.00033807 </v>
   <v>      -0.00490318      -0.00115922       0.00841901 </v>
   <v>      -0.00326125       0.00802050       0.00115764 </v>
   <v>      -0.00555921      -0.00386533       0.00196517 </v>
   <v>       0.00829971       0.00320251      -0.02239105 </v>
   <v>      -0.00415848       0.01752543       0.00588389 </v>
   <v>       0.00666780       0.00111031       0.00397839 </v>
   <v>       0.00680198       0.00406814      -0.00329656 </v>
   <v>      -0.01013908      -0.03366080      -0.00791402 </v>
   <v>      -0.00393964       0.02564055      -0.00278554 </v>
   <v>       0.00095632       0.00347028      -0.01126918 </v>
   <v>      -0.01696222      -0.00233569       0.01854727 </v>
   <v>      -0.02010163      -0.01717539      -0.00354183 </v>
   <v>      -0.00087899      -0.01769987       0.01669685 </v>
   <v>       0.00025536      -0.01225085       0.00866462 </v>
   <v>      -0.00768704      -0.00164362       0.01211390 </v>
   <v>       0.00528333       0.00993789      -0.00601941 </v>
   <v>      -0.00043371       0.00618462       0.00073399 </v>
   <v>       0.01735237       0.00421516      -0.00256927 </v>
   <v>      -0.00547946      -0.00031949       0.01599013 </v>
   <v>      -0.00039743      -0.00331481      -0.00012571 </v>
   <v>       0.00931945      -0.00364096      -0.00116918 </v>
   <v>      -0.00056782      -0.01131518      -0.01074392 </v>
   <v>      -0.00056509      -0.00066069      -0.01326766 </v>
   <v>       0.00454555      -0.00076770       0.00533800 </v>
   <v>       0.00078020       0.00410466      -0.00763984 </v>
   <v>      -0.00036995       0.01071514      -0.00105733 </v>
   <v>       0.00658876       0.00879056       0.00235534 </v>
   <v>      -0.00148708       0.00063610      -0.01219196 </v>
   <v>      -0.00359499      -0.00566114      -0.00140805 </v>
   <v>      -0.00265296      -0.00370468       0.00082581 </v>
   <v>      -0.00338434       0.00703893      -0.00403249 </v>
   <v>       0.01034859      -0.00484427      -0.00934245 </v>
   <v>      -0.00261773       0.00611496       0.01074051 </v>
   <v>       0.00254309      -0.00851490       0.01063197 </v>
   <v>      -0.02587697      -0.01279795      -0.00412653 </v>
   <v>      -0.00092201      -0.02941586       0.01844158 </v>
   <v>       0.00662240       0.02186915      -0.01913573 </v>
   <v>       0.00987968       0.00131384       0.01889400 </v>
   <v>       0.01980558       0.00241524      -0.00913362 </v>
   <v>       0.02411963       0.03677425      -0.02071231 </v>
   <v>      -0.00196754      -0.01498131       0.00817367 </v>
   <v>       0.02532346      -0.02504575      -0.01120892 </v>
   <v>      -0.00822744      -0.00143782       0.01903830 </v>
   <v>      -0.00366303      -0.01400491      -0.00289895 </v>
   <v>      -0.00112896      -0.02075512      -0.00432011 </v>
   <v>       0.00494156       0.02860627       0.00086245 </v>
  </varray>
  <varray name="stress" >
   <v>      -0.15749832      -0.33651075       0.07409048 </v>
   <v>      -0.33650904      -0.97026823       0.11893552 </v>
   <v>       0.07409040       0.11893691       0.05342737 </v>
  </varray>
  <energy>
   <i name="e_fr_energy">   -623.24633096 </i>
   <i name="e_wo_entrp">   -623.16974894 </i>
   <i name="e_0_energy">     -0.15316405 </i>
  </energy>
  <time name="totalsc">  874.66  877.54</time>
 </calculation>
 <calculation>
  <scstep>
   <time name="dav">   25.38   25.43</time>
   <time name="total">   25.69   25.74</time>
   <energy>
    <i name="alphaZ">   3996.59362717 </i>
    <i name="ewald"> -40970.25432883 </i>
    <i name="hartreedc">  -9742.41592755 </i>
    <i name="XCdc">   1685.12659461 </i>
    <i name="pawpsdc">  33624.76812937 </i>
    <i name="pawaedc"> -33415.17908284 </i>
    <i name="eentropy">     -0.15293613 </i>
    <i name="bandstr">  -5199.90861756 </i>
    <i name="atom">  49398.18131157 </i>
    <i name="e_fr_energy">   -623.24123019 </i>
    <i name="e_wo_entrp">   -623.08829406 </i>
    <i name="e_0_energy">   -623.16476212 </i>
   </energy>
  </scstep>
  <scstep>
   <time name="diag">    1.80    1.82</time>
   <time name="diis">   20.27   20.39</time>
   <time name="orth">    0.42    0.42</time>
   <time name="total">   22.78   22.93</time>
   <energy>
    <i name="e_fr_energy">   -623.25170003 </i>
    <i name="e_wo_entrp">   -623.09789248 </i>
    <i name="e_0_energy">   -623.17479625 </i>
   </energy>
  </scstep>
  <scstep>
   <time name="diag">    1.83    1.83</time>
   <time name="diis">   17.04   17.12</time>
   <time name="orth">    0.42    0.42</time>
   <time name="total">   19.57   19.67</time>
   <energy>
    <i name="e_fr_energy">   -623.24815852 </i>
    <i name="e_wo_entrp">   -623.09504587 </i>
    <i name="e_0_energy">   -623.17160220 </i>
   </energy>
  </scstep>
  <scstep>
   <time name="diag">    1.82    1.82</time>
   <time name="diis">   18.57   18.66</time>
   <time name="orth">    0.42    0.42</time>
   <time name="total">   21.10   21.19</time>
   <energy>
    <i name="e_fr_energy">   -623.24763943 </i>
    <i name="e_wo_entrp">   -623.09437508 </i>
    <i name="e_0_energy">   -623.17100726 </i>
   </energy>
  </scstep>
  <scstep>
   <time name="diag">    1.81    1.81</time>
   <time name="diis">   15.70   15.76</time>
   <time name="orth">    0.41    0.41</time>
   <time name="total">   18.21   18.27</time>
   <energy>
    <i name="e_fr_energy">   -623.24762242 </i>
    <i name="e_wo_entrp">   -623.09447425 </i>
    <i name="e_0_energy">   -623.17104834 </i>
   </energy>
  </scstep>
  <scstep>
   <time name="diag">    1.81    1.81</time>
   <time name="diis">   15.55   15.66</time>
   <time name="orth">    0.41    0.42</time>
   <time name="total">   18.07   18.18</time>
   <energy>
    <i name="e_fr_energy">   -623.24731404 </i>
    <i name="e_wo_entrp">   -623.09404421 </i>
    <i name="e_0_energy">   -623.17067913 </i>
   </energy>
  </scstep>
  <scstep>
   <time name="diag">    1.81    1.81</time>
   <time name="diis">   14.27   14.35</time>
   <time name="orth">    0.42    0.42</time>
   <time name="total">   16.78   16.86</time>
   <energy>
    <i name="e_fr_energy">   -623.24733696 </i>
    <i name="e_wo_entrp">   -623.09414342 </i>
    <i name="e_0_energy">   -623.17074019 </i>
   </energy>
  </scstep>
  <scstep>
   <time name="diag">    1.82    1.82</time>
   <time name="diis">   16.67   16.71</time>
   <time name="orth">    0.42    0.42</time>
   <time name="total">   19.18   19.23</time>
   <energy>
    <i name="e_fr_energy">   -623.24730401 </i>
    <i name="e_wo_entrp">   -623.09397233 </i>
    <i name="e_0_energy">   -623.17063817 </i>
   </energy>
  </scstep>
  <scstep>
   <time name="diag">    1.84    1.85</time>
   <time name="diis">   14.36   14.43</time>
   <time name="orth">    0.44    0.45</time>
   <time name="total">   16.93   17.02</time>
   <energy>
    <i name="e_fr_energy">   -623.24724453 </i>
    <i name="e_wo_entrp">   -623.09394682 </i>
    <i name="e_0_energy">   -623.17059568 </i>
   </energy>
  </scstep>
  <scstep>
   <time name="diag">    1.80    1.80</time>
   <time name="diis">    9.89    9.90</time>
   <time name="orth">    0.42    0.42</time>
   <time name="total">   12.14   12.16</time>
   <energy>
    <i name="alphaZ">   3996.59362717 </i>
    <i name="ewald"> -40970.25432883 </i>
    <i name="hartreedc">  -9739.40722089 </i>
    <i name="XCdc">   1684.96233653 </i>
    <i name="pawpsdc">  33624.77161114 </i>
    <i name="pawaedc"> -33415.21915146 </i>
    <i name="eentropy">     -0.15322695 </i>
    <i name="bandstr">  -5202.72220543 </i>
    <i name="atom">  49398.18131157 </i>
    <i name="e_fr_energy">   -623.24724714 </i>
    <i name="e_wo_entrp">   -623.09402020 </i>
    <i name="e_0_energy">   -623.17063367 </i>
   </energy>
  </scstep>
  <structure>
   <crystal>
    <varray name="basis" >
     <v>       8.74285827      -0.02060411      -0.00334154 </v>
     <v>      -0.01504447       8.76471035       0.00650174 </v>
     <v>       0.02816447      -0.00873125       8.78844186 </v>
    </varray>
    <i name="volume">    673.44476751 </i>
    <varray name="rec_basis" >
     <v>       0.11437939       0.00019660      -0.00036636 </v>
     <v>       0.00026893       0.11409428       0.00011249 </v>
     <v>       0.00004329      -0.00008433       0.11378559 </v>
    </varray>
   </crystal>
   <varray name="positions" >
    <v>       0.00348568       0.98082279       0.02584394 </v>
    <v>       0.23379051       0.97807378       0.24927535 </v>
    <v>       0.26955284       0.51801537       0.24423127 </v>
    <v>       0.50084496       0.48026418       0.98849343 </v>
    <v>       0.47869729       0.23849441       0.75447503 </v>
    <v>       0.00259128       0.49854299       0.52900082 </v>
    <v>       0.50666015       0.74984304       0.73331738 </v>
    <v>       0.99635205       0.27481253       0.25752604 </v>
    <v>       0.74434699       0.74811875       0.00024514 </v>
    <v>       0.01141050       0.23377580       0.74447665 </v>
    <v>       0.75034210       0.25853107       0.51462267 </v>
    <v>       0.00050876       0.76000044       0.74817142 </v>
    <v>       0.25433591       0.50372576       0.75385874 </v>
    <v>       0.24144107       0.24530590       0.00284088 </v>
    <v>       0.49482611       0.24162773       0.24782554 </v>
    <v>       0.74047257       0.98978162       0.26052867 </v>
    <v>       0.75513157       0.24902638       0.98962379 </v>
    <v>       0.27069508       0.75785557       0.99844793 </v>
    <v>       0.25157210       0.25235584       0.49715535 </v>
    <v>       0.25037354       0.75060112       0.49882181 </v>
    <v>       0.24265746       0.25420505       0.24936588 </v>
    <v>       0.23832057       0.99963484       0.00259278 </v>
    <v>       0.99820161       0.23512274       0.00349713 </v>
    <v>       0.74972373       0.24820730       0.25412116 </v>
    <v>       0.75469974       0.99410901       0.99116102 </v>
    <v>       0.49212768       0.99233173       0.21794517 </v>
    <v>       0.00083051       0.50032064       0.24642826 </v>
    <v>       0.51243138       0.75146799       0.97896682 </v>
    <v>       0.00663614       0.99979013       0.75108137 </v>
    <v>       0.74888787       0.24385319       0.74540168 </v>
    <v>       0.74901815       0.00400938       0.51133580 </v>
    <v>       0.50559854       0.24249627       0.51064527 </v>
    <v>       0.50249912       0.99978170       0.75698759 </v>
    <v>       0.00159083       0.00360736       0.24868903 </v>
    <v>       0.49916180       0.24986229       0.98871814 </v>
    <v>       0.26474184       0.75133142       0.24909904 </v>
    <v>       0.24621678       0.50333809       0.00571783 </v>
    <v>       0.00231793       0.75018195       0.00093786 </v>
    <v>       0.74163809       0.73989215       0.24808713 </v>
    <v>       0.75873601       0.50366246       0.00251562 </v>
    <v>       0.49032041       0.51058457       0.24205720 </v>
    <v>       0.25623370       0.24265717       0.75064292 </v>
    <v>       0.25730258       0.00058299       0.49394632 </v>
    <v>       0.99678115       0.25572753       0.50098028 </v>
    <v>       0.25926044       0.75891819       0.74853244 </v>
    <v>       0.24557939       0.50227149       0.49350379 </v>
    <v>       0.99359238       0.74716803       0.49890402 </v>
    <v>       0.99966213       0.50059842       0.75414351 </v>
    <v>       0.74482026       0.76010865       0.74294582 </v>
    <v>       0.75938636       0.49717598       0.49709231 </v>
    <v>       0.50799493       0.77074664       0.49822296 </v>
    <v>       0.50482770       0.49808217       0.75145298 </v>
    <v>       0.52103445       0.02356043       0.98842978 </v>
    <v>       0.00164820       0.53044613       0.97099182 </v>
    <v>       0.50614018       0.73360077       0.28242677 </v>
    <v>       0.25539571       0.99892924       0.74025137 </v>
    <v>       0.47126927       0.00028417       0.54025704 </v>
    <v>       0.72073752       0.97662506       0.77063992 </v>
    <v>       0.00228112       0.75201653       0.25104403 </v>
    <v>       0.72161466       0.50641563       0.24420814 </v>
    <v>       0.01245489       0.00287526       0.48531295 </v>
    <v>       0.50189459       0.50976053       0.50202762 </v>
    <v>       0.74682475       0.51635393       0.75432639 </v>
    <v>       0.74947676       0.72772953       0.49558332 </v>
   </varray>
  </structure>
  <varray name="forces" >
   <v>      -0.00560860      -0.00398949      -0.00864024 </v>
   <v>      -0.00238656       0.01526293       0.00048984 </v>
   <v>       0.00079816      -0.00253136       0.00232958 </v>
   <v>       0.00190838       0.00698752       0.01287106 </v>
   <v>       0.00665450       0.02020265       0.00203617 </v>
   <v>      -0.00354266      -0.00198879      -0.00350288 </v>
   <v>       0.00165104      -0.00685000      -0.00067204 </v>
   <v>      -0.00018344      -0.01427180       0.00168175 </v>
   <v>       0.00367027      -0.00106160      -0.00706640 </v>
   <v>      -0.00702482       0.01903213       0.00418376 </v>
   <v>       0.00293824      -0.00768995      -0.00402384 </v>
   <v>      -0.00492143      -0.00523312       0.00509832 </v>
   <v>      -0.00221951      -0.00479235       0.00509724 </v>
   <v>       0.00394940       0.00451389       0.00417963 </v>
   <v>      -0.00445540      -0.01077948       0.00432119 </v>
   <v>       0.01091237       0.00020387      -0.00771128 </v>
   <v>      -0.00887878      -0.00712430       0.00201702 </v>
   <v>      -0.00523424       0.00317564       0.00338906 </v>
   <v>      -0.00099551      -0.00046797       0.00396248 </v>
   <v>       0.00373141       0.00271743      -0.00387632 </v>
   <v>      -0.00096978      -0.00515172       0.00324173 </v>
   <v>       0.01082649       0.00703836      -0.02330615 </v>
   <v>      -0.00285809       0.02295773       0.00083363 </v>
   <v>      -0.00107835      -0.00425920       0.00143514 </v>
   <v>       0.00322385       0.00429010      -0.00290924 </v>
   <v>      -0.00420631      -0.02877560      -0.00658991 </v>
   <v>      -0.00346737       0.00961911      -0.00352034 </v>
   <v>      -0.00009877       0.00233416      -0.00640382 </v>
   <v>      -0.01696147       0.00246024       0.01778284 </v>
   <v>      -0.01520503      -0.01701804       0.00001009 </v>
   <v>      -0.00106051      -0.01683252       0.01236444 </v>
   <v>       0.00013401      -0.00790990       0.00172509 </v>
   <v>      -0.00257605      -0.00463487      -0.00171451 </v>
   <v>       0.00500520       0.00365709      -0.00234583 </v>
   <v>      -0.00384148       0.00310095       0.00607590 </v>
   <v>       0.00675472       0.00628744       0.00164383 </v>
   <v>      -0.00427748       0.00126758       0.00891275 </v>
   <v>      -0.00156373      -0.00634246       0.00025897 </v>
   <v>       0.00828728      -0.00350957      -0.00409140 </v>
   <v>      -0.00213072      -0.00017393      -0.00568572 </v>
   <v>       0.01070325       0.00104567      -0.00460847 </v>
   <v>       0.00129120       0.00388379       0.00303336 </v>
   <v>       0.00883224       0.00400978      -0.00392519 </v>
   <v>      -0.00133747       0.00486750       0.00320807 </v>
   <v>       0.00234605       0.00252229       0.00199138 </v>
   <v>      -0.00113707       0.00125930      -0.00544091 </v>
   <v>       0.00320830      -0.00328212       0.00211390 </v>
   <v>      -0.00172368      -0.00463212       0.00172095 </v>
   <v>       0.00047598       0.00185919      -0.00285526 </v>
   <v>       0.00053715       0.00725387      -0.00726783 </v>
   <v>       0.00019345       0.00161016      -0.00478113 </v>
   <v>      -0.00235432      -0.00667335       0.00192861 </v>
   <v>      -0.00832379      -0.00655861      -0.00127002 </v>
   <v>       0.00158665      -0.01580056       0.00959505 </v>
   <v>       0.00438790       0.00990230       0.00056274 </v>
   <v>       0.01087156       0.00315478       0.00740506 </v>
   <v>       0.00206565       0.00183868       0.00935060 </v>
   <v>       0.00430061       0.02609669      -0.00926367 </v>
   <v>       0.00269630      -0.00055607      -0.00206519 </v>
   <v>      -0.00283521      -0.00270208      -0.00818101 </v>
   <v>      -0.00525216       0.00694086       0.00252234 </v>
   <v>       0.00738946      -0.00062409      -0.00622406 </v>
   <v>      -0.00012110      -0.00957764      -0.00347081 </v>
   <v>      -0.00250017       0.00044098       0.00203989 </v>
  </varray>
  <varray name="stress" >
   <v>       0.21776751      -0.04068940       0.00602098 </v>
   <v>      -0.04068958       0.08031959       0.07822030 </v>
   <v>       0.00602073       0.07822048       0.06089296 </v>
  </varray>
  <energy>
   <i name="e_fr_energy">   -623.24724714 </i>
   <i name="e_wo_entrp">   -623.17063367 </i>
   <i name="e_0_energy">     -0.15322695 </i>
  </energy>
  <time name="totalsc">  232.26  233.14</time>
 </calculation>
 <calculation>
  <scstep>
   <time name="dav">   23.44   23.58</time>
   <time name="total">   23.73   23.87</time>
   <energy>
    <i name="alphaZ">   3997.58118716 </i>
    <i name="ewald"> -40974.93363372 </i>
    <i name="hartreedc">  -9739.17214491 </i>
    <i name="XCdc">   1685.11233833 </i>
    <i name="pawpsdc">  33624.94455425 </i>
    <i name="pawaedc"> -33415.38987733 </i>
    <i name="eentropy">     -0.15310474 </i>
    <i name="bandstr">  -5199.41493501 </i>
    <i name="atom">  49398.18131157 </i>
    <i name="e_fr_energy">   -623.24430440 </i>
    <i name="e_wo_entrp">   -623.09119965 </i>
    <i name="e_0_energy">   -623.16775203 </i>
   </energy>
  </scstep>
  <scstep>
   <time name="diag">    1.80    1.80</time>
   <time name="diis">   19.76   19.83</time>
   <time name="orth">    0.41    0.41</time>
   <time name="total">   22.26   22.34</time>
   <energy>
    <i name="e_fr_energy">   -623.24969486 </i>
    <i name="e_wo_entrp">   -623.09599393 </i>
    <i name="e_0_energy">   -623.17284440 </i>
   </energy>
  </scstep>
  <scstep>
   <time name="diag">    1.81    1.84</time>
   <time name="diis">   16.17   16.29</time>
   <time name="orth">    0.42    0.42</time>
   <time name="total">   18.69   18.84</time>
   <energy>
    <i name="e_fr_energy">   -623.24788163 </i>
    <i name="e_wo_entrp">   -623.09460750 </i>
    <i name="e_0_energy">   -623.17124456 </i>
   </energy>
  </scstep>
  <scstep>
   <time name="diag">    1.83    1.85</time>
   <time name="diis">   17.62   17.71</time>
   <time name="orth">    0.42    0.42</time>
   <time name="total">   20.16   20.27</time>
   <energy>
    <i name="e_fr_energy">   -623.24760982 </i>
    <i name="e_wo_entrp">   -623.09430402 </i>
    <i name="e_0_energy">   -623.17095692 </i>
   </energy>
  </scstep>
  <scstep>
   <time name="diag">    1.81    1.81</time>
   <time name="diis">   15.21   15.25</time>
   <time name="orth">    0.41    0.41</time>
   <time name="total">   17.72   17.77</time>
   <energy>
    <i name="e_fr_energy">   -623.24761104 </i>
    <i name="e_wo_entrp">   -623.09431819 </i>
    <i name="e_0_energy">   -623.17096462 </i>
   </energy>
  </scstep>
  <scstep>
   <time name="diag">    1.81    1.81</time>
   <time name="diis">   14.10   14.15</time>
   <time name="orth">    0.41    0.41</time>
   <time name="total">   16.62   16.66</time>
   <energy>
    <i name="e_fr_energy">   -623.24745567 </i>
    <i name="e_wo_entrp">   -623.09412805 </i>
    <i name="e_0_energy">   -623.17079186 </i>
   </energy>
  </scstep>
  <scstep>
   <time name="diag">    1.80    1.80</time>
   <time name="diis">   12.60   12.63</time>
   <time name="orth">    0.41    0.41</time>
   <time name="total">   15.10   15.13</time>
   <energy>
    <i name="e_fr_energy">   -623.24745573 </i>
    <i name="e_wo_entrp">   -623.09414952 </i>
    <i name="e_0_energy">   -623.17080263 </i>
   </energy>
  </scstep>
  <scstep>
   <time name="diag">    1.81    1.81</time>
   <time name="diis">   14.18   14.22</time>
   <time name="orth">    0.41    0.41</time>
   <time name="total">   16.69   16.73</time>
   <energy>
    <i name="e_fr_energy">   -623.24744953 </i>
    <i name="e_wo_entrp">   -623.09407544 </i>
    <i name="e_0_energy">   -623.17076248 </i>
   </energy>
  </scstep>
  <scstep>
   <time name="diag">    1.85    1.85</time>
   <time name="diis">   12.93   12.95</time>
   <time name="orth">    0.41    0.41</time>
   <time name="total">   15.46   15.49</time>
   <energy>
    <i name="e_fr_energy">   -623.24741928 </i>
    <i name="e_wo_entrp">   -623.09405431 </i>
    <i name="e_0_energy">   -623.17073680 </i>
   </energy>
  </scstep>
  <scstep>
   <time name="diag">    1.83    1.83</time>
   <time name="diis">    9.58    9.62</time>
   <time name="orth">    0.43    0.44</time>
   <time name="total">   11.87   11.93</time>
   <energy>
    <i name="alphaZ">   3997.58118716 </i>
    <i name="ewald"> -40974.93363372 </i>
    <i name="hartreedc">  -9737.10427972 </i>
    <i name="XCdc">   1684.99963691 </i>
    <i name="pawpsdc">  33625.41245923 </i>
    <i name="pawaedc"> -33415.84494675 </i>
    <i name="eentropy">     -0.15329649 </i>
    <i name="bandstr">  -5201.38586166 </i>
    <i name="atom">  49398.18131157 </i>
    <i name="e_fr_energy">   -623.24742346 </i>
    <i name="e_wo_entrp">   -623.09412697 </i>
    <i name="e_0_energy">   -623.17077522 </i>
   </energy>
  </scstep>
  <structure>
   <crystal>
    <varray name="basis" >
     <v>       8.74254320      -0.02127612      -0.00319322 </v>
     <v>      -0.01572201       8.76275625       0.00674127 </v>
     <v>       0.02831382      -0.00849113       8.78855001 </v>
    </varray>
    <i name="volume">    673.27840013 </i>
    <varray name="rec_basis" >
     <v>       0.11438356       0.00020551      -0.00036831 </v>
     <v>       0.00027777       0.11411976       0.00010936 </v>
     <v>       0.00004135      -0.00008746       0.11378419 </v>
    </varray>
   </crystal>
   <varray name="positions" >
    <v>       0.00344394       0.98084141       0.02574044 </v>
    <v>       0.23381031       0.97816631       0.24927704 </v>
    <v>       0.26951930       0.51797430       0.24424053 </v>
    <v>       0.50083155       0.48031965       0.98855227 </v>
    <v>       0.47876095       0.23859887       0.75446720 </v>
    <v>       0.00256166       0.49852891       0.52896250 </v>
    <v>       0.50664027       0.74978780       0.73334368 </v>
    <v>       0.99631496       0.27476441       0.25750709 </v>
    <v>       0.74434923       0.74813829       0.00020946 </v>
    <v>       0.01137942       0.23384985       0.74452627 </v>
    <v>       0.75034587       0.25849272       0.51458055 </v>
    <v>       0.00050530       0.75998736       0.74817846 </v>
    <v>       0.25433384       0.50371557       0.75390449 </v>
    <v>       0.24144177       0.24534584       0.00284092 </v>
    <v>       0.49482455       0.24158106       0.24785615 </v>
    <v>       0.74052306       0.98978611       0.26053061 </v>
    <v>       0.75510074       0.24903371       0.98965163 </v>
    <v>       0.27068086       0.75786220       0.99844657 </v>
    <v>       0.25155237       0.25235120       0.49718887 </v>
    <v>       0.25036053       0.75063311       0.49882639 </v>
    <v>       0.24263517       0.25418958       0.24937371 </v>
    <v>       0.23835409       0.99964761       0.00250365 </v>
    <v>       0.99818502       0.23519268       0.00352050 </v>
    <v>       0.74975037       0.24821181       0.25413701 </v>
    <v>       0.75472703       0.99412530       0.99114790 </v>
    <v>       0.49208697       0.99219723       0.21791375 </v>
    <v>       0.00081495       0.50042295       0.24641709 </v>
    <v>       0.51243537       0.75148180       0.97892195 </v>
    <v>       0.00656801       0.99978072       0.75115518 </v>
    <v>       0.74880735       0.24378442       0.74538760 </v>
    <v>       0.74901430       0.00393879       0.51140232 </v>
    <v>       0.50559937       0.24244740       0.51067980 </v>
    <v>       0.50246819       0.99977512       0.75703581 </v>
    <v>       0.00161212       0.00364706       0.24866504 </v>
    <v>       0.49916010       0.24988697       0.98872104 </v>
    <v>       0.26481134       0.75134840       0.24908883 </v>
    <v>       0.24619465       0.50333683       0.00578148 </v>
    <v>       0.00231632       0.75016871       0.00093737 </v>
    <v>       0.74167538       0.73987770       0.24808250 </v>
    <v>       0.75873380       0.50361724       0.00247288 </v>
    <v>       0.49031831       0.51058188       0.24200438 </v>
    <v>       0.25625181       0.24265417       0.75066417 </v>
    <v>       0.25730583       0.00059936       0.49391590 </v>
    <v>       0.99677976       0.25577030       0.50097604 </v>
    <v>       0.25928684       0.75895335       0.74854180 </v>
    <v>       0.24557360       0.50227397       0.49345525 </v>
    <v>       0.99357797       0.74714539       0.49889842 </v>
    <v>       0.99965147       0.50058361       0.75414680 </v>
    <v>       0.74480682       0.76013670       0.74292974 </v>
    <v>       0.75942786       0.49715670       0.49705515 </v>
    <v>       0.50798436       0.77077106       0.49826569 </v>
    <v>       0.50483768       0.49804824       0.75149534 </v>
    <v>       0.52093086       0.02350908       0.98841335 </v>
    <v>       0.00164407       0.53032877       0.97106532 </v>
    <v>       0.50616707       0.73368805       0.28235053 </v>
    <v>       0.25543502       0.99893465       0.74032660 </v>
    <v>       0.47134866       0.00029396       0.54022070 </v>
    <v>       0.72083456       0.97677200       0.77055739 </v>
    <v>       0.00227304       0.75195675       0.25107661 </v>
    <v>       0.72171596       0.50631585       0.24416363 </v>
    <v>       0.01242171       0.00286951       0.48538873 </v>
    <v>       0.50187988       0.50970458       0.50201611 </v>
    <v>       0.74682014       0.51627105       0.75430925 </v>
    <v>       0.74949672       0.72784377       0.49558667 </v>
   </varray>
  </structure>
  <varray name="forces" >
   <v>      -0.00253299      -0.00942464       0.00250721 </v>
   <v>      -0.00849720       0.00928160       0.00038569 </v>
   <v>       0.00789760       0.00278803       0.00270504 </v>
   <v>       0.00541306       0.00296590       0.01168376 </v>
   <v>       0.00085340       0.01673965       0.00462613 </v>
   <v>      -0.00038136      -0.00099709       0.00307207 </v>
   <v>       0.00715692      -0.00211842      -0.00258400 </v>
   <v>       0.00688048      -0.01507752       0.00741140 </v>
   <v>       0.00591836      -0.00469116      -0.00698033 </v>
   <v>      -0.00572844       0.01705370      -0.00366594 </v>
   <v>       0.00548788      -0.00606193       0.00132268 </v>
   <v>      -0.00717030      -0.00704938       0.00716561 </v>
   <v>      -0.00366939      -0.00465278      -0.00142877 </v>
   <v>       0.00629557      -0.00008924       0.00659230 </v>
   <v>      -0.00740305      -0.00916314       0.00194775 </v>
   <v>       0.00993232      -0.00022384      -0.01264077 </v>
   <v>      -0.00882991      -0.01380411      -0.00297315 </v>
   <v>      -0.00692530       0.00349782       0.00579989 </v>
   <v>       0.00082059       0.00040504       0.00174116 </v>
   <v>       0.00765337      -0.00220990      -0.00674606 </v>
   <v>       0.00232173      -0.00593386       0.00419943 </v>
   <v>       0.01143863       0.00950297      -0.02288215 </v>
   <v>      -0.00174063       0.02612781      -0.00280923 </v>
   <v>      -0.00642411      -0.00807307      -0.00021252 </v>
   <v>       0.00016235       0.00404037      -0.00145602 </v>
   <v>       0.00037021      -0.02502159      -0.00551873 </v>
   <v>      -0.00335033      -0.00090838      -0.00410070 </v>
   <v>      -0.00078337       0.00153781      -0.00375718 </v>
   <v>      -0.01629933       0.00576833       0.01699759 </v>
   <v>      -0.01137219      -0.01586567       0.00225107 </v>
   <v>      -0.00153085      -0.01675107       0.00821272 </v>
   <v>      -0.00061764      -0.00433205      -0.00242377 </v>
   <v>       0.00127378      -0.00559883      -0.01172338 </v>
[...]
      </set>
     </set>
    </set>
   </array>
  </eigenvalues>
  <separator name="orbital magnetization" >
   <v name="MAGDIPOLOUT">      0.00000000      0.00000000      0.00000000</v>
  </separator>
  <dos>
   <i name="efermi">      8.58584378 </i>
   <total>
    <array>
     <dimension dim="1">gridpoints</dimension>
     <dimension dim="2">spin</dimension>
     <field>energy</field>
     <field>total</field>
     <field>integrated</field>
     <set>
      <set comment="spin 1">
       <r>   -59.7845     0.0000     0.0000 </r>
       <r>   -59.5368     0.0000     0.0000 </r>
       <r>   -59.2891     0.0000     0.0000 </r>
       <r>   -59.0413     0.0000     0.0000 </r>
       <r>   -58.7936     0.0000     0.0000 </r>
       <r>   -58.5459     0.0000     0.0000 </r>
       <r>   -58.2982     0.0000     0.0000 </r>
       <r>   -58.0504     0.0000     0.0000 </r>
       <r>   -57.8027     0.0000     0.0000 </r>
       <r>   -57.5550     0.0000     0.0000 </r>
       <r>   -57.3073     0.0000     0.0000 </r>
       <r>   -57.0596     0.0000     0.0000 </r>
       <r>   -56.8118     0.0000     0.0000 </r>
       <r>   -56.5641     0.1062     0.0263 </r>
       <r>   -56.3164    15.8228     3.9460 </r>
       <r>   -56.0687    38.6131    13.5114 </r>
       <r>   -55.8209     1.9723    14.0000 </r>
       <r>   -55.5732     0.0000    14.0000 </r>
       <r>   -55.3255     0.0000    14.0000 </r>
       <r>   -55.0778     0.0000    14.0000 </r>
       <r>   -54.8300     0.0000    14.0000 </r>
       <r>   -54.5823     0.0000    14.0000 </r>
       <r>   -54.3346     0.0000    14.0000 </r>
       <r>   -54.0869     0.0000    14.0000 </r>
       <r>   -53.8391     0.0000    14.0000 </r>
       <r>   -53.5914     0.0000    14.0000 </r>
       <r>   -53.3437     0.0000    14.0000 </r>
       <r>   -53.0960     0.0000    14.0000 </r>
       <r>   -52.8482     0.0000    14.0000 </r>
       <r>   -52.6005     0.0000    14.0000 </r>
       <r>   -52.3528     0.0000    14.0000 </r>
       <r>   -52.1051     0.0000    14.0000 </r>
       <r>   -51.8573     0.0000    14.0000 </r>
       <r>   -51.6096     0.0000    14.0000 </r>
       <r>   -51.3619     0.0000    14.0000 </r>
       <r>   -51.1142     0.0000    14.0000 </r>
       <r>   -50.8664     0.0000    14.0000 </r>
       <r>   -50.6187     0.0000    14.0000 </r>
       <r>   -50.3710     0.0000    14.0000 </r>
       <r>   -50.1233     0.0000    14.0000 </r>
       <r>   -49.8755     0.0000    14.0000 </r>
       <r>   -49.6278     0.0000    14.0000 </r>
       <r>   -49.3801     0.0000    14.0000 </r>
       <r>   -49.1324     0.0000    14.0000 </r>
       <r>   -48.8846     0.0000    14.0000 </r>
       <r>   -48.6369     0.0000    14.0000 </r>
       <r>   -48.3892     0.0000    14.0000 </r>
       <r>   -48.1415     0.0000    14.0000 </r>
       <r>   -47.8937     0.0000    14.0000 </r>
       <r>   -47.6460     1.2147    14.3009 </r>
       <r>   -47.3983    14.3056    17.8448 </r>
       <r>   -47.1506    17.7603    22.2444 </r>
       <r>   -46.9028    12.8406    25.4254 </r>
       <r>   -46.6551     2.3194    26.0000 </r>
       <r>   -46.4074     0.0002    26.0000 </r>
       <r>   -46.1597     0.0000    26.0000 </r>
       <r>   -45.9120     0.0000    26.0000 </r>
       <r>   -45.6642     0.0000    26.0000 </r>
       <r>   -45.4165     0.0000    26.0000 </r>
       <r>   -45.1688     0.0000    26.0000 </r>
       <r>   -44.9211     0.0000    26.0000 </r>
       <r>   -44.6733     0.0000    26.0000 </r>
       <r>   -44.4256     0.0000    26.0000 </r>
       <r>   -44.1779     0.0000    26.0000 </r>
       <r>   -43.9302     0.0000    26.0000 </r>
       <r>   -43.6824     0.0000    26.0000 </r>
       <r>   -43.4347     0.0000    26.0000 </r>
       <r>   -43.1870     0.0000    26.0000 </r>
       <r>   -42.9393     0.0000    26.0000 </r>
       <r>   -42.6915     0.0000    26.0000 </r>
       <r>   -42.4438     0.0000    26.0000 </r>
       <r>   -42.1961     0.0000    26.0000 </r>
       <r>   -41.9484     0.0000    26.0000 </r>
       <r>   -41.7006     0.0000    26.0000 </r>
       <r>   -41.4529     0.0000    26.0000 </r>
       <r>   -41.2052     0.0000    26.0000 </r>
       <r>   -40.9575     0.0000    26.0000 </r>
       <r>   -40.7097     0.3001    26.0743 </r>
       <r>   -40.4620    13.1434    29.3303 </r>
       <r>   -40.2143     9.2434    31.6201 </r>
       <r>   -39.9666     5.9853    33.1028 </r>
       <r>   -39.7188    18.3658    37.6524 </r>
       <r>   -39.4711     5.6602    39.0546 </r>
       <r>   -39.2234     3.8149    39.9996 </r>
       <r>   -38.9757     0.0014    40.0000 </r>
       <r>   -38.7279     0.0000    40.0000 </r>
       <r>   -38.4802     0.0000    40.0000 </r>
       <r>   -38.2325     0.0000    40.0000 </r>
       <r>   -37.9848     0.0000    40.0000 </r>
       <r>   -37.7370     0.0000    40.0000 </r>
       <r>   -37.4893     0.0000    40.0000 </r>
       <r>   -37.2416     0.0000    40.0000 </r>
       <r>   -36.9939     0.0000    40.0000 </r>
       <r>   -36.7461     0.0000    40.0000 </r>
       <r>   -36.4984     0.0000    40.0000 </r>
       <r>   -36.2507     0.0000    40.0000 </r>
       <r>   -36.0030     0.0000    40.0000 </r>
       <r>   -35.7553     0.0000    40.0000 </r>
       <r>   -35.5075     0.0000    40.0000 </r>
       <r>   -35.2598     2.0947    40.5189 </r>
       <r>   -35.0121    60.0264    55.3889 </r>
       <r>   -34.7644    79.8672    75.1740 </r>
       <r>   -34.5166     3.3343    76.0000 </r>
       <r>   -34.2689     0.0002    76.0000 </r>
       <r>   -34.0212     0.0000    76.0000 </r>
       <r>   -33.7735     0.0000    76.0000 </r>
       <r>   -33.5257     0.0000    76.0000 </r>
       <r>   -33.2780     0.0000    76.0000 </r>
       <r>   -33.0303     0.0000    76.0000 </r>
       <r>   -32.7826     0.0000    76.0000 </r>
       <r>   -32.5348     0.0000    76.0000 </r>
       <r>   -32.2871     0.0000    76.0000 </r>
       <r>   -32.0394     0.0000    76.0000 </r>
       <r>   -31.7917     0.0000    76.0000 </r>
       <r>   -31.5439     0.0000    76.0000 </r>
       <r>   -31.2962     0.0000    76.0000 </r>
       <r>   -31.0485     0.0000    76.0000 </r>
       <r>   -30.8008     0.0000    76.0000 </r>
       <r>   -30.5530     0.3573    76.0885 </r>
       <r>   -30.3053    40.1641    86.0381 </r>
       <r>   -30.0576   109.5191   113.1687 </r>
       <r>   -29.8099    19.4807   117.9945 </r>
       <r>   -29.5621     0.0221   118.0000 </r>
       <r>   -29.3144     0.0000   118.0000 </r>
       <r>   -29.0667     0.0000   118.0000 </r>
       <r>   -28.8190     0.0000   118.0000 </r>
       <r>   -28.5712     0.0000   118.0000 </r>
       <r>   -28.3235     0.0000   118.0000 </r>
       <r>   -28.0758     0.0000   118.0000 </r>
       <r>   -27.8281     0.0000   118.0000 </r>
       <r>   -27.5803     0.0000   118.0000 </r>
       <r>   -27.3326     0.0000   118.0000 </r>
       <r>   -27.0849     0.0000   118.0000 </r>
       <r>   -26.8372     0.0000   118.0000 </r>
       <r>   -26.5894     0.0000   118.0000 </r>
       <r>   -26.3417     0.0000   118.0000 </r>
       <r>   -26.0940     0.0000   118.0000 </r>
       <r>   -25.8463     0.0000   118.0000 </r>
       <r>   -25.5985     0.0000   118.0000 </r>
       <r>   -25.3508     0.0000   118.0000 </r>
       <r>   -25.1031     0.0000   118.0000 </r>
       <r>   -24.8554     0.0000   118.0000 </r>
       <r>   -24.6077     0.0000   118.0000 </r>
       <r>   -24.3599     0.0000   118.0000 </r>
       <r>   -24.1122     0.0003   118.0001 </r>
       <r>   -23.8645     4.5469   119.1265 </r>
       <r>   -23.6168    33.6765   127.4690 </r>
       <r>   -23.3690    47.2208   139.1667 </r>
       <r>   -23.1213    41.6581   149.4864 </r>
       <r>   -22.8736    18.1294   153.9775 </r>
       <r>   -22.6259     0.0907   154.0000 </r>
       <r>   -22.3781     0.0000   154.0000 </r>
       <r>   -22.1304     0.0000   154.0000 </r>
       <r>   -21.8827     0.0000   154.0000 </r>
       <r>   -21.6350     0.0000   154.0000 </r>
       <r>   -21.3872     0.0000   154.0000 </r>
       <r>   -21.1395     0.0000   154.0000 </r>
       <r>   -20.8918     0.0000   154.0000 </r>
       <r>   -20.6441     0.0000   154.0000 </r>
       <r>   -20.3963     0.0000   154.0000 </r>
       <r>   -20.1486     0.0000   154.0000 </r>
       <r>   -19.9009     0.0000   154.0000 </r>
       <r>   -19.6532     0.0000   154.0000 </r>
       <r>   -19.4054     0.0121   154.0030 </r>
       <r>   -19.1577     5.7555   155.4288 </r>
       <r>   -18.9100    18.1428   159.9232 </r>
       <r>   -18.6623    27.1683   166.6534 </r>
       <r>   -18.4145    26.8328   173.3006 </r>
       <r>   -18.1668    53.8323   186.6362 </r>
       <r>   -17.9191    26.7676   193.2672 </r>
       <r>   -17.6714    11.0275   195.9989 </r>
       <r>   -17.4236     0.0043   196.0000 </r>
       <r>   -17.1759     0.0000   196.0000 </r>
       <r>   -16.9282     0.0000   196.0000 </r>
       <r>   -16.6805     0.0000   196.0000 </r>
       <r>   -16.4327     0.0000   196.0000 </r>
       <r>   -16.1850     0.0000   196.0000 </r>
       <r>   -15.9373     0.0000   196.0000 </r>
       <r>   -15.6896     0.0000   196.0000 </r>
       <r>   -15.4418     0.0000   196.0000 </r>
       <r>   -15.1941     0.0000   196.0000 </r>
       <r>   -14.9464     0.0000   196.0000 </r>
       <r>   -14.6987     0.0000   196.0000 </r>
       <r>   -14.4510     0.0000   196.0000 </r>
       <r>   -14.2032     0.0000   196.0000 </r>
       <r>   -13.9555     0.0000   196.0000 </r>
       <r>   -13.7078     0.0000   196.0000 </r>
       <r>   -13.4601     0.0000   196.0000 </r>
       <r>   -13.2123     0.0000   196.0000 </r>
       <r>   -12.9646     0.0000   196.0000 </r>
       <r>   -12.7169     0.0000   196.0000 </r>
       <r>   -12.4692     0.0000   196.0000 </r>
       <r>   -12.2214     0.0000   196.0000 </r>
       <r>   -11.9737     0.0000   196.0000 </r>
       <r>   -11.7260     0.0000   196.0000 </r>
       <r>   -11.4783     0.0000   196.0000 </r>
       <r>   -11.2305     0.0000   196.0000 </r>
       <r>   -10.9828     0.0000   196.0000 </r>
       <r>   -10.7351     0.0000   196.0000 </r>
       <r>   -10.4874     0.0000   196.0000 </r>
       <r>   -10.2396     0.0000   196.0000 </r>
       <r>    -9.9919     0.0000   196.0000 </r>
       <r>    -9.7442     0.0000   196.0000 </r>
       <r>    -9.4965     0.0000   196.0000 </r>
       <r>    -9.2487     0.0000   196.0000 </r>
       <r>    -9.0010     0.0000   196.0000 </r>
       <r>    -8.7533     0.0000   196.0000 </r>
       <r>    -8.5056     0.0000   196.0000 </r>
       <r>    -8.2578     0.0000   196.0000 </r>
       <r>    -8.0101     0.0000   196.0000 </r>
       <r>    -7.7624     0.0030   196.0007 </r>
       <r>    -7.5147     3.4754   196.8617 </r>
       <r>    -7.2669     4.6093   198.0035 </r>
       <r>    -7.0192     5.5215   199.3713 </r>
       <r>    -6.7715    10.1798   201.8931 </r>
       <r>    -6.5238    11.9255   204.8474 </r>
       <r>    -6.2760    14.4512   208.4273 </r>
       <r>    -6.0283    23.9328   214.3560 </r>
       <r>    -5.7806    17.7567   218.7548 </r>
       <r>    -5.5329    12.3066   221.8034 </r>
       <r>    -5.2851     0.7935   222.0000 </r>
       <r>    -5.0374     0.0000   222.0000 </r>
       <r>    -4.7897     0.0000   222.0000 </r>
       <r>    -4.5420     0.0000   222.0000 </r>
       <r>    -4.2942     0.0006   222.0001 </r>
       <r>    -4.0465     0.9131   222.2263 </r>
       <r>    -3.7988     5.9902   223.7102 </r>
       <r>    -3.5511     4.1722   224.7438 </r>
       <r>    -3.3034    12.3732   227.8089 </r>
       <r>    -3.0556    18.0946   232.2914 </r>
       <r>    -2.8079    25.9183   238.7120 </r>
       <r>    -2.5602    26.8426   245.3616 </r>
       <r>    -2.3125    23.4784   251.1778 </r>
       <r>    -2.0647    16.2167   255.1951 </r>
       <r>    -1.8170    10.2986   257.7463 </r>
       <r>    -1.5693     7.7870   259.6753 </r>
       <r>    -1.3216     1.3052   259.9986 </r>
       <r>    -1.0738     0.0055   260.0000 </r>
       <r>    -0.8261     0.0000   260.0000 </r>
       <r>    -0.5784     0.0000   260.0000 </r>
       <r>    -0.3307     0.0000   260.0000 </r>
       <r>    -0.0829     0.0000   260.0000 </r>
       <r>     0.1648     0.0000   260.0000 </r>
       <r>     0.4125     0.0000   260.0000 </r>
       <r>     0.6602     0.0132   260.0033 </r>
       <r>     0.9080     0.6694   260.1691 </r>
       <r>     1.1557     3.6230   261.0666 </r>
       <r>     1.4034     8.2782   263.1173 </r>
       <r>     1.6511    13.3053   266.4134 </r>
       <r>     1.8989    20.3537   271.4555 </r>
       <r>     2.1466    26.9827   278.1398 </r>
       <r>     2.3943    27.9078   285.0532 </r>
       <r>     2.6420    31.7544   292.9195 </r>
       <r>     2.8898    34.1379   301.3763 </r>
       <r>     3.1375    36.5796   310.4380 </r>
       <r>     3.3852    47.2149   322.1343 </r>
       <r>     3.6329    53.8055   335.4632 </r>
       <r>     3.8807    63.3533   351.1574 </r>
       <r>     4.1284    62.9741   366.7576 </r>
       <r>     4.3761    64.1373   382.6460 </r>
       <r>     4.6238    60.8725   397.7256 </r>
       <r>     4.8716    52.7045   410.7818 </r>
       <r>     5.1193    39.8291   420.6484 </r>
       <r>     5.3670    35.3636   429.4089 </r>
       <r>     5.6147    32.4420   437.4455 </r>
       <r>     5.8625    25.7946   443.8355 </r>
       <r>     6.1102    17.7582   448.2346 </r>
       <r>     6.3579    12.6216   451.3613 </r>
       <r>     6.6056     9.0759   453.6096 </r>
       <r>     6.8533    17.5635   457.9605 </r>
       <r>     7.1011    23.4952   463.7809 </r>
       <r>     7.3488    19.6521   468.6492 </r>
       <r>     7.5965    20.2875   473.6749 </r>
       <r>     7.8442    25.0538   479.8813 </r>
       <r>     8.0920    29.4839   487.1852 </r>
       <r>     8.3397    30.5144   494.7444 </r>
       <r>     8.5874    29.4847   502.0484 </r>
       <r>     8.8351    33.0441   510.2343 </r>
       <r>     9.0829    44.4677   521.2500 </r>
       <r>     9.3306    56.6207   535.2763 </r>
       <r>     9.5783    57.2588   549.4607 </r>
       <r>     9.8260    52.8429   562.5512 </r>
       <r>    10.0738    52.7475   575.6181 </r>
       <r>    10.3215    50.4985   588.1278 </r>
       <r>    10.5692    46.4696   599.6394 </r>
       <r>    10.8169    49.5648   611.9178 </r>
       <r>    11.0647    41.1169   622.1035 </r>
       <r>    11.3124     7.6422   623.9966 </r>
       <r>    11.5601     0.0135   624.0000 </r>
       <r>    11.8078     0.0000   624.0000 </r>
       <r>    12.0556     0.0000   624.0000 </r>
       <r>    12.3033     0.0000   624.0000 </r>
       <r>    12.5510     0.0000   624.0000 </r>
       <r>    12.7987     0.0000   624.0000 </r>
       <r>    13.0465     0.0000   624.0000 </r>
       <r>    13.2942     0.0000   624.0000 </r>
       <r>    13.5419     0.0000   624.0000 </r>
       <r>    13.7896     0.0000   624.0000 </r>
       <r>    14.0374     0.0000   624.0000 </r>
       <r>    14.2851     0.0000   624.0000 </r>
       <r>    14.5328     0.0000   624.0000 </r>
      </set>
     </set>
    </array>
   </total>
  </dos>
 </calculation>
 <structure name="finalpos" >
  <crystal>
   <varray name="basis" >
    <v>       8.74368632      -0.02084889      -0.00336373 </v>
    <v>      -0.01529417       8.76338082       0.00740168 </v>
    <v>       0.02814713      -0.00782788       8.78798455 </v>
   </varray>
   <i name="volume">    673.37128029 </i>
   <varray name="rec_basis" >
    <v>       0.11436857       0.00019991      -0.00036613 </v>
    <v>       0.00027213       0.11411160       0.00010077 </v>
    <v>       0.00004355      -0.00009603       0.11379151 </v>
   </varray>
  </crystal>
  <varray name="positions" >
   <v>       0.00344546       0.98070182       0.02548345 </v>
   <v>       0.23373356       0.97839612       0.24928743 </v>
   <v>       0.26970411       0.51811130       0.24437231 </v>
   <v>       0.50085402       0.48039466       0.98879161 </v>
   <v>       0.47880061       0.23917526       0.75459579 </v>
   <v>       0.00251561       0.49847421       0.52892159 </v>
   <v>       0.50683917       0.74957045       0.73334735 </v>
   <v>       0.99633815       0.27457445       0.25756605 </v>
   <v>       0.74441100       0.74813083      -0.00002899 </v>
   <v>       0.01127313       0.23410969       0.74460603 </v>
   <v>       0.75040096       0.25836855       0.51449815 </v>
   <v>       0.00039399       0.75993700       0.74827939 </v>
   <v>       0.25428557       0.50371016       0.75392217 </v>
   <v>       0.24143815       0.24540525       0.00292555 </v>
   <v>       0.49476671       0.24119041       0.24796253 </v>
   <v>       0.74074201       0.98967341       0.26036450 </v>
   <v>       0.75491686       0.24888610       0.98968684 </v>
   <v>       0.27059711       0.75793577       0.99846309 </v>
   <v>       0.25153659       0.25238520       0.49731082 </v>
   <v>       0.25041993       0.75070050       0.49885507 </v>
   <v>       0.24268423       0.25399910       0.24948078 </v>
   <v>       0.23856742       0.99979402       0.00185284 </v>
   <v>       0.99811703       0.23597806       0.00349748 </v>
   <v>       0.74965415       0.24806385       0.25417854 </v>
   <v>       0.75478347       0.99412853       0.99115966 </v>
   <v>       0.49214378       0.99163736       0.21775601 </v>
   <v>       0.00075039       0.50035088       0.24631948 </v>
   <v>       0.51243399       0.75151207       0.97874595 </v>
   <v>       0.00618516       0.99990709       0.75163035 </v>
   <v>       0.74851148       0.24337284       0.74537525 </v>
   <v>       0.74904890       0.00359498       0.51152411 </v>
   <v>       0.50559866       0.24230988       0.51066630 </v>
   <v>       0.50244055       0.99969782       0.75697249 </v>
   <v>       0.00167229       0.00370895       0.24863445 </v>
   <v>       0.49905210       0.24992093       0.98892441 </v>
   <v>       0.26485839       0.75149129       0.24914323 </v>
   <v>       0.24617488       0.50341338       0.00591546 </v>
   <v>       0.00232383       0.75000244       0.00095170 </v>
   <v>       0.74186734       0.73979924       0.24795454 </v>
   <v>       0.75855939       0.50360757       0.00235176 </v>
   <v>       0.49044302       0.51055718       0.24200802 </v>
   <v>       0.25620988       0.24283323       0.75075598 </v>
   <v>       0.25742603       0.00067953       0.49386802 </v>
   <v>       0.99678290       0.25583841       0.50109743 </v>
   <v>       0.25924905       0.75893663       0.74857462 </v>
   <v>       0.24558360       0.50233389       0.49339371 </v>
   <v>       0.99367180       0.74714764       0.49894885 </v>
   <v>       0.99960319       0.50053804       0.75415939 </v>
   <v>       0.74485842       0.76020129       0.74281362 </v>
   <v>       0.75937211       0.49709851       0.49689203 </v>
   <v>       0.50803566       0.77071073       0.49817036 </v>
   <v>       0.50476786       0.49789729       0.75144700 </v>
   <v>       0.52079567       0.02337324       0.98835455 </v>
   <v>       0.00170741       0.53006780       0.97116346 </v>
   <v>       0.50630051       0.73386254       0.28235896 </v>
   <v>       0.25550542       0.99905829       0.74054185 </v>
   <v>       0.47131651       0.00041428       0.54049703 </v>
   <v>       0.72083322       0.97710765       0.77046872 </v>
   <v>       0.00238284       0.75210074       0.25099509 </v>
   <v>       0.72167674       0.50640385       0.24393108 </v>
   <v>       0.01234853       0.00306324       0.48548945 </v>
   <v>       0.50202302       0.50977664       0.50191012 </v>
   <v>       0.74677942       0.51610764       0.75425068 </v>
   <v>       0.74948742       0.72777003       0.49566462 </v>
  </varray>
 </structure>
</modeling>
