  64  64   0   0
  0.1129557E+02  0.8932500E-09  0.9055600E-09  0.8937200E-09  0.5000000E-15
  1.000000000000000E-004
  CAR 
 HECN                                    
     14.86834695    -50.09671483  301      8.94470716      1.00000000
    -50.097  0.0000E+00  0.0000E+00
    -49.880  0.0000E+00  0.0000E+00
    -49.664  0.0000E+00  0.0000E+00
    -49.447  0.0000E+00  0.0000E+00
    -49.231  0.0000E+00  0.0000E+00
    -49.014  0.0000E+00  0.0000E+00
    -48.797  0.0000E+00  0.0000E+00
    -48.581  0.0000E+00  0.0000E+00
    -48.364  0.0000E+00  0.0000E+00
    -48.148  0.0000E+00  0.0000E+00
    -47.931  0.0000E+00  0.0000E+00
    -47.715  0.3076E-16  0.6661E-17
    -47.498  0.2496E-07  0.5405E-08
    -47.282  0.2370E-02  0.5132E-03
    -47.065  0.8821E-01  0.1962E-01
    -46.848  0.2880E+00  0.8197E-01
    -46.632  0.2384E+00  0.1336E+00
    -46.415  0.2953E-01  0.1400E+00
    -46.199  0.6335E-05  0.1400E+00
    -45.982  0.2417E-12  0.1400E+00
    -45.766  0.0000E+00  0.1400E+00
    -45.549  0.0000E+00  0.1400E+00
    -45.333  0.0000E+00  0.1400E+00
    -45.116  0.0000E+00  0.1400E+00
    -44.900  0.0000E+00  0.1400E+00
    -44.683  0.0000E+00  0.1400E+00
    -44.466  0.0000E+00  0.1400E+00
    -44.250  0.0000E+00  0.1400E+00
    -44.033  0.0000E+00  0.1400E+00
    -43.817  0.0000E+00  0.1400E+00
    -43.600  0.0000E+00  0.1400E+00
    -43.384  0.0000E+00  0.1400E+00
    -43.167  0.0000E+00  0.1400E+00
    -42.951  0.0000E+00  0.1400E+00
    -42.734  0.0000E+00  0.1400E+00
    -42.517  0.0000E+00  0.1400E+00
    -42.301  0.0000E+00  0.1400E+00
    -42.084  0.0000E+00  0.1400E+00
    -41.868  0.0000E+00  0.1400E+00
    -41.651  0.0000E+00  0.1400E+00
    -41.435  0.0000E+00  0.1400E+00
    -41.218  0.0000E+00  0.1400E+00
    -41.002  0.0000E+00  0.1400E+00
    -40.785  0.4868E-10  0.1400E+00
    -40.569  0.1116E-03  0.1400E+00
    -40.352  0.6264E-01  0.1536E+00
    -40.135  0.1992E+00  0.1967E+00
    -39.919  0.4826E-01  0.2072E+00
    -39.702  0.2341E+00  0.2579E+00
    -39.486  0.1203E-01  0.2605E+00
    -39.269  0.7721E-01  0.2772E+00
    -39.053  0.1297E-01  0.2800E+00
    -38.836  0.1598E-05  0.2800E+00
    -38.620  0.2714E-13  0.2800E+00
    -38.403  0.0000E+00  0.2800E+00
    -38.186  0.0000E+00  0.2800E+00
    -37.970  0.0000E+00  0.2800E+00
    -37.753  0.0000E+00  0.2800E+00
    -37.537  0.0000E+00  0.2800E+00
    -37.320  0.0000E+00  0.2800E+00
    -37.104  0.0000E+00  0.2800E+00
    -36.887  0.0000E+00  0.2800E+00
    -36.671  0.0000E+00  0.2800E+00
    -36.454  0.0000E+00  0.2800E+00
    -36.238  0.0000E+00  0.2800E+00
    -36.021  0.0000E+00  0.2800E+00
    -35.804  0.0000E+00  0.2800E+00
    -35.588  0.0000E+00  0.2800E+00
    -35.371  0.8650E-14  0.2800E+00
    -35.155  0.8065E-06  0.2800E+00
    -34.938  0.1030E-01  0.2822E+00
    -34.722  0.2926E+00  0.3456E+00
    -34.505  0.1116E+01  0.5872E+00
    -34.289  0.2426E+00  0.6398E+00
    -34.072  0.1099E-02  0.6400E+00
    -33.855  0.3445E-08  0.6400E+00
    -33.639  0.0000E+00  0.6400E+00
    -33.422  0.0000E+00  0.6400E+00
    -33.206  0.0000E+00  0.6400E+00
    -32.989  0.0000E+00  0.6400E+00
    -32.773  0.0000E+00  0.6400E+00
    -32.556  0.0000E+00  0.6400E+00
    -32.340  0.0000E+00  0.6400E+00
    -32.123  0.0000E+00  0.6400E+00
    -31.906  0.0000E+00  0.6400E+00
    -31.690  0.0000E+00  0.6400E+00
    -31.473  0.0000E+00  0.6400E+00
    -31.257  0.7569E-09  0.6400E+00
    -31.040  0.4512E-03  0.6401E+00
    -30.824  0.6654E-01  0.6545E+00
    -30.607  0.3225E+00  0.7244E+00
    -30.391  0.5442E+00  0.8422E+00
    -30.174  0.6633E+00  0.9858E+00
    -29.958  0.6538E-01  0.1000E+01
    -29.741  0.2365E-04  0.1000E+01
    -29.524  0.2027E-11  0.1000E+01
    -29.308  0.0000E+00  0.1000E+01
    -29.091  0.0000E+00  0.1000E+01
    -28.875  0.0000E+00  0.1000E+01
    -28.658  0.0000E+00  0.1000E+01
    -28.442  0.0000E+00  0.1000E+01
    -28.225  0.0000E+00  0.1000E+01
    -28.009  0.0000E+00  0.1000E+01
    -27.792  0.0000E+00  0.1000E+01
    -27.575  0.0000E+00  0.1000E+01
    -27.359  0.0000E+00  0.1000E+01
    -27.142  0.0000E+00  0.1000E+01
    -26.926  0.0000E+00  0.1000E+01
    -26.709  0.0000E+00  0.1000E+01
    -26.493  0.0000E+00  0.1000E+01
    -26.276  0.0000E+00  0.1000E+01
    -26.060  0.0000E+00  0.1000E+01
    -25.843  0.0000E+00  0.1000E+01
    -25.627  0.0000E+00  0.1000E+01
    -25.410  0.0000E+00  0.1000E+01
    -25.193  0.0000E+00  0.1000E+01
    -24.977  0.0000E+00  0.1000E+01
    -24.760  0.0000E+00  0.1000E+01
    -24.544  0.0000E+00  0.1000E+01
    -24.327  0.0000E+00  0.1000E+01
    -24.111  0.0000E+00  0.1000E+01
    -23.894  0.2256E-15  0.1000E+01
    -23.678  0.1092E-06  0.1000E+01
    -23.461  0.7102E-02  0.1002E+01
    -23.244  0.2857E+00  0.1063E+01
    -23.028  0.7637E+00  0.1229E+01
    -22.811  0.6761E+00  0.1375E+01
    -22.595  0.1962E+00  0.1418E+01
    -22.378  0.1079E-01  0.1420E+01
    -22.162  0.8698E-06  0.1420E+01
    -21.945  0.9794E-14  0.1420E+01
    -21.729  0.0000E+00  0.1420E+01
    -21.512  0.0000E+00  0.1420E+01
    -21.296  0.0000E+00  0.1420E+01
    -21.079  0.0000E+00  0.1420E+01
    -20.862  0.0000E+00  0.1420E+01
    -20.646  0.0000E+00  0.1420E+01
    -20.429  0.0000E+00  0.1420E+01
    -20.213  0.0000E+00  0.1420E+01
    -19.996  0.0000E+00  0.1420E+01
    -19.780  0.0000E+00  0.1420E+01
    -19.563  0.0000E+00  0.1420E+01
    -19.347  0.1286E-09  0.1420E+01
    -19.130  0.1828E-03  0.1420E+01
    -18.913  0.5409E-01  0.1432E+01
    -18.697  0.1927E+00  0.1473E+01
    -18.480  0.3761E+00  0.1555E+01
    -18.264  0.3392E+00  0.1628E+01
    -18.047  0.6621E+00  0.1772E+01
    -17.831  0.8666E-01  0.1791E+01
    -17.614  0.2227E+00  0.1839E+01
    -17.398  0.5648E-02  0.1840E+01
    -17.181  0.6505E-07  0.1840E+01
    -16.965  0.1105E-15  0.1840E+01
    -16.748  0.0000E+00  0.1840E+01
    -16.531  0.0000E+00  0.1840E+01
    -16.315  0.0000E+00  0.1840E+01
    -16.098  0.0000E+00  0.1840E+01
    -15.882  0.0000E+00  0.1840E+01
    -15.665  0.0000E+00  0.1840E+01
    -15.449  0.0000E+00  0.1840E+01
    -15.232  0.0000E+00  0.1840E+01
    -15.016  0.0000E+00  0.1840E+01
    -14.799  0.0000E+00  0.1840E+01
    -14.582  0.0000E+00  0.1840E+01
    -14.366  0.0000E+00  0.1840E+01
    -14.149  0.0000E+00  0.1840E+01
    -13.933  0.0000E+00  0.1840E+01
    -13.716  0.0000E+00  0.1840E+01
    -13.500  0.0000E+00  0.1840E+01
    -13.283  0.0000E+00  0.1840E+01
    -13.067  0.0000E+00  0.1840E+01
    -12.850  0.0000E+00  0.1840E+01
    -12.634  0.0000E+00  0.1840E+01
    -12.417  0.0000E+00  0.1840E+01
    -12.200  0.0000E+00  0.1840E+01
    -11.984  0.0000E+00  0.1840E+01
    -11.767  0.0000E+00  0.1840E+01
    -11.551  0.0000E+00  0.1840E+01
    -11.334  0.0000E+00  0.1840E+01
    -11.118  0.0000E+00  0.1840E+01
    -10.901  0.0000E+00  0.1840E+01
    -10.685  0.0000E+00  0.1840E+01
    -10.468  0.0000E+00  0.1840E+01
    -10.251  0.0000E+00  0.1840E+01
    -10.035  0.0000E+00  0.1840E+01
     -9.818  0.0000E+00  0.1840E+01
     -9.602  0.0000E+00  0.1840E+01
     -9.385  0.0000E+00  0.1840E+01
     -9.169  0.0000E+00  0.1840E+01
     -8.952  0.0000E+00  0.1840E+01
     -8.736  0.0000E+00  0.1840E+01
     -8.519  0.0000E+00  0.1840E+01
     -8.303  0.0000E+00  0.1840E+01
     -8.086  0.0000E+00  0.1840E+01
     -7.869  0.2810E-13  0.1840E+01
     -7.653  0.4947E-06  0.1840E+01
     -7.436  0.2310E-02  0.1841E+01
     -7.220  0.5097E-01  0.1852E+01
     -7.003  0.9557E-01  0.1872E+01
     -6.787  0.9630E-01  0.1893E+01
     -6.570  0.1149E+00  0.1918E+01
     -6.354  0.1024E+00  0.1940E+01
     -6.137  0.9652E-01  0.1961E+01
     -5.920  0.1513E+00  0.1994E+01
     -5.704  0.2315E+00  0.2044E+01
     -5.487  0.1653E+00  0.2080E+01
     -5.271  0.8427E-01  0.2098E+01
     -5.054  0.9302E-02  0.2100E+01
     -4.838  0.6973E-06  0.2100E+01
     -4.621  0.2853E-11  0.2100E+01
     -4.405  0.7979E-05  0.2100E+01
     -4.188  0.8942E-02  0.2102E+01
     -3.972  0.6957E-01  0.2117E+01
     -3.755  0.1658E-01  0.2121E+01
     -3.538  0.9532E-01  0.2141E+01
     -3.322  0.1449E+00  0.2173E+01
     -3.105  0.1407E+00  0.2203E+01
     -2.889  0.2310E+00  0.2253E+01
     -2.672  0.2003E+00  0.2296E+01
     -2.456  0.2289E+00  0.2346E+01
     -2.239  0.2035E+00  0.2390E+01
     -2.023  0.1824E+00  0.2430E+01
     -1.806  0.1299E+00  0.2458E+01
     -1.589  0.7874E-01  0.2475E+01
     -1.373  0.2318E-01  0.2480E+01
     -1.156  0.9141E-03  0.2480E+01
     -0.940  0.9534E-07  0.2480E+01
     -0.723  0.1575E-14  0.2480E+01
     -0.507  0.0000E+00  0.2480E+01
     -0.290  0.0000E+00  0.2480E+01
     -0.074  0.0000E+00  0.2480E+01
      0.143  0.5727E-14  0.2480E+01
      0.359  0.1647E-06  0.2480E+01
      0.576  0.6884E-03  0.2480E+01
      0.793  0.4424E-02  0.2481E+01
      1.009  0.2757E-01  0.2487E+01
      1.226  0.7752E-01  0.2504E+01
      1.442  0.1044E+00  0.2526E+01
      1.659  0.1566E+00  0.2560E+01
      1.875  0.1867E+00  0.2601E+01
      2.092  0.2487E+00  0.2655E+01
      2.308  0.2593E+00  0.2711E+01
      2.525  0.2777E+00  0.2771E+01
      2.742  0.2978E+00  0.2835E+01
      2.958  0.3390E+00  0.2909E+01
      3.175  0.3983E+00  0.2995E+01
      3.391  0.4750E+00  0.3098E+01
      3.608  0.5326E+00  0.3213E+01
      3.824  0.5725E+00  0.3337E+01
      4.041  0.6906E+00  0.3487E+01
      4.257  0.6776E+00  0.3634E+01
      4.474  0.6165E+00  0.3767E+01
      4.690  0.5674E+00  0.3890E+01
      4.907  0.4810E+00  0.3994E+01
      5.124  0.3932E+00  0.4079E+01
      5.340  0.3251E+00  0.4150E+01
      5.557  0.2980E+00  0.4214E+01
      5.773  0.2979E+00  0.4279E+01
      5.990  0.2503E+00  0.4333E+01
      6.206  0.1762E+00  0.4371E+01
      6.423  0.1146E+00  0.4396E+01
      6.639  0.1199E+00  0.4422E+01
      6.856  0.1662E+00  0.4458E+01
      7.073  0.1984E+00  0.4501E+01
      7.289  0.1918E+00  0.4542E+01
      7.506  0.1770E+00  0.4581E+01
      7.722  0.2112E+00  0.4626E+01
      7.939  0.2653E+00  0.4684E+01
      8.155  0.2720E+00  0.4743E+01
      8.372  0.2821E+00  0.4804E+01
      8.588  0.2968E+00  0.4868E+01
      8.805  0.2543E+00  0.4923E+01
      9.021  0.2725E+00  0.4982E+01
      9.238  0.3451E+00  0.5057E+01
      9.455  0.4142E+00  0.5147E+01
      9.671  0.4759E+00  0.5250E+01
      9.888  0.4823E+00  0.5354E+01
     10.104  0.4965E+00  0.5462E+01
     10.321  0.4664E+00  0.5563E+01
     10.537  0.4360E+00  0.5657E+01
     10.754  0.4404E+00  0.5752E+01
     10.970  0.4582E+00  0.5852E+01
     11.187  0.4421E+00  0.5947E+01
     11.404  0.4921E+00  0.6054E+01
     11.620  0.4898E+00  0.6160E+01
     11.837  0.3063E+00  0.6226E+01
     12.053  0.6265E-01  0.6240E+01
     12.270  0.4728E-03  0.6240E+01
     12.486  0.2731E-08  0.6240E+01
     12.703  0.2279E-17  0.6240E+01
     12.919  0.0000E+00  0.6240E+01
     13.136  0.0000E+00  0.6240E+01
     13.352  0.0000E+00  0.6240E+01
     13.569  0.0000E+00  0.6240E+01
     13.786  0.0000E+00  0.6240E+01
     14.002  0.0000E+00  0.6240E+01
     14.219  0.0000E+00  0.6240E+01
     14.435  0.0000E+00  0.6240E+01
     14.652  0.0000E+00  0.6240E+01
     14.868  0.0000E+00  0.6240E+01
