 running on   24 total cores
 distrk:  each k-point on   24 cores,    1 groups
 distr:  one band on    1 cores,   24 groups
 using from now: INCAR     
 vasp.5.4.4.18Apr17-6-g9f103f2a35 (build Oct 18 2021 20:38:43) complex          
  
 POSCAR found type information on POSCAR  Nb W  Zr N  C  Cr Mo
 POSCAR found :  7 types and      64 ions
 scaLAPACK will be used

 ----------------------------------------------------------------------------- 
|                                                                             |
|           W    W    AA    RRRRR   N    N  II  N    N   GGGG   !!!           |
|           W    W   A  A   R    R  NN   N  II  NN   N  G    G  !!!           |
|           W    W  A    A  R    R  N N  N  II  N N  N  G       !!!           |
|           W WW W  AAAAAA  RRRRR   N  N N  II  N  N N  G  GGG   !            |
|           WW  WW  A    A  R   R   N   NN  II  N   NN  G    G                |
|           W    W  A    A  R    R  N    N  II  N    N   GGGG   !!!           |
|                                                                             |
|      For optimal performance we recommend to set                            |
|        NCORE= 4 - approx SQRT( number of cores)                             |
|      NCORE specifies how many cores store one orbital (NPAR=cpu/NCORE).     |
|      This setting can  greatly improve the performance of VASP for DFT.     |
|      The default,   NCORE=1            might be grossly inefficient         |
|      on modern multi-core architectures or massively parallel machines.     |
|      Do your own testing !!!!                                               |
|      Unfortunately you need to use the default for GW and RPA calculations. |
|      (for HF NCORE is supported but not extensively tested yet)             |
|                                                                             |
 ----------------------------------------------------------------------------- 


 ----------------------------------------------------------------------------- 
|                                                                             |
|  ADVICE TO THIS USER RUNNING 'VASP/VAMP'   (HEAR YOUR MASTER'S VOICE ...):  |
|                                                                             |
|      You have a (more or less) 'large supercell' and for larger cells       |
|      it might be more efficient to use real space projection operators      |
|      So try LREAL= Auto  in the INCAR   file.                               |
|      Mind: If you want to do a very accurate calculations keep the          |
|      reciprocal projection scheme          (i.e. LREAL=.FALSE.)             |
|                                                                             |
 ----------------------------------------------------------------------------- 

 LDA part: xc-table for Pade appr. of Perdew
 POSCAR, INCAR and KPOINTS ok, starting setup
 FFT: planning ...
 WAVECAR not read
 entering main loop
       N       E                     dE             d eps       ncg     rms          rms(c)
DAV:   1     0.611634856682E+04    0.61163E+04   -0.20210E+05  8928   0.147E+03
DAV:   2     0.281245199349E+03   -0.58351E+04   -0.55965E+04  9072   0.615E+02
DAV:   3    -0.660870191715E+03   -0.94212E+03   -0.88670E+03 14232   0.212E+02
DAV:   4    -0.758998078549E+03   -0.98128E+02   -0.95284E+02 15768   0.849E+01
DAV:   5    -0.772825853251E+03   -0.13828E+02   -0.13586E+02 16992   0.260E+01    0.742E+01
RMM:   6    -0.956893972609E+03   -0.18407E+03   -0.23295E+03 11925   0.135E+02    0.128E+02
RMM:   7    -0.646012013631E+03    0.31088E+03   -0.26359E+02 13953   0.373E+01    0.408E+01
RMM:   8    -0.644856120156E+03    0.11559E+01   -0.55067E+01 14424   0.153E+01    0.365E+01
RMM:   9    -0.641631470561E+03    0.32246E+01   -0.16999E+01 13613   0.116E+01    0.352E+01
RMM:  10    -0.635956240485E+03    0.56752E+01   -0.12062E+01 14483   0.682E+00    0.105E+01
RMM:  11    -0.638110511604E+03   -0.21543E+01   -0.41538E+00 12097   0.628E+00    0.244E+01
RMM:  12    -0.635558348199E+03    0.25522E+01   -0.35206E+00 13674   0.527E+00    0.124E+01
RMM:  13    -0.636293538623E+03   -0.73519E+00   -0.26608E+00 14499   0.352E+00    0.190E+01
RMM:  14    -0.635324332573E+03    0.96921E+00   -0.20227E+00 14188   0.335E+00    0.810E+00
RMM:  15    -0.635820908329E+03   -0.49658E+00   -0.97570E-01 13527   0.257E+00    0.139E+01
RMM:  16    -0.635039505328E+03    0.78140E+00   -0.63691E-01 13820   0.205E+00    0.351E+00
RMM:  17    -0.635146708695E+03   -0.10720E+00   -0.61911E-01 14467   0.137E+00    0.610E+00
RMM:  18    -0.635038673260E+03    0.10804E+00   -0.45989E-01 14505   0.127E+00    0.185E+00
RMM:  19    -0.635060666731E+03   -0.21993E-01   -0.29469E-01 14295   0.101E+00    0.137E+00
RMM:  20    -0.635052952363E+03    0.77144E-02   -0.11944E-01 13436   0.736E-01    0.988E-01
RMM:  21    -0.635047792797E+03    0.51596E-02   -0.78856E-02 14429   0.513E-01    0.482E-01
RMM:  22    -0.635049594594E+03   -0.18018E-02   -0.58155E-02 14423   0.389E-01    0.291E-01
RMM:  23    -0.635051853413E+03   -0.22588E-02   -0.33367E-02 13955   0.309E-01    0.924E-02
RMM:  24    -0.635053455071E+03   -0.16017E-02   -0.19823E-02 13200   0.218E-01    0.839E-02
RMM:  25    -0.635054275995E+03   -0.82092E-03   -0.11397E-02 13297   0.146E-01    0.376E-02
RMM:  26    -0.635054841978E+03   -0.56598E-03   -0.69629E-03 12727   0.108E-01    0.361E-02
RMM:  27    -0.635055180607E+03   -0.33863E-03   -0.41844E-03 12240   0.769E-02    0.253E-02
RMM:  28    -0.635055364332E+03   -0.18372E-03   -0.22621E-03 12026   0.631E-02    0.135E-02
RMM:  29    -0.635055483911E+03   -0.11958E-03   -0.13608E-03 11840   0.511E-02    0.176E-02
RMM:  30    -0.635055557708E+03   -0.73797E-04   -0.87017E-04 11549   0.409E-02    0.598E-03
RMM:  31    -0.635055607499E+03   -0.49790E-04   -0.57069E-04 11290   0.328E-02    0.459E-03
WARNING in EDDRMM: call to ZHEGV failed, returncode =   6  3      8
RMM:  32    -0.635055637491E+03   -0.29993E-04   -0.34640E-04 10897   0.277E-02    0.434E-03
RMM:  33    -0.635055656130E+03   -0.18639E-04   -0.21109E-04 10302   0.238E-02    0.208E-03
RMM:  34    -0.635055668019E+03   -0.11889E-04   -0.13850E-04  9604   0.198E-02    0.232E-03
RMM:  35    -0.635055676126E+03   -0.81069E-05   -0.91969E-05  8834   0.177E-02
   1 F= -.63505568E+03 E0= -.63493427E+03  d E =-.635056E+03
 curvature:   0.00 expect dE= 0.000E+00 dE for cont linesearch  0.000E+00
 trial: gam= 0.00000 g(F)=  0.361E+01 g(S)=  0.628E+01 ort = 0.000E+00 (trialstep = 0.100E+01)
 search vector abs. value=  0.989E+01
 bond charge predicted
       N       E                     dE             d eps       ncg     rms          rms(c)
DAV:   1    -0.677444652267E+03   -0.42389E+02   -0.18944E+03 12432   0.208E+02    0.559E+01
RMM:   2    -0.878840953160E+03   -0.20140E+03   -0.10845E+03 10339   0.124E+02    0.108E+02
RMM:   3    -0.641193469807E+03    0.23765E+03   -0.87989E+01 11896   0.343E+01    0.241E+01
RMM:   4    -0.646657203212E+03   -0.54637E+01   -0.28073E+01 12272   0.182E+01    0.394E+01
RMM:   5    -0.638462707880E+03    0.81945E+01   -0.16145E+01 11768   0.137E+01    0.230E+01
RMM:   6    -0.635724281077E+03    0.27384E+01   -0.14803E+01 12237   0.789E+00    0.146E+01
RMM:   7    -0.636807956667E+03   -0.10837E+01   -0.27386E+00 10530   0.694E+00    0.205E+01
RMM:   8    -0.634442989443E+03    0.23650E+01   -0.16401E+00 12153   0.424E+00    0.602E+00
RMM:   9    -0.634500489766E+03   -0.57500E-01   -0.59707E-01 13940   0.207E+00    0.734E+00
RMM:  10    -0.634287709162E+03    0.21278E+00   -0.36128E-01 13911   0.159E+00    0.246E+00
RMM:  11    -0.634375578362E+03   -0.87869E-01   -0.23104E-01 14917   0.115E+00    0.456E+00
RMM:  12    -0.634329034191E+03    0.46544E-01   -0.15433E-01 13927   0.105E+00    0.137E+00
RMM:  13    -0.634360285376E+03   -0.31251E-01   -0.14166E-01 15111   0.843E-01    0.182E+00
RMM:  14    -0.634371731472E+03   -0.11446E-01   -0.85002E-02 14525   0.756E-01    0.187E+00
RMM:  15    -0.634373611982E+03   -0.18805E-02   -0.84821E-02 15060   0.608E-01    0.410E-01
RMM:  16    -0.634379776657E+03   -0.61647E-02   -0.57083E-02 15164   0.488E-01    0.340E-01
RMM:  17    -0.634382270714E+03   -0.24941E-02   -0.32276E-02 14689   0.428E-01    0.181E-01
RMM:  18    -0.634384370138E+03   -0.20994E-02   -0.25732E-02 15105   0.298E-01    0.128E-01
RMM:  19    -0.634385306701E+03   -0.93656E-03   -0.13449E-02 14977   0.233E-01    0.874E-02
RMM:  20    -0.634386003539E+03   -0.69684E-03   -0.87549E-03 14522   0.166E-01    0.376E-02
RMM:  21    -0.634386382155E+03   -0.37862E-03   -0.49790E-03 14110   0.128E-01    0.247E-02
RMM:  22    -0.634386611092E+03   -0.22894E-03   -0.29540E-03 13600   0.979E-02    0.166E-02
RMM:  23    -0.634386742956E+03   -0.13186E-03   -0.16771E-03 12988   0.817E-02    0.152E-02
RMM:  24    -0.634386847472E+03   -0.10452E-03   -0.12024E-03 12580   0.631E-02    0.972E-03
RMM:  25    -0.634386905196E+03   -0.57725E-04   -0.69787E-04 12404   0.500E-02    0.886E-03
RMM:  26    -0.634386942753E+03   -0.37556E-04   -0.44201E-04 11890   0.394E-02    0.399E-03
WARNING in EDDRMM: call to ZHEGV failed, returncode =   8  4      9
RMM:  27    -0.634386966370E+03   -0.23618E-04   -0.27778E-04 11693   0.322E-02    0.333E-03
RMM:  28    -0.634386981494E+03   -0.15123E-04   -0.17470E-04 10943   0.262E-02    0.258E-03
RMM:  29    -0.634386991496E+03   -0.10003E-04   -0.10879E-04 10286   0.221E-02    0.160E-03
RMM:  30    -0.634386997279E+03   -0.57831E-05   -0.76249E-05  9217   0.185E-02
   2 F= -.63438700E+03 E0= -.63429364E+03  d E =0.668679E+00
 trial-energy change:    0.668679  1 .order    1.290320   -9.892862   12.473502
 step:   0.4840(harm=  0.4423)  dis= 0.04328  next Energy=  -637.520000 (dE=-0.246E+01)
 bond charge predicted
       N       E                     dE             d eps       ncg     rms          rms(c)
DAV:   1    -0.652416061712E+03   -0.18029E+02   -0.53504E+02 12432   0.104E+02    0.467E+01
RMM:   2    -0.839651487385E+03   -0.18724E+03   -0.17052E+02 13362   0.320E+01    0.751E+01
RMM:   3    -0.661518901061E+03    0.17813E+03   -0.49491E+01 11839   0.266E+01    0.451E+01
RMM:   4    -0.639629226764E+03    0.21890E+02   -0.26026E+01 12174   0.166E+01    0.140E+01
RMM:   5    -0.645544357285E+03   -0.59151E+01   -0.16971E+01 11388   0.127E+01    0.338E+01
RMM:   6    -0.642232781234E+03    0.33116E+01   -0.68507E+00 12340   0.635E+00    0.272E+01
RMM:   7    -0.639735752544E+03    0.24970E+01   -0.20133E+00 11252   0.471E+00    0.201E+01
RMM:   8    -0.639569742221E+03    0.16601E+00   -0.29908E+00 11436   0.575E+00    0.180E+01
RMM:   9    -0.638520704028E+03    0.10490E+01   -0.10864E+00 13166   0.278E+00    0.123E+01
RMM:  10    -0.637608837019E+03    0.91187E+00   -0.38276E-01 12164   0.230E+00    0.445E+00
RMM:  11    -0.637652136352E+03   -0.43299E-01   -0.20115E-01 13786   0.116E+00    0.595E+00
RMM:  12    -0.637551618729E+03    0.10052E+00   -0.91414E-02 13651   0.948E-01    0.315E+00
RMM:  13    -0.637524510425E+03    0.27108E-01   -0.96619E-02 13697   0.777E-01    0.232E+00
RMM:  14    -0.637511089418E+03    0.13421E-01   -0.58998E-02 14923   0.559E-01    0.125E+00
RMM:  15    -0.637514623864E+03   -0.35344E-02   -0.46754E-02 14551   0.378E-01    0.873E-01
RMM:  16    -0.637516943026E+03   -0.23192E-02   -0.26511E-02 14818   0.432E-01    0.388E-01
RMM:  17    -0.637524093376E+03   -0.71503E-02   -0.26975E-02 14749   0.304E-01    0.866E-01
RMM:  18    -0.637522409164E+03    0.16842E-02   -0.15537E-02 14467   0.301E-01    0.332E-01
RMM:  19    -0.637523149333E+03   -0.74017E-03   -0.15052E-02 14385   0.182E-01    0.108E-01
RMM:  20    -0.637523501872E+03   -0.35254E-03   -0.55704E-03 14113   0.177E-01    0.738E-02
RMM:  21    -0.637523996076E+03   -0.49420E-03   -0.51166E-03 12701   0.114E-01    0.105E-01
RMM:  22    -0.637524123574E+03   -0.12750E-03   -0.24241E-03 12661   0.100E-01    0.339E-02
RMM:  23    -0.637524300605E+03   -0.17703E-03   -0.20640E-03 12283   0.638E-02    0.462E-02
RMM:  24    -0.637524336483E+03   -0.35878E-04   -0.78022E-04 12141   0.624E-02    0.164E-02
WARNING in EDDRMM: call to ZHEGV failed, returncode =   8  4     10
RMM:  25    -0.637524401664E+03   -0.65180E-04   -0.71886E-04 11697   0.409E-02    0.176E-02
RMM:  26    -0.637524424204E+03   -0.22540E-04   -0.34320E-04 11611   0.397E-02    0.440E-03
RMM:  27    -0.637524451031E+03   -0.26827E-04   -0.30084E-04 11040   0.276E-02    0.129E-02
RMM:  28    -0.637524458986E+03   -0.79548E-05   -0.14898E-04 10844   0.252E-02    0.469E-03
RMM:  29    -0.637524469255E+03   -0.10269E-04   -0.10571E-04 10033   0.193E-02    0.112E-02
RMM:  30    -0.637524472539E+03   -0.32844E-05   -0.67133E-05  8960   0.174E-02
   3 F= -.63752447E+03 E0= -.63741672E+03  d E =-.246880E+01
 curvature:  -0.22 expect dE=-0.733E+00 dE for cont linesearch -0.223E-02
 trial: gam= 0.30488 g(F)=  0.235E+01 g(S)=  0.978E+00 ort = 0.317E+00 (trialstep = 0.897E+00)
 search vector abs. value=  0.445E+01
 bond charge predicted
       N       E                     dE             d eps       ncg     rms          rms(c)
DAV:   1    -0.632054854334E+03    0.54696E+01   -0.56530E+02  9240   0.101E+02    0.112E+01
RMM:   2    -0.659422812287E+03   -0.27368E+02   -0.85301E+01 13872   0.244E+01    0.399E+01
RMM:   3    -0.640631802092E+03    0.18791E+02   -0.11367E+01 10566   0.149E+01    0.159E+01
RMM:   4    -0.639377124055E+03    0.12547E+01   -0.41340E+00 13515   0.490E+00    0.512E+00
RMM:   5    -0.639469712783E+03   -0.92589E-01   -0.11040E+00 13790   0.250E+00    0.820E+00
RMM:   6    -0.639176995992E+03    0.29272E+00   -0.34191E-01 13212   0.168E+00    0.323E+00
RMM:   7    -0.639300107472E+03   -0.12311E+00   -0.34413E-01 13731   0.134E+00    0.661E+00
RMM:   8    -0.639114922542E+03    0.18518E+00   -0.20763E-01 13646   0.124E+00    0.187E+00
RMM:   9    -0.639099092398E+03    0.15830E-01   -0.17832E-01 14706   0.752E-01    0.159E+00
RMM:  10    -0.639107857184E+03   -0.87648E-02   -0.48084E-02 12586   0.705E-01    0.218E+00
RMM:  11    -0.639091934660E+03    0.15923E-01   -0.39893E-02 14335   0.426E-01    0.886E-01
RMM:  12    -0.639093526428E+03   -0.15918E-02   -0.21585E-02 14321   0.310E-01    0.974E-01
RMM:  13    -0.639090964320E+03    0.25621E-02   -0.13448E-02 14660   0.237E-01    0.396E-01
RMM:  14    -0.639090894248E+03    0.70072E-04   -0.69156E-03 14335   0.159E-01    0.154E-01
RMM:  15    -0.639091131056E+03   -0.23681E-03   -0.37066E-03 13989   0.115E-01    0.101E-01
RMM:  16    -0.639091379500E+03   -0.24844E-03   -0.26428E-03 14260   0.106E-01    0.878E-02
RMM:  17    -0.639091479582E+03   -0.10008E-03   -0.18181E-03 13413   0.710E-02    0.309E-02
RMM:  18    -0.639091534044E+03   -0.54462E-04   -0.90438E-04 12795   0.609E-02    0.190E-02
RMM:  19    -0.639091591824E+03   -0.57779E-04   -0.69270E-04 12471   0.434E-02    0.176E-02
WARNING in EDDRMM: call to ZHEGV failed, returncode =   8  4      9
RMM:  20    -0.639091615199E+03   -0.23376E-04   -0.34509E-04 11761   0.380E-02    0.126E-02
WARNING in EDDRMM: call to ZHEGV failed, returncode =   6  3      9
RMM:  21    -0.639091635265E+03   -0.20065E-04   -0.25305E-04 11143   0.262E-02    0.716E-03
RMM:  22    -0.639091646524E+03   -0.11259E-04   -0.15294E-04 10361   0.240E-02    0.647E-03
RMM:  23    -0.639091653361E+03   -0.68373E-05   -0.94271E-05  9629   0.200E-02
   4 F= -.63909165E+03 E0= -.63899344E+03  d E =-.156718E+01
 trial-energy change:   -1.567181  1 .order   -1.597517   -3.075290   -0.119744
 step:   0.9356(harm=  0.9331)  dis= 0.08852  next Energy=  -639.094243 (dE=-0.157E+01)
 bond charge predicted
       N       E                     dE             d eps       ncg     rms          rms(c)
DAV:   1    -0.639080796367E+03    0.10850E-01   -0.10407E+00 10080   0.441E+00    0.474E-01
RMM:   2    -0.639154117182E+03   -0.73321E-01   -0.18683E-01 13734   0.113E+00    0.336E+00
RMM:   3    -0.639099295557E+03    0.54822E-01   -0.25303E-02 10348   0.657E-01    0.101E+00
RMM:   4    -0.639095254747E+03    0.40408E-02   -0.93281E-03 12752   0.256E-01    0.362E-01
RMM:   5    -0.639095316203E+03   -0.61456E-04   -0.27911E-03 12686   0.112E-01    0.451E-01
RMM:   6    -0.639094548752E+03    0.76745E-03   -0.73599E-04 10447   0.825E-02    0.137E-01
RMM:   7    -0.639094465324E+03    0.83428E-04   -0.67660E-04 12390   0.451E-02    0.120E-01
RMM:   8    -0.639094649011E+03   -0.18369E-03   -0.30488E-04  8892   0.610E-02    0.250E-01
RMM:   9    -0.639094364102E+03    0.28491E-03   -0.34908E-04 12387   0.514E-02    0.516E-02
RMM:  10    -0.639094400684E+03   -0.36582E-04   -0.14762E-04  9299   0.349E-02    0.100E-01
RMM:  11    -0.639094360701E+03    0.39983E-04   -0.89997E-05  8917   0.239E-02    0.201E-02
RMM:  12    -0.639094363208E+03   -0.25072E-05   -0.56897E-05  7077   0.183E-02
   5 F= -.63909436E+03 E0= -.63899661E+03  d E =-.156989E+01
 curvature:  -0.60 expect dE=-0.497E+00 dE for cont linesearch -0.107E-08
 trial: gam= 0.18134 g(F)=  0.772E+00 g(S)=  0.527E-01 ort = 0.888E-04 (trialstep = 0.905E+00)
 search vector abs. value=  0.971E+00
 bond charge predicted
       N       E                     dE             d eps       ncg     rms          rms(c)
DAV:   1    -0.636739936788E+03    0.23544E+01   -0.16431E+02 12384   0.735E+01    0.731E+00
RMM:   2    -0.648261836544E+03   -0.11522E+02   -0.36840E+01 13084   0.156E+01    0.316E+01
RMM:   3    -0.639707144425E+03    0.85547E+01   -0.45351E+00 10508   0.869E+00    0.474E+00
RMM:   4    -0.640042882801E+03   -0.33574E+00   -0.17138E+00 14219   0.279E+00    0.897E+00
RMM:   5    -0.639646913816E+03    0.39597E+00   -0.27182E-01 11724   0.179E+00    0.225E+00
RMM:   6    -0.639669422267E+03   -0.22508E-01   -0.19447E-01 13941   0.878E-01    0.342E+00
RMM:   7    -0.639624930344E+03    0.44492E-01   -0.91994E-02 13210   0.820E-01    0.183E+00
RMM:   8    -0.639643084353E+03   -0.18154E-01   -0.62310E-02 12726   0.759E-01    0.287E+00
RMM:   9    -0.639602534322E+03    0.40550E-01   -0.44723E-02 13544   0.617E-01    0.545E-01
RMM:  10    -0.639607268443E+03   -0.47341E-02   -0.25250E-02 14516   0.359E-01    0.108E+00
RMM:  11    -0.639602464802E+03    0.48036E-02   -0.11274E-02 14528   0.253E-01    0.307E-01
RMM:  12    -0.639603483473E+03   -0.10187E-02   -0.79808E-03 14391   0.166E-01    0.481E-01
RMM:  13    -0.639602822589E+03    0.66088E-03   -0.33366E-03 14280   0.137E-01    0.180E-01
RMM:  14    -0.639603056676E+03   -0.23409E-03   -0.31449E-03 14064   0.841E-02    0.102E-01
RMM:  15    -0.639603163796E+03   -0.10712E-03   -0.11774E-03 13811   0.829E-02    0.731E-02
RMM:  16    -0.639603292336E+03   -0.12854E-03   -0.13357E-03 13418   0.604E-02    0.263E-02
RMM:  17    -0.639603317994E+03   -0.25658E-04   -0.56957E-04 12742   0.553E-02    0.197E-02
RMM:  18    -0.639603354529E+03   -0.36535E-04   -0.46953E-04 11749   0.383E-02    0.150E-02
RMM:  19    -0.639603373771E+03   -0.19242E-04   -0.26153E-04 11613   0.341E-02    0.121E-02
WARNING in EDDRMM: call to ZHEGV failed, returncode =   8  4     10
RMM:  20    -0.639603386702E+03   -0.12931E-04   -0.17561E-04 10877   0.248E-02    0.827E-03
RMM:  21    -0.639603395387E+03   -0.86855E-05   -0.12410E-04 10636   0.205E-02    0.471E-03
RMM:  22    -0.639603399356E+03   -0.39684E-05   -0.69974E-05  9333   0.189E-02
   6 F= -.63960340E+03 E0= -.63951137E+03  d E =-.509036E+00
 trial-energy change:   -0.509036  1 .order   -0.503795   -0.746277   -0.261313
 step:   1.3490(harm=  1.3920)  dis= 0.06824  next Energy=  -639.668215 (dE=-0.574E+00)
 bond charge predicted
       N       E                     dE             d eps       ncg     rms          rms(c)
DAV:   1    -0.638944739725E+03    0.65866E+00   -0.38565E+01 12264   0.366E+01    0.360E+00
RMM:   2    -0.641971352789E+03   -0.30266E+01   -0.97978E+00 12665   0.808E+00    0.183E+01
RMM:   3    -0.639771544508E+03    0.21998E+01   -0.12126E+00 10469   0.448E+00    0.455E+00
RMM:   4    -0.639731088359E+03    0.40456E-01   -0.44360E-01 13932   0.157E+00    0.300E+00
RMM:   5    -0.639692089351E+03    0.38999E-01   -0.91338E-02 13187   0.783E-01    0.189E+00
RMM:   6    -0.639683100794E+03    0.89886E-02   -0.29507E-02 12961   0.488E-01    0.135E+00
RMM:   7    -0.639683377546E+03   -0.27675E-03   -0.27871E-02 14011   0.367E-01    0.151E+00
RMM:   8    -0.639677464000E+03    0.59135E-02   -0.15266E-02 11727   0.420E-01    0.108E+00
RMM:   9    -0.639671457382E+03    0.60066E-02   -0.13180E-02 14323   0.265E-01    0.455E-01
RMM:  10    -0.639671894171E+03   -0.43679E-03   -0.46496E-03 13040   0.211E-01    0.526E-01
RMM:  11    -0.639670924335E+03    0.96984E-03   -0.34660E-03 13849   0.121E-01    0.221E-01
RMM:  12    -0.639670967303E+03   -0.42968E-04   -0.15127E-03 13027   0.979E-02    0.207E-01
RMM:  13    -0.639670867497E+03    0.99806E-04   -0.11734E-03 13423   0.598E-02    0.710E-02
RMM:  14    -0.639670914437E+03   -0.46940E-04   -0.61129E-04 12865   0.490E-02    0.479E-02
RMM:  15    -0.639670946189E+03   -0.31752E-04   -0.34232E-04 12785   0.438E-02    0.294E-02
RMM:  16    -0.639670966620E+03   -0.20431E-04   -0.32340E-04 12070   0.346E-02    0.131E-02
RMM:  17    -0.639670973335E+03   -0.67154E-05   -0.14761E-04 11792   0.300E-02    0.909E-03
RMM:  18    -0.639670982383E+03   -0.90484E-05   -0.11131E-04 10346   0.221E-02    0.717E-03
RMM:  19    -0.639670988236E+03   -0.58526E-05   -0.73881E-05  9834   0.194E-02
   7 F= -.63967099E+03 E0= -.63958095E+03  d E =-.576625E+00
 curvature:  -0.81 expect dE=-0.565E+00 dE for cont linesearch -0.734E-04
 trial: gam= 0.78969 g(F)=  0.335E+00 g(S)=  0.360E+00 ort = 0.936E-02 (trialstep = 0.733E+00)
 search vector abs. value=  0.132E+01
 bond charge predicted
       N       E                     dE             d eps       ncg     rms          rms(c)
DAV:   1    -0.637373364650E+03    0.22976E+01   -0.14868E+02 13272   0.754E+01    0.919E+00
RMM:   2    -0.654727529938E+03   -0.17354E+02   -0.52325E+01 10992   0.231E+01    0.409E+01
RMM:   3    -0.640069746545E+03    0.14658E+02   -0.78168E+00 11232   0.107E+01    0.624E+00
RMM:   4    -0.640232635246E+03   -0.16289E+00   -0.22071E+00 14424   0.323E+00    0.700E+00
RMM:   5    -0.639965692004E+03    0.26694E+00   -0.36054E-01 12362   0.193E+00    0.265E+00
RMM:   6    -0.639989619614E+03   -0.23928E-01   -0.20818E-01 12831   0.125E+00    0.420E+00
RMM:   7    -0.639922454571E+03    0.67165E-01   -0.15930E-01 12373   0.112E+00    0.273E+00
RMM:   8    -0.639966645091E+03   -0.44191E-01   -0.11191E-01 11788   0.107E+00    0.410E+00
RMM:   9    -0.639880434068E+03    0.86211E-01   -0.76096E-02 12865   0.816E-01    0.705E-01
RMM:  10    -0.639886356985E+03   -0.59229E-02   -0.43786E-02 14570   0.450E-01    0.120E+00
RMM:  11    -0.639880959451E+03    0.53975E-02   -0.18071E-02 14793   0.287E-01    0.285E-01
RMM:  12    -0.639882055321E+03   -0.10959E-02   -0.96342E-03 14539   0.176E-01    0.329E-01
RMM:  13    -0.639882125313E+03   -0.69992E-04   -0.38331E-03 14126   0.150E-01    0.227E-01
RMM:  14    -0.639882787129E+03   -0.66182E-03   -0.43415E-03 14113   0.988E-02    0.160E-01
RMM:  15    -0.639883437852E+03   -0.65072E-03   -0.22432E-03 14334   0.968E-02    0.868E-02
RMM:  16    -0.639883657201E+03   -0.21935E-03   -0.17950E-03 13846   0.874E-02    0.424E-02
RMM:  17    -0.639883731691E+03   -0.74490E-04   -0.11146E-03 13099   0.710E-02    0.203E-02
RMM:  18    -0.639883800177E+03   -0.68486E-04   -0.81754E-04 12139   0.533E-02    0.245E-02
RMM:  19    -0.639883839156E+03   -0.38979E-04   -0.49746E-04 12022   0.409E-02    0.248E-02
RMM:  20    -0.639883863133E+03   -0.23976E-04   -0.29211E-04 11300   0.324E-02    0.225E-02
WARNING in EDDRMM: call to ZHEGV failed, returncode =   8  4     10
RMM:  21    -0.639883880697E+03   -0.17564E-04   -0.19926E-04 10983   0.256E-02    0.197E-02
RMM:  22    -0.639883889613E+03   -0.89164E-05   -0.10259E-04 10323   0.231E-02    0.772E-03
RMM:  23    -0.639883896982E+03   -0.73684E-05   -0.65497E-05  9121   0.181E-02
   8 F= -.63988390E+03 E0= -.63980173E+03  d E =-.212909E+00
 trial-energy change:   -0.212909  1 .order   -0.201086   -0.515355    0.113184
 step:   0.6125(harm=  0.6012)  dis= 0.03087  next Energy=  -639.893157 (dE=-0.222E+00)
 bond charge predicted
       N       E                     dE             d eps       ncg     rms          rms(c)
DAV:   1    -0.639819523264E+03    0.64366E-01   -0.39827E+00 13248   0.125E+01    0.154E+00
RMM:   2    -0.640334253096E+03   -0.51473E+00   -0.12026E+00 11794   0.325E+00    0.832E+00
RMM:   3    -0.639926331682E+03    0.40792E+00   -0.21883E-01 11288   0.175E+00    0.247E+00
RMM:   4    -0.639900449803E+03    0.25882E-01   -0.64495E-02 13595   0.654E-01    0.926E-01
RMM:   5    -0.639900715484E+03   -0.26568E-03   -0.17287E-02 12877   0.346E-01    0.115E+00
RMM:   6    -0.639895097255E+03    0.56182E-02   -0.54191E-03 11455   0.240E-01    0.471E-01
RMM:   7    -0.639894489062E+03    0.60819E-03   -0.51144E-03 13409   0.158E-01    0.442E-01
RMM:   8    -0.639894587235E+03   -0.98174E-04   -0.24112E-03 10957   0.177E-01    0.486E-01
RMM:   9    -0.639893261849E+03    0.13254E-02   -0.17619E-03 13120   0.123E-01    0.157E-01
RMM:  10    -0.639893316288E+03   -0.54439E-04   -0.75573E-04 12193   0.804E-02    0.181E-01
RMM:  11    -0.639893173200E+03    0.14309E-03   -0.47436E-04 12110   0.471E-02    0.555E-02
RMM:  12    -0.639893197497E+03   -0.24296E-04   -0.21445E-04 11614   0.363E-02    0.754E-02
RMM:  13    -0.639893182355E+03    0.15142E-04   -0.12851E-04 10466   0.246E-02    0.308E-02
RMM:  14    -0.639893187597E+03   -0.52422E-05   -0.76980E-05  8940   0.210E-02
   9 F= -.63989319E+03 E0= -.63980983E+03  d E =-.222199E+00
 curvature:  -0.56 expect dE=-0.256E+00 dE for cont linesearch -0.946E-07
 trial: gam= 0.56686 g(F)=  0.339E+00 g(S)=  0.118E+00 ort = 0.472E-03 (trialstep = 0.709E+00)
 search vector abs. value=  0.881E+00
 bond charge predicted
       N       E                     dE             d eps       ncg     rms          rms(c)
DAV:   1    -0.638111708087E+03    0.17815E+01   -0.89257E+01  9960   0.522E+01    0.268E+00
RMM:   2    -0.640566845327E+03   -0.24551E+01   -0.21195E+01 14016   0.102E+01    0.921E+00
RMM:   3    -0.640184848650E+03    0.38200E+00   -0.11862E+00  9909   0.516E+00    0.389E+00
RMM:   4    -0.640245204350E+03   -0.60356E-01   -0.49445E-01 13709   0.169E+00    0.445E+00
RMM:   5    -0.640140819081E+03    0.10439E+00   -0.10844E-01 12587   0.102E+00    0.136E+00
RMM:   6    -0.640141730836E+03   -0.91176E-03   -0.76006E-02 14068   0.499E-01    0.138E+00
RMM:   7    -0.640134145986E+03    0.75849E-02   -0.33773E-02 13996   0.420E-01    0.991E-01
RMM:   8    -0.640140428179E+03   -0.62822E-02   -0.24720E-02 12738   0.454E-01    0.165E+00
RMM:   9    -0.640125548858E+03    0.14879E-01   -0.17696E-02 13143   0.388E-01    0.299E-01
RMM:  10    -0.640128450796E+03   -0.29019E-02   -0.10556E-02 14529   0.210E-01    0.753E-01
RMM:  11    -0.640125884946E+03    0.25658E-02   -0.43615E-03 13537   0.163E-01    0.167E-01
RMM:  12    -0.640126230225E+03   -0.34528E-03   -0.30945E-03 13463   0.975E-02    0.264E-01
RMM:  13    -0.640125955471E+03    0.27475E-03   -0.12278E-03 13557   0.798E-02    0.846E-02
RMM:  14    -0.640126010693E+03   -0.55223E-04   -0.97927E-04 13371   0.470E-02    0.462E-02
RMM:  15    -0.640126024049E+03   -0.13356E-04   -0.29538E-04 12514   0.551E-02    0.288E-02
RMM:  16    -0.640126059885E+03   -0.35836E-04   -0.43222E-04 11393   0.296E-02    0.148E-02
RMM:  17    -0.640126065571E+03   -0.56861E-05   -0.15848E-04 11083   0.280E-02    0.863E-03
RMM:  18    -0.640126073570E+03   -0.79990E-05   -0.10771E-04  9499   0.207E-02    0.554E-03
RMM:  19    -0.640126077980E+03   -0.44100E-05   -0.61328E-05  8869   0.191E-02
  10 F= -.64012608E+03 E0= -.64004733E+03  d E =-.232890E+00
 trial-energy change:   -0.232890  1 .order   -0.230591   -0.324605   -0.136578
 step:   1.1685(harm=  1.2241)  dis= 0.05524  next Energy=  -640.170957 (dE=-0.278E+00)
 bond charge predicted
       N       E                     dE             d eps       ncg     rms          rms(c)
DAV:   1    -0.639330916269E+03    0.79516E+00   -0.37200E+01 10008   0.340E+01    0.172E+00
RMM:   2    -0.640316835308E+03   -0.98592E+00   -0.87695E+00 14000   0.659E+00    0.537E+00
RMM:   3    -0.640202728883E+03    0.11411E+00   -0.49106E-01  9901   0.339E+00    0.276E+00
RMM:   4    -0.640220157536E+03   -0.17429E-01   -0.20925E-01 13675   0.113E+00    0.277E+00
RMM:   5    -0.640177183735E+03    0.42974E-01   -0.45728E-02 12562   0.654E-01    0.784E-01
RMM:   6    -0.640180087014E+03   -0.29033E-02   -0.33051E-02 13996   0.342E-01    0.105E+00
RMM:   7    -0.640174900745E+03    0.51863E-02   -0.15215E-02 14049   0.274E-01    0.546E-01
RMM:   8    -0.640177381343E+03   -0.24806E-02   -0.11356E-02 13220   0.297E-01    0.102E+00
RMM:   9    -0.640171935427E+03    0.54459E-02   -0.62278E-03 13229   0.233E-01    0.190E-01
RMM:  10    -0.640172491961E+03   -0.55653E-03   -0.38920E-03 14071   0.113E-01    0.323E-01
RMM:  11    -0.640172110849E+03    0.38111E-03   -0.15962E-03 12752   0.987E-02    0.125E-01
RMM:  12    -0.640172155776E+03   -0.44927E-04   -0.11197E-03 12981   0.556E-02    0.129E-01
RMM:  13    -0.640172116211E+03    0.39565E-04   -0.39590E-04 12401   0.532E-02    0.677E-02
RMM:  14    -0.640172136740E+03   -0.20528E-04   -0.46539E-04 12143   0.307E-02    0.279E-02
RMM:  15    -0.640172139497E+03   -0.27571E-05   -0.13684E-04 11509   0.341E-02    0.163E-02
RMM:  16    -0.640172152653E+03   -0.13156E-04   -0.17267E-04  9775   0.210E-02    0.841E-03
RMM:  17    -0.640172155154E+03   -0.25017E-05   -0.63995E-05  8486   0.211E-02
  11 F= -.64017216E+03 E0= -.64009586E+03  d E =-.278968E+00
 curvature:  -1.16 expect dE=-0.281E+00 dE for cont linesearch -0.664E-05
 trial: gam= 0.33423 g(F)=  0.223E+00 g(S)=  0.184E-01 ort = 0.224E-02 (trialstep = 0.801E+00)
 search vector abs. value=  0.341E+00
 bond charge predicted
       N       E                     dE             d eps       ncg     rms          rms(c)
DAV:   1    -0.639717379875E+03    0.45477E+00   -0.39836E+01 11232   0.313E+01    0.313E+00
RMM:   2    -0.641715203234E+03   -0.19978E+01   -0.78384E+00 13573   0.732E+00    0.142E+01
RMM:   3    -0.640368237853E+03    0.13470E+01   -0.91997E-01 10169   0.442E+00    0.376E+00
RMM:   4    -0.640346032448E+03    0.22205E-01   -0.36242E-01 13994   0.149E+00    0.270E+00
RMM:   5    -0.640314030536E+03    0.32002E-01   -0.80448E-02 12875   0.811E-01    0.178E+00
RMM:   6    -0.640305413939E+03    0.86166E-02   -0.35935E-02 13253   0.496E-01    0.125E+00
RMM:   7    -0.640297652527E+03    0.77614E-02   -0.31379E-02 14070   0.358E-01    0.526E-01
RMM:   8    -0.640302269275E+03   -0.46167E-02   -0.15136E-02 12446   0.399E-01    0.123E+00
RMM:   9    -0.640294554530E+03    0.77147E-02   -0.78987E-03 13292   0.277E-01    0.236E-01
RMM:  10    -0.640295781777E+03   -0.12272E-02   -0.59560E-03 14329   0.145E-01    0.474E-01
RMM:  11    -0.640294839267E+03    0.94251E-03   -0.23928E-03 13414   0.123E-01    0.104E-01
RMM:  12    -0.640294992665E+03   -0.15340E-03   -0.17819E-03 13711   0.591E-02    0.116E-01
RMM:  13    -0.640294984394E+03    0.82709E-05   -0.47000E-04 12628   0.674E-02    0.810E-02
RMM:  14    -0.640295039623E+03   -0.55228E-04   -0.65690E-04 12500   0.359E-02    0.476E-02
RMM:  15    -0.640295062699E+03   -0.23076E-04   -0.29053E-04 12461   0.406E-02    0.245E-02
WARNING in EDDRMM: call to ZHEGV failed, returncode =   8  4      7
RMM:  16    -0.640295071407E+03   -0.87076E-05   -0.22572E-04 12204   0.322E-02    0.917E-03
RMM:  17    -0.640295078594E+03   -0.71876E-05   -0.11012E-04 10751   0.257E-02    0.702E-03
RMM:  18    -0.640295087195E+03   -0.86003E-05   -0.92138E-05 10093   0.201E-02
  12 F= -.64029509E+03 E0= -.64021993E+03  d E =-.122932E+00
 trial-energy change:   -0.122932  1 .order   -0.122747   -0.193725   -0.051769
 step:   1.0930(harm=  1.0930)  dis= 0.02714  next Energy=  -640.304342 (dE=-0.132E+00)
 bond charge predicted
       N       E                     dE             d eps       ncg     rms          rms(c)
DAV:   1    -0.640227217879E+03    0.67861E-01   -0.52611E+00 11496   0.114E+01    0.114E+00
RMM:   2    -0.640501411467E+03   -0.27419E+00   -0.10645E+00 13388   0.273E+00    0.552E+00
RMM:   3    -0.640318853059E+03    0.18256E+00   -0.13360E-01 10202   0.170E+00    0.167E+00
RMM:   4    -0.640311062674E+03    0.77904E-02   -0.51096E-02 13803   0.568E-01    0.896E-01
RMM:   5    -0.640308767305E+03    0.22954E-02   -0.12666E-02 12994   0.298E-01    0.801E-01
RMM:   6    -0.640306080286E+03    0.26870E-02   -0.42831E-03 12570   0.194E-01    0.375E-01
RMM:   7    -0.640305368417E+03    0.71187E-03   -0.47418E-03 13963   0.132E-01    0.197E-01
RMM:   8    -0.640306136349E+03   -0.76793E-03   -0.21047E-03 11615   0.162E-01    0.486E-01
RMM:   9    -0.640304949116E+03    0.11872E-02   -0.12261E-03 12634   0.106E-01    0.877E-02
RMM:  10    -0.640305110939E+03   -0.16182E-03   -0.88053E-04 12593   0.591E-02    0.170E-01
RMM:  11    -0.640304990334E+03    0.12061E-03   -0.36392E-04 12248   0.467E-02    0.380E-02
RMM:  12    -0.640305009897E+03   -0.19563E-04   -0.26035E-04 11805   0.245E-02    0.444E-02
RMM:  13    -0.640305007432E+03    0.24647E-05   -0.69396E-05  8489   0.289E-02
  13 F= -.64030501E+03 E0= -.64023021E+03  d E =-.132852E+00
 curvature:  -0.77 expect dE=-0.148E+00 dE for cont linesearch -0.486E-05
 trial: gam= 0.78682 g(F)=  0.702E-01 g(S)=  0.122E+00 ort = 0.147E-02 (trialstep = 0.722E+00)
 search vector abs. value=  0.406E+00
 bond charge predicted
       N       E                     dE             d eps       ncg     rms          rms(c)
DAV:   1    -0.639980888132E+03    0.32412E+00   -0.40220E+01 12912   0.339E+01    0.530E+00
RMM:   2    -0.645166360445E+03   -0.51855E+01   -0.11694E+01 10930   0.117E+01    0.251E+01
RMM:   3    -0.640506424450E+03    0.46599E+01   -0.22337E+00 11126   0.621E+00    0.499E+00
RMM:   4    -0.640456229452E+03    0.50195E-01   -0.58779E-01 14190   0.196E+00    0.337E+00
RMM:   5    -0.640410143052E+03    0.46086E-01   -0.13559E-01 12898   0.105E+00    0.245E+00
RMM:   6    -0.640392082595E+03    0.18060E-01   -0.54123E-02 12020   0.777E-01    0.188E+00
RMM:   7    -0.640377896143E+03    0.14186E-01   -0.53674E-02 13335   0.561E-01    0.136E+00
RMM:   8    -0.640382851293E+03   -0.49552E-02   -0.26843E-02 11377   0.573E-01    0.168E+00
RMM:   9    -0.640367745836E+03    0.15105E-01   -0.17557E-02 13565   0.369E-01    0.386E-01
RMM:  10    -0.640368928681E+03   -0.11828E-02   -0.10049E-02 13838   0.238E-01    0.536E-01
RMM:  11    -0.640367902396E+03    0.10263E-02   -0.47970E-03 14237   0.144E-01    0.179E-01
RMM:  12    -0.640368206436E+03   -0.30404E-03   -0.23468E-03 13800   0.100E-01    0.223E-01
RMM:  13    -0.640368161791E+03    0.44645E-04   -0.13058E-03 13507   0.709E-02    0.101E-01
RMM:  14    -0.640368332811E+03   -0.17102E-03   -0.89327E-04 13127   0.560E-02    0.724E-02
RMM:  15    -0.640368512629E+03   -0.17982E-03   -0.64476E-04 13157   0.623E-02    0.345E-02
WARNING in EDDRMM: call to ZHEGV failed, returncode =   6  3     10
RMM:  16    -0.640368575535E+03   -0.62906E-04   -0.56662E-04 12566   0.445E-02    0.176E-02
RMM:  17    -0.640368593884E+03   -0.18349E-04   -0.28137E-04 12054   0.417E-02    0.170E-02
RMM:  18    -0.640368612748E+03   -0.18864E-04   -0.21390E-04 10967   0.274E-02    0.155E-02
RMM:  19    -0.640368623729E+03   -0.10981E-04   -0.12467E-04 10653   0.239E-02    0.129E-02
RMM:  20    -0.640368630697E+03   -0.69680E-05   -0.72201E-05  9369   0.199E-02
  14 F= -.64036863E+03 E0= -.64029649E+03  d E =-.636233E-01
 trial-energy change:   -0.063623  1 .order   -0.061950   -0.139697    0.015796
 step:   0.6531(harm=  0.6491)  dis= 0.01697  next Energy=  -640.369387 (dE=-0.644E-01)
 bond charge predicted
       N       E                     dE             d eps       ncg     rms          rms(c)
DAV:   1    -0.640365972410E+03    0.26513E-02   -0.37371E-01 13272   0.328E+00    0.518E-01
RMM:   2    -0.640414824250E+03   -0.48852E-01   -0.94348E-02 11520   0.101E+00    0.256E+00
RMM:   3    -0.640372292457E+03    0.42532E-01   -0.21023E-02 11183   0.603E-01    0.714E-01
RMM:   4    -0.640370167658E+03    0.21248E-02   -0.54110E-03 13511   0.204E-01    0.287E-01
RMM:   5    -0.640370150377E+03    0.17281E-04   -0.17010E-03 12744   0.109E-01    0.334E-01
RMM:   6    -0.640369625094E+03    0.52528E-03   -0.53437E-04 10211   0.825E-02    0.133E-01
RMM:   7    -0.640369551556E+03    0.73538E-04   -0.53304E-04 12792   0.529E-02    0.110E-01
RMM:   8    -0.640369597554E+03   -0.45998E-04   -0.22482E-04  8557   0.612E-02    0.149E-01
RMM:   9    -0.640369459241E+03    0.13831E-03   -0.12622E-04  8926   0.374E-02    0.330E-02
RMM:  10    -0.640369470777E+03   -0.11537E-04   -0.70010E-05  6893   0.251E-02    0.567E-02
RMM:  11    -0.640369454346E+03    0.16431E-04   -0.25575E-05  5727   0.223E-02    0.161E-02
RMM:  12    -0.640369455020E+03   -0.67404E-06   -0.17407E-05  5581   0.134E-02
  15 F= -.64036946E+03 E0= -.64029708E+03  d E =-.644476E-01
 curvature:  -0.68 expect dE=-0.664E-01 dE for cont linesearch -0.121E-08
 trial: gam= 0.50120 g(F)=  0.658E-01 g(S)=  0.320E-01 ort =-0.269E-04 (trialstep = 0.709E+00)
 search vector abs. value=  0.200E+00
 bond charge predicted
       N       E                     dE             d eps       ncg     rms          rms(c)
DAV:   1    -0.640042110012E+03    0.32734E+00   -0.18295E+01  9912   0.227E+01    0.125E+00
RMM:   2    -0.640457968362E+03   -0.41586E+00   -0.39766E+00 13865   0.467E+00    0.282E+00
RMM:   3    -0.640426850795E+03    0.31118E-01   -0.23671E-01  9777   0.237E+00    0.157E+00
RMM:   4    -0.640445546813E+03   -0.18696E-01   -0.95614E-02 13447   0.797E-01    0.230E+00
RMM:   5    -0.640418646461E+03    0.26900E-01   -0.21821E-02 11888   0.479E-01    0.478E-01
RMM:   6    -0.640422930421E+03   -0.42840E-02   -0.18195E-02 13613   0.273E-01    0.107E+00
RMM:   7    -0.640418035176E+03    0.48952E-02   -0.74735E-03 13156   0.231E-01    0.412E-01
RMM:   8    -0.640418734411E+03   -0.69923E-03   -0.66573E-03 13488   0.207E-01    0.627E-01
RMM:   9    -0.640416533471E+03    0.22009E-02   -0.26879E-03 12606   0.156E-01    0.102E-01
RMM:  10    -0.640416790285E+03   -0.25681E-03   -0.21802E-03 13060   0.643E-02    0.179E-01
RMM:  11    -0.640416679290E+03    0.11100E-03   -0.59095E-04 11073   0.653E-02    0.782E-02
RMM:  12    -0.640416685379E+03   -0.60894E-05   -0.54402E-04 11898   0.336E-02    0.441E-02
RMM:  13    -0.640416704382E+03   -0.19002E-04   -0.14465E-04 10110   0.403E-02    0.662E-02
RMM:  14    -0.640416699271E+03    0.51104E-05   -0.22077E-04 10413   0.245E-02    0.176E-02
RMM:  15    -0.640416701497E+03   -0.22262E-05   -0.78847E-05  8493   0.217E-02
  16 F= -.64041670E+03 E0= -.64034524E+03  d E =-.472465E-01
 trial-energy change:   -0.047246  1 .order   -0.046954   -0.069311   -0.024596
 step:   1.0765(harm=  1.0984)  dis= 0.02345  next Energy=  -640.423126 (dE=-0.537E-01)
 bond charge predicted
       N       E                     dE             d eps       ncg     rms          rms(c)
DAV:   1    -0.640321072793E+03    0.95626E-01   -0.49091E+00  9816   0.118E+01    0.648E-01
RMM:   2    -0.640435123534E+03   -0.11405E+00   -0.10856E+00 13867   0.242E+00    0.148E+00
RMM:   3    -0.640426162978E+03    0.89606E-02   -0.66315E-02  9792   0.125E+00    0.780E-01
RMM:   4    -0.640431305694E+03   -0.51427E-02   -0.26616E-02 13557   0.411E-01    0.118E+00
RMM:   5    -0.640424322388E+03    0.69833E-02   -0.60507E-03 11714   0.252E-01    0.256E-01
RMM:   6    -0.640425536808E+03   -0.12144E-02   -0.50113E-03 13143   0.140E-01    0.571E-01
RMM:   7    -0.640424148125E+03    0.13887E-02   -0.21364E-03 12918   0.124E-01    0.202E-01
RMM:   8    -0.640424340238E+03   -0.19211E-03   -0.18867E-03 13370   0.110E-01    0.321E-01
RMM:   9    -0.640423775518E+03    0.56472E-03   -0.77921E-04 11548   0.831E-02    0.570E-02
RMM:  10    -0.640423859591E+03   -0.84073E-04   -0.57640E-04 11367   0.387E-02    0.113E-01
RMM:  11    -0.640423808177E+03    0.51415E-04   -0.19934E-04  9829   0.356E-02    0.355E-02
RMM:  12    -0.640423816230E+03   -0.80530E-05   -0.16136E-04 10007   0.215E-02    0.369E-02
RMM:  13    -0.640423813646E+03    0.25835E-05   -0.49019E-05  6939   0.237E-02
  17 F= -.64042381E+03 E0= -.64035276E+03  d E =-.543586E-01
 curvature:  -1.12 expect dE=-0.489E-01 dE for cont linesearch -0.204E-04
 trial: gam= 0.35504 g(F)=  0.392E-01 g(S)=  0.458E-02 ort = 0.191E-02 (trialstep = 0.782E+00)
 search vector abs. value=  0.703E-01
 bond charge predicted
       N       E                     dE             d eps       ncg     rms          rms(c)
DAV:   1    -0.640264499461E+03    0.15932E+00   -0.82888E+00 10344   0.165E+01    0.123E+00
RMM:   2    -0.640599327340E+03   -0.33483E+00   -0.21258E+00 14113   0.368E+00    0.465E+00
RMM:   3    -0.640454471758E+03    0.14486E+00   -0.18288E-01 10322   0.186E+00    0.114E+00
RMM:   4    -0.640464568201E+03   -0.10096E-01   -0.70648E-02 13503   0.648E-01    0.157E+00
RMM:   5    -0.640450256650E+03    0.14312E-01   -0.13036E-02 12556   0.360E-01    0.338E-01
RMM:   6    -0.640452069541E+03   -0.18129E-02   -0.85539E-03 14065   0.201E-01    0.713E-01
RMM:   7    -0.640449857575E+03    0.22120E-02   -0.35453E-03 13449   0.170E-01    0.335E-01
RMM:   8    -0.640450991106E+03   -0.11335E-02   -0.31058E-03 13110   0.163E-01    0.609E-01
RMM:   9    -0.640449070932E+03    0.19202E-02   -0.17712E-03 13228   0.128E-01    0.750E-02
RMM:  10    -0.640449303139E+03   -0.23221E-03   -0.12804E-03 13334   0.612E-02    0.197E-01
RMM:  11    -0.640449147821E+03    0.15532E-03   -0.44117E-04 12327   0.550E-02    0.468E-02
RMM:  12    -0.640449174451E+03   -0.26630E-04   -0.37206E-04 12291   0.290E-02    0.470E-02
RMM:  13    -0.640449172662E+03    0.17885E-05   -0.97793E-05  9719   0.332E-02
  18 F= -.64044917E+03 E0= -.64037800E+03  d E =-.253590E-01
 trial-energy change:   -0.025359  1 .order   -0.024965   -0.034780   -0.015149
 step:   1.2859(harm=  1.3858)  dis= 0.01623  next Energy=  -640.454156 (dE=-0.303E-01)
 bond charge predicted
       N       E                     dE             d eps       ncg     rms          rms(c)
DAV:   1    -0.640380887493E+03    0.68287E-01   -0.34601E+00 10848   0.107E+01    0.788E-01
RMM:   2    -0.640519754452E+03   -0.13887E+00   -0.86639E-01 14070   0.236E+00    0.304E+00
RMM:   3    -0.640457412213E+03    0.62342E-01   -0.74752E-02 10321   0.120E+00    0.741E-01
RMM:   4    -0.640461353740E+03   -0.39415E-02   -0.29734E-02 13553   0.419E-01    0.986E-01
RMM:   5    -0.640455719846E+03    0.56339E-02   -0.54602E-03 12594   0.228E-01    0.227E-01
RMM:   6    -0.640456516996E+03   -0.79715E-03   -0.35407E-03 13729   0.131E-01    0.471E-01
RMM:   7    -0.640455556402E+03    0.96059E-03   -0.16039E-03 13480   0.110E-01    0.217E-01
RMM:   8    -0.640456016544E+03   -0.46014E-03   -0.12777E-03 12826   0.109E-01    0.386E-01
RMM:   9    -0.640455231111E+03    0.78543E-03   -0.79030E-04 12854   0.837E-02    0.451E-02
RMM:  10    -0.640455328648E+03   -0.97537E-04   -0.58117E-04 12558   0.424E-02    0.123E-01
RMM:  11    -0.640455268818E+03    0.59829E-04   -0.19699E-04 11419   0.378E-02    0.295E-02
RMM:  12    -0.640455279889E+03   -0.11071E-04   -0.16642E-04 10250   0.204E-02    0.282E-02
RMM:  13    -0.640455280050E+03   -0.16081E-06   -0.46488E-05  6835   0.256E-02
  19 F= -.64045528E+03 E0= -.64038404E+03  d E =-.314664E-01
 curvature:  -1.07 expect dE=-0.419E-01 dE for cont linesearch -0.207E-03
 trial: gam= 0.83780 g(F)=  0.164E-01 g(S)=  0.229E-01 ort = 0.369E-02 (trialstep = 0.655E+00)
 search vector abs. value=  0.949E-01
 bond charge predicted
       N       E                     dE             d eps       ncg     rms          rms(c)
DAV:   1    -0.640359669508E+03    0.95610E-01   -0.81596E+00 12624   0.161E+01    0.220E+00
RMM:   2    -0.641320672929E+03   -0.96100E+00   -0.23066E+00 11533   0.483E+00    0.112E+01
RMM:   3    -0.640520336799E+03    0.80034E+00   -0.41813E-01 11009   0.253E+00    0.307E+00
RMM:   4    -0.640483807544E+03    0.36529E-01   -0.12079E-01 13536   0.938E-01    0.127E+00
RMM:   5    -0.640479755962E+03    0.40516E-02   -0.32330E-02 13138   0.475E-01    0.118E+00
RMM:   6    -0.640473730882E+03    0.60251E-02   -0.99866E-03 12378   0.322E-01    0.641E-01
RMM:   7    -0.640472470247E+03    0.12606E-02   -0.97385E-03 13720   0.221E-01    0.520E-01
RMM:   8    -0.640473195608E+03   -0.72536E-03   -0.44927E-03 11176   0.249E-01    0.647E-01
RMM:   9    -0.640470745655E+03    0.24500E-02   -0.28780E-03 13715   0.149E-01    0.130E-01
RMM:  10    -0.640471049339E+03   -0.30368E-03   -0.13847E-03 13293   0.928E-02    0.253E-01
RMM:  11    -0.640470810272E+03    0.23907E-03   -0.75915E-04 13032   0.626E-02    0.572E-02
RMM:  12    -0.640470857909E+03   -0.47638E-04   -0.45585E-04 12956   0.363E-02    0.443E-02
RMM:  13    -0.640470895514E+03   -0.37605E-04   -0.17990E-04 11802   0.369E-02    0.564E-02
RMM:  14    -0.640470912305E+03   -0.16791E-04   -0.14482E-04 11286   0.280E-02    0.294E-02
RMM:  15    -0.640470950657E+03   -0.38352E-04   -0.14626E-04 11358   0.239E-02    0.154E-02
RMM:  16    -0.640470960007E+03   -0.93509E-05   -0.66640E-05  9128   0.240E-02
  20 F= -.64047096E+03 E0= -.64040013E+03  d E =-.156800E-01
 trial-energy change:   -0.015680  1 .order   -0.015543   -0.027754   -0.003332
 step:   0.7406(harm=  0.7438)  dis= 0.01294  next Energy=  -640.471179 (dE=-0.159E-01)
 bond charge predicted
       N       E                     dE             d eps       ncg     rms          rms(c)
DAV:   1    -0.640469214051E+03    0.17366E-02   -0.14142E-01 13368   0.211E+00    0.291E-01
RMM:   2    -0.640485883770E+03   -0.16670E-01   -0.38083E-02 11378   0.611E-01    0.150E+00
RMM:   3    -0.640472187877E+03    0.13696E-01   -0.72724E-03 10529   0.334E-01    0.450E-01
RMM:   4    -0.640471322356E+03    0.86552E-03   -0.21152E-03 12099   0.130E-01    0.157E-01
RMM:   5    -0.640471307204E+03    0.15152E-04   -0.63926E-04 11884   0.629E-02    0.173E-01
RMM:   6    -0.640471168804E+03    0.13840E-03   -0.16279E-04  8218   0.471E-02    0.716E-02
RMM:   7    -0.640471157464E+03    0.11340E-04   -0.17083E-04 11413   0.290E-02    0.547E-02
RMM:   8    -0.640471175992E+03   -0.18528E-04   -0.69853E-05  6994   0.367E-02    0.784E-02
RMM:   9    -0.640471143204E+03    0.32788E-04   -0.47583E-05  6719   0.238E-02    0.128E-02
RMM:  10    -0.640471150586E+03   -0.73823E-05   -0.27978E-05  6018   0.196E-02
  21 F= -.64047115E+03 E0= -.64040038E+03  d E =-.158705E-01
 curvature:  -0.83 expect dE=-0.243E-01 dE for cont linesearch -0.378E-07
 trial: gam= 0.85382 g(F)=  0.155E-01 g(S)=  0.137E-01 ort =-0.657E-04 (trialstep = 0.649E+00)
 search vector abs. value=  0.982E-01
 bond charge predicted
       N       E                     dE             d eps       ncg     rms          rms(c)
DAV:   1    -0.640312339455E+03    0.15880E+00   -0.80320E+00  9768   0.155E+01    0.738E-01
RMM:   2    -0.640512328013E+03   -0.19999E+00   -0.18022E+00 13870   0.313E+00    0.248E+00
RMM:   3    -0.640489092961E+03    0.23235E-01   -0.96540E-02 10021   0.142E+00    0.102E+00
RMM:   4    -0.640494012455E+03   -0.49195E-02   -0.44570E-02 13673   0.488E-01    0.108E+00
RMM:   5    -0.640486897383E+03    0.71151E-02   -0.79171E-03 11303   0.289E-01    0.368E-01
RMM:   6    -0.640487238893E+03   -0.34151E-03   -0.59438E-03 13084   0.137E-01    0.390E-01
RMM:   7    -0.640486525530E+03    0.71336E-03   -0.27025E-03 13586   0.101E-01    0.185E-01
RMM:   8    -0.640486589439E+03   -0.63908E-04   -0.18843E-03 13343   0.120E-01    0.276E-01
RMM:   9    -0.640486198866E+03    0.39057E-03   -0.76548E-04 11950   0.841E-02    0.821E-02
RMM:  10    -0.640486220660E+03   -0.21794E-04   -0.56305E-04 11894   0.395E-02    0.619E-02
RMM:  11    -0.640486223438E+03   -0.27783E-05   -0.16983E-04  9777   0.380E-02    0.645E-02
RMM:  12    -0.640486212540E+03    0.10898E-04   -0.16304E-04  9995   0.238E-02    0.253E-02
RMM:  13    -0.640486221660E+03   -0.91199E-05   -0.62441E-05  7618   0.221E-02
  22 F= -.64048622E+03 E0= -.64041541E+03  d E =-.150711E-01
 trial-energy change:   -0.015071  1 .order   -0.014726   -0.018904   -0.010547
 step:   1.2084(harm=  1.4671)  dis= 0.02425  next Energy=  -640.490995 (dE=-0.198E-01)
 bond charge predicted
       N       E                     dE             d eps       ncg     rms          rms(c)
DAV:   1    -0.640355761842E+03    0.13045E+00   -0.59152E+00  9480   0.134E+01    0.650E-01
RMM:   2    -0.640510730424E+03   -0.15497E+00   -0.14097E+00 13837   0.284E+00    0.209E+00
RMM:   3    -0.640495238136E+03    0.15492E-01   -0.79238E-02 10175   0.122E+00    0.916E-01
RMM:   4    -0.640498897284E+03   -0.36591E-02   -0.33839E-02 13428   0.424E-01    0.960E-01
RMM:   5    -0.640493332637E+03    0.55646E-02   -0.58453E-03 11427   0.251E-01    0.319E-01
RMM:   6    -0.640493591076E+03   -0.25844E-03   -0.45863E-03 13011   0.120E-01    0.336E-01
RMM:   7    -0.640493088070E+03    0.50301E-03   -0.20893E-03 13679   0.894E-02    0.165E-01
RMM:   8    -0.640493218250E+03   -0.13018E-03   -0.14661E-03 13462   0.108E-01    0.268E-01
RMM:   9    -0.640492841626E+03    0.37662E-03   -0.64443E-04 11940   0.758E-02    0.627E-02
RMM:  10    -0.640492873180E+03   -0.31554E-04   -0.48898E-04 12078   0.348E-02    0.545E-02
RMM:  11    -0.640492870603E+03    0.25764E-05   -0.13436E-04  9596   0.359E-02    0.499E-02
RMM:  12    -0.640492866941E+03    0.36624E-05   -0.14337E-04  9659   0.223E-02    0.207E-02
RMM:  13    -0.640492875409E+03   -0.84685E-05   -0.50146E-05  7274   0.212E-02
  23 F= -.64049288E+03 E0= -.64042202E+03  d E =-.217248E-01
 curvature:  -2.23 expect dE=-0.489E-01 dE for cont linesearch -0.765E-03
 ZBRENT: increasing intervall
 opt :   2.3280  next Energy=  -640.487685 (dE=-0.165E-01)
 bond charge predicted
       N       E                     dE             d eps       ncg     rms          rms(c)
DAV:   1    -0.639936392261E+03    0.55647E+00   -0.23666E+01  9504   0.268E+01    0.131E+00
RMM:   2    -0.640573976468E+03   -0.63758E+00   -0.56997E+00 13849   0.565E+00    0.456E+00
RMM:   3    -0.640494101760E+03    0.79875E-01   -0.33193E-01 10137   0.245E+00    0.163E+00
RMM:   4    -0.640512380463E+03   -0.18279E-01   -0.13811E-01 13467   0.870E-01    0.193E+00
RMM:   5    -0.640490373925E+03    0.22007E-01   -0.24357E-02 11935   0.507E-01    0.680E-01
RMM:   6    -0.640490697898E+03   -0.32397E-03   -0.17816E-02 13916   0.230E-01    0.601E-01
RMM:   7    -0.640489017489E+03    0.16804E-02   -0.78382E-03 13899   0.173E-01    0.315E-01
RMM:   8    -0.640488944295E+03    0.73194E-04   -0.54998E-03 13974   0.193E-01    0.436E-01
RMM:   9    -0.640488158399E+03    0.78590E-03   -0.21812E-03 13223   0.134E-01    0.176E-01
RMM:  10    -0.640488287760E+03   -0.12936E-03   -0.15421E-03 13341   0.722E-02    0.188E-01
RMM:  11    -0.640488158928E+03    0.12883E-03   -0.62702E-04 12132   0.677E-02    0.854E-02
RMM:  12    -0.640488152150E+03    0.67775E-05   -0.54164E-04 12121   0.370E-02    0.365E-02
RMM:  13    -0.640488177590E+03   -0.25440E-04   -0.18464E-04 11527   0.387E-02    0.682E-02
RMM:  14    -0.640488167985E+03    0.96054E-05   -0.17931E-04 10882   0.290E-02    0.234E-02
WARNING in EDDRMM: call to ZHEGV failed, returncode =   6  3      9
RMM:  15    -0.640488174000E+03   -0.60150E-05   -0.11662E-04  9286   0.209E-02    0.102E-02
RMM:  16    -0.640488175341E+03   -0.13417E-05   -0.47311E-05  7820   0.221E-02
  24 F= -.64048818E+03 E0= -.64041734E+03  d E =-.170248E-01
 curvature:  15.09 expect dE= 0.939E+00 dE for cont linesearch  0.375E-01
 ZBRENT: bracketing found
 ZBRENT: interpolating
 opt :   1.5119  next Energy=  -640.493757 (dE=-0.226E-01)
 bond charge predicted
       N       E                     dE             d eps       ncg     rms          rms(c)
DAV:   1    -0.640187298319E+03    0.30088E+00   -0.12423E+01  9408   0.196E+01    0.949E-01
RMM:   2    -0.640520299352E+03   -0.33300E+00   -0.30874E+00 13830   0.422E+00    0.257E+00
RMM:   3    -0.640500689672E+03    0.19610E-01   -0.22465E-01 10214   0.180E+00    0.142E+00
RMM:   4    -0.640507919646E+03   -0.72300E-02   -0.67427E-02 13570   0.588E-01    0.153E+00
RMM:   5    -0.640495348354E+03    0.12571E-01   -0.11919E-02 10685   0.375E-01    0.480E-01
RMM:   6    -0.640495515819E+03   -0.16747E-03   -0.91924E-03 13314   0.170E-01    0.454E-01
RMM:   7    -0.640494777253E+03    0.73857E-03   -0.39433E-03 13655   0.128E-01    0.339E-01
RMM:   8    -0.640495267352E+03   -0.49010E-03   -0.22622E-03 11521   0.155E-01    0.487E-01
RMM:   9    -0.640493906082E+03    0.13613E-02   -0.19670E-03 13429   0.122E-01    0.788E-02
RMM:  10    -0.640494089591E+03   -0.18351E-03   -0.92080E-04 12681   0.603E-02    0.184E-01
RMM:  11    -0.640493955168E+03    0.13442E-03   -0.38416E-04 11583   0.512E-02    0.589E-02
RMM:  12    -0.640493970395E+03   -0.15227E-04   -0.29240E-04 11155   0.286E-02    0.556E-02
RMM:  13    -0.640493966008E+03    0.43871E-05   -0.97330E-05  9124   0.298E-02
  25 F= -.64049397E+03 E0= -.64042310E+03  d E =-.228154E-01
 curvature:  -0.35 expect dE=-0.100E-01 dE for cont linesearch -0.103E-04
 trial: gam= 0.69086 g(F)=  0.229E-01 g(S)=  0.536E-02 ort = 0.169E-02 (trialstep = 0.821E+00)
 search vector abs. value=  0.775E-01
 bond charge predicted
       N       E                     dE             d eps       ncg     rms          rms(c)
DAV:   1    -0.640249474314E+03    0.24450E+00   -0.10175E+01 10056   0.185E+01    0.142E+00
RMM:   2    -0.640705092964E+03   -0.45562E+00   -0.28782E+00 14202   0.425E+00    0.539E+00
RMM:   3    -0.640521382117E+03    0.18371E+00   -0.30260E-01 10394   0.201E+00    0.161E+00
RMM:   4    -0.640526401821E+03   -0.50197E-02   -0.82149E-02 13494   0.678E-01    0.164E+00
RMM:   5    -0.640512019604E+03    0.14382E-01   -0.16373E-02 12456   0.402E-01    0.533E-01
RMM:   6    -0.640513493284E+03   -0.14737E-02   -0.95811E-03 13335   0.218E-01    0.787E-01
RMM:   7    -0.640510457719E+03    0.30356E-02   -0.56489E-03 13324   0.187E-01    0.242E-01
RMM:   8    -0.640510039127E+03    0.41859E-03   -0.39319E-03 14097   0.157E-01    0.275E-01
RMM:   9    -0.640509813950E+03    0.22518E-03   -0.12448E-03 12739   0.104E-01    0.151E-01
RMM:  10    -0.640509831707E+03   -0.17757E-04   -0.86894E-04 12545   0.567E-02    0.131E-01
RMM:  11    -0.640509774439E+03    0.57268E-04   -0.32272E-04 11895   0.515E-02    0.602E-02
RMM:  12    -0.640509783345E+03   -0.89058E-05   -0.29371E-04 11857   0.253E-02    0.390E-02
RMM:  13    -0.640509793629E+03   -0.10284E-04   -0.81149E-05  9679   0.311E-02    0.519E-02
RMM:  14    -0.640509789868E+03    0.37617E-05   -0.98365E-05  9367   0.219E-02
  26 F= -.64050979E+03 E0= -.64043889E+03  d E =-.158239E-01
 trial-energy change:   -0.015824  1 .order   -0.015902   -0.024154   -0.007650
 step:   1.2187(harm=  1.2019)  dis= 0.02648  next Energy=  -640.511632 (dE=-0.177E-01)
 bond charge predicted
       N       E                     dE             d eps       ncg     rms          rms(c)
DAV:   1    -0.640456400327E+03    0.53393E-01   -0.24380E+00 10584   0.896E+00    0.677E-01
RMM:   2    -0.640560474059E+03   -0.10407E+00   -0.64002E-01 14101   0.193E+00    0.264E+00
RMM:   3    -0.640514374890E+03    0.46099E-01   -0.55827E-02 10372   0.960E-01    0.776E-01
RMM:   4    -0.640515440739E+03   -0.10658E-02   -0.19489E-02 13463   0.324E-01    0.771E-01
RMM:   5    -0.640512245539E+03    0.31952E-02   -0.38288E-03 12447   0.191E-01    0.244E-01
RMM:   6    -0.640512662313E+03   -0.41677E-03   -0.23152E-03 12607   0.107E-01    0.391E-01
RMM:   7    -0.640511929548E+03    0.73277E-03   -0.13897E-03 13610   0.944E-02    0.116E-01
RMM:   8    -0.640511906129E+03    0.23419E-04   -0.10017E-03 13684   0.806E-02    0.163E-01
RMM:   9    -0.640511794591E+03    0.11154E-03   -0.36078E-04 11564   0.565E-02    0.559E-02
RMM:  10    -0.640511814292E+03   -0.19701E-04   -0.25388E-04 11942   0.292E-02    0.666E-02
RMM:  11    -0.640511799505E+03    0.14787E-04   -0.83762E-05  8531   0.284E-02    0.299E-02
RMM:  12    -0.640511801975E+03   -0.24709E-05   -0.86481E-05  7953   0.174E-02
  27 F= -.64051180E+03 E0= -.64044087E+03  d E =-.178360E-01
 curvature:  -1.58 expect dE=-0.583E-01 dE for cont linesearch -0.751E-08
 trial: gam= 1.30405 g(F)=  0.118E-01 g(S)=  0.251E-01 ort = 0.192E-04 (trialstep = 0.414E+00)
 search vector abs. value=  0.169E+00
 bond charge predicted
       N       E                     dE             d eps       ncg     rms          rms(c)
DAV:   1    -0.640390491777E+03    0.12131E+00   -0.58750E+00 10392   0.139E+01    0.108E+00
RMM:   2    -0.640696265242E+03   -0.30577E+00   -0.15759E+00 14044   0.304E+00    0.513E+00
RMM:   3    -0.640532593691E+03    0.16367E+00   -0.15033E-01 10400   0.157E+00    0.145E+00
RMM:   4    -0.640529584337E+03    0.30094E-02   -0.56356E-02 13426   0.550E-01    0.927E-01
RMM:   5    -0.640525969058E+03    0.36153E-02   -0.10893E-02 13147   0.279E-01    0.622E-01
RMM:   6    -0.640524532059E+03    0.14370E-02   -0.38271E-03 12553   0.167E-01    0.348E-01
RMM:   7    -0.640524169249E+03    0.36281E-03   -0.31233E-03 13923   0.113E-01    0.296E-01
RMM:   8    -0.640524557810E+03   -0.38856E-03   -0.17539E-03 10596   0.152E-01    0.411E-01
RMM:   9    -0.640523500156E+03    0.10577E-02   -0.14657E-03 13134   0.111E-01    0.752E-02
RMM:  10    -0.640523622832E+03   -0.12268E-03   -0.70542E-04 12225   0.610E-02    0.144E-01
RMM:  11    -0.640523548051E+03    0.74781E-04   -0.32041E-04 11991   0.440E-02    0.495E-02
RMM:  12    -0.640523568609E+03   -0.20558E-04   -0.18319E-04 10734   0.273E-02    0.609E-02
RMM:  13    -0.640523560556E+03    0.80524E-05   -0.77310E-05  8220   0.230E-02
  28 F= -.64052356E+03 E0= -.64045300E+03  d E =-.117586E-01
 trial-energy change:   -0.011759  1 .order   -0.011485   -0.015267   -0.007704
 step:   0.7197(harm=  0.8351)  dis= 0.02633  next Energy=  -640.526520 (dE=-0.147E-01)
 bond charge predicted
       N       E                     dE             d eps       ncg     rms          rms(c)
DAV:   1    -0.640454506629E+03    0.69062E-01   -0.32216E+00 10488   0.103E+01    0.798E-01
RMM:   2    -0.640618262180E+03   -0.16376E+00   -0.85377E-01 13972   0.223E+00    0.370E+00
RMM:   3    -0.640531736329E+03    0.86526E-01   -0.80893E-02 10367   0.117E+00    0.104E+00
RMM:   4    -0.640530393094E+03    0.13432E-02   -0.30589E-02 13226   0.405E-01    0.685E-01
RMM:   5    -0.640528335528E+03    0.20576E-02   -0.59525E-03 13016   0.206E-01    0.437E-01
RMM:   6    -0.640527692018E+03    0.64351E-03   -0.21917E-03 12008   0.121E-01    0.260E-01
RMM:   7    -0.640527456224E+03    0.23579E-03   -0.16503E-03 13872   0.824E-02    0.196E-01
RMM:   8    -0.640527751828E+03   -0.29560E-03   -0.98155E-04 10772   0.114E-01    0.311E-01
RMM:   9    -0.640527162729E+03    0.58910E-03   -0.76080E-04 12505   0.817E-02    0.463E-02
RMM:  10    -0.640527226020E+03   -0.63291E-04   -0.40375E-04 12087   0.456E-02    0.862E-02
RMM:  11    -0.640527203980E+03    0.22040E-04   -0.17143E-04 11248   0.322E-02    0.333E-02
RMM:  12    -0.640527215319E+03   -0.11339E-04   -0.11912E-04  9675   0.213E-02    0.310E-02
RMM:  13    -0.640527217500E+03   -0.21812E-05   -0.33812E-05  6606   0.199E-02
  29 F= -.64052722E+03 E0= -.64045692E+03  d E =-.154155E-01
 curvature:  -1.77 expect dE=-0.366E-01 dE for cont linesearch -0.198E-03
 ZBRENT: extrapolating
 opt :   0.8129  next Energy=  -640.527420 (dE=-0.156E-01)
 bond charge predicted
       N       E                     dE             d eps       ncg     rms          rms(c)
DAV:   1    -0.640520667009E+03    0.65483E-02   -0.29965E-01 10896   0.313E+00    0.242E-01
RMM:   2    -0.640535523698E+03   -0.14857E-01   -0.78508E-02 13853   0.672E-01    0.110E+00
RMM:   3    -0.640527843310E+03    0.76804E-02   -0.73676E-03 10163   0.356E-01    0.314E-01
RMM:   4    -0.640527735912E+03    0.10740E-03   -0.27995E-03 12306   0.124E-01    0.209E-01
RMM:   5    -0.640527546873E+03    0.18904E-03   -0.55577E-04 11412   0.624E-02    0.130E-01
RMM:   6    -0.640527494790E+03    0.52083E-04   -0.21163E-04  8762   0.409E-02    0.789E-02
RMM:   7    -0.640527477524E+03    0.17266E-04   -0.16151E-04 10523   0.280E-02    0.577E-02
RMM:   8    -0.640527507829E+03   -0.30305E-04   -0.94729E-05  7657   0.386E-02    0.931E-02
RMM:   9    -0.640527458766E+03    0.49063E-04   -0.76420E-05  8179   0.283E-02    0.137E-02
RMM:  10    -0.640527466565E+03   -0.77987E-05   -0.41045E-05  6737   0.192E-02
  30 F= -.64052747E+03 E0= -.64045723E+03  d E =-.156646E-01
 curvature:  -1.81 expect dE=-0.469E-01 dE for cont linesearch -0.314E-05
 trial: gam= 0.67285 g(F)=  0.161E-01 g(S)=  0.981E-02 ort = 0.541E-03 (trialstep = 0.494E+00)
 search vector abs. value=  0.103E+00
 bond charge predicted
       N       E                     dE             d eps       ncg     rms          rms(c)
DAV:   1    -0.640426732948E+03    0.10073E+00   -0.50444E+00  9408   0.123E+01    0.613E-01
RMM:   2    -0.640541670723E+03   -0.11494E+00   -0.11474E+00 13808   0.252E+00    0.129E+00
RMM:   3    -0.640541248157E+03    0.42257E-03   -0.70337E-02 10046   0.109E+00    0.924E-01
RMM:   4    -0.640541323902E+03   -0.75744E-04   -0.25486E-02 13620   0.351E-01    0.669E-01
RMM:   5    -0.640538453462E+03    0.28704E-02   -0.40941E-03 10405   0.226E-01    0.265E-01
RMM:   6    -0.640539180417E+03   -0.72695E-03   -0.34085E-03 12657   0.119E-01    0.468E-01
RMM:   7    -0.640538215240E+03    0.96518E-03   -0.15860E-03 12640   0.102E-01    0.173E-01
RMM:   8    -0.640538092066E+03    0.12317E-03   -0.13950E-03 13423   0.829E-02    0.165E-01
RMM:   9    -0.640538006467E+03    0.85599E-04   -0.47670E-04 10455   0.637E-02    0.105E-01
RMM:  10    -0.640537971389E+03    0.35078E-04   -0.32446E-04 10571   0.337E-02    0.523E-02
RMM:  11    -0.640537981395E+03   -0.10005E-04   -0.13857E-04  8976   0.289E-02    0.599E-02
RMM:  12    -0.640537967779E+03    0.13616E-04   -0.10255E-04  9172   0.202E-02    0.144E-02
RMM:  13    -0.640537972777E+03   -0.49989E-05   -0.50129E-05  7042   0.169E-02
  31 F= -.64053797E+03 E0= -.64046790E+03  d E =-.105062E-01
 trial-energy change:   -0.010506  1 .order   -0.010294   -0.012983   -0.007606
 step:   0.9701(harm=  1.1916)  dis= 0.03128  next Energy=  -640.541835 (dE=-0.144E-01)
 bond charge predicted
       N       E                     dE             d eps       ncg     rms          rms(c)
DAV:   1    -0.640440344816E+03    0.97623E-01   -0.47161E+00  9408   0.119E+01    0.589E-01
RMM:   2    -0.640546560463E+03   -0.10622E+00   -0.10639E+00 13812   0.243E+00    0.120E+00
RMM:   3    -0.640546409242E+03    0.15122E-03   -0.63118E-02 10058   0.104E+00    0.901E-01
RMM:   4    -0.640546397198E+03    0.12043E-04   -0.24156E-02 13605   0.336E-01    0.641E-01
RMM:   5    -0.640543683746E+03    0.27135E-02   -0.37369E-03 10371   0.219E-01    0.231E-01
RMM:   6    -0.640544421772E+03   -0.73803E-03   -0.33142E-03 12828   0.117E-01    0.458E-01
RMM:   7    -0.640543554126E+03    0.86765E-03   -0.14124E-03 12354   0.101E-01    0.189E-01
RMM:   8    -0.640543521778E+03    0.32348E-04   -0.13530E-03 13313   0.843E-02    0.210E-01
RMM:   9    -0.640543314369E+03    0.20741E-03   -0.49801E-04 10715   0.642E-02    0.772E-02
RMM:  10    -0.640543313023E+03    0.13457E-05   -0.36869E-04 10728   0.318E-02    0.531E-02
RMM:  11    -0.640543318585E+03   -0.55619E-05   -0.12307E-04  8908   0.306E-02    0.562E-02
RMM:  12    -0.640543309267E+03    0.93178E-05   -0.11273E-04  9268   0.194E-02    0.165E-02
RMM:  13    -0.640543314642E+03   -0.53748E-05   -0.43695E-05  6754   0.183E-02
  32 F= -.64054331E+03 E0= -.64047341E+03  d E =-.158481E-01
 curvature:  -2.10 expect dE=-0.294E-01 dE for cont linesearch -0.592E-03
 ZBRENT: increasing intervall
 opt :   1.9231  next Energy=  -640.538903 (dE=-0.114E-01)
 bond charge predicted
       N       E                     dE             d eps       ncg     rms          rms(c)
DAV:   1    -0.640130113877E+03    0.41320E+00   -0.18919E+01  9408   0.235E+01    0.118E+00
RMM:   2    -0.640555886779E+03   -0.42577E+00   -0.42317E+00 13820   0.484E+00    0.260E+00
RMM:   3    -0.640548891710E+03    0.69951E-02   -0.26405E-01 10017   0.215E+00    0.163E+00
RMM:   4    -0.640548295739E+03    0.59597E-03   -0.91354E-02 13692   0.657E-01    0.108E+00
RMM:   5    -0.640540879678E+03    0.74161E-02   -0.14396E-02 10744   0.417E-01    0.436E-01
RMM:   6    -0.640542629231E+03   -0.17496E-02   -0.11935E-02 13660   0.212E-01    0.760E-01
RMM:   7    -0.640540803083E+03    0.18261E-02   -0.49277E-03 12732   0.201E-01    0.493E-01
RMM:   8    -0.640540359566E+03    0.44352E-03   -0.46112E-03 13550   0.170E-01    0.459E-01
RMM:   9    -0.640539311865E+03    0.10477E-02   -0.19058E-03 12082   0.123E-01    0.139E-01
RMM:  10    -0.640539360330E+03   -0.48465E-04   -0.15702E-03 12419   0.573E-02    0.126E-01
RMM:  11    -0.640539341394E+03    0.18936E-04   -0.44565E-04 10597   0.585E-02    0.976E-02
RMM:  12    -0.640539331156E+03    0.10238E-04   -0.46432E-04 11105   0.331E-02    0.484E-02
RMM:  13    -0.640539341835E+03   -0.10680E-04   -0.15297E-04  9823   0.336E-02    0.544E-02
RMM:  14    -0.640539340555E+03    0.12803E-05   -0.16356E-04  9693   0.224E-02    0.157E-02
RMM:  15    -0.640539343645E+03   -0.30897E-05   -0.75321E-05  8325   0.193E-02
  33 F= -.64053934E+03 E0= -.64046976E+03  d E =-.118771E-01
 curvature:  15.64 expect dE= 0.808E+00 dE for cont linesearch  0.356E-01
 ZBRENT: bracketing found
 ZBRENT: interpolating
 opt :   1.2182  next Energy=  -640.543984 (dE=-0.165E-01)
 bond charge predicted
       N       E                     dE             d eps       ncg     rms          rms(c)
DAV:   1    -0.640327781576E+03    0.21156E+00   -0.10416E+01  9456   0.175E+01    0.864E-01
RMM:   2    -0.640555011237E+03   -0.22723E+00   -0.22660E+00 13719   0.361E+00    0.166E+00
RMM:   3    -0.640550652787E+03    0.43585E-02   -0.13526E-01 10134   0.148E+00    0.121E+00
RMM:   4    -0.640554393843E+03   -0.37411E-02   -0.51221E-02 13268   0.528E-01    0.125E+00
RMM:   5    -0.640545194616E+03    0.91992E-02   -0.93116E-03 10828   0.332E-01    0.361E-01
RMM:   6    -0.640546238692E+03   -0.10441E-02   -0.78428E-03 13107   0.177E-01    0.558E-01
RMM:   7    -0.640544797862E+03    0.14408E-02   -0.33010E-03 12941   0.152E-01    0.300E-01
RMM:   8    -0.640545669747E+03   -0.87189E-03   -0.25370E-03 12358   0.144E-01    0.556E-01
RMM:   9    -0.640544131349E+03    0.15384E-02   -0.12836E-03 11900   0.109E-01    0.784E-02
RMM:  10    -0.640544170138E+03   -0.38789E-04   -0.10966E-03 11821   0.409E-02    0.607E-02
RMM:  11    -0.640544192423E+03   -0.22284E-04   -0.23621E-04  8957   0.462E-02    0.842E-02
RMM:  12    -0.640544174965E+03    0.17457E-04   -0.23958E-04  9996   0.265E-02    0.364E-02
RMM:  13    -0.640544185265E+03   -0.10299E-04   -0.80811E-05  7774   0.247E-02    0.471E-02
RMM:  14    -0.640544182857E+03    0.24078E-05   -0.76914E-05  7675   0.194E-02
  34 F= -.64054418E+03 E0= -.64047435E+03  d E =-.167163E-01
 curvature:  -0.29 expect dE=-0.567E-02 dE for cont linesearch -0.703E-05
 trial: gam= 0.63400 g(F)=  0.123E-01 g(S)=  0.697E-02 ort = 0.157E-02 (trialstep = 0.638E+00)
 search vector abs. value=  0.627E-01
 bond charge predicted
       N       E                     dE             d eps       ncg     rms          rms(c)
DAV:   1    -0.640455799893E+03    0.88385E-01   -0.51538E+00  9768   0.118E+01    0.871E-01
RMM:   2    -0.640629097136E+03   -0.17330E+00   -0.11288E+00 14160   0.249E+00    0.328E+00
RMM:   3    -0.640557414127E+03    0.71683E-01   -0.84807E-02 10378   0.126E+00    0.937E-01
RMM:   4    -0.640560738313E+03   -0.33242E-02   -0.34239E-02 13451   0.439E-01    0.107E+00
RMM:   5    -0.640554476351E+03    0.62620E-02   -0.69381E-03 12433   0.254E-01    0.316E-01
RMM:   6    -0.640555139796E+03   -0.66345E-03   -0.40620E-03 12917   0.145E-01    0.505E-01
RMM:   7    -0.640553982805E+03    0.11570E-02   -0.22350E-03 13261   0.120E-01    0.199E-01
RMM:   8    -0.640554607269E+03   -0.62446E-03   -0.16752E-03 11995   0.128E-01    0.414E-01
RMM:   9    -0.640553616634E+03    0.99063E-03   -0.90550E-04 11868   0.978E-02    0.617E-02
RMM:  10    -0.640553732751E+03   -0.11612E-03   -0.74417E-04 11911   0.482E-02    0.131E-01
RMM:  11    -0.640553664197E+03    0.68554E-04   -0.23710E-04 11012   0.387E-02    0.359E-02
RMM:  12    -0.640553672211E+03   -0.80147E-05   -0.16632E-04 10422   0.215E-02    0.373E-02
RMM:  13    -0.640553669650E+03    0.25607E-05   -0.49107E-05  6611   0.230E-02
  35 F= -.64055367E+03 E0= -.64048386E+03  d E =-.948679E-02
 trial-energy change:   -0.009487  1 .order   -0.009497   -0.012939   -0.006056
 step:   1.2002(harm=  1.2002)  dis= 0.03217  next Energy=  -640.556344 (dE=-0.122E-01)
 bond charge predicted
       N       E                     dE             d eps       ncg     rms          rms(c)
DAV:   1    -0.640480832917E+03    0.72839E-01   -0.39953E+00  9792   0.103E+01    0.766E-01
RMM:   2    -0.640615257077E+03   -0.13442E+00   -0.87436E-01 14110   0.218E+00    0.289E+00
RMM:   3    -0.640559390249E+03    0.55867E-01   -0.65716E-02 10374   0.111E+00    0.815E-01
RMM:   4    -0.640562092404E+03   -0.27022E-02   -0.26848E-02 13490   0.383E-01    0.941E-01
RMM:   5    -0.640557261023E+03    0.48314E-02   -0.55145E-03 12522   0.223E-01    0.275E-01
RMM:   6    -0.640557826329E+03   -0.56531E-03   -0.33333E-03 12897   0.128E-01    0.448E-01
RMM:   7    -0.640556933891E+03    0.89244E-03   -0.18450E-03 13409   0.107E-01    0.174E-01
RMM:   8    -0.640557416038E+03   -0.48215E-03   -0.13491E-03 12435   0.113E-01    0.361E-01
RMM:   9    -0.640556673053E+03    0.74299E-03   -0.72039E-04 11596   0.865E-02    0.536E-02
RMM:  10    -0.640556766415E+03   -0.93362E-04   -0.63146E-04 11987   0.429E-02    0.113E-01
RMM:  11    -0.640556718113E+03    0.48302E-04   -0.20313E-04 11056   0.357E-02    0.320E-02
RMM:  12    -0.640556727206E+03   -0.90932E-05   -0.15669E-04 10353   0.195E-02    0.333E-02
RMM:  13    -0.640556725937E+03    0.12691E-05   -0.45374E-05  6611   0.231E-02
  36 F= -.64055673E+03 E0= -.64048694E+03  d E =-.125431E-01
 curvature:  -1.86 expect dE=-0.363E-01 dE for cont linesearch -0.133E-04
 trial: gam= 0.95762 g(F)=  0.749E-02 g(S)=  0.121E-01 ort = 0.669E-03 (trialstep = 0.601E+00)
 search vector abs. value=  0.783E-01
 bond charge predicted
       N       E                     dE             d eps       ncg     rms          rms(c)
DAV:   1    -0.640481035765E+03    0.75691E-01   -0.54519E+00 10416   0.117E+01    0.125E+00
RMM:   2    -0.640798324312E+03   -0.31729E+00   -0.12241E+00 13571   0.294E+00    0.571E+00
RMM:   3    -0.640573604578E+03    0.22472E+00   -0.14868E-01 10404   0.161E+00    0.144E+00
RMM:   4    -0.640569992555E+03    0.36120E-02   -0.57981E-02 13741   0.544E-01    0.901E-01
RMM:   5    -0.640565981583E+03    0.40110E-02   -0.10510E-02 12967   0.286E-01    0.587E-01
RMM:   6    -0.640565111615E+03    0.86997E-03   -0.42771E-03 12759   0.185E-01    0.447E-01
RMM:   7    -0.640564165991E+03    0.94562E-03   -0.39461E-03 13835   0.135E-01    0.211E-01
RMM:   8    -0.640564783018E+03   -0.61703E-03   -0.18647E-03 11486   0.152E-01    0.422E-01
RMM:   9    -0.640563763632E+03    0.10194E-02   -0.10528E-03 12461   0.101E-01    0.619E-02
RMM:  10    -0.640563907033E+03   -0.14340E-03   -0.77631E-04 12226   0.521E-02    0.141E-01
RMM:  11    -0.640563834802E+03    0.72230E-04   -0.28413E-04 11921   0.399E-02    0.377E-02
RMM:  12    -0.640563855022E+03   -0.20220E-04   -0.20314E-04 11156   0.221E-02    0.298E-02
RMM:  13    -0.640563866129E+03   -0.11107E-04   -0.56571E-05  7460   0.273E-02    0.354E-02
RMM:  14    -0.640563876059E+03   -0.99297E-05   -0.73178E-05  7573   0.195E-02
  37 F= -.64056388E+03 E0= -.64049446E+03  d E =-.715012E-02
 trial-energy change:   -0.007150  1 .order   -0.006928   -0.012140   -0.001715
 step:   0.6870(harm=  0.6996)  dis= 0.02035  next Energy=  -640.564000 (dE=-0.727E-02)
 bond charge predicted
       N       E                     dE             d eps       ncg     rms          rms(c)
DAV:   1    -0.640562321739E+03    0.15444E-02   -0.11245E-01 11040   0.169E+00    0.180E-01
RMM:   2    -0.640568845092E+03   -0.65234E-02   -0.24757E-02 13323   0.415E-01    0.817E-01
RMM:   3    -0.640564218811E+03    0.46263E-02   -0.30763E-03 10016   0.234E-01    0.207E-01
RMM:   4    -0.640564148915E+03    0.69896E-04   -0.11965E-03 11716   0.800E-02    0.131E-01
RMM:   5    -0.640564072895E+03    0.76020E-04   -0.23199E-04 10591   0.427E-02    0.862E-02
RMM:   6    -0.640564052783E+03    0.20112E-04   -0.87158E-05  7111   0.325E-02    0.602E-02
RMM:   7    -0.640564041053E+03    0.11730E-04   -0.92719E-05  8755   0.248E-02    0.260E-02
RMM:   8    -0.640564053218E+03   -0.12165E-04   -0.43198E-05  6500   0.248E-02    0.533E-02
RMM:   9    -0.640564040043E+03    0.13175E-04   -0.25463E-05  5719   0.219E-02    0.106E-02
RMM:  10    -0.640564044290E+03   -0.42473E-05   -0.20050E-05  5739   0.155E-02
  38 F= -.64056404E+03 E0= -.64049469E+03  d E =-.731835E-02
 curvature:  -1.33 expect dE=-0.141E-01 dE for cont linesearch -0.325E-05
 trial: gam= 0.54273 g(F)=  0.600E-02 g(S)=  0.456E-02 ort = 0.437E-03 (trialstep = 0.618E+00)
 search vector abs. value=  0.341E-01
 bond charge predicted
       N       E                     dE             d eps       ncg     rms          rms(c)
DAV:   1    -0.640537640589E+03    0.26399E-01   -0.22937E+00  9816   0.679E+00    0.378E-01
RMM:   2    -0.640571082799E+03   -0.33442E-01   -0.34354E-01 13857   0.146E+00    0.563E-01
RMM:   3    -0.640570361937E+03    0.72086E-03   -0.19324E-02  9712   0.706E-01    0.448E-01
RMM:   4    -0.640570083089E+03    0.27885E-03   -0.86599E-03 13644   0.233E-01    0.350E-01
RMM:   5    -0.640569609427E+03    0.47366E-03   -0.18797E-03 12441   0.118E-01    0.213E-01
RMM:   6    -0.640569512952E+03    0.96475E-04   -0.12542E-03 12530   0.763E-02    0.192E-01
RMM:   7    -0.640569565698E+03   -0.52746E-04   -0.62038E-04 10906   0.811E-02    0.221E-01
RMM:   8    -0.640569305133E+03    0.26056E-03   -0.59489E-04 12932   0.654E-02    0.104E-01
RMM:   9    -0.640569287199E+03    0.17934E-04   -0.23793E-04  9917   0.406E-02    0.757E-02
RMM:  10    -0.640569267924E+03    0.19275E-04   -0.15097E-04 10036   0.241E-02    0.226E-02
RMM:  11    -0.640569273486E+03   -0.55626E-05   -0.62965E-05  6890   0.208E-02
  39 F= -.64056927E+03 E0= -.64049989E+03  d E =-.522920E-02
 trial-energy change:   -0.005229  1 .order   -0.005050   -0.006671   -0.003430
 step:   1.0383(harm=  1.2721)  dis= 0.01893  next Energy=  -640.570496 (dE=-0.645E-02)
 bond charge predicted
       N       E                     dE             d eps       ncg     rms          rms(c)
DAV:   1    -0.640556164096E+03    0.13104E-01   -0.10601E+00  9744   0.462E+00    0.259E-01
RMM:   2    -0.640571978855E+03   -0.15815E-01   -0.16134E-01 13850   0.997E-01    0.404E-01
RMM:   3    -0.640571513225E+03    0.46563E-03   -0.91712E-03  9779   0.481E-01    0.302E-01
RMM:   4    -0.640571469820E+03    0.43405E-04   -0.42418E-03 13535   0.158E-01    0.255E-01
RMM:   5    -0.640571192168E+03    0.27765E-03   -0.84460E-04 11405   0.835E-02    0.138E-01
RMM:   6    -0.640571170675E+03    0.21494E-04   -0.61716E-04 11333   0.518E-02    0.136E-01
RMM:   7    -0.640571175506E+03   -0.48317E-05   -0.32144E-04  9893   0.549E-02    0.140E-01
RMM:   8    -0.640571075395E+03    0.10011E-03   -0.30961E-04 12052   0.459E-02    0.762E-02
RMM:   9    -0.640571063480E+03    0.11915E-04   -0.12540E-04  8295   0.310E-02    0.500E-02
RMM:  10    -0.640571057219E+03    0.62608E-05   -0.82083E-05  8446   0.206E-02
  40 F= -.64057106E+03 E0= -.64050167E+03  d E =-.701293E-02
 curvature:  -1.75 expect dE=-0.708E-02 dE for cont linesearch -0.282E-03
 ZBRENT: increasing intervall
 opt :   1.8788  next Energy=  -640.570333 (dE=-0.629E-02)
 bond charge predicted
       N       E                     dE             d eps       ncg     rms          rms(c)
DAV:   1    -0.640510853544E+03    0.60210E-01   -0.42342E+00  9744   0.922E+00    0.517E-01
RMM:   2    -0.640574204660E+03   -0.63351E-01   -0.64805E-01 13842   0.199E+00    0.795E-01
RMM:   3    -0.640572403553E+03    0.18011E-02   -0.34650E-02  9789   0.935E-01    0.619E-01
RMM:   4    -0.640572314818E+03    0.88734E-04   -0.16191E-02 13604   0.310E-01    0.560E-01
RMM:   5    -0.640570845986E+03    0.14688E-02   -0.34427E-03 12624   0.165E-01    0.259E-01
RMM:   6    -0.640570971840E+03   -0.12585E-03   -0.25469E-03 12982   0.107E-01    0.329E-01
RMM:   7    -0.640570689709E+03    0.28213E-03   -0.11686E-03 11724   0.106E-01    0.234E-01
RMM:   8    -0.640570462548E+03    0.22716E-03   -0.12103E-03 13597   0.844E-02    0.177E-01
RMM:   9    -0.640570351430E+03    0.11112E-03   -0.43816E-04 11423   0.559E-02    0.807E-02
RMM:  10    -0.640570337123E+03    0.14306E-04   -0.30492E-04 10657   0.293E-02    0.261E-02
RMM:  11    -0.640570346384E+03   -0.92607E-05   -0.10190E-04  9089   0.285E-02    0.498E-02
RMM:  12    -0.640570339918E+03    0.64662E-05   -0.85943E-05  9295   0.192E-02
  41 F= -.64057034E+03 E0= -.64050092E+03  d E =-.629563E-02
 curvature:   4.49 expect dE= 0.569E-01 dE for cont linesearch  0.289E-02
 ZBRENT: bracketing found
 ZBRENT: interpolating
 opt :   1.3186  next Energy=  -640.571386 (dE=-0.734E-02)
 bond charge predicted
       N       E                     dE             d eps       ncg     rms          rms(c)
DAV:   1    -0.640545234107E+03    0.25112E-01   -0.18771E+00  9696   0.614E+00    0.347E-01
RMM:   2    -0.640573610867E+03   -0.28377E-01   -0.28547E-01 13815   0.134E+00    0.610E-01
RMM:   3    -0.640572386278E+03    0.12246E-02   -0.17287E-02  9792   0.666E-01    0.422E-01
RMM:   4    -0.640572843534E+03   -0.45726E-03   -0.72371E-03 13389   0.221E-01    0.465E-01
RMM:   5    -0.640571670916E+03    0.11726E-02   -0.15385E-03 10988   0.128E-01    0.153E-01
RMM:   6    -0.640571758650E+03   -0.87734E-04   -0.12469E-03 12381   0.722E-02    0.214E-01
RMM:   7    -0.640571596104E+03    0.16255E-03   -0.52190E-04 10771   0.727E-02    0.138E-01
RMM:   8    -0.640571517191E+03    0.78913E-04   -0.52718E-04 13033   0.568E-02    0.121E-01
RMM:   9    -0.640571460011E+03    0.57180E-04   -0.13437E-04  8373   0.389E-02    0.525E-02
RMM:  10    -0.640571458894E+03    0.11165E-05   -0.10528E-04  8772   0.222E-02    0.390E-02
RMM:  11    -0.640571456006E+03    0.28881E-05   -0.40193E-05  6173   0.186E-02
  42 F= -.64057146E+03 E0= -.64050206E+03  d E =-.741172E-02
 curvature:  -0.51 expect dE=-0.295E-02 dE for cont linesearch -0.541E-05
 trial: gam= 0.47915 g(F)=  0.427E-02 g(S)=  0.151E-02 ort = 0.601E-03 (trialstep = 0.758E+00)
 search vector abs. value=  0.142E-01
 bond charge predicted
       N       E                     dE             d eps       ncg     rms          rms(c)
DAV:   1    -0.640551046426E+03    0.20412E-01   -0.14194E+00 10152   0.580E+00    0.524E-01
RMM:   2    -0.640606168616E+03   -0.55122E-01   -0.29537E-01 14048   0.146E+00    0.211E+00
RMM:   3    -0.640576048507E+03    0.30120E-01   -0.30025E-02 10283   0.744E-01    0.573E-01
RMM:   4    -0.640576523204E+03   -0.47470E-03   -0.11311E-02 13766   0.263E-01    0.549E-01
RMM:   5    -0.640574878765E+03    0.16444E-02   -0.23647E-03 12852   0.148E-01    0.210E-01
RMM:   6    -0.640574989213E+03   -0.11045E-03   -0.12512E-03 12089   0.883E-02    0.274E-01
RMM:   7    -0.640574626895E+03    0.36232E-03   -0.82110E-04 13159   0.723E-02    0.995E-02
RMM:   8    -0.640574803093E+03   -0.17620E-03   -0.53168E-04 12088   0.750E-02    0.226E-01
RMM:   9    -0.640574521442E+03    0.28165E-03   -0.26013E-04 10267   0.548E-02    0.438E-02
RMM:  10    -0.640574552247E+03   -0.30806E-04   -0.19540E-04  9589   0.316E-02    0.737E-02
[...]
RMM:   7    -0.640582498418E+03    0.23681E-04   -0.51319E-05  6570   0.233E-02    0.196E-02
RMM:   8    -0.640582508175E+03   -0.97570E-05   -0.25327E-05  5636   0.233E-02
  69 F= -.64058251E+03 E0= -.64051312E+03  d E =-.111513E-03
 trial-energy change:   -0.000112  1 .order   -0.000109   -0.000172   -0.000047
 step:   0.7543(harm=  0.7543)  dis= 0.00071  next Energy=  -640.582515 (dE=-0.118E-03)
 bond charge predicted
       N       E                     dE             d eps       ncg     rms          rms(c)
DAV:   1    -0.640582506169E+03   -0.77503E-05   -0.37238E-03 12456   0.293E-01    0.710E-02
RMM:   2    -0.640583302679E+03   -0.79651E-03   -0.11296E-03 10250   0.124E-01    0.330E-01
RMM:   3    -0.640582526013E+03    0.77667E-03   -0.31845E-04  8286   0.824E-02    0.724E-02
RMM:   4    -0.640582505005E+03    0.21008E-04   -0.52563E-05  6379   0.289E-02    0.387E-02
RMM:   5    -0.640582500404E+03    0.46003E-05   -0.21154E-05  5561   0.204E-02
  70 F= -.64058250E+03 E0= -.64051309E+03  d E =-.103742E-03
 curvature:  -0.62 expect dE=-0.226E-03 dE for cont linesearch -0.895E-06
 trial: gam= 1.04341 g(F)=  0.108E-03 g(S)=  0.254E-03 ort =-0.273E-04 (trialstep = 0.351E+00)
 search vector abs. value=  0.869E-03
 bond charge predicted
       N       E                     dE             d eps       ncg     rms          rms(c)
DAV:   1    -0.640582428349E+03    0.76655E-04   -0.16714E-02  9768   0.532E-01    0.465E-02
RMM:   2    -0.640582686821E+03   -0.25847E-03   -0.23770E-03 13873   0.127E-01    0.128E-01
RMM:   3    -0.640582621397E+03    0.65424E-04   -0.17973E-04  7884   0.673E-02    0.533E-02
RMM:   4    -0.640582631965E+03   -0.10569E-04   -0.90224E-05  7866   0.279E-02    0.665E-02
RMM:   5    -0.640582607739E+03    0.24226E-04   -0.29819E-05  5774   0.242E-02    0.297E-02
RMM:   6    -0.640582609035E+03   -0.12956E-05   -0.19982E-05  5602   0.187E-02
  71 F= -.64058261E+03 E0= -.64051320E+03  d E =-.108631E-03
 trial-energy change:   -0.000109  1 .order   -0.000102   -0.000117   -0.000087
 step:   1.3752(harm=  1.3752)  dis= 0.00189  next Energy=  -640.582730 (dE=-0.229E-03)
 bond charge predicted
       N       E                     dE             d eps       ncg     rms          rms(c)
DAV:   1    -0.640581214065E+03    0.13937E-02   -0.14021E-01  9720   0.155E+00    0.135E-01
RMM:   2    -0.640583322982E+03   -0.21089E-02   -0.19971E-02 13978   0.371E-01    0.331E-01
RMM:   3    -0.640582817939E+03    0.50504E-03   -0.14297E-03  9752   0.181E-01    0.140E-01
RMM:   4    -0.640582967685E+03   -0.14975E-03   -0.82630E-04 12183   0.744E-02    0.206E-01
RMM:   5    -0.640582694561E+03    0.27312E-03   -0.23773E-04  9262   0.565E-02    0.559E-02
RMM:   6    -0.640582755934E+03   -0.61372E-04   -0.20320E-04  9157   0.383E-02    0.119E-01
RMM:   7    -0.640582699642E+03    0.56292E-04   -0.95297E-05  8089   0.319E-02    0.580E-02
RMM:   8    -0.640582692780E+03    0.68616E-05   -0.58290E-05  6976   0.254E-02
  72 F= -.64058269E+03 E0= -.64051331E+03  d E =-.192376E-03
 curvature:  -1.79 expect dE=-0.171E-02 dE for cont linesearch -0.212E-04
 ZBRENT: interpolating
 opt :   1.0786  next Energy=  -640.582708 (dE=-0.207E-03)
 bond charge predicted
       N       E                     dE             d eps       ncg     rms          rms(c)
DAV:   1    -0.640582580265E+03    0.11938E-03   -0.11932E-02  9600   0.453E-01    0.415E-02
RMM:   2    -0.640582802477E+03   -0.22221E-03   -0.17419E-03 13643   0.111E-01    0.133E-01
RMM:   3    -0.640582715971E+03    0.86506E-04   -0.14709E-04  7772   0.582E-02    0.379E-02
RMM:   4    -0.640582727678E+03   -0.11708E-04   -0.38192E-05  5969   0.251E-02    0.598E-02
RMM:   5    -0.640582704280E+03    0.23398E-04   -0.21042E-05  5578   0.251E-02    0.201E-02
RMM:   6    -0.640582707504E+03   -0.32237E-05   -0.10538E-05  5340   0.137E-02
  73 F= -.64058271E+03 E0= -.64051332E+03  d E =-.207099E-03
 curvature:  -1.27 expect dE=-0.110E-02 dE for cont linesearch -0.349E-07
 trial: gam= 2.05838 g(F)=  0.233E-03 g(S)=  0.634E-03 ort =-0.488E-05 (trialstep = 0.954E-01)
 search vector abs. value=  0.453E-02
 bond charge predicted
       N       E                     dE             d eps       ncg     rms          rms(c)
DAV:   1    -0.640582690177E+03    0.14103E-04   -0.69995E-03 12048   0.409E-01    0.623E-02
RMM:   2    -0.640583457558E+03   -0.76738E-03   -0.15508E-03 11296   0.126E-01    0.326E-01
RMM:   3    -0.640582792602E+03    0.66496E-03   -0.30670E-04  8133   0.789E-02    0.817E-02
RMM:   4    -0.640582762451E+03    0.30151E-04   -0.78689E-05  7476   0.303E-02    0.354E-02
RMM:   5    -0.640582762168E+03    0.28226E-06   -0.25737E-05  5838   0.187E-02
  74 F= -.64058276E+03 E0= -.64051338E+03  d E =-.546645E-04
 trial-energy change:   -0.000055  1 .order   -0.000064   -0.000082   -0.000047
 step:   0.2230(harm=  0.2230)  dis= 0.00072  next Energy=  -640.582803 (dE=-0.956E-04)
 bond charge predicted
       N       E                     dE             d eps       ncg     rms          rms(c)
DAV:   1    -0.640582688546E+03    0.73905E-04   -0.12668E-02 12000   0.548E-01    0.861E-02
RMM:   2    -0.640584048644E+03   -0.13601E-02   -0.28475E-03 11497   0.171E-01    0.425E-01
RMM:   3    -0.640582852693E+03    0.11960E-02   -0.57349E-04  8780   0.104E-01    0.927E-02
RMM:   4    -0.640582821299E+03    0.31394E-04   -0.16932E-04 10328   0.392E-02    0.529E-02
RMM:   5    -0.640582807189E+03    0.14110E-04   -0.38732E-05  6165   0.219E-02    0.297E-02
RMM:   6    -0.640582813411E+03   -0.62222E-05   -0.19064E-05  5551   0.205E-02
  75 F= -.64058281E+03 E0= -.64051344E+03  d E =-.105908E-03
 curvature:  -0.59 expect dE=-0.234E-03 dE for cont linesearch -0.118E-04
 ZBRENT: increasing intervall
 opt :   0.4783  next Energy=  -640.582842 (dE=-0.134E-03)
 bond charge predicted
       N       E                     dE             d eps       ncg     rms          rms(c)
DAV:   1    -0.640582311726E+03    0.49546E-03   -0.49915E-02 11808   0.109E+00    0.163E-01
RMM:   2    -0.640587065487E+03   -0.47538E-02   -0.10996E-02 11644   0.333E-01    0.770E-01
RMM:   3    -0.640582965868E+03    0.40996E-02   -0.21183E-03  9934   0.194E-01    0.181E-01
RMM:   4    -0.640582858371E+03    0.10750E-03   -0.63031E-04 11776   0.655E-02    0.961E-02
RMM:   5    -0.640582840842E+03    0.17529E-04   -0.15300E-04  9865   0.364E-02    0.928E-02
RMM:   6    -0.640582804395E+03    0.36447E-04   -0.50017E-05  6169   0.302E-02    0.459E-02
RMM:   7    -0.640582798616E+03    0.57789E-05   -0.50963E-05  6666   0.218E-02
  76 F= -.64058280E+03 E0= -.64051347E+03  d E =-.911123E-04
 curvature:  -1.42 expect dE=-0.855E-03 dE for cont linesearch -0.606E-05
 ZBRENT: bracketing found
 ZBRENT: interpolating
 opt :   0.3978  next Energy=  -640.582804 (dE=-0.967E-04)
 bond charge predicted
       N       E                     dE             d eps       ncg     rms          rms(c)
DAV:   1    -0.640582781013E+03    0.23382E-04   -0.52411E-03 12432   0.354E-01    0.648E-02
RMM:   2    -0.640583798866E+03   -0.10179E-02   -0.14031E-03 11073   0.125E-01    0.399E-01
RMM:   3    -0.640582846583E+03    0.95228E-03   -0.36822E-04  8684   0.856E-02    0.655E-02
RMM:   4    -0.640582828462E+03    0.18121E-04   -0.66228E-05  7155   0.283E-02    0.401E-02
RMM:   5    -0.640582825140E+03    0.33221E-05   -0.20212E-05  5547   0.206E-02
  77 F= -.64058283E+03 E0= -.64051348E+03  d E =-.117636E-03
 curvature:  -1.31 expect dE=-0.177E-02 dE for cont linesearch -0.135E-04
 ZBRENT: bisectioning
 opt :   0.3104  next Energy=  -640.582848 (dE=-0.140E-03)
 bond charge predicted
       N       E                     dE             d eps       ncg     rms          rms(c)
DAV:   1    -0.640582771401E+03    0.57061E-04   -0.58913E-03 11688   0.371E-01    0.532E-02
RMM:   2    -0.640583214413E+03   -0.44301E-03   -0.12467E-03 11981   0.107E-01    0.234E-01
RMM:   3    -0.640582845207E+03    0.36921E-03   -0.21635E-04  8099   0.685E-02    0.558E-02
RMM:   4    -0.640582840079E+03    0.51283E-05   -0.70117E-05  7320   0.265E-02
  78 F= -.64058284E+03 E0= -.64051347E+03  d E =-.132575E-03
 curvature:  -2.19 expect dE=-0.301E-02 dE for cont linesearch -0.934E-05
 trial: gam= 1.57575 g(F)=  0.303E-03 g(S)=  0.107E-02 ort =-0.139E-03 (trialstep = 0.514E-01)
 search vector abs. value=  0.122E-01
 bond charge predicted
       N       E                     dE             d eps       ncg     rms          rms(c)
DAV:   1    -0.640582774048E+03    0.71159E-04   -0.54399E-03 10080   0.375E-01    0.267E-02
RMM:   2    -0.640582978754E+03   -0.20471E-03   -0.10771E-03 12805   0.805E-02    0.152E-01
RMM:   3    -0.640582868220E+03    0.11053E-03   -0.88534E-05  7163   0.510E-02    0.234E-02
RMM:   4    -0.640582871859E+03   -0.36387E-05   -0.22788E-05  5707   0.174E-02
  79 F= -.64058287E+03 E0= -.64051353E+03  d E =-.317802E-04
 trial-energy change:   -0.000032  1 .order   -0.000039   -0.000059   -0.000018
 step:   0.0740(harm=  0.0740)  dis= 0.00042  next Energy=  -640.582883 (dE=-0.427E-04)
 bond charge predicted
       N       E                     dE             d eps       ncg     rms          rms(c)
DAV:   1    -0.640582863323E+03    0.48968E-05   -0.11771E-03 11424   0.169E-01    0.120E-02
RMM:   2    -0.640582904258E+03   -0.40935E-04   -0.22047E-04 10578   0.379E-02    0.625E-02
RMM:   3    -0.640582882559E+03    0.21699E-04   -0.20178E-05  5733   0.263E-02    0.131E-02
RMM:   4    -0.640582882608E+03   -0.48633E-07   -0.65996E-06  4945   0.103E-02
  80 F= -.64058288E+03 E0= -.64051353E+03  d E =-.425290E-04
 curvature:  -0.39 expect dE=-0.168E-03 dE for cont linesearch -0.726E-05
 ZBRENT: increasing intervall
 opt :   0.1190  next Energy=  -640.582910 (dE=-0.696E-04)
 bond charge predicted
       N       E                     dE             d eps       ncg     rms          rms(c)
DAV:   1    -0.640582831238E+03    0.51321E-04   -0.42539E-03 10128   0.324E-01    0.158E-02
RMM:   2    -0.640582925168E+03   -0.93930E-04   -0.81726E-04 12567   0.716E-02    0.557E-02
RMM:   3    -0.640582911512E+03    0.13657E-04   -0.52617E-05  6253   0.408E-02    0.174E-02
RMM:   4    -0.640582914067E+03   -0.25553E-05   -0.17380E-05  5547   0.155E-02
  81 F= -.64058291E+03 E0= -.64051357E+03  d E =-.739882E-04
 curvature:  -1.45 expect dE=-0.586E-03 dE for cont linesearch -0.599E-05
 ZBRENT: increasing intervall
 opt :   0.2090  next Energy=  -640.582912 (dE=-0.715E-04)
 bond charge predicted
       N       E                     dE             d eps       ncg     rms          rms(c)
DAV:   1    -0.640582644271E+03    0.26724E-03   -0.17033E-02  9792   0.647E-01    0.295E-02
RMM:   2    -0.640582975781E+03   -0.33151E-03   -0.32235E-03 13608   0.141E-01    0.641E-02
RMM:   3    -0.640582966282E+03    0.94988E-05   -0.20217E-04  7794   0.729E-02    0.399E-02
RMM:   4    -0.640582972801E+03   -0.65194E-05   -0.91661E-05  7599   0.247E-02
  82 F= -.64058297E+03 E0= -.64051363E+03  d E =-.132722E-03
 curvature:   0.61 expect dE= 0.246E-03 dE for cont linesearch  0.775E-06
 ZBRENT: increasing intervall
 opt :   0.3892  next Energy=  -640.582977 (dE=-0.137E-03)
 bond charge predicted
       N       E                     dE             d eps       ncg     rms          rms(c)
DAV:   1    -0.640581792590E+03    0.11737E-02   -0.67697E-02  9744   0.129E+00    0.579E-02
RMM:   2    -0.640583080631E+03   -0.12880E-02   -0.12561E-02 13904   0.278E-01    0.127E-01
RMM:   3    -0.640583054353E+03    0.26278E-04   -0.76756E-04  8762   0.135E-01    0.871E-02
RMM:   4    -0.640583064791E+03   -0.10439E-04   -0.39909E-04 11134   0.439E-02    0.619E-02
RMM:   5    -0.640583045520E+03    0.19272E-04   -0.56133E-05  6683   0.264E-02    0.306E-02
RMM:   6    -0.640583043772E+03    0.17472E-05   -0.30700E-05  6406   0.181E-02
  83 F= -.64058304E+03 E0= -.64051370E+03  d E =-.203694E-03
 curvature:  -3.47 expect dE=-0.171E-02 dE for cont linesearch -0.349E-05
 ZBRENT: increasing intervall
 opt :   0.7494  next Energy=  -640.583079 (dE=-0.239E-03)
 bond charge predicted
       N       E                     dE             d eps       ncg     rms          rms(c)
DAV:   1    -0.640578142840E+03    0.49027E-02   -0.26895E-01  9744   0.258E+00    0.115E-01
RMM:   2    -0.640583253166E+03   -0.51103E-02   -0.49887E-02 13956   0.550E-01    0.248E-01
RMM:   3    -0.640583109426E+03    0.14374E-03   -0.28601E-03  9496   0.260E-01    0.168E-01
RMM:   4    -0.640583243218E+03   -0.13379E-03   -0.15332E-03 12442   0.860E-02    0.174E-01
RMM:   5    -0.640583072926E+03    0.17029E-03   -0.23983E-04  9295   0.488E-02    0.481E-02
RMM:   6    -0.640583094774E+03   -0.21848E-04   -0.16469E-04  9169   0.269E-02    0.791E-02
RMM:   7    -0.640583071539E+03    0.23235E-04   -0.76043E-05  8156   0.240E-02    0.407E-02
RMM:   8    -0.640583077935E+03   -0.63966E-05   -0.94100E-05  8791   0.244E-02
  84 F= -.64058308E+03 E0= -.64051378E+03  d E =-.237856E-03
 curvature: -34.83 expect dE=-0.311E-01 dE for cont linesearch -0.133E-04
 trial: gam= 0.07721 g(F)=  0.442E-03 g(S)=  0.451E-03 ort =-0.682E-04 (trialstep = 0.191E+00)
 search vector abs. value=  0.955E-03
 bond charge predicted
       N       E                     dE             d eps       ncg     rms          rms(c)
DAV:   1    -0.640583256266E+03   -0.18473E-03   -0.69789E-03 12744   0.469E-01    0.118E-01
RMM:   2    -0.640585373481E+03   -0.21172E-02   -0.29892E-03 11325   0.203E-01    0.536E-01
RMM:   3    -0.640583283785E+03    0.20897E-02   -0.83741E-04  9505   0.122E-01    0.113E-01
RMM:   4    -0.640583238951E+03    0.44834E-04   -0.16516E-04  9737   0.483E-02    0.671E-02
RMM:   5    -0.640583218145E+03    0.20805E-04   -0.60147E-05  6874   0.269E-02    0.497E-02
RMM:   6    -0.640583214474E+03    0.36718E-05   -0.26772E-05  5666   0.230E-02
  85 F= -.64058321E+03 E0= -.64051386E+03  d E =-.136539E-03
 trial-energy change:   -0.000137  1 .order   -0.000142   -0.000170   -0.000115
 step:   0.5939(harm=  0.5939)  dis= 0.00063  next Energy=  -640.583341 (dE=-0.264E-03)
 bond charge predicted
       N       E                     dE             d eps       ncg     rms          rms(c)
DAV:   1    -0.640583499403E+03   -0.28126E-03   -0.29990E-02 12144   0.981E-01    0.255E-01
RMM:   2    -0.640593871688E+03   -0.10372E-01   -0.13472E-02 11287   0.435E-01    0.120E+00
RMM:   3    -0.640583742346E+03    0.10129E-01   -0.39849E-03 10454   0.263E-01    0.279E-01
RMM:   4    -0.640583403262E+03    0.33908E-03   -0.70735E-04 11460   0.934E-02    0.133E-01
RMM:   5    -0.640583393562E+03    0.96996E-05   -0.30419E-04 11231   0.528E-02    0.156E-01
RMM:   6    -0.640583279362E+03    0.11420E-03   -0.12200E-04  7933   0.453E-02    0.670E-02
RMM:   7    -0.640583256393E+03    0.22969E-04   -0.11499E-04  9296   0.277E-02    0.420E-02
RMM:   8    -0.640583261226E+03   -0.48338E-05   -0.42216E-05  5993   0.276E-02
  86 F= -.64058326E+03 E0= -.64051385E+03  d E =-.183291E-03
 curvature:  -0.32 expect dE=-0.877E-04 dE for cont linesearch -0.994E-05
 ZBRENT: interpolating
 opt :   0.5042  next Energy=  -640.583269 (dE=-0.191E-03)
 bond charge predicted
       N       E                     dE             d eps       ncg     rms          rms(c)
DAV:   1    -0.640583275430E+03   -0.19037E-04   -0.17314E-03 12432   0.230E-01    0.556E-02
RMM:   2    -0.640583740187E+03   -0.46476E-03   -0.66113E-04 10750   0.969E-02    0.261E-01
RMM:   3    -0.640583281723E+03    0.45846E-03   -0.18486E-04  8568   0.610E-02    0.632E-02
RMM:   4    -0.640583265194E+03    0.16529E-04   -0.42351E-05  6576   0.272E-02    0.348E-02
RMM:   5    -0.640583261357E+03    0.38367E-05   -0.18391E-05  5465   0.216E-02
  87 F= -.64058326E+03 E0= -.64051386E+03  d E =-.183422E-03
 curvature:  -0.25 expect dE=-0.169E-03 dE for cont linesearch -0.154E-04
 ZBRENT: bisectioning
 opt :   0.3476  next Energy=  -640.583309 (dE=-0.231E-03)
 bond charge predicted
       N       E                     dE             d eps       ncg     rms          rms(c)
DAV:   1    -0.640583289648E+03   -0.24454E-04   -0.45740E-03 12432   0.384E-01    0.100E-01
RMM:   2    -0.640584869350E+03   -0.15797E-02   -0.20645E-03 11358   0.168E-01    0.473E-01
RMM:   3    -0.640583315339E+03    0.15540E-02   -0.59880E-04  9528   0.104E-01    0.103E-01
RMM:   4    -0.640583270925E+03    0.44414E-04   -0.11201E-04  8238   0.420E-02    0.580E-02
RMM:   5    -0.640583249802E+03    0.21123E-04   -0.40713E-05  6284   0.239E-02    0.239E-02
RMM:   6    -0.640583261161E+03   -0.11359E-04   -0.25558E-05  5676   0.223E-02    0.580E-02
RMM:   7    -0.640583245055E+03    0.16106E-04   -0.16726E-05  5412   0.199E-02    0.146E-02
RMM:   8    -0.640583249546E+03   -0.44908E-05   -0.10031E-05  4821   0.142E-02
  88 F= -.64058325E+03 E0= -.64051387E+03  d E =-.171610E-03
 curvature:  -0.77 expect dE=-0.202E-03 dE for cont linesearch -0.542E-05
 ZBRENT: interpolating
 opt :   0.3871  next Energy=  -640.583251 (dE=-0.173E-03)
 bond charge predicted
       N       E                     dE             d eps       ncg     rms          rms(c)
DAV:   1    -0.640583259459E+03   -0.14404E-04   -0.36678E-04 12120   0.104E-01    0.252E-02
RMM:   2    -0.640583347797E+03   -0.88338E-04   -0.11990E-04  7600   0.431E-02    0.114E-01
RMM:   3    -0.640583261595E+03    0.86202E-04   -0.32043E-05  5863   0.302E-02    0.290E-02
RMM:   4    -0.640583258759E+03    0.28362E-05   -0.79549E-06  4588   0.134E-02
  89 F= -.64058326E+03 E0= -.64051387E+03  d E =-.180824E-03
 curvature:  -0.23 expect dE=-0.310E-04 dE for cont linesearch -0.796E-05
 ZBRENT: bisectioning
 opt :   0.4456  next Energy=  -640.583274 (dE=-0.196E-03)
 bond charge predicted
       N       E                     dE             d eps       ncg     rms          rms(c)
DAV:   1    -0.640583272917E+03   -0.11321E-04   -0.64186E-04 12432   0.142E-01    0.431E-02
RMM:   2    -0.640583609075E+03   -0.33616E-03   -0.36302E-04  9091   0.714E-02    0.234E-01
RMM:   3    -0.640583287048E+03    0.32203E-03   -0.11338E-04  7039   0.503E-02    0.638E-02
RMM:   4    -0.640583266494E+03    0.20554E-04   -0.21062E-05  5669   0.212E-02    0.207E-02
RMM:   5    -0.640583263595E+03    0.28992E-05   -0.72485E-06  4518   0.146E-02
  90 F= -.64058326E+03 E0= -.64051387E+03  d E =-.185660E-03
 curvature:  -0.43 expect dE=-0.620E-04 dE for cont linesearch -0.630E-06
 ZBRENT: interpolating
 opt :   0.4576  next Energy=  -640.583264 (dE=-0.186E-03)
 bond charge predicted
       N       E                     dE             d eps       ncg     rms          rms(c)
DAV:   1    -0.640583264826E+03    0.16680E-05   -0.38665E-05  8712   0.383E-02    0.219E-02
RMM:   2    -0.640583392503E+03   -0.12768E-03   -0.78451E-05  6828   0.357E-02    0.153E-01
RMM:   3    -0.640583262965E+03    0.12954E-03   -0.36237E-05  5859   0.284E-02    0.144E-02
RMM:   4    -0.640583261968E+03    0.99664E-06   -0.42205E-06  4470   0.709E-03
  91 F= -.64058326E+03 E0= -.64051386E+03  d E =-.184033E-03
 curvature:  -0.19 expect dE=-0.286E-04 dE for cont linesearch -0.180E-07
 trial: gam= 0.16232 g(F)=  0.998E-04 g(S)=  0.544E-04 ort = 0.964E-05 (trialstep = 0.244E+00)
 search vector abs. value=  0.183E-03
 bond charge predicted
       N       E                     dE             d eps       ncg     rms          rms(c)
DAV:   1    -0.640583277807E+03   -0.14842E-04   -0.19787E-03 12360   0.217E-01    0.225E-02
RMM:   2    -0.640583367536E+03   -0.89730E-04   -0.34385E-04 10670   0.569E-02    0.982E-02
RMM:   3    -0.640583302643E+03    0.64893E-04   -0.44546E-05  6003   0.357E-02    0.262E-02
RMM:   4    -0.640583301497E+03    0.11462E-05   -0.14618E-05  5371   0.154E-02
  92 F= -.64058330E+03 E0= -.64051391E+03  d E =-.395292E-04
 ZBRENT: can't locate minimum, use default step
 trial-energy change:   -0.000040  1 .order   -0.000036   -0.000038   -0.000033
 step:   0.9774(harm=  1.8213)  dis= 0.00070  next Energy=  -640.583404 (dE=-0.142E-03)
 reached required accuracy - stopping structural energy minimisation
