<?xml version="1.0" encoding="ISO-8859-1"?>
<modeling>
 <generator>
  <i name="program" type="string">vasp </i>
  <i name="version" type="string">5.4.4.18Apr17-6-g9f103f2a35  </i>
  <i name="subversion" type="string">(build Oct 18 2021 20:38:43) complex            parallel </i>
  <i name="platform" type="string">LinuxIFC </i>
  <i name="date" type="string">2024 06 18 </i>
  <i name="time" type="string">15:45:05 </i>
 </generator>
 <incar>
  <i type="string" name="SYSTEM">HECN</i>
  <i type="int" name="ISTART">     0</i>
  <i type="string" name="PREC">normal</i>
  <i type="string" name="ALGO">Fast</i>
  <i type="int" name="ICHARG">     2</i>
  <i type="int" name="NELM">    60</i>
  <i type="int" name="IBRION">     2</i>
  <i name="EDIFF">      0.00001000</i>
  <i name="EDIFFG">     -0.01000000</i>
  <i type="int" name="NSW">   100</i>
  <i type="int" name="ISIF">     3</i>
  <i name="ENCUT">    400.00000000</i>
  <i name="POTIM">      0.50000000</i>
  <i type="logical" name="LREAL"> F  </i>
  <i type="int" name="ISMEAR">     0</i>
  <i name="SIGMA">      0.10000000</i>
  <i type="logical" name="LWAVE"> F  </i>
  <i type="logical" name="LCHARG"> F  </i>
  <v type="int" name="KPOINT_BSE">    -1     0     0     0</v>
  <i type="int" name="NELM">    60</i>
 </incar>
 <structure name="primitive_cell" >
  <crystal>
   <varray name="basis" >
    <v>       8.93249989       0.00000000       0.00000000 </v>
    <v>       0.00575300       9.05559834       0.00000000 </v>
    <v>       0.03210180      -0.01574346       8.93712807 </v>
   </varray>
   <i name="volume">    722.91652451 </i>
   <varray name="rec_basis" >
    <v>       0.11195074      -0.00007112      -0.00040225 </v>
    <v>       0.00000000       0.11042893       0.00019453 </v>
    <v>       0.00000000       0.00000000       0.11189277 </v>
   </varray>
  </crystal>
  <varray name="positions" >
   <v>      -0.00311999      -0.00795003      -0.00075998 </v>
   <v>      -0.25232999      -0.00252000       0.01202000 </v>
   <v>      -0.00162995      -0.25686004       0.00460000 </v>
   <v>      -0.00280000      -0.00228008       0.25899999 </v>
   <v>       0.00281000       0.25024000       0.00130000 </v>
   <v>      -0.01103011       0.00202000      -0.26291001 </v>
   <v>       0.26146999      -0.00015998      -0.00704004 </v>
   <v>      -0.00135002      -0.22426001       0.26102000 </v>
   <v>      -0.25720997      -0.02130006      -0.23549005 </v>
   <v>       0.23780002       0.01082000      -0.25392002 </v>
   <v>      -0.24282000      -0.25897003       0.01100000 </v>
   <v>       0.24762001      -0.25026001      -0.00025994 </v>
   <v>      -0.00485996      -0.25507996      -0.25488003 </v>
   <v>      -0.24281000       0.25603001      -0.00408003 </v>
   <v>       0.25398003      -0.00285005       0.24912000 </v>
   <v>       0.24788999       0.24839000      -0.00342003 </v>
   <v>      -0.00562996       0.23617001       0.26379999 </v>
   <v>      -0.25120996      -0.01212001       0.26967001 </v>
   <v>       0.00201000       0.25541000      -0.26105999 </v>
   <v>       0.24177002      -0.24659003      -0.24981998 </v>
   <v>      -0.24963995      -0.25112000      -0.25243996 </v>
   <v>      -0.24255004       0.24437997      -0.25103001 </v>
   <v>       0.25133999      -0.25041998       0.24910999 </v>
   <v>      -0.24367000      -0.26108997       0.25767000 </v>
   <v>      -0.24686002       0.24616999       0.25492002 </v>
   <v>       0.24982001       0.24942998       0.24825000 </v>
   <v>       0.24900999       0.25315000      -0.25146000 </v>
   <v>      -0.48411003       0.01358000      -0.01924992 </v>
   <v>      -0.00158006      -0.49023002      -0.01386996 </v>
   <v>       0.02362000      -0.00216999       0.49557002 </v>
   <v>      -0.49480995      -0.23869001       0.00855000 </v>
   <v>      -0.49285006      -0.00023001       0.24673000 </v>
   <v>      -0.24160996      -0.49684002       0.00288000 </v>
   <v>      -0.00999997      -0.23784997       0.49746000 </v>
   <v>      -0.00948001       0.48088003       0.24100999 </v>
   <v>       0.24446000      -0.00176004      -0.49712002 </v>
   <v>      -0.26367999       0.00417000      -0.48937000 </v>
   <v>       0.24328000      -0.49927003      -0.00489006 </v>
   <v>      -0.49572003       0.24673000       0.00262000 </v>
   <v>      -0.00796004      -0.49944001      -0.24861998 </v>
   <v>      -0.00195991       0.24229999      -0.49871997 </v>
   <v>      -0.49991002       0.00061000      -0.26528002 </v>
   <v>      -0.26123997      -0.47171998      -0.26185001 </v>
   <v>       0.49950005      -0.24518001      -0.25182996 </v>
   <v>       0.24457999      -0.24951001       0.49983999 </v>
   <v>      -0.24599997      -0.27062001       0.49116997 </v>
   <v>      -0.49520997       0.24631001      -0.25289998 </v>
   <v>       0.24803003      -0.49835000       0.24955001 </v>
   <v>      -0.26448999      -0.48531996       0.26666001 </v>
   <v>      -0.49167000       0.25676999       0.25376001 </v>
   <v>      -0.49620997      -0.26073003       0.25905001 </v>
   <v>      -0.24692999       0.26163001      -0.49466998 </v>
   <v>       0.25272001       0.24823001      -0.49984997 </v>
   <v>       0.25679999       0.49462002      -0.25454998 </v>
   <v>       0.47957999      -0.01691999       0.49717999 </v>
   <v>      -0.49498994       0.49745998      -0.00165997 </v>
   <v>      -0.00572008      -0.49550001       0.49779000 </v>
   <v>      -0.49436004       0.23264998       0.49544997 </v>
   <v>      -0.49424994      -0.25041998       0.49720000 </v>
   <v>      -0.49299998      -0.49666998       0.25878999 </v>
   <v>      -0.49498997      -0.49782002      -0.26087997 </v>
   <v>      -0.25963999      -0.49803000      -0.49932997 </v>
   <v>       0.25841001      -0.49937998      -0.49870999 </v>
   <v>      -0.49461000      -0.47166995       0.49917999 </v>
  </varray>
 </structure>
 <varray name="primitive_index" >
  <v type="int" >        1 </v>
  <v type="int" >       25 </v>
  <v type="int" >       38 </v>
  <v type="int" >       34 </v>
  <v type="int" >       23 </v>
  <v type="int" >       29 </v>
  <v type="int" >       22 </v>
  <v type="int" >       59 </v>
  <v type="int" >       58 </v>
  <v type="int" >       56 </v>
  <v type="int" >        9 </v>
  <v type="int" >       18 </v>
  <v type="int" >       12 </v>
  <v type="int" >       17 </v>
  <v type="int" >        2 </v>
  <v type="int" >       14 </v>
  <v type="int" >        8 </v>
  <v type="int" >       16 </v>
  <v type="int" >       10 </v>
  <v type="int" >       45 </v>
  <v type="int" >       49 </v>
  <v type="int" >       30 </v>
  <v type="int" >       36 </v>
  <v type="int" >       39 </v>
  <v type="int" >       24 </v>
  <v type="int" >       21 </v>
  <v type="int" >       42 </v>
  <v type="int" >       53 </v>
  <v type="int" >       54 </v>
  <v type="int" >       61 </v>
  <v type="int" >       28 </v>
  <v type="int" >       26 </v>
  <v type="int" >       40 </v>
  <v type="int" >       47 </v>
  <v type="int" >       27 </v>
  <v type="int" >       43 </v>
  <v type="int" >       31 </v>
  <v type="int" >       37 </v>
  <v type="int" >       35 </v>
  <v type="int" >       48 </v>
  <v type="int" >       44 </v>
  <v type="int" >       33 </v>
  <v type="int" >       63 </v>
  <v type="int" >        7 </v>
  <v type="int" >       20 </v>
  <v type="int" >       64 </v>
  <v type="int" >        5 </v>
  <v type="int" >        3 </v>
  <v type="int" >       60 </v>
  <v type="int" >       15 </v>
  <v type="int" >       55 </v>
  <v type="int" >       11 </v>
  <v type="int" >       19 </v>
  <v type="int" >       13 </v>
  <v type="int" >       57 </v>
  <v type="int" >        4 </v>
  <v type="int" >        6 </v>
  <v type="int" >       32 </v>
  <v type="int" >       51 </v>
  <v type="int" >       41 </v>
  <v type="int" >       52 </v>
  <v type="int" >       50 </v>
  <v type="int" >       46 </v>
  <v type="int" >       62 </v>
 </varray>
 <kpoints>
  <generation param="Gamma">
   <v type="int" name="divisions">       3        3        3 </v>
   <v name="usershift">      0.00000000       0.00000000       0.00000000 </v>
   <v name="genvec1">      0.33333333      -0.00000000      -0.00000000 </v>
   <v name="genvec2">      0.00000000       0.33333333       0.00000000 </v>
   <v name="genvec3">      0.00000000       0.00000000       0.33333333 </v>
   <v name="shift">      0.00000000       0.00000000       0.00000000 </v>
  </generation>
  <varray name="kpointlist" >
   <v>       0.00000000       0.00000000       0.00000000 </v>
   <v>       0.33333333       0.00000000       0.00000000 </v>
   <v>       0.00000000       0.33333333       0.00000000 </v>
   <v>       0.33333333       0.33333333       0.00000000 </v>
   <v>      -0.33333333       0.33333333       0.00000000 </v>
   <v>       0.00000000       0.00000000       0.33333333 </v>
   <v>       0.33333333       0.00000000       0.33333333 </v>
   <v>      -0.33333333       0.00000000       0.33333333 </v>
   <v>       0.00000000       0.33333333       0.33333333 </v>
   <v>       0.33333333       0.33333333       0.33333333 </v>
   <v>      -0.33333333       0.33333333       0.33333333 </v>
   <v>       0.00000000      -0.33333333       0.33333333 </v>
   <v>       0.33333333      -0.33333333       0.33333333 </v>
   <v>      -0.33333333      -0.33333333       0.33333333 </v>
  </varray>
  <varray name="weights" >
   <v>       0.03703704 </v>
   <v>       0.07407407 </v>
   <v>       0.07407407 </v>
   <v>       0.07407407 </v>
   <v>       0.07407407 </v>
   <v>       0.07407407 </v>
   <v>       0.07407407 </v>
   <v>       0.07407407 </v>
   <v>       0.07407407 </v>
   <v>       0.07407407 </v>
   <v>       0.07407407 </v>
   <v>       0.07407407 </v>
   <v>       0.07407407 </v>
   <v>       0.07407407 </v>
  </varray>
 </kpoints>
 <parameters>
  <separator name="general" >
   <i type="string" name="SYSTEM">HECN</i>
   <i type="logical" name="LCOMPAT"> F  </i>
  </separator>
  <separator name="electronic" >
   <i type="string" name="PREC">normal</i>
   <i name="ENMAX">    400.00000000</i>
   <i name="ENAUG">    644.87300000</i>
   <i name="EDIFF">      0.00001000</i>
   <i type="int" name="IALGO">    68</i>
   <i type="int" name="IWAVPR">    11</i>
   <i type="int" name="NBANDS">   312</i>
   <i name="NELECT">    496.00000000</i>
   <i type="int" name="TURBO">     0</i>
   <i type="int" name="IRESTART">     0</i>
   <i type="int" name="NREBOOT">     0</i>
   <i type="int" name="NMIN">     0</i>
   <i name="EREF">      0.00000000</i>
   <separator name="electronic smearing" >
    <i type="int" name="ISMEAR">     0</i>
    <i name="SIGMA">      0.10000000</i>
    <i name="KSPACING">      0.50000000</i>
    <i type="logical" name="KGAMMA"> T  </i>
   </separator>
   <separator name="electronic projectors" >
    <i type="logical" name="LREAL"> F  </i>
    <v name="ROPT">      0.00000000      0.00000000      0.00000000      0.00000000      0.00000000      0.00000000      0.00000000</v>
    <i type="int" name="LMAXPAW">  -100</i>
    <i type="int" name="LMAXMIX">     2</i>
    <i type="logical" name="NLSPLINE"> F  </i>
   </separator>
   <separator name="electronic startup" >
    <i type="int" name="ISTART">     0</i>
    <i type="int" name="ICHARG">     2</i>
    <i type="int" name="INIWAV">     1</i>
   </separator>
   <separator name="electronic spin" >
    <i type="int" name="ISPIN">     1</i>
    <i type="logical" name="LNONCOLLINEAR"> F  </i>
    <v name="MAGMOM">      1.00000000      1.00000000      1.00000000      1.00000000      1.00000000      1.00000000      1.00000000      1.00000000      1.00000000      1.00000000      1.00000000      1.00000000      1.00000000      1.00000000      1.00000000      1.00000000      1.00000000      1.00000000      1.00000000      1.00000000
      1.00000000      1.00000000      1.00000000      1.00000000      1.00000000      1.00000000      1.00000000      1.00000000      1.00000000      1.00000000      1.00000000      1.00000000      1.00000000      1.00000000      1.00000000      1.00000000      1.00000000      1.00000000      1.00000000      1.00000000
      1.00000000      1.00000000      1.00000000      1.00000000      1.00000000      1.00000000      1.00000000      1.00000000      1.00000000      1.00000000      1.00000000      1.00000000      1.00000000      1.00000000      1.00000000      1.00000000      1.00000000      1.00000000      1.00000000      1.00000000
      1.00000000      1.00000000      1.00000000      1.00000000</v>
    <i name="NUPDOWN">     -1.00000000</i>
    <i type="logical" name="LSORBIT"> F  </i>
    <v name="SAXIS">      0.00000000      0.00000000      1.00000000</v>
    <i type="logical" name="LSPIRAL"> F  </i>
    <v name="QSPIRAL">      0.00000000      0.00000000      0.00000000</v>
    <i type="logical" name="LZEROZ"> F  </i>
   </separator>
   <separator name="electronic exchange-correlation" >
    <i type="logical" name="LASPH"> F  </i>
    <i type="logical" name="LMETAGGA"> F  </i>
   </separator>
   <separator name="electronic convergence" >
    <i type="int" name="NELM">    60</i>
    <i type="int" name="NELMDL">    -5</i>
    <i type="int" name="NELMIN">     2</i>
    <i name="ENINI">    400.00000000</i>
    <separator name="electronic convergence detail" >
     <i type="logical" name="LDIAG"> T  </i>
     <i type="logical" name="LSUBROT"> F  </i>
     <i name="WEIMIN">      0.00100000</i>
     <i name="EBREAK">      0.00000001</i>
     <i name="DEPER">      0.30000000</i>
     <i type="int" name="NRMM">     4</i>
     <i name="TIME">      0.40000000</i>
    </separator>
   </separator>
   <separator name="electronic mixer" >
    <i name="AMIX">      0.40000000</i>
    <i name="BMIX">      1.00000000</i>
    <i name="AMIN">      0.10000000</i>
    <i name="AMIX_MAG">      1.60000000</i>
    <i name="BMIX_MAG">      1.00000000</i>
    <separator name="electronic mixer details" >
     <i type="int" name="IMIX">     4</i>
     <i type="logical" name="MIXFIRST"> F  </i>
     <i type="int" name="MAXMIX">   -45</i>
     <i name="WC">    100.00000000</i>
     <i type="int" name="INIMIX">     1</i>
     <i type="int" name="MIXPRE">     1</i>
     <i type="int" name="MREMOVE">     5</i>
    </separator>
   </separator>
   <separator name="electronic dipolcorrection" >
    <i type="logical" name="LDIPOL"> F  </i>
    <i type="logical" name="LMONO"> F  </i>
    <i type="int" name="IDIPOL">     0</i>
    <i name="EPSILON">      1.00000000</i>
    <v name="DIPOL">   -100.00000000   -100.00000000   -100.00000000</v>
    <i name="EFIELD">      0.00000000</i>
   </separator>
  </separator>
  <separator name="grids" >
   <i type="int" name="NGX">    48</i>
   <i type="int" name="NGY">    48</i>
   <i type="int" name="NGZ">    48</i>
   <i type="int" name="NGXF">    96</i>
   <i type="int" name="NGYF">    96</i>
   <i type="int" name="NGZF">    96</i>
   <i type="logical" name="ADDGRID"> F  </i>
  </separator>
  <separator name="ionic" >
   <i type="int" name="NSW">   100</i>
   <i type="int" name="IBRION">     2</i>
   <i type="int" name="MDALGO">     0</i>
   <i type="int" name="ISIF">     3</i>
   <i name="PSTRESS">      0.00000000</i>
   <i name="EDIFFG">     -0.01000000</i>
   <i type="int" name="NFREE">     1</i>
   <i name="POTIM">      0.50000000</i>
   <i name="SMASS">     -3.00000000</i>
   <i name="SCALEE">      1.00000000</i>
  </separator>
  <separator name="ionic md" >
   <i name="TEBEG">      0.00010000</i>
   <i name="TEEND">      0.00010000</i>
   <i type="int" name="NBLOCK">     1</i>
   <i type="int" name="KBLOCK">   100</i>
   <i type="int" name="NPACO">   256</i>
   <i name="APACO">     16.00000000</i>
  </separator>
  <separator name="symmetry" >
   <i type="int" name="ISYM">     2</i>
   <i name="SYMPREC">      0.00001000</i>
  </separator>
  <separator name="dos" >
   <i type="int" name="LORBIT">     0</i>
   <v name="RWIGS">     -1.00000000     -1.00000000     -1.00000000     -1.00000000     -1.00000000     -1.00000000     -1.00000000</v>
   <i type="int" name="NEDOS">   301</i>
   <i name="EMIN">     10.00000000</i>
   <i name="EMAX">    -10.00000000</i>
   <i name="EFERMI">      0.00000000</i>
  </separator>
  <separator name="writing" >
   <i type="int" name="NWRITE">     2</i>
   <i type="logical" name="LWAVE"> F  </i>
   <i type="logical" name="LDOWNSAMPLE"> F  </i>
   <i type="logical" name="LCHARG"> F  </i>
   <i type="logical" name="LPARD"> F  </i>
   <i type="logical" name="LVTOT"> F  </i>
   <i type="logical" name="LVHAR"> F  </i>
   <i type="logical" name="LELF"> F  </i>
   <i type="logical" name="LOPTICS"> F  </i>
   <v name="STM">      0.00000000      0.00000000      0.00000000      0.00000000      0.00000000      0.00000000      0.00000000</v>
  </separator>
  <separator name="performance" >
   <i type="int" name="NPAR">    24</i>
   <i type="int" name="NSIM">     4</i>
   <i type="int" name="NBLK">    -1</i>
   <i type="logical" name="LPLANE"> T  </i>
   <i type="logical" name="LSCALAPACK"> T  </i>
   <i type="logical" name="LSCAAWARE"> F  </i>
   <i type="logical" name="LSCALU"> F  </i>
   <i type="logical" name="LASYNC"> F  </i>
   <i type="logical" name="LORBITALREAL"> F  </i>
  </separator>
  <separator name="miscellaneous" >
   <i type="int" name="IDIOT">     3</i>
   <i type="int" name="ISPECIAL">     0</i>
   <i type="logical" name="LMUSIC"> F  </i>
   <v name="POMASS">     92.91000000    183.85000000     91.22400000     14.00100000     12.01100000     51.99600000     95.94000000</v>
   <v name="DARWINR">      0.00000000      0.00000000      0.00000000      0.00000000      0.00000000      0.00000000      0.00000000</v>
   <v name="DARWINV">      1.00000000      1.00000000      1.00000000      1.00000000      1.00000000      1.00000000      1.00000000</v>
   <i type="logical" name="LCORR"> T  </i>
  </separator>
  <i type="logical" name="GGA_COMPAT"> T  </i>
  <i type="logical" name="LBERRY"> F  </i>
  <i type="int" name="ICORELEVEL">     0</i>
  <i type="logical" name="LDAU"> F  </i>
  <i type="int" name="I_CONSTRAINED_M">     0</i>
  <separator name="electronic exchange-correlation" >
   <i type="string" name="GGA">--</i>
   <i type="int" name="VOSKOWN">     0</i>
   <i type="logical" name="LHFCALC"> F  </i>
   <i type="string" name="PRECFOCK"></i>
   <i type="logical" name="LSYMGRAD"> F  </i>
   <i type="logical" name="LHFONE"> F  </i>
   <i type="logical" name="LRHFCALC"> F  </i>
   <i type="logical" name="LTHOMAS"> F  </i>
   <i type="logical" name="LMODELHF"> F  </i>
   <i name="ENCUT4O">     -1.00000000</i>
   <i type="int" name="EXXOEP">     0</i>
   <i type="int" name="FOURORBIT">     0</i>
   <i name="AEXX">      0.00000000</i>
   <i name="HFALPHA">      0.00000000</i>
   <i name="MCALPHA">      0.00000000</i>
   <i name="ALDAX">      1.00000000</i>
   <i name="AGGAX">      1.00000000</i>
   <i name="ALDAC">      1.00000000</i>
   <i name="AGGAC">      1.00000000</i>
   <i type="int" name="NKREDX">     1</i>
   <i type="int" name="NKREDY">     1</i>
   <i type="int" name="NKREDZ">     1</i>
   <i type="logical" name="SHIFTRED"> F  </i>
   <i type="logical" name="ODDONLY"> F  </i>
   <i type="logical" name="EVENONLY"> F  </i>
   <i type="int" name="LMAXFOCK">     0</i>
   <i type="int" name="NMAXFOCKAE">     0</i>
   <i type="logical" name="LFOCKAEDFT"> F  </i>
   <i name="HFSCREEN">      0.00000000</i>
   <i name="HFSCREENC">      0.00000000</i>
   <i type="int" name="NBANDSGWLOW">     0</i>
  </separator>
  <separator name="vdW DFT" >
   <i type="logical" name="LUSE_VDW"> F  </i>
   <i name="Zab_VDW">     -0.84910000</i>
   <i name="PARAM1">      0.12340000</i>
   <i name="PARAM2">      1.00000000</i>
   <i name="PARAM3">      0.00000000</i>
  </separator>
  <separator name="model GW" >
   <i type="int" name="MODEL_GW">     0</i>
   <i name="MODEL_EPS0">      6.77734242</i>
   <i name="MODEL_ALPHA">      1.00000000</i>
  </separator>
  <separator name="linear response parameters" >
   <i type="logical" name="LEPSILON"> F  </i>
   <i type="logical" name="LRPA"> F  </i>
   <i type="logical" name="LNABLA"> F  </i>
   <i type="logical" name="LVEL"> F  </i>
   <i type="int" name="KINTER">     0</i>
   <i name="CSHIFT">      0.10000000</i>
   <i name="OMEGAMAX">     -1.00000000</i>
   <i name="DEG_THRESHOLD">      0.00200000</i>
   <i name="RTIME">     -0.10000000</i>
   <i name="WPLASMAI">      0.00000000</i>
   <v name="DFIELD">      0.00000000      0.00000000      0.00000000</v>
   <v name="WPLASMA">      0.00000000      0.00000000      0.00000000      0.00000000      0.00000000      0.00000000      0.00000000      0.00000000      0.00000000</v>
  </separator>
  <separator name="orbital magnetization" >
   <i type="logical" name="NUCIND"> F  </i>
   <v name="MAGPOS">      0.00000000      0.00000000      0.00000000</v>
   <i type="logical" name="LNICSALL"> T  </i>
   <i type="logical" name="ORBITALMAG"> F  </i>
   <i type="logical" name="LMAGBLOCH"> F  </i>
   <i type="logical" name="LCHIMAG"> F  </i>
   <i type="logical" name="LGAUGE"> T  </i>
   <i type="int" name="MAGATOM">     0</i>
   <v name="MAGDIPOL">      0.00000000      0.00000000      0.00000000</v>
   <v name="AVECCONST">      0.00000000      0.00000000      0.00000000</v>
  </separator>
  <separator name="response functions" >
   <i type="logical" name="LADDER"> F  </i>
   <i type="logical" name="LRPAFORCE"> F  </i>
   <i type="logical" name="LFXC"> F  </i>
   <i type="logical" name="LHARTREE"> T  </i>
   <i type="int" name="IBSE">     0</i>
   <v type="int" name="KPOINT">    -1     0     0     0</v>
   <i type="logical" name="LTCTE"> F  </i>
   <i type="logical" name="LTETE"> F  </i>
   <i type="logical" name="LTRIPLET"> F  </i>
   <i type="logical" name="LFXCEPS"> F  </i>
   <i type="logical" name="LFXHEG"> F  </i>
   <i type="int" name="NATURALO">     2</i>
   <i type="logical" name="L2ORDER"> F  </i>
   <i type="logical" name="LMP2LT"> F  </i>
   <i type="logical" name="LUSEW"> F  </i>
   <i name="ENCUTGW">     -2.00000000</i>
   <i name="ENCUTGWSOFT">     -2.00000000</i>
   <i name="ENCUTLF">     -1.00000000</i>
   <i type="int" name="LMAXMP2">    -1</i>
   <i name="SCISSOR">      0.00000000</i>
   <i type="int" name="NOMEGA">     0</i>
   <i type="int" name="NOMEGAR">     0</i>
   <i type="int" name="NBANDSGW">    -1</i>
   <i type="int" name="NBANDSO">    -1</i>
   <i type="int" name="NBANDSV">    -1</i>
   <i type="int" name="NELM">    60</i>
   <i type="int" name="NELMHF">     1</i>
   <i type="int" name="DIM">     3</i>
   <i type="int" name="ANTIRES">     0</i>
   <i name="OMEGAMAX">    -30.00000000</i>
   <i name="OMEGAMIN">    -30.00000000</i>
   <i name="OMEGATL">   -200.00000000</i>
   <i type="int" name="OMEGAGRID">   140</i>
   <i name="CSHIFT">     -0.10000000</i>
   <i type="logical" name="SELFENERGY"> F  </i>
   <i type="logical" name="LSPECTRAL"> F  </i>
   <i type="logical" name="LSPECTRALGW"> F  </i>
   <i type="logical" name="LSINGLES"> F  </i>
   <i type="logical" name="LFERMIGW"> F  </i>
   <i type="logical" name="ODDONLYGW"> F  </i>
   <i type="logical" name="EVENONLYGW"> F  </i>
   <i type="int" name="NKREDLFX">     1</i>
   <i type="int" name="NKREDLFY">     1</i>
   <i type="int" name="NKREDLFZ">     1</i>
   <i type="int" name="MAXMEM">  2800</i>
   <i type="int" name="TELESCOPE">     0</i>
   <i type="int" name="TAUPAR">     1</i>
   <i type="int" name="OMEGAPAR">    -1</i>
   <i name="LAMBDA">      1.00000000</i>
  </separator>
  <separator name="External order field" >
   <i name="OFIELD_KAPPA">      0.00000000</i>
   <v name="OFIELD_K">      0.00000000      0.00000000      0.00000000</v>
   <i name="OFIELD_Q6_NEAR">      0.00000000</i>
   <i name="OFIELD_Q6_FAR">      0.00000000</i>
   <i name="OFIELD_A">      0.00000000</i>
  </separator>
 </parameters>
 <atominfo>
  <atoms>      64 </atoms>
  <types>       7 </types>
  <array name="atoms" >
   <dimension dim="1">ion</dimension>
   <field type="string">element</field>
   <field type="int">atomtype</field>
   <set>
    <rc><c>Nb</c><c>   1</c></rc>
    <rc><c>Nb</c><c>   1</c></rc>
    <rc><c>Nb</c><c>   1</c></rc>
    <rc><c>Nb</c><c>   1</c></rc>
    <rc><c>Nb</c><c>   1</c></rc>
    <rc><c>Nb</c><c>   1</c></rc>
    <rc><c>Nb</c><c>   1</c></rc>
    <rc><c>W </c><c>   2</c></rc>
    <rc><c>W </c><c>   2</c></rc>
    <rc><c>W </c><c>   2</c></rc>
    <rc><c>W </c><c>   2</c></rc>
    <rc><c>W </c><c>   2</c></rc>
    <rc><c>W </c><c>   2</c></rc>
    <rc><c>Zr</c><c>   3</c></rc>
    <rc><c>Zr</c><c>   3</c></rc>
    <rc><c>Zr</c><c>   3</c></rc>
    <rc><c>Zr</c><c>   3</c></rc>
    <rc><c>Zr</c><c>   3</c></rc>
    <rc><c>Zr</c><c>   3</c></rc>
    <rc><c>Zr</c><c>   3</c></rc>
    <rc><c>N </c><c>   4</c></rc>
    <rc><c>N </c><c>   4</c></rc>
    <rc><c>N </c><c>   4</c></rc>
    <rc><c>N </c><c>   4</c></rc>
    <rc><c>N </c><c>   4</c></rc>
    <rc><c>N </c><c>   4</c></rc>
    <rc><c>N </c><c>   4</c></rc>
    <rc><c>N </c><c>   4</c></rc>
    <rc><c>N </c><c>   4</c></rc>
    <rc><c>N </c><c>   4</c></rc>
    <rc><c>N </c><c>   4</c></rc>
    <rc><c>N </c><c>   4</c></rc>
    <rc><c>N </c><c>   4</c></rc>
    <rc><c>C </c><c>   5</c></rc>
    <rc><c>C </c><c>   5</c></rc>
    <rc><c>C </c><c>   5</c></rc>
    <rc><c>C </c><c>   5</c></rc>
    <rc><c>C </c><c>   5</c></rc>
    <rc><c>C </c><c>   5</c></rc>
    <rc><c>C </c><c>   5</c></rc>
    <rc><c>C </c><c>   5</c></rc>
    <rc><c>C </c><c>   5</c></rc>
    <rc><c>C </c><c>   5</c></rc>
    <rc><c>C </c><c>   5</c></rc>
    <rc><c>C </c><c>   5</c></rc>
    <rc><c>C </c><c>   5</c></rc>
    <rc><c>C </c><c>   5</c></rc>
    <rc><c>C </c><c>   5</c></rc>
    <rc><c>C </c><c>   5</c></rc>
    <rc><c>C </c><c>   5</c></rc>
    <rc><c>C </c><c>   5</c></rc>
    <rc><c>C </c><c>   5</c></rc>
    <rc><c>Cr</c><c>   6</c></rc>
    <rc><c>Cr</c><c>   6</c></rc>
    <rc><c>Cr</c><c>   6</c></rc>
    <rc><c>Cr</c><c>   6</c></rc>
    <rc><c>Cr</c><c>   6</c></rc>
    <rc><c>Cr</c><c>   6</c></rc>
    <rc><c>Mo</c><c>   7</c></rc>
    <rc><c>Mo</c><c>   7</c></rc>
    <rc><c>Mo</c><c>   7</c></rc>
    <rc><c>Mo</c><c>   7</c></rc>
    <rc><c>Mo</c><c>   7</c></rc>
    <rc><c>Mo</c><c>   7</c></rc>
   </set>
  </array>
  <array name="atomtypes" >
   <dimension dim="1">type</dimension>
   <field type="int">atomspertype</field>
   <field type="string">element</field>
   <field>mass</field>
   <field>valence</field>
   <field type="string">pseudopotential</field>
   <set>
    <rc><c>   7</c><c>Nb</c><c>     92.91000000</c><c>     13.00000000</c><c> PAW_PBE Nb_sv 17Jan2003                </c></rc>
    <rc><c>   6</c><c>W </c><c>    183.85000000</c><c>     12.00000000</c><c> PAW_PBE W_pv 06Sep2000                 </c></rc>
    <rc><c>   7</c><c>Zr</c><c>     91.22400000</c><c>     12.00000000</c><c> PAW_PBE Zr_sv 07Sep2000                </c></rc>
    <rc><c>  13</c><c>N </c><c>     14.00100000</c><c>      5.00000000</c><c> PAW_PBE N 08Apr2002                    </c></rc>
    <rc><c>  19</c><c>C </c><c>     12.01100000</c><c>      4.00000000</c><c> PAW_PBE C 08Apr2002                    </c></rc>
    <rc><c>   6</c><c>Cr</c><c>     51.99600000</c><c>     12.00000000</c><c> PAW_PBE Cr_pv 07Sep2000                </c></rc>
    <rc><c>   6</c><c>Mo</c><c>     95.94000000</c><c>      6.00000000</c><c> PAW_PBE Mo 08Apr2002                   </c></rc>
   </set>
  </array>
 </atominfo>
 <structure name="initialpos" >
  <crystal>
   <varray name="basis" >
    <v>       8.93249989       0.00000000       0.00000000 </v>
    <v>       0.00575300       9.05559834       0.00000000 </v>
    <v>       0.03210180      -0.01574346       8.93712807 </v>
   </varray>
   <i name="volume">    722.91652451 </i>
   <varray name="rec_basis" >
    <v>       0.11195074      -0.00007112      -0.00040225 </v>
    <v>       0.00000000       0.11042893       0.00019453 </v>
    <v>       0.00000000       0.00000000       0.11189277 </v>
   </varray>
  </crystal>
  <varray name="positions" >
   <v>       0.99688001       0.99204997       0.99924002 </v>
   <v>       0.25398003       0.99714995       0.24912000 </v>
   <v>       0.24803003       0.50165000       0.24955001 </v>
   <v>       0.50501006       0.49745998       0.99834003 </v>
   <v>       0.50479003       0.24631001       0.74710002 </v>
   <v>       0.99427992       0.50449999       0.49779000 </v>
   <v>       0.49950005       0.75481999       0.74817004 </v>
   <v>       0.99437004       0.23617001       0.26379999 </v>
   <v>       0.75718000       0.74102998       0.01100000 </v>
   <v>       0.00201000       0.25541000       0.73894001 </v>
   <v>       0.75307001       0.26163001       0.50533002 </v>
   <v>       0.99514004       0.74492004       0.74511997 </v>
   <v>       0.25679999       0.49462002       0.74545002 </v>
   <v>       0.24788999       0.24839000       0.99657997 </v>
   <v>       0.50833000       0.25676999       0.25376001 </v>
   <v>       0.74879004       0.98787999       0.26967001 </v>
   <v>       0.75719000       0.25603001       0.99591997 </v>
   <v>       0.24762001       0.74973999       0.99974006 </v>
   <v>       0.25272001       0.24823001       0.50015003 </v>
   <v>       0.24457999       0.75048999       0.49983999 </v>
   <v>       0.24982001       0.24942998       0.24825000 </v>
   <v>       0.26146999       0.99984002       0.99295996 </v>
   <v>       0.00281000       0.25024000       0.00130000 </v>
   <v>       0.75313998       0.24617000       0.25492002 </v>
   <v>       0.74767001       0.99748000       0.01202000 </v>
   <v>       0.50714994       0.99977000       0.24673000 </v>
   <v>       0.99051999       0.48088002       0.24100998 </v>
   <v>       0.50519005       0.76130999       0.00855000 </v>
   <v>       0.98896989       0.00202000       0.73708999 </v>
   <v>       0.75744996       0.24437997       0.74896999 </v>
   <v>       0.73632001       0.00417000       0.51063000 </v>
   <v>       0.50563996       0.23264999       0.49544997 </v>
   <v>       0.50008998       0.00061000       0.73471998 </v>
   <v>       0.99720000       0.99771992       0.25899999 </v>
   <v>       0.50427997       0.24673000       0.00262000 </v>
   <v>       0.25133999       0.74958002       0.24910999 </v>
   <v>       0.24328000       0.50072997       0.99510994 </v>
   <v>       0.99837005       0.74313996       0.00460000 </v>
   <v>       0.75633000       0.73891003       0.25767000 </v>
   <v>       0.75839004       0.50315998       0.00288000 </v>
   <v>       0.50700002       0.50333002       0.25878999 </v>
   <v>       0.24900999       0.25315000       0.74854000 </v>
   <v>       0.24446000       0.99823996       0.50287998 </v>
   <v>       0.99804009       0.24229999       0.50128003 </v>
   <v>       0.24177002       0.75340997       0.75018002 </v>
   <v>       0.25841001       0.50062002       0.50129001 </v>
   <v>       0.99000004       0.76215003       0.49746000 </v>
   <v>       0.99203996       0.50055999       0.75138002 </v>
   <v>       0.75036005       0.74888000       0.74756004 </v>
   <v>       0.74036002       0.50197000       0.50067003 </v>
   <v>       0.50575006       0.74958002       0.49720000 </v>
   <v>       0.50501003       0.50217998       0.73912003 </v>
   <v>       0.51588997       0.01358000       0.98075008 </v>
   <v>       0.99841994       0.50976998       0.98613004 </v>
   <v>       0.50379003       0.73926997       0.25905001 </v>
   <v>       0.23780002       0.01082000       0.74607998 </v>
   <v>       0.47957999       0.98308000       0.49717999 </v>
   <v>       0.74279003       0.97869994       0.76450995 </v>
   <v>       0.99864998       0.77573999       0.26102000 </v>
   <v>       0.73551001       0.51468004       0.26666001 </v>
   <v>       0.02362000       0.99783001       0.49557002 </v>
   <v>       0.50539000       0.52833005       0.49917999 </v>
   <v>       0.73876003       0.52828003       0.73814999 </v>
   <v>       0.75400003       0.72937999       0.49116997 </v>
  </varray>
 </structure>
 <calculation>
  <scstep>
   <time name="dav">   21.95   22.02</time>
   <time name="total">   21.99   22.08</time>
   <energy>
    <i name="alphaZ">   3930.98983918 </i>
    <i name="ewald"> -39430.45294080 </i>
    <i name="hartreedc">  -7736.25095969 </i>
    <i name="XCdc">   1452.10163300 </i>
    <i name="pawpsdc">  28084.13579579 </i>
    <i name="pawaedc"> -27650.95877781 </i>
    <i name="eentropy">     -0.08411196 </i>
    <i name="bandstr">   2612.84427235 </i>
    <i name="atom">  44854.02381677 </i>
    <i name="e_fr_energy">   6116.34856682 </i>
    <i name="e_wo_entrp">   6116.43267878 </i>
    <i name="e_0_energy">   6116.39062280 </i>
   </energy>
  </scstep>
  <scstep>
   <time name="dav">   23.17   23.25</time>
   <time name="total">   23.17   23.26</time>
   <energy>
    <i name="e_fr_energy">    281.24519935 </i>
    <i name="e_wo_entrp">    281.36646293 </i>
    <i name="e_0_energy">    281.30583114 </i>
   </energy>
  </scstep>
  <scstep>
   <time name="dav">   33.07   33.21</time>
   <time name="total">   33.07   33.21</time>
   <energy>
    <i name="e_fr_energy">   -660.87019172 </i>
    <i name="e_wo_entrp">   -660.73943908 </i>
    <i name="e_0_energy">   -660.80481540 </i>
   </energy>
  </scstep>
  <scstep>
   <time name="dav">   36.49   36.58</time>
   <time name="total">   36.49   36.58</time>
   <energy>
    <i name="e_fr_energy">   -758.99807855 </i>
    <i name="e_wo_entrp">   -758.86135181 </i>
    <i name="e_0_energy">   -758.92971518 </i>
   </energy>
  </scstep>
  <scstep>
   <time name="dav">   38.48   38.53</time>
   <time name="total">   38.74   38.79</time>
   <energy>
    <i name="e_fr_energy">   -772.82585325 </i>
    <i name="e_wo_entrp">   -772.67762662 </i>
    <i name="e_0_energy">   -772.75173993 </i>
   </energy>
  </scstep>
  <scstep>
   <time name="diag">    1.84    1.85</time>
   <time name="diis">   19.88   19.93</time>
   <time name="orth">    0.43    0.43</time>
   <time name="total">   22.44   22.50</time>
   <energy>
    <i name="e_fr_energy">   -956.89397261 </i>
    <i name="e_wo_entrp">   -956.75909989 </i>
    <i name="e_0_energy">   -956.82653625 </i>
   </energy>
  </scstep>
  <scstep>
   <time name="diag">    1.90    1.90</time>
   <time name="diis">   23.08   23.16</time>
   <time name="orth">    0.45    0.45</time>
   <time name="total">   25.71   25.79</time>
   <energy>
    <i name="e_fr_energy">   -646.01201363 </i>
    <i name="e_wo_entrp">   -645.86865634 </i>
    <i name="e_0_energy">   -645.94033499 </i>
   </energy>
  </scstep>
  <scstep>
   <time name="diag">    1.87    1.88</time>
   <time name="diis">   23.99   24.03</time>
   <time name="orth">    0.44    0.44</time>
   <time name="total">   26.59   26.65</time>
   <energy>
    <i name="e_fr_energy">   -644.85612016 </i>
    <i name="e_wo_entrp">   -644.67876566 </i>
    <i name="e_0_energy">   -644.76744291 </i>
   </energy>
  </scstep>
  <scstep>
   <time name="diag">    1.87    1.87</time>
   <time name="diis">   23.11   23.15</time>
   <time name="orth">    0.44    0.44</time>
   <time name="total">   25.71   25.75</time>
   <energy>
    <i name="e_fr_energy">   -641.63147056 </i>
    <i name="e_wo_entrp">   -641.44915465 </i>
    <i name="e_0_energy">   -641.54031261 </i>
   </energy>
  </scstep>
  <scstep>
   <time name="diag">    1.86    1.86</time>
   <time name="diis">   23.51   23.54</time>
   <time name="orth">    0.43    0.44</time>
   <time name="total">   26.08   26.12</time>
   <energy>
    <i name="e_fr_energy">   -635.95624049 </i>
    <i name="e_wo_entrp">   -635.72686416 </i>
    <i name="e_0_energy">   -635.84155232 </i>
   </energy>
  </scstep>
  <scstep>
   <time name="diag">    1.85    1.85</time>
   <time name="diis">   20.21   20.34</time>
   <time name="orth">    0.43    0.44</time>
   <time name="total">   22.79   22.92</time>
   <energy>
    <i name="e_fr_energy">   -638.11051160 </i>
    <i name="e_wo_entrp">   -637.90162997 </i>
    <i name="e_0_energy">   -638.00607078 </i>
   </energy>
  </scstep>
  <scstep>
   <time name="diag">    1.85    1.86</time>
   <time name="diis">   22.49   22.52</time>
   <time name="orth">    0.44    0.44</time>
   <time name="total">   25.07   25.10</time>
   <energy>
    <i name="e_fr_energy">   -635.55834820 </i>
    <i name="e_wo_entrp">   -635.32802622 </i>
    <i name="e_0_energy">   -635.44318721 </i>
   </energy>
  </scstep>
  <scstep>
   <time name="diag">    1.84    1.85</time>
   <time name="diis">   24.07   24.14</time>
   <time name="orth">    0.46    0.46</time>
   <time name="total">   26.65   26.73</time>
   <energy>
    <i name="e_fr_energy">   -636.29353862 </i>
    <i name="e_wo_entrp">   -636.07892200 </i>
    <i name="e_0_energy">   -636.18623031 </i>
   </energy>
  </scstep>
  <scstep>
   <time name="diag">    1.85    1.86</time>
   <time name="diis">   23.11   23.16</time>
   <time name="orth">    0.44    0.45</time>
   <time name="total">   25.69   25.76</time>
   <energy>
    <i name="e_fr_energy">   -635.32433257 </i>
    <i name="e_wo_entrp">   -635.09638661 </i>
    <i name="e_0_energy">   -635.21035959 </i>
   </energy>
  </scstep>
  <scstep>
   <time name="diag">    1.85    1.86</time>
   <time name="diis">   22.35   22.38</time>
   <time name="orth">    0.43    0.43</time>
   <time name="total">   24.92   24.96</time>
   <energy>
    <i name="e_fr_energy">   -635.82090833 </i>
    <i name="e_wo_entrp">   -635.59486367 </i>
    <i name="e_0_energy">   -635.70788600 </i>
   </energy>
  </scstep>
  <scstep>
   <time name="diag">    1.85    1.85</time>
   <time name="diis">   22.60   22.65</time>
   <time name="orth">    0.44    0.44</time>
   <time name="total">   25.18   25.23</time>
   <energy>
    <i name="e_fr_energy">   -635.03950533 </i>
    <i name="e_wo_entrp">   -634.79801658 </i>
    <i name="e_0_energy">   -634.91876095 </i>
   </energy>
  </scstep>
  <scstep>
   <time name="diag">    1.85    1.85</time>
   <time name="diis">   23.77   23.87</time>
   <time name="orth">    0.44    0.44</time>
   <time name="total">   26.34   26.44</time>
   <energy>
    <i name="e_fr_energy">   -635.14670869 </i>
    <i name="e_wo_entrp">   -634.90775414 </i>
    <i name="e_0_energy">   -635.02723142 </i>
   </energy>
  </scstep>
  <scstep>
   <time name="diag">    1.85    1.85</time>
   <time name="diis">   23.45   23.51</time>
   <time name="orth">    0.44    0.44</time>
   <time name="total">   26.02   26.08</time>
   <energy>
    <i name="e_fr_energy">   -635.03867326 </i>
    <i name="e_wo_entrp">   -634.79506307 </i>
    <i name="e_0_energy">   -634.91686817 </i>
   </energy>
  </scstep>
  <scstep>
   <time name="diag">    1.86    1.86</time>
   <time name="diis">   23.74   23.78</time>
   <time name="orth">    0.44    0.44</time>
   <time name="total">   26.33   26.38</time>
   <energy>
    <i name="e_fr_energy">   -635.06066673 </i>
    <i name="e_wo_entrp">   -634.81920736 </i>
    <i name="e_0_energy">   -634.93993705 </i>
   </energy>
  </scstep>
  <scstep>
   <time name="diag">    1.86    1.86</time>
   <time name="diis">   22.34   22.41</time>
   <time name="orth">    0.45    0.45</time>
   <time name="total">   24.95   25.02</time>
   <energy>
    <i name="e_fr_energy">   -635.05295236 </i>
    <i name="e_wo_entrp">   -634.81056198 </i>
    <i name="e_0_energy">   -634.93175717 </i>
   </energy>
  </scstep>
  <scstep>
   <time name="diag">    1.85    1.85</time>
   <time name="diis">   23.62   23.67</time>
   <time name="orth">    0.44    0.44</time>
   <time name="total">   26.20   26.25</time>
   <energy>
    <i name="e_fr_energy">   -635.04779280 </i>
    <i name="e_wo_entrp">   -634.80517478 </i>
    <i name="e_0_energy">   -634.92648379 </i>
   </energy>
  </scstep>
  <scstep>
   <time name="diag">    1.86    1.86</time>
   <time name="diis">   23.47   23.50</time>
   <time name="orth">    0.43    0.43</time>
   <time name="total">   26.06   26.08</time>
   <energy>
    <i name="e_fr_energy">   -635.04959459 </i>
    <i name="e_wo_entrp">   -634.80689460 </i>
    <i name="e_0_energy">   -634.92824460 </i>
   </energy>
  </scstep>
  <scstep>
   <time name="diag">    1.85    1.85</time>
   <time name="diis">   23.54   23.60</time>
   <time name="orth">    0.44    0.44</time>
   <time name="total">   26.11   26.18</time>
   <energy>
    <i name="e_fr_energy">   -635.05185341 </i>
    <i name="e_wo_entrp">   -634.80914881 </i>
    <i name="e_0_energy">   -634.93050111 </i>
   </energy>
  </scstep>
  <scstep>
   <time name="diag">    1.85    1.85</time>
   <time name="diis">   22.55   22.60</time>
   <time name="orth">    0.44    0.44</time>
   <time name="total">   25.13   25.19</time>
   <energy>
    <i name="e_fr_energy">   -635.05345507 </i>
    <i name="e_wo_entrp">   -634.81069588 </i>
    <i name="e_0_energy">   -634.93207548 </i>
   </energy>
  </scstep>
  <scstep>
   <time name="diag">    1.84    1.85</time>
   <time name="diis">   21.95   22.04</time>
   <time name="orth">    0.43    0.43</time>
   <time name="total">   24.52   24.62</time>
   <energy>
    <i name="e_fr_energy">   -635.05427599 </i>
    <i name="e_wo_entrp">   -634.81149629 </i>
    <i name="e_0_energy">   -634.93288614 </i>
   </energy>
  </scstep>
  <scstep>
   <time name="diag">    1.85    1.85</time>
   <time name="diis">   20.97   21.06</time>
   <time name="orth">    0.43    0.43</time>
   <time name="total">   23.54   23.64</time>
   <energy>
    <i name="e_fr_energy">   -635.05484198 </i>
    <i name="e_wo_entrp">   -634.81201534 </i>
    <i name="e_0_energy">   -634.93342866 </i>
   </energy>
  </scstep>
  <scstep>
   <time name="diag">    1.84    1.85</time>
   <time name="diis">   20.19   20.24</time>
   <time name="orth">    0.44    0.44</time>
   <time name="total">   22.77   22.83</time>
   <energy>
    <i name="e_fr_energy">   -635.05518061 </i>
    <i name="e_wo_entrp">   -634.81238143 </i>
    <i name="e_0_energy">   -634.93378102 </i>
   </energy>
  </scstep>
  <scstep>
   <time name="diag">    1.87    1.89</time>
   <time name="diis">   19.61   19.65</time>
   <time name="orth">    0.43    0.43</time>
   <time name="total">   22.20   22.26</time>
   <energy>
    <i name="e_fr_energy">   -635.05536433 </i>
    <i name="e_wo_entrp">   -634.81255423 </i>
    <i name="e_0_energy">   -634.93395928 </i>
   </energy>
  </scstep>
  <scstep>
   <time name="diag">    1.85    1.85</time>
   <time name="diis">   19.42   19.45</time>
   <time name="orth">    0.44    0.44</time>
   <time name="total">   22.00   22.03</time>
   <energy>
    <i name="e_fr_energy">   -635.05548391 </i>
    <i name="e_wo_entrp">   -634.81268121 </i>
    <i name="e_0_energy">   -634.93408256 </i>
   </energy>
  </scstep>
  <scstep>
   <time name="diag">    1.88    1.89</time>
   <time name="diis">   18.98   19.02</time>
   <time name="orth">    0.43    0.43</time>
   <time name="total">   21.58   21.64</time>
   <energy>
    <i name="e_fr_energy">   -635.05555771 </i>
    <i name="e_wo_entrp">   -634.81274402 </i>
    <i name="e_0_energy">   -634.93415086 </i>
   </energy>
  </scstep>
  <scstep>
   <time name="diag">    1.86    1.86</time>
   <time name="diis">   18.55   18.60</time>
   <time name="orth">    0.43    0.44</time>
   <time name="total">   21.13   21.19</time>
   <energy>
    <i name="e_fr_energy">   -635.05560750 </i>
    <i name="e_wo_entrp">   -634.81279065 </i>
    <i name="e_0_energy">   -634.93419907 </i>
   </energy>
  </scstep>
  <scstep>
   <time name="diag">    1.85    1.85</time>
   <time name="diis">   18.67   18.73</time>
   <time name="orth">    0.43    0.43</time>
   <time name="total">   21.25   21.31</time>
   <energy>
    <i name="e_fr_energy">   -635.05563749 </i>
    <i name="e_wo_entrp">   -634.81281962 </i>
    <i name="e_0_energy">   -634.93422856 </i>
   </energy>
  </scstep>
  <scstep>
   <time name="diag">    1.84    1.85</time>
   <time name="diis">   17.16   17.20</time>
   <time name="orth">    0.44    0.44</time>
   <time name="total">   19.74   19.78</time>
   <energy>
    <i name="e_fr_energy">   -635.05565613 </i>
    <i name="e_wo_entrp">   -634.81283745 </i>
    <i name="e_0_energy">   -634.93424679 </i>
   </energy>
  </scstep>
  <scstep>
   <time name="diag">    1.87    1.87</time>
   <time name="diis">   16.13   16.15</time>
   <time name="orth">    0.43    0.43</time>
   <time name="total">   18.73   18.75</time>
   <energy>
    <i name="e_fr_energy">   -635.05566802 </i>
    <i name="e_wo_entrp">   -634.81285056 </i>
    <i name="e_0_energy">   -634.93425929 </i>
   </energy>
  </scstep>
  <scstep>
   <time name="diag">    1.86    1.86</time>
   <time name="diis">   15.13   15.15</time>
   <time name="orth">    0.43    0.43</time>
   <time name="total">   17.45   17.48</time>
   <energy>
    <i name="alphaZ">   3930.98983918 </i>
    <i name="ewald"> -39430.45294080 </i>
    <i name="hartreedc">  -7300.83630076 </i>
    <i name="XCdc">   1446.22168677 </i>
    <i name="pawpsdc">  29240.30717470 </i>
    <i name="pawaedc"> -28844.71154845 </i>
    <i name="eentropy">     -0.24281832 </i>
    <i name="bandstr">  -4530.35458521 </i>
    <i name="atom">  44854.02381677 </i>
    <i name="e_fr_energy">   -635.05567613 </i>
    <i name="e_wo_entrp">   -634.81285780 </i>
    <i name="e_0_energy">   -634.93426696 </i>
   </energy>
  </scstep>
  <structure>
   <crystal>
    <varray name="basis" >
     <v>       8.93249989       0.00000000       0.00000000 </v>
     <v>       0.00575300       9.05559834       0.00000000 </v>
     <v>       0.03210180      -0.01574346       8.93712807 </v>
    </varray>
    <i name="volume">    722.91652451 </i>
    <varray name="rec_basis" >
     <v>       0.11195074      -0.00007112      -0.00040225 </v>
     <v>       0.00000000       0.11042893       0.00019453 </v>
     <v>       0.00000000       0.00000000       0.11189277 </v>
    </varray>
   </crystal>
   <varray name="positions" >
    <v>       0.99688001       0.99204997       0.99924002 </v>
    <v>       0.25398003       0.99714995       0.24912000 </v>
    <v>       0.24803003       0.50165000       0.24955001 </v>
    <v>       0.50501006       0.49745998       0.99834003 </v>
    <v>       0.50479003       0.24631001       0.74710002 </v>
    <v>       0.99427992       0.50449999       0.49779000 </v>
    <v>       0.49950005       0.75481999       0.74817004 </v>
    <v>       0.99437004       0.23617001       0.26379999 </v>
    <v>       0.75718000       0.74102998       0.01100000 </v>
    <v>       0.00201000       0.25541000       0.73894001 </v>
    <v>       0.75307001       0.26163001       0.50533002 </v>
    <v>       0.99514004       0.74492004       0.74511997 </v>
    <v>       0.25679999       0.49462002       0.74545002 </v>
    <v>       0.24788999       0.24839000       0.99657997 </v>
    <v>       0.50833000       0.25676999       0.25376001 </v>
    <v>       0.74879004       0.98787999       0.26967001 </v>
    <v>       0.75719000       0.25603001       0.99591997 </v>
    <v>       0.24762001       0.74973999       0.99974006 </v>
    <v>       0.25272001       0.24823001       0.50015003 </v>
    <v>       0.24457999       0.75048999       0.49983999 </v>
    <v>       0.24982001       0.24942998       0.24825000 </v>
    <v>       0.26146999       0.99984002       0.99295996 </v>
    <v>       0.00281000       0.25024000       0.00130000 </v>
    <v>       0.75313998       0.24617000       0.25492002 </v>
    <v>       0.74767001       0.99748000       0.01202000 </v>
    <v>       0.50714994       0.99977000       0.24673000 </v>
    <v>       0.99051999       0.48088002       0.24100998 </v>
    <v>       0.50519005       0.76130999       0.00855000 </v>
    <v>       0.98896989       0.00202000       0.73708999 </v>
    <v>       0.75744996       0.24437997       0.74896999 </v>
    <v>       0.73632001       0.00417000       0.51063000 </v>
    <v>       0.50563996       0.23264999       0.49544997 </v>
    <v>       0.50008998       0.00061000       0.73471998 </v>
    <v>       0.99720000       0.99771992       0.25899999 </v>
    <v>       0.50427997       0.24673000       0.00262000 </v>
    <v>       0.25133999       0.74958002       0.24910999 </v>
    <v>       0.24328000       0.50072997       0.99510994 </v>
    <v>       0.99837005       0.74313996       0.00460000 </v>
    <v>       0.75633000       0.73891003       0.25767000 </v>
    <v>       0.75839004       0.50315998       0.00288000 </v>
    <v>       0.50700002       0.50333002       0.25878999 </v>
    <v>       0.24900999       0.25315000       0.74854000 </v>
    <v>       0.24446000       0.99823996       0.50287998 </v>
    <v>       0.99804009       0.24229999       0.50128003 </v>
    <v>       0.24177002       0.75340997       0.75018002 </v>
    <v>       0.25841001       0.50062002       0.50129001 </v>
    <v>       0.99000004       0.76215003       0.49746000 </v>
    <v>       0.99203996       0.50055999       0.75138002 </v>
    <v>       0.75036005       0.74888000       0.74756004 </v>
    <v>       0.74036002       0.50197000       0.50067003 </v>
    <v>       0.50575006       0.74958002       0.49720000 </v>
    <v>       0.50501003       0.50217998       0.73912003 </v>
    <v>       0.51588997       0.01358000       0.98075008 </v>
    <v>       0.99841994       0.50976998       0.98613004 </v>
    <v>       0.50379003       0.73926997       0.25905001 </v>
    <v>       0.23780002       0.01082000       0.74607998 </v>
    <v>       0.47957999       0.98308000       0.49717999 </v>
    <v>       0.74279003       0.97869994       0.76450995 </v>
    <v>       0.99864998       0.77573999       0.26102000 </v>
    <v>       0.73551001       0.51468004       0.26666001 </v>
    <v>       0.02362000       0.99783001       0.49557002 </v>
    <v>       0.50539000       0.52833005       0.49917999 </v>
    <v>       0.73876003       0.52828003       0.73814999 </v>
    <v>       0.75400003       0.72937999       0.49116997 </v>
   </varray>
  </structure>
  <varray name="forces" >
   <v>      -0.09990488      -0.17425383      -0.60454205 </v>
   <v>       0.18085416      -0.69471380      -0.18627890 </v>
   <v>       0.44477620       0.82085128      -0.34958491 </v>
   <v>      -0.11834397      -0.38949591      -0.19119121 </v>
   <v>      -0.51632228      -0.57452722       0.48534816 </v>
   <v>       0.11277610      -0.80514993       0.48184978 </v>
   <v>      -0.23437901       0.94013711       0.09366986 </v>
   <v>       0.27949321      -0.47675611       0.48441157 </v>
   <v>       0.42484700      -0.21412876      -0.11953336 </v>
   <v>       1.22684643       0.47171994      -0.85812701 </v>
   <v>       0.24307010      -0.03557182       0.35498244 </v>
   <v>       0.51269555      -0.40074903       0.42786432 </v>
   <v>       0.02486483       0.41978010       0.71824646 </v>
   <v>       0.19200134      -0.16018917       0.02428616 </v>
   <v>      -0.35757944      -1.05522510      -0.22922147 </v>
   <v>      -1.36392421       0.69909231      -0.21137085 </v>
   <v>      -0.29735200      -0.31863434      -0.43529631 </v>
   <v>       0.61605929       0.37621358      -0.08950513 </v>
   <v>       0.54453054       0.18657409       0.08011818 </v>
   <v>       0.65873365      -0.03487377       0.04835705 </v>
   <v>      -0.33722925       0.01664247       0.14369399 </v>
   <v>      -0.45498326       0.04822361       0.18813798 </v>
   <v>      -0.10916469      -0.33385988       0.16954731 </v>
   <v>       0.73115883       0.18365675       0.33526518 </v>
   <v>       0.06049755      -0.64946928      -1.26159881 </v>
   <v>      -1.41014426      -0.42541318       0.27750758 </v>
   <v>       0.65266110      -0.58186758       0.42586289 </v>
   <v>       0.64480922      -0.38158952      -0.41147570 </v>
   <v>      -0.23966029       0.18839835       1.01628924 </v>
   <v>      -0.12068663      -0.30984511      -0.65651986 </v>
   <v>      -0.00075410       0.44223184       0.55973139 </v>
   <v>       0.45424460      -0.29019398       1.02300458 </v>
   <v>       0.59944413       0.05058517       0.63129324 </v>
   <v>       1.01117167       1.00265154      -1.32335348 </v>
   <v>      -0.04738241       0.25694479      -1.06523281 </v>
   <v>       0.39134322      -0.01768495       0.10581432 </v>
   <v>       0.25280832      -0.20321352       0.00308084 </v>
   <v>      -0.93588320      -0.13709486      -0.32784777 </v>
   <v>      -0.89551434       0.24468454      -1.50934275 </v>
   <v>      -0.06669006       0.95331805       0.00774579 </v>
   <v>      -1.57958173       1.09098495      -1.05108156 </v>
   <v>       0.00245688      -0.47408302      -0.04494559 </v>
   <v>       1.85390300      -0.02438674       0.48332600 </v>
   <v>      -0.77077470       0.70683636       0.18942709 </v>
   <v>       0.25783905      -0.06143918      -0.02726830 </v>
   <v>      -0.93571858      -0.13022478      -0.10860398 </v>
   <v>       0.30112811      -1.01104945       1.03533496 </v>
   <v>       0.41027410      -0.18839194       0.19863742 </v>
   <v>      -0.15120742       1.74226445       0.64724100 </v>
   <v>       1.13043253      -1.28750171       0.49191466 </v>
   <v>      -0.31586119       1.45288871      -0.33798826 </v>
   <v>      -1.05139185      -0.42037253       1.01308316 </v>
   <v>       0.27027295       0.74096994      -0.70960176 </v>
   <v>      -0.19476647       1.30465716      -0.79821805 </v>
   <v>       0.14115136      -0.70303721       0.17234403 </v>
   <v>      -0.43408766      -0.06699007       0.19775612 </v>
   <v>      -0.45634456      -0.16085368       0.18463701 </v>
   <v>      -0.67512283      -0.90249319       0.29527906 </v>
   <v>       0.46548692      -0.05214746      -0.60137637 </v>
   <v>       0.14931509      -0.25871133      -1.30091211 </v>
   <v>      -0.67819129       0.24836268       0.41013549 </v>
   <v>      -0.82413223      -0.30259989      -0.27225286 </v>
   <v>       0.16316021      -0.92530945       1.25493622 </v>
   <v>       0.26797150       1.04542248       0.42211068 </v>
  </varray>
  <varray name="stress" >
   <v>    -113.54622254      -2.55248438      -1.48628096 </v>
   <v>      -2.55248381    -127.38257342       0.87113958 </v>
   <v>      -1.48628134       0.87113912    -108.63144798 </v>
  </varray>
  <energy>
   <i name="e_fr_energy">   -635.05567613 </i>
   <i name="e_wo_entrp">   -634.93426696 </i>
   <i name="e_0_energy">     -0.24281832 </i>
  </energy>
  <time name="totalsc">  917.87  920.27</time>
 </calculation>
 <calculation>
  <scstep>
   <time name="dav">   32.14   32.69</time>
   <time name="total">   32.43   32.98</time>
   <energy>
    <i name="alphaZ">   4438.05333865 </i>
    <i name="ewald"> -40860.57122508 </i>
    <i name="hartreedc">  -7792.48896985 </i>
    <i name="XCdc">   1523.14143392 </i>
    <i name="pawpsdc">  29240.31908074 </i>
    <i name="pawaedc"> -28844.71828855 </i>
    <i name="eentropy">     -0.13508042 </i>
    <i name="bandstr">  -3235.06875843 </i>
    <i name="atom">  44854.02381677 </i>
    <i name="e_fr_energy">   -677.44465227 </i>
    <i name="e_wo_entrp">   -677.30957184 </i>
    <i name="e_0_energy">   -677.37711206 </i>
   </energy>
  </scstep>
  <scstep>
   <time name="diag">    1.86    1.90</time>
   <time name="diis">   17.65   17.71</time>
   <time name="orth">    0.43    0.43</time>
   <time name="total">   20.23   20.33</time>
   <energy>
    <i name="e_fr_energy">   -878.84095316 </i>
    <i name="e_wo_entrp">   -878.72340324 </i>
    <i name="e_0_energy">   -878.78217820 </i>
   </energy>
  </scstep>
  <scstep>
   <time name="diag">    1.85    1.85</time>
   <time name="diis">   19.78   19.80</time>
   <time name="orth">    0.43    0.43</time>
   <time name="total">   22.35   22.37</time>
   <energy>
    <i name="e_fr_energy">   -641.19346981 </i>
    <i name="e_wo_entrp">   -641.03378646 </i>
    <i name="e_0_energy">   -641.11362813 </i>
   </energy>
  </scstep>
  <scstep>
   <time name="diag">    1.86    1.86</time>
   <time name="diis">   20.61   20.67</time>
   <time name="orth">    0.43    0.43</time>
   <time name="total">   23.19   23.26</time>
   <energy>
    <i name="e_fr_energy">   -646.65720321 </i>
    <i name="e_wo_entrp">   -646.52435153 </i>
    <i name="e_0_energy">   -646.59077737 </i>
   </energy>
  </scstep>
  <scstep>
   <time name="diag">    1.85    1.85</time>
   <time name="diis">   19.12   19.15</time>
   <time name="orth">    0.43    0.43</time>
   <time name="total">   21.69   21.73</time>
   <energy>
    <i name="e_fr_energy">   -638.46270788 </i>
    <i name="e_wo_entrp">   -638.29439611 </i>
    <i name="e_0_energy">   -638.37855200 </i>
   </energy>
  </scstep>
  <scstep>
   <time name="diag">    1.86    1.87</time>
   <time name="diis">   20.90   21.00</time>
   <time name="orth">    0.44    0.44</time>
   <time name="total">   23.48   23.59</time>
   <energy>
    <i name="e_fr_energy">   -635.72428108 </i>
    <i name="e_wo_entrp">   -635.54781693 </i>
    <i name="e_0_energy">   -635.63604901 </i>
   </energy>
  </scstep>
  <scstep>
   <time name="diag">    1.85    1.86</time>
   <time name="diis">   17.63   17.66</time>
   <time name="orth">    0.43    0.43</time>
   <time name="total">   20.20   20.24</time>
   <energy>
    <i name="e_fr_energy">   -636.80795667 </i>
    <i name="e_wo_entrp">   -636.63928724 </i>
    <i name="e_0_energy">   -636.72362195 </i>
   </energy>
  </scstep>
  <scstep>
   <time name="diag">    1.85    1.87</time>
   <time name="diis">   20.56   20.63</time>
   <time name="orth">    0.43    0.43</time>
   <time name="total">   23.12   23.22</time>
   <energy>
    <i name="e_fr_energy">   -634.44298944 </i>
    <i name="e_wo_entrp">   -634.26686222 </i>
    <i name="e_0_energy">   -634.35492583 </i>
   </energy>
  </scstep>
  <scstep>
   <time name="diag">    1.85    1.85</time>
   <time name="diis">   22.92   22.97</time>
   <time name="orth">    0.43    0.43</time>
   <time name="total">   25.49   25.55</time>
   <energy>
    <i name="e_fr_energy">   -634.50048977 </i>
    <i name="e_wo_entrp">   -634.31236314 </i>
    <i name="e_0_energy">   -634.40642645 </i>
   </energy>
  </scstep>
  <scstep>
   <time name="diag">    1.96    1.98</time>
   <time name="diis">   22.92   23.02</time>
   <time name="orth">    0.44    0.44</time>
   <time name="total">   25.61   25.73</time>
   <energy>
    <i name="e_fr_energy">   -634.28770916 </i>
    <i name="e_wo_entrp">   -634.10395466 </i>
    <i name="e_0_energy">   -634.19583191 </i>
   </energy>
  </scstep>
  <scstep>
   <time name="diag">    1.85    1.87</time>
   <time name="diis">   25.05   25.12</time>
   <time name="orth">    0.43    0.43</time>
   <time name="total">   27.62   27.71</time>
   <energy>
    <i name="e_fr_energy">   -634.37557836 </i>
    <i name="e_wo_entrp">   -634.18952495 </i>
    <i name="e_0_energy">   -634.28255166 </i>
   </energy>
  </scstep>
  <scstep>
   <time name="diag">    1.86    1.87</time>
   <time name="diis">   23.23   23.36</time>
   <time name="orth">    0.43    0.43</time>
   <time name="total">   25.81   25.96</time>
   <energy>
    <i name="e_fr_energy">   -634.32903419 </i>
    <i name="e_wo_entrp">   -634.14347899 </i>
    <i name="e_0_energy">   -634.23625659 </i>
   </energy>
  </scstep>
  <scstep>
   <time name="diag">    1.86    1.86</time>
   <time name="diis">   24.78   24.84</time>
   <time name="orth">    0.43    0.43</time>
   <time name="total">   27.36   27.43</time>
   <energy>
    <i name="e_fr_energy">   -634.36028538 </i>
    <i name="e_wo_entrp">   -634.17166735 </i>
    <i name="e_0_energy">   -634.26597636 </i>
   </energy>
  </scstep>
  <scstep>
   <time name="diag">    1.86    1.86</time>
   <time name="diis">   24.02   24.11</time>
   <time name="orth">    0.43    0.43</time>
   <time name="total">   26.59   26.68</time>
   <energy>
    <i name="e_fr_energy">   -634.37173147 </i>
    <i name="e_wo_entrp">   -634.18777831 </i>
    <i name="e_0_energy">   -634.27975489 </i>
   </energy>
  </scstep>
  <scstep>
   <time name="diag">    1.84    1.84</time>
   <time name="diis">   24.80   24.82</time>
   <time name="orth">    0.43    0.43</time>
   <time name="total">   27.36   27.39</time>
   <energy>
    <i name="e_fr_energy">   -634.37361198 </i>
    <i name="e_wo_entrp">   -634.18693697 </i>
    <i name="e_0_energy">   -634.28027448 </i>
   </energy>
  </scstep>
  <scstep>
   <time name="diag">    1.86    1.88</time>
   <time name="diis">   24.80   24.92</time>
   <time name="orth">    0.43    0.43</time>
   <time name="total">   27.38   27.53</time>
   <energy>
    <i name="e_fr_energy">   -634.37977666 </i>
    <i name="e_wo_entrp">   -634.19311787 </i>
    <i name="e_0_energy">   -634.28644726 </i>
   </energy>
  </scstep>
  <scstep>
   <time name="diag">    1.85    1.85</time>
   <time name="diis">   24.83   24.84</time>
   <time name="orth">    0.43    0.43</time>
   <time name="total">   27.40   27.42</time>
   <energy>
    <i name="e_fr_energy">   -634.38227071 </i>
    <i name="e_wo_entrp">   -634.19559303 </i>
    <i name="e_0_energy">   -634.28893187 </i>
   </energy>
  </scstep>
  <scstep>
   <time name="diag">    1.85    1.85</time>
   <time name="diis">   25.28   25.35</time>
   <time name="orth">    0.44    0.44</time>
   <time name="total">   27.87   27.95</time>
   <energy>
    <i name="e_fr_energy">   -634.38437014 </i>
    <i name="e_wo_entrp">   -634.19766361 </i>
    <i name="e_0_energy">   -634.29101687 </i>
   </energy>
  </scstep>
  <scstep>
   <time name="diag">    1.87    1.87</time>
   <time name="diis">   25.09   25.16</time>
   <time name="orth">    0.44    0.44</time>
   <time name="total">   27.68   27.76</time>
   <energy>
    <i name="e_fr_energy">   -634.38530670 </i>
    <i name="e_wo_entrp">   -634.19863970 </i>
    <i name="e_0_energy">   -634.29197320 </i>
   </energy>
  </scstep>
  <scstep>
   <time name="diag">    1.85    1.85</time>
   <time name="diis">   23.48   23.54</time>
   <time name="orth">    0.44    0.45</time>
   <time name="total">   26.06   26.14</time>
   <energy>
    <i name="e_fr_energy">   -634.38600354 </i>
    <i name="e_wo_entrp">   -634.19931824 </i>
    <i name="e_0_energy">   -634.29266089 </i>
   </energy>
  </scstep>
  <scstep>
   <time name="diag">    1.88    1.89</time>
   <time name="diis">   23.42   23.45</time>
   <time name="orth">    0.44    0.44</time>
   <time name="total">   26.01   26.06</time>
   <energy>
    <i name="e_fr_energy">   -634.38638215 </i>
    <i name="e_wo_entrp">   -634.19966805 </i>
    <i name="e_0_energy">   -634.29302510 </i>
   </energy>
  </scstep>
  <scstep>
   <time name="diag">    1.84    1.84</time>
   <time name="diis">   22.90   22.93</time>
   <time name="orth">    0.43    0.43</time>
   <time name="total">   25.46   25.48</time>
   <energy>
    <i name="e_fr_energy">   -634.38661109 </i>
    <i name="e_wo_entrp">   -634.19989836 </i>
    <i name="e_0_energy">   -634.29325472 </i>
   </energy>
  </scstep>
  <scstep>
   <time name="diag">    1.85    1.85</time>
   <time name="diis">   21.86   22.00</time>
   <time name="orth">    0.43    0.43</time>
   <time name="total">   24.42   24.57</time>
   <energy>
    <i name="e_fr_energy">   -634.38674296 </i>
    <i name="e_wo_entrp">   -634.20002973 </i>
    <i name="e_0_energy">   -634.29338634 </i>
   </energy>
  </scstep>
  <scstep>
   <time name="diag">    1.85    1.85</time>
   <time name="diis">   21.04   21.08</time>
   <time name="orth">    0.43    0.43</time>
   <time name="total">   23.60   23.64</time>
   <energy>
    <i name="e_fr_energy">   -634.38684747 </i>
    <i name="e_wo_entrp">   -634.20013178 </i>
    <i name="e_0_energy">   -634.29348963 </i>
   </energy>
  </scstep>
  <scstep>
   <time name="diag">    1.84    1.84</time>
   <time name="diis">   20.68   20.73</time>
   <time name="orth">    0.43    0.43</time>
   <time name="total">   23.24   23.29</time>
   <energy>
    <i name="e_fr_energy">   -634.38690520 </i>
    <i name="e_wo_entrp">   -634.20019228 </i>
    <i name="e_0_energy">   -634.29354874 </i>
   </energy>
  </scstep>
  <scstep>
   <time name="diag">    1.85    1.85</time>
   <time name="diis">   19.97   20.00</time>
   <time name="orth">    0.43    0.43</time>
   <time name="total">   22.53   22.57</time>
   <energy>
    <i name="e_fr_energy">   -634.38694275 </i>
    <i name="e_wo_entrp">   -634.20022087 </i>
    <i name="e_0_energy">   -634.29358181 </i>
   </energy>
  </scstep>
  <scstep>
   <time name="diag">    1.84    1.84</time>
   <time name="diis">   19.70   19.76</time>
   <time name="orth">    0.43    0.43</time>
   <time name="total">   22.26   22.32</time>
   <energy>
    <i name="e_fr_energy">   -634.38696637 </i>
    <i name="e_wo_entrp">   -634.20025003 </i>
    <i name="e_0_energy">   -634.29360820 </i>
   </energy>
  </scstep>
  <scstep>
   <time name="diag">    1.84    1.84</time>
   <time name="diis">   18.39   18.45</time>
   <time name="orth">    0.43    0.43</time>
   <time name="total">   20.95   21.01</time>
   <energy>
    <i name="e_fr_energy">   -634.38698149 </i>
    <i name="e_wo_entrp">   -634.20026319 </i>
    <i name="e_0_energy">   -634.29362234 </i>
   </energy>
  </scstep>
  <scstep>
   <time name="diag">    1.84    1.84</time>
   <time name="diis">   17.33   17.37</time>
   <time name="orth">    0.43    0.43</time>
   <time name="total">   19.89   19.93</time>
   <energy>
    <i name="e_fr_energy">   -634.38699150 </i>
    <i name="e_wo_entrp">   -634.20027403 </i>
    <i name="e_0_energy">   -634.29363276 </i>
   </energy>
  </scstep>
  <scstep>
   <time name="diag">    1.86    1.88</time>
   <time name="diis">   15.40   15.42</time>
   <time name="orth">    0.43    0.43</time>
   <time name="total">   17.73   17.77</time>
   <energy>
    <i name="alphaZ">   4438.05333865 </i>
    <i name="ewald"> -40860.57122508 </i>
    <i name="hartreedc">  -7011.39045358 </i>
    <i name="XCdc">   1479.83472483 </i>
    <i name="pawpsdc">  30591.36070124 </i>
    <i name="pawaedc"> -30190.29152108 </i>
    <i name="eentropy">     -0.18671762 </i>
    <i name="bandstr">  -3935.21966140 </i>
    <i name="atom">  44854.02381677 </i>
    <i name="e_fr_energy">   -634.38699728 </i>
    <i name="e_wo_entrp">   -634.20027966 </i>
    <i name="e_0_energy">   -634.29363847 </i>
   </energy>
  </scstep>
  <structure>
   <crystal>
    <varray name="basis" >
     <v>       8.58753531      -0.00775470      -0.00451547 </v>
     <v>      -0.00233074       8.66325933       0.00268017 </v>
     <v>       0.02635792      -0.01244127       8.60690317 </v>
    </varray>
    <i name="volume">    640.32072072 </i>
    <varray name="rec_basis" >
     <v>       0.11644769       0.00003144      -0.00035657 </v>
     <v>       0.00010432       0.11542997       0.00016653 </v>
     <v>       0.00006106      -0.00003593       0.11618557 </v>
    </varray>
   </crystal>
   <varray name="positions" >
    <v>       0.99635277       0.99111598       0.99597670 </v>
    <v>       0.25496278       0.99344720       0.24811446 </v>
    <v>       0.25043614       0.50601971       0.24766295 </v>
    <v>       0.50437596       0.49538319       0.99730798 </v>
    <v>       0.50199403       0.24325384       0.74971993 </v>
    <v>       0.99488242       0.50021517       0.50039103 </v>
    <v>       0.49822918       0.75982934       0.74867567 </v>
    <v>       0.99587176       0.23363470       0.26641484 </v>
    <v>       0.75947756       0.73988811       0.01035476 </v>
    <v>       0.00865099       0.25791498       0.73430784 </v>
    <v>       0.75437602       0.26144384       0.50724622 </v>
    <v>       0.99790208       0.74278911       0.74742959 </v>
    <v>       0.25691891       0.49686309       0.74932712 </v>
    <v>       0.24892703       0.24753683       0.99671106 </v>
    <v>       0.50640686       0.25114625       0.25252267 </v>
    <v>       0.74142546       0.99160234       0.26852903 </v>
    <v>       0.75559360       0.25432844       0.99357024 </v>
    <v>       0.25094767       0.75174339       0.99925691 </v>
    <v>       0.25565871       0.24922471       0.50058251 </v>
    <v>       0.24813686       0.75030465       0.50010102 </v>
    <v>       0.24799586       0.24951999       0.24902566 </v>
    <v>       0.25900890       0.00009869       0.99397553 </v>
    <v>       0.00221828       0.24846299       0.00221522 </v>
    <v>       0.75708169       0.24715155       0.25672978 </v>
    <v>       0.74802346       0.99400818       0.00520988 </v>
    <v>       0.49953010       0.99750626       0.24822799 </v>
    <v>       0.99403862       0.47778419       0.24330879 </v>
    <v>       0.50868183       0.75927326       0.00632885 </v>
    <v>       0.98765516       0.00303321       0.74257593 </v>
    <v>       0.75681196       0.24272315       0.74542609 </v>
    <v>       0.73630356       0.00653119       0.51365144 </v>
    <v>       0.50807439       0.23111361       0.50097215 </v>
    <v>       0.50331503       0.00088541       0.73812770 </v>
    <v>       0.00268338       0.00304901       0.25185652 </v>
    <v>       0.50404386       0.24808884      -0.00313013 </v>
    <v>       0.25345156       0.74948679       0.24968118 </v>
    <v>       0.24464601       0.49964741       0.99512657 </v>
    <v>       0.99332236       0.74240653       0.00283028 </v>
    <v>       0.75152195       0.74019939       0.24952256 </v>
    <v>       0.75802644       0.50823874       0.00292181 </v>
    <v>       0.49848567       0.50913225       0.25311625 </v>
    <v>       0.24902576       0.25062396       0.74829739 </v>
    <v>       0.25446327       0.99811458       0.50548897 </v>
    <v>       0.99387119       0.24606736       0.50230256 </v>
    <v>       0.24316329       0.75308240       0.75003282 </v>
    <v>       0.25335893       0.49992524       0.50070376 </v>
    <v>       0.99160975       0.75677349       0.50304874 </v>
    <v>       0.99425256       0.49955822       0.75245226 </v>
    <v>       0.74952487       0.75816779       0.75105385 </v>
    <v>       0.74646013       0.49511560       0.50332538 </v>
    <v>       0.50404573       0.75731694       0.49537554 </v>
    <v>       0.49931345       0.49995001       0.74458866 </v>
    <v>       0.51736089       0.01752077       0.97691964 </v>
    <v>       0.99737906       0.51671290       0.98182125 </v>
    <v>       0.50455143       0.73552623       0.25998033 </v>
    <v>       0.23545199       0.01046497       0.74714747 </v>
    <v>       0.47711234       0.98222481       0.49817667 </v>
    <v>       0.73914119       0.97389478       0.76610387 </v>
    <v>       0.00117583       0.77545654       0.25777377 </v>
    <v>       0.73634256       0.51328957       0.25963768 </v>
    <v>       0.01994841       0.99915698       0.49778393 </v>
    <v>       0.50094534       0.52671543       0.49771037 </v>
    <v>       0.73962005       0.52336232       0.74492414 </v>
    <v>       0.75543552       0.73495332       0.49344852 </v>
   </varray>
  </structure>
  <varray name="forces" >
   <v>       0.34200881       0.13780580      -0.81278271 </v>
   <v>       0.21583240      -0.05762841       0.15871130 </v>
   <v>      -0.12645368       0.13860120      -0.45151230 </v>
   <v>      -0.32043829      -0.06298472       0.01230359 </v>
   <v>      -0.44441560      -0.26069379       0.07935782 </v>
   <v>       0.70118599      -0.28037205      -0.05179736 </v>
   <v>      -0.09402773       0.39846308      -0.05840510 </v>
   <v>       0.53631627       0.53261062      -0.41225082 </v>
   <v>      -0.66741519       1.01365759      -0.51790717 </v>
   <v>       0.47385290      -0.12182834       0.76028146 </v>
   <v>      -0.52249208      -0.60231459      -0.02826647 </v>
   <v>       0.32278661       0.08495445       0.75907231 </v>
   <v>      -0.57563523       0.47939106       0.53454789 </v>
   <v>      -0.08913897      -0.21233189       0.30014504 </v>
   <v>      -0.39137706       0.07282721      -0.22483054 </v>
   <v>       0.24075363       0.13116631      -0.55241996 </v>
   <v>       0.02888689      -0.22308562      -0.18890275 </v>
   <v>       0.32307950       0.25229658       0.04264082 </v>
   <v>       0.16404333      -0.04230947      -0.28292823 </v>
   <v>      -0.09349547       0.06756940       0.01875078 </v>
   <v>      -0.18127094       0.06833178       0.01848507 </v>
   <v>       0.06550726      -0.00907267      -0.11792326 </v>
   <v>      -0.07109933      -0.05058932       0.14952949 </v>
   <v>      -0.05554533       0.36782854      -0.20638690 </v>
   <v>      -0.40151699      -0.21391545      -0.83327810 </v>
   <v>      -0.82536883      -0.67500223      -0.17596369 </v>
   <v>       0.30527293       0.43289035      -0.00840733 </v>
   <v>       0.18456377       0.11863580      -0.22238567 </v>
   <v>      -0.23063329       0.14676773       0.54629952 </v>
   <v>      -0.01699479      -0.11034012      -0.07502441 </v>
   <v>       0.35359616      -0.20563157       0.87229498 </v>
   <v>       0.28482706       0.04612559       0.33631512 </v>
   <v>       0.36319931      -0.05930335       0.60508959 </v>
   <v>      -0.31483757      -0.10226726      -0.70772690 </v>
   <v>      -0.17527486       0.01909839      -0.00193211 </v>
   <v>       0.61395198      -0.01722938      -0.09064096 </v>
   <v>      -0.20420935       0.10946047       0.26259830 </v>
   <v>       1.13033526      -0.06673997       0.08430588 </v>
   <v>      -0.69005606       0.74969612      -0.04004894 </v>
   <v>       0.28532442      -0.86262351       0.09432131 </v>
   <v>      -0.55742017       0.08208370      -0.58541335 </v>
   <v>       0.44426309      -0.66947592       0.14668327 </v>
   <v>       0.55419651       0.10647699       0.77165653 </v>
   <v>       0.74997403       0.13364731      -0.21939870 </v>
   <v>       0.45409095       0.38857433       0.10702267 </v>
   <v>      -0.46708281       0.02414373      -0.20335755 </v>
   <v>       0.54720008      -0.56280458       0.16383230 </v>
   <v>       0.24616963      -0.31581310       0.39103577 </v>
   <v>      -0.00490819       0.26738226      -0.03077463 </v>
   <v>      -0.19131645       0.25713038      -0.14126713 </v>
   <v>       0.24763475       1.00290668      -0.43404697 </v>
   <v>      -0.19882512      -0.07987948       0.21638987 </v>
   <v>      -0.08155082       0.15128727      -0.41417271 </v>
   <v>      -0.02116534       0.69692109      -0.36267482 </v>
   <v>      -0.26955342       0.04365734       0.08444939 </v>
   <v>      -0.61066509      -0.48295515       0.19455396 </v>
   <v>       0.53905936       0.53187152       0.03100951 </v>
   <v>      -0.71481829       0.46605244       0.37469303 </v>
   <v>      -0.05094627      -1.05484721      -0.71326812 </v>
   <v>       0.00876772      -1.26304012      -1.08877929 </v>
   <v>      -0.54579991       0.28892621       0.40465167 </v>
   <v>      -0.12758242      -1.15889913      -0.31052861 </v>
   <v>       0.23562154      -0.77356820       1.57751732 </v>
   <v>      -0.62897120       0.78830727       0.46685801 </v>
  </varray>
  <varray name="stress" >
   <v>     286.94151851       0.25012233       0.15840963 </v>
   <v>       0.25012261     286.05050954       0.47120529 </v>
   <v>       0.15840943       0.47120576     280.51186452 </v>
  </varray>
  <energy>
   <i name="e_fr_energy">   -634.38699728 </i>
   <i name="e_wo_entrp">   -634.29363847 </i>
   <i name="e_0_energy">     -0.18671762 </i>
  </energy>
  <time name="totalsc">  780.33  783.10</time>
 </calculation>
 <calculation>
  <scstep>
   <time name="dav">   29.61   29.71</time>
   <time name="total">   29.89   30.00</time>
   <energy>
    <i name="alphaZ">   4166.14660672 </i>
    <i name="ewald"> -40121.76201866 </i>
    <i name="hartreedc">  -6755.08291182 </i>
    <i name="XCdc">   1440.26752071 </i>
    <i name="pawpsdc">  30591.55204394 </i>
    <i name="pawaedc"> -30190.35232014 </i>
    <i name="eentropy">     -0.18461972 </i>
    <i name="bandstr">  -4637.02417952 </i>
    <i name="atom">  44854.02381677 </i>
    <i name="e_fr_energy">   -652.41606171 </i>
    <i name="e_wo_entrp">   -652.23144200 </i>
    <i name="e_0_energy">   -652.32375185 </i>
   </energy>
  </scstep>
  <scstep>
   <time name="diag">    1.89    1.90</time>
   <time name="diis">   22.36   22.42</time>
   <time name="orth">    0.43    0.44</time>
   <time name="total">   24.97   25.04</time>
   <energy>
    <i name="e_fr_energy">   -839.65148739 </i>
    <i name="e_wo_entrp">   -839.50045269 </i>
    <i name="e_0_energy">   -839.57597004 </i>
   </energy>
  </scstep>
  <scstep>
   <time name="diag">    1.84    1.84</time>
   <time name="diis">   19.13   19.18</time>
   <time name="orth">    0.43    0.43</time>
   <time name="total">   21.68   21.73</time>
   <energy>
    <i name="e_fr_energy">   -661.51890106 </i>
    <i name="e_wo_entrp">   -661.34617551 </i>
    <i name="e_0_energy">   -661.43253829 </i>
   </energy>
  </scstep>
  <scstep>
   <time name="diag">    1.85    1.85</time>
   <time name="diis">   20.42   20.52</time>
   <time name="orth">    0.43    0.43</time>
   <time name="total">   23.00   23.10</time>
   <energy>
    <i name="e_fr_energy">   -639.62922676 </i>
    <i name="e_wo_entrp">   -639.43137697 </i>
    <i name="e_0_energy">   -639.53030187 </i>
   </energy>
  </scstep>
  <scstep>
   <time name="diag">    1.85    1.85</time>
   <time name="diis">   18.97   19.03</time>
   <time name="orth">    0.43    0.43</time>
   <time name="total">   21.53   21.59</time>
   <energy>
    <i name="e_fr_energy">   -645.54435728 </i>
    <i name="e_wo_entrp">   -645.34995780 </i>
    <i name="e_0_energy">   -645.44715754 </i>
   </energy>
  </scstep>
  <scstep>
   <time name="diag">    1.86    1.86</time>
   <time name="diis">   20.51   20.57</time>
   <time name="orth">    0.43    0.43</time>
   <time name="total">   23.09   23.16</time>
   <energy>
    <i name="e_fr_energy">   -642.23278123 </i>
    <i name="e_wo_entrp">   -642.02828410 </i>
    <i name="e_0_energy">   -642.13053266 </i>
   </energy>
  </scstep>
  <scstep>
   <time name="diag">    1.84    1.84</time>
   <time name="diis">   18.71   18.81</time>
   <time name="orth">    0.43    0.43</time>
   <time name="total">   21.26   21.36</time>
   <energy>
    <i name="e_fr_energy">   -639.73575254 </i>
    <i name="e_wo_entrp">   -639.55979833 </i>
    <i name="e_0_energy">   -639.64777544 </i>
   </energy>
  </scstep>
  <scstep>
   <time name="diag">    1.84    1.84</time>
   <time name="diis">   18.89   18.91</time>
   <time name="orth">    0.43    0.43</time>
   <time name="total">   21.43   21.46</time>
   <energy>
    <i name="e_fr_energy">   -639.56974222 </i>
    <i name="e_wo_entrp">   -639.37289702 </i>
    <i name="e_0_energy">   -639.47131962 </i>
   </energy>
  </scstep>
  <scstep>
   <time name="diag">    1.85    1.85</time>
   <time name="diis">   21.76   21.80</time>
   <time name="orth">    0.43    0.43</time>
   <time name="total">   24.32   24.37</time>
   <energy>
    <i name="e_fr_energy">   -638.52070403 </i>
    <i name="e_wo_entrp">   -638.30880732 </i>
    <i name="e_0_energy">   -638.41475568 </i>
   </energy>
  </scstep>
  <scstep>
   <time name="diag">    1.86    1.88</time>
   <time name="diis">   19.97   19.98</time>
   <time name="orth">    0.43    0.43</time>
   <time name="total">   22.54   22.58</time>
   <energy>
    <i name="e_fr_energy">   -637.60883702 </i>
    <i name="e_wo_entrp">   -637.39741582 </i>
    <i name="e_0_energy">   -637.50312642 </i>
   </energy>
  </scstep>
  <scstep>
   <time name="diag">    1.85    1.85</time>
   <time name="diis">   22.98   23.02</time>
   <time name="orth">    0.43    0.43</time>
[...]
      </set>
     </set>
    </set>
   </array>
  </eigenvalues>
  <separator name="orbital magnetization" >
   <v name="MAGDIPOLOUT">      0.00000000      0.00000000      0.00000000</v>
  </separator>
  <dos>
   <i name="efermi">      8.94470716 </i>
   <total>
    <array>
     <dimension dim="1">gridpoints</dimension>
     <dimension dim="2">spin</dimension>
     <field>energy</field>
     <field>total</field>
     <field>integrated</field>
     <set>
      <set comment="spin 1">
       <r>   -50.0967     0.0000     0.0000 </r>
       <r>   -49.8802     0.0000     0.0000 </r>
       <r>   -49.6636     0.0000     0.0000 </r>
       <r>   -49.4471     0.0000     0.0000 </r>
       <r>   -49.2305     0.0000     0.0000 </r>
       <r>   -49.0140     0.0000     0.0000 </r>
       <r>   -48.7974     0.0000     0.0000 </r>
       <r>   -48.5809     0.0000     0.0000 </r>
       <r>   -48.3643     0.0000     0.0000 </r>
       <r>   -48.1478     0.0000     0.0000 </r>
       <r>   -47.9312     0.0000     0.0000 </r>
       <r>   -47.7147     0.0000     0.0000 </r>
       <r>   -47.4981     0.0000     0.0000 </r>
       <r>   -47.2816     0.2370     0.0513 </r>
       <r>   -47.0650     8.8212     1.9615 </r>
       <r>   -46.8485    28.7951     8.1971 </r>
       <r>   -46.6319    23.8428    13.3603 </r>
       <r>   -46.4154     2.9534    13.9999 </r>
       <r>   -46.1988     0.0006    14.0000 </r>
       <r>   -45.9823     0.0000    14.0000 </r>
       <r>   -45.7657     0.0000    14.0000 </r>
       <r>   -45.5492     0.0000    14.0000 </r>
       <r>   -45.3326     0.0000    14.0000 </r>
       <r>   -45.1161     0.0000    14.0000 </r>
       <r>   -44.8995     0.0000    14.0000 </r>
       <r>   -44.6830     0.0000    14.0000 </r>
       <r>   -44.4664     0.0000    14.0000 </r>
       <r>   -44.2499     0.0000    14.0000 </r>
       <r>   -44.0333     0.0000    14.0000 </r>
       <r>   -43.8168     0.0000    14.0000 </r>
       <r>   -43.6002     0.0000    14.0000 </r>
       <r>   -43.3837     0.0000    14.0000 </r>
       <r>   -43.1671     0.0000    14.0000 </r>
       <r>   -42.9506     0.0000    14.0000 </r>
       <r>   -42.7340     0.0000    14.0000 </r>
       <r>   -42.5175     0.0000    14.0000 </r>
       <r>   -42.3009     0.0000    14.0000 </r>
       <r>   -42.0844     0.0000    14.0000 </r>
       <r>   -41.8678     0.0000    14.0000 </r>
       <r>   -41.6513     0.0000    14.0000 </r>
       <r>   -41.4347     0.0000    14.0000 </r>
       <r>   -41.2182     0.0000    14.0000 </r>
       <r>   -41.0016     0.0000    14.0000 </r>
       <r>   -40.7851     0.0000    14.0000 </r>
       <r>   -40.5685     0.0112    14.0024 </r>
       <r>   -40.3520     6.2645    15.3590 </r>
       <r>   -40.1354    19.9207    19.6728 </r>
       <r>   -39.9189     4.8265    20.7180 </r>
       <r>   -39.7023    23.4062    25.7866 </r>
       <r>   -39.4858     1.2035    26.0472 </r>
       <r>   -39.2692     7.7205    27.7191 </r>
       <r>   -39.0527     1.2969    28.0000 </r>
       <r>   -38.8361     0.0002    28.0000 </r>
       <r>   -38.6196     0.0000    28.0000 </r>
       <r>   -38.4030     0.0000    28.0000 </r>
       <r>   -38.1865     0.0000    28.0000 </r>
       <r>   -37.9699     0.0000    28.0000 </r>
       <r>   -37.7534     0.0000    28.0000 </r>
       <r>   -37.5368     0.0000    28.0000 </r>
       <r>   -37.3203     0.0000    28.0000 </r>
       <r>   -37.1037     0.0000    28.0000 </r>
       <r>   -36.8872     0.0000    28.0000 </r>
       <r>   -36.6706     0.0000    28.0000 </r>
       <r>   -36.4541     0.0000    28.0000 </r>
       <r>   -36.2375     0.0000    28.0000 </r>
       <r>   -36.0210     0.0000    28.0000 </r>
       <r>   -35.8044     0.0000    28.0000 </r>
       <r>   -35.5879     0.0000    28.0000 </r>
       <r>   -35.3713     0.0000    28.0000 </r>
       <r>   -35.1548     0.0001    28.0000 </r>
       <r>   -34.9382     1.0304    28.2232 </r>
       <r>   -34.7217    29.2638    34.5602 </r>
       <r>   -34.5051   111.5766    58.7222 </r>
       <r>   -34.2885    24.2623    63.9762 </r>
       <r>   -34.0720     0.1099    64.0000 </r>
       <r>   -33.8554     0.0000    64.0000 </r>
       <r>   -33.6389     0.0000    64.0000 </r>
       <r>   -33.4223     0.0000    64.0000 </r>
       <r>   -33.2058     0.0000    64.0000 </r>
       <r>   -32.9892     0.0000    64.0000 </r>
       <r>   -32.7727     0.0000    64.0000 </r>
       <r>   -32.5561     0.0000    64.0000 </r>
       <r>   -32.3396     0.0000    64.0000 </r>
       <r>   -32.1230     0.0000    64.0000 </r>
       <r>   -31.9065     0.0000    64.0000 </r>
       <r>   -31.6899     0.0000    64.0000 </r>
       <r>   -31.4734     0.0000    64.0000 </r>
       <r>   -31.2568     0.0000    64.0000 </r>
       <r>   -31.0403     0.0451    64.0098 </r>
       <r>   -30.8237     6.6541    65.4507 </r>
       <r>   -30.6072    32.2549    72.4355 </r>
       <r>   -30.3906    54.4160    84.2193 </r>
       <r>   -30.1741    66.3325    98.5837 </r>
       <r>   -29.9575     6.5381    99.9995 </r>
       <r>   -29.7410     0.0024   100.0000 </r>
       <r>   -29.5244     0.0000   100.0000 </r>
       <r>   -29.3079     0.0000   100.0000 </r>
       <r>   -29.0913     0.0000   100.0000 </r>
       <r>   -28.8748     0.0000   100.0000 </r>
       <r>   -28.6582     0.0000   100.0000 </r>
       <r>   -28.4417     0.0000   100.0000 </r>
       <r>   -28.2251     0.0000   100.0000 </r>
       <r>   -28.0086     0.0000   100.0000 </r>
       <r>   -27.7920     0.0000   100.0000 </r>
       <r>   -27.5755     0.0000   100.0000 </r>
       <r>   -27.3589     0.0000   100.0000 </r>
       <r>   -27.1424     0.0000   100.0000 </r>
       <r>   -26.9258     0.0000   100.0000 </r>
       <r>   -26.7093     0.0000   100.0000 </r>
       <r>   -26.4927     0.0000   100.0000 </r>
       <r>   -26.2762     0.0000   100.0000 </r>
       <r>   -26.0596     0.0000   100.0000 </r>
       <r>   -25.8431     0.0000   100.0000 </r>
       <r>   -25.6265     0.0000   100.0000 </r>
       <r>   -25.4100     0.0000   100.0000 </r>
       <r>   -25.1934     0.0000   100.0000 </r>
       <r>   -24.9769     0.0000   100.0000 </r>
       <r>   -24.7603     0.0000   100.0000 </r>
       <r>   -24.5438     0.0000   100.0000 </r>
       <r>   -24.3272     0.0000   100.0000 </r>
       <r>   -24.1107     0.0000   100.0000 </r>
       <r>   -23.8941     0.0000   100.0000 </r>
       <r>   -23.6776     0.0000   100.0000 </r>
       <r>   -23.4610     0.7102   100.1538 </r>
       <r>   -23.2445    28.5656   106.3397 </r>
       <r>   -23.0279    76.3675   122.8771 </r>
       <r>   -22.8114    67.6106   137.5182 </r>
       <r>   -22.5948    19.6170   141.7662 </r>
       <r>   -22.3783     1.0794   142.0000 </r>
       <r>   -22.1617     0.0001   142.0000 </r>
       <r>   -21.9452     0.0000   142.0000 </r>
       <r>   -21.7286     0.0000   142.0000 </r>
       <r>   -21.5121     0.0000   142.0000 </r>
       <r>   -21.2955     0.0000   142.0000 </r>
       <r>   -21.0790     0.0000   142.0000 </r>
       <r>   -20.8624     0.0000   142.0000 </r>
       <r>   -20.6459     0.0000   142.0000 </r>
       <r>   -20.4293     0.0000   142.0000 </r>
       <r>   -20.2128     0.0000   142.0000 </r>
       <r>   -19.9962     0.0000   142.0000 </r>
       <r>   -19.7797     0.0000   142.0000 </r>
       <r>   -19.5631     0.0000   142.0000 </r>
       <r>   -19.3466     0.0000   142.0000 </r>
       <r>   -19.1300     0.0183   142.0040 </r>
       <r>   -18.9135     5.4093   143.1753 </r>
       <r>   -18.6969    19.2721   147.3487 </r>
       <r>   -18.4804    37.6102   155.4932 </r>
       <r>   -18.2638    33.9230   162.8392 </r>
       <r>   -18.0473    66.2144   177.1780 </r>
       <r>   -17.8307     8.6663   179.0547 </r>
       <r>   -17.6142    22.2720   183.8777 </r>
       <r>   -17.3976     0.5648   184.0000 </r>
       <r>   -17.1811     0.0000   184.0000 </r>
       <r>   -16.9645     0.0000   184.0000 </r>
       <r>   -16.7480     0.0000   184.0000 </r>
       <r>   -16.5314     0.0000   184.0000 </r>
       <r>   -16.3149     0.0000   184.0000 </r>
       <r>   -16.0983     0.0000   184.0000 </r>
       <r>   -15.8818     0.0000   184.0000 </r>
       <r>   -15.6652     0.0000   184.0000 </r>
       <r>   -15.4487     0.0000   184.0000 </r>
       <r>   -15.2321     0.0000   184.0000 </r>
       <r>   -15.0156     0.0000   184.0000 </r>
       <r>   -14.7990     0.0000   184.0000 </r>
       <r>   -14.5825     0.0000   184.0000 </r>
       <r>   -14.3659     0.0000   184.0000 </r>
       <r>   -14.1494     0.0000   184.0000 </r>
       <r>   -13.9328     0.0000   184.0000 </r>
       <r>   -13.7163     0.0000   184.0000 </r>
       <r>   -13.4997     0.0000   184.0000 </r>
       <r>   -13.2832     0.0000   184.0000 </r>
       <r>   -13.0666     0.0000   184.0000 </r>
       <r>   -12.8501     0.0000   184.0000 </r>
       <r>   -12.6335     0.0000   184.0000 </r>
       <r>   -12.4170     0.0000   184.0000 </r>
       <r>   -12.2004     0.0000   184.0000 </r>
       <r>   -11.9839     0.0000   184.0000 </r>
       <r>   -11.7673     0.0000   184.0000 </r>
       <r>   -11.5508     0.0000   184.0000 </r>
       <r>   -11.3342     0.0000   184.0000 </r>
       <r>   -11.1177     0.0000   184.0000 </r>
       <r>   -10.9011     0.0000   184.0000 </r>
       <r>   -10.6846     0.0000   184.0000 </r>
       <r>   -10.4680     0.0000   184.0000 </r>
       <r>   -10.2515     0.0000   184.0000 </r>
       <r>   -10.0349     0.0000   184.0000 </r>
       <r>    -9.8184     0.0000   184.0000 </r>
       <r>    -9.6018     0.0000   184.0000 </r>
       <r>    -9.3853     0.0000   184.0000 </r>
       <r>    -9.1687     0.0000   184.0000 </r>
       <r>    -8.9522     0.0000   184.0000 </r>
       <r>    -8.7356     0.0000   184.0000 </r>
       <r>    -8.5191     0.0000   184.0000 </r>
       <r>    -8.3025     0.0000   184.0000 </r>
       <r>    -8.0860     0.0000   184.0000 </r>
       <r>    -7.8694     0.0000   184.0000 </r>
       <r>    -7.6529     0.0000   184.0000 </r>
       <r>    -7.4363     0.2310   184.0500 </r>
       <r>    -7.2198     5.0966   185.1537 </r>
       <r>    -7.0032     9.5568   187.2232 </r>
       <r>    -6.7867     9.6301   189.3086 </r>
       <r>    -6.5701    11.4868   191.7961 </r>
       <r>    -6.3536    10.2390   194.0133 </r>
       <r>    -6.1370     9.6519   196.1034 </r>
       <r>    -5.9205    15.1285   199.3795 </r>
       <r>    -5.7039    23.1523   204.3931 </r>
       <r>    -5.4874    16.5341   207.9736 </r>
       <r>    -5.2708     8.4274   209.7986 </r>
       <r>    -5.0543     0.9302   210.0000 </r>
       <r>    -4.8377     0.0001   210.0000 </r>
       <r>    -4.6212     0.0000   210.0000 </r>
       <r>    -4.4046     0.0008   210.0002 </r>
       <r>    -4.1881     0.8942   210.1938 </r>
       <r>    -3.9715     6.9570   211.7003 </r>
       <r>    -3.7550     1.6583   212.0594 </r>
       <r>    -3.5384     9.5320   214.1236 </r>
       <r>    -3.3219    14.4887   217.2611 </r>
       <r>    -3.1053    14.0675   220.3075 </r>
       <r>    -2.8888    23.0970   225.3091 </r>
       <r>    -2.6722    20.0299   229.6466 </r>
       <r>    -2.4557    22.8936   234.6042 </r>
       <r>    -2.2391    20.3514   239.0113 </r>
       <r>    -2.0226    18.2405   242.9613 </r>
       <r>    -1.8060    12.9851   245.7732 </r>
       <r>    -1.5895     7.8735   247.4782 </r>
       <r>    -1.3729     2.3181   247.9802 </r>
       <r>    -1.1564     0.0914   248.0000 </r>
       <r>    -0.9398     0.0000   248.0000 </r>
       <r>    -0.7233     0.0000   248.0000 </r>
       <r>    -0.5067     0.0000   248.0000 </r>
       <r>    -0.2902     0.0000   248.0000 </r>
       <r>    -0.0736     0.0000   248.0000 </r>
       <r>     0.1429     0.0000   248.0000 </r>
       <r>     0.3595     0.0000   248.0000 </r>
       <r>     0.5760     0.0688   248.0149 </r>
       <r>     0.7926     0.4424   248.1107 </r>
       <r>     1.0091     2.7572   248.7078 </r>
       <r>     1.2257     7.7521   250.3865 </r>
       <r>     1.4422    10.4359   252.6464 </r>
       <r>     1.6588    15.6628   256.0382 </r>
       <r>     1.8753    18.6692   260.0810 </r>
       <r>     2.0919    24.8724   265.4671 </r>
       <r>     2.3084    25.9307   271.0824 </r>
       <r>     2.5250    27.7686   277.0957 </r>
       <r>     2.7415    29.7828   283.5452 </r>
       <r>     2.9581    33.9046   290.8872 </r>
       <r>     3.1746    39.8272   299.5118 </r>
       <r>     3.3912    47.4978   309.7975 </r>
       <r>     3.6077    53.2622   321.3314 </r>
       <r>     3.8243    57.2491   333.7287 </r>
       <r>     4.0408    69.0644   348.6846 </r>
       <r>     4.2574    67.7570   363.3574 </r>
       <r>     4.4739    61.6541   376.7086 </r>
       <r>     4.6905    56.7382   388.9953 </r>
       <r>     4.9070    48.0982   399.4110 </r>
       <r>     5.1236    39.3159   407.9248 </r>
       <r>     5.3401    32.5115   414.9652 </r>
       <r>     5.5567    29.8040   421.4193 </r>
       <r>     5.7732    29.7935   427.8710 </r>
       <r>     5.9898    25.0276   433.2908 </r>
       <r>     6.2063    17.6163   437.1056 </r>
       <r>     6.4229    11.4594   439.5871 </r>
       <r>     6.6394    11.9912   442.1838 </r>
       <r>     6.8560    16.6161   445.7820 </r>
       <r>     7.0725    19.8414   450.0787 </r>
       <r>     7.2891    19.1818   454.2325 </r>
       <r>     7.5056    17.7019   458.0659 </r>
       <r>     7.7222    21.1166   462.6387 </r>
       <r>     7.9387    26.5279   468.3833 </r>
       <r>     8.1553    27.1997   474.2734 </r>
       <r>     8.3718    28.2128   480.3829 </r>
       <r>     8.5884    29.6825   486.8107 </r>
       <r>     8.8049    25.4319   492.3180 </r>
       <r>     9.0215    27.2527   498.2195 </r>
       <r>     9.2380    34.5058   505.6918 </r>
       <r>     9.4546    41.4231   514.6620 </r>
       <r>     9.6711    47.5933   524.9683 </r>
       <r>     9.8877    48.2326   535.4131 </r>
       <r>    10.1042    49.6495   546.1647 </r>
       <r>    10.3208    46.6352   556.2635 </r>
       <r>    10.5373    43.5977   565.7046 </r>
       <r>    10.7539    44.0394   575.2414 </r>
       <r>    10.9704    45.8173   585.1631 </r>
       <r>    11.1870    44.2137   594.7376 </r>
       <r>    11.4035    49.2070   605.3934 </r>
       <r>    11.6201    48.9770   615.9994 </r>
       <r>    11.8366    30.6337   622.6331 </r>
       <r>    12.0532     6.2649   623.9898 </r>
       <r>    12.2697     0.0473   624.0000 </r>
       <r>    12.4863     0.0000   624.0000 </r>
       <r>    12.7028     0.0000   624.0000 </r>
       <r>    12.9194     0.0000   624.0000 </r>
       <r>    13.1359     0.0000   624.0000 </r>
       <r>    13.3525     0.0000   624.0000 </r>
       <r>    13.5690     0.0000   624.0000 </r>
       <r>    13.7856     0.0000   624.0000 </r>
       <r>    14.0021     0.0000   624.0000 </r>
       <r>    14.2187     0.0000   624.0000 </r>
       <r>    14.4352     0.0000   624.0000 </r>
       <r>    14.6518     0.0000   624.0000 </r>
       <r>    14.8683     0.0000   624.0000 </r>
      </set>
     </set>
    </array>
   </total>
  </dos>
 </calculation>
 <structure name="finalpos" >
  <crystal>
   <varray name="basis" >
    <v>       8.82106546      -0.01612158      -0.01297493 </v>
    <v>      -0.01065861       8.89654915      -0.02783240 </v>
    <v>       0.01878126      -0.04313380       8.88215247 </v>
   </varray>
   <i name="volume">    697.03511040 </i>
   <varray name="rec_basis" >
    <v>       0.11336489       0.00013507      -0.00023905 </v>
    <v>       0.00020624       0.11240509       0.00054543 </v>
    <v>       0.00016625       0.00035242       0.11258668 </v>
   </varray>
  </crystal>
  <varray name="positions" >
   <v>      -0.00353468       0.98407586       0.99098616 </v>
   <v>       0.25042652       0.98979070       0.26402968 </v>
   <v>       0.25104908       0.51257372       0.24224654 </v>
   <v>       0.50429132       0.48869428       0.99318355 </v>
   <v>       0.49199135       0.25363859       0.74742540 </v>
   <v>       0.00363586       0.49902985       0.50093840 </v>
   <v>       0.50948350       0.75467637       0.73882537 </v>
   <v>       0.99292247       0.23249963       0.27100644 </v>
   <v>       0.76316578       0.74445875      -0.00227007 </v>
   <v>       0.01642685       0.26057843       0.73790968 </v>
   <v>       0.75577872       0.26546411       0.49485524 </v>
   <v>       0.00161653       0.74335189       0.75574723 </v>
   <v>       0.25361075       0.50484135       0.75790272 </v>
   <v>       0.24307691       0.24403925      -0.00112030 </v>
   <v>       0.50073072       0.24793186       0.24927115 </v>
   <v>       0.73587232       0.99006828       0.26554592 </v>
   <v>       0.75411417       0.24722565       0.98543945 </v>
   <v>       0.26910834       0.75961893       0.00084587 </v>
   <v>       0.25543944       0.25040271       0.50359663 </v>
   <v>       0.24786559       0.75090618       0.50391614 </v>
   <v>       0.24273434       0.24899438       0.25241741 </v>
   <v>       0.24633030       0.00068096       0.00435410 </v>
   <v>      -0.00212567       0.23453425       0.00190076 </v>
   <v>       0.75473779       0.24614716       0.25007070 </v>
   <v>       0.74218494       0.98747570      -0.00309310 </v>
   <v>       0.49040770       0.99391026       0.27619439 </v>
   <v>       0.00092313       0.47796074       0.25607895 </v>
   <v>       0.51592193       0.75924975      -0.01199430 </v>
   <v>       0.98049227       0.01417420       0.74294012 </v>
   <v>       0.75655818       0.25922667       0.73838551 </v>
   <v>       0.75488921       0.02146252       0.50649539 </v>
   <v>       0.51148872       0.24979898       0.50254278 </v>
   <v>       0.53380097       0.00285209       0.73579914 </v>
   <v>      -0.00380505       0.00007897       0.24522816 </v>
   <v>       0.50059872       0.24359823      -0.00555037 </v>
   <v>       0.25835322       0.75106715       0.25268800 </v>
   <v>       0.24244428       0.50318879       0.99673774 </v>
   <v>       0.00597480       0.74363790       0.00592913 </v>
   <v>       0.73911291       0.73829488       0.24169223 </v>
   <v>       0.76273529       0.50265787       0.00816557 </v>
   <v>       0.49321242       0.51009604       0.24294529 </v>
   <v>       0.25094761       0.24262982       0.75069507 </v>
   <v>       0.25341135       0.99860713       0.52040550 </v>
   <v>      -0.00135729       0.24938296       0.50515005 </v>
   <v>       0.25278390       0.75629943       0.75244966 </v>
   <v>       0.25107021       0.50121603       0.50036869 </v>
   <v>       0.99002175       0.75440294       0.50572091 </v>
   <v>       0.00043380       0.50200918       0.75665622 </v>
   <v>       0.75809061       0.75489683       0.74176121 </v>
   <v>       0.74894089       0.49716485       0.50402440 </v>
   <v>       0.50768547       0.76582572       0.49376518 </v>
   <v>       0.50019025       0.50286160       0.74366613 </v>
   <v>       0.52169166       0.02154389       0.94811786 </v>
   <v>       0.99037044       0.53248362       0.97405885 </v>
   <v>       0.50911822       0.73204486       0.28342602 </v>
   <v>       0.20439094      -0.01153552       0.73962024 </v>
   <v>       0.47231765       0.99600738       0.51941860 </v>
   <v>       0.74666239       0.96553981       0.77206468 </v>
   <v>      -0.00803804       0.76880566       0.25312863 </v>
   <v>       0.72540597       0.50650504       0.25301236 </v>
   <v>       0.01047655      -0.00044197       0.49598784 </v>
   <v>       0.49531494       0.51167882       0.49036399 </v>
   <v>       0.74612324       0.51619401       0.76405553 </v>
   <v>       0.74990591       0.72292377       0.49187372 </v>
  </varray>
 </structure>
</modeling>
