  64  64   0   0
  0.1030164E+02  0.8678152E-09  0.8715881E-09  0.8716978E-09  0.5000000E-15
  1.000000000000000E-004
  CAR 
 HECN                                    
     15.50984289    -59.61517985  301      8.78179261      1.00000000
    -59.615  0.0000E+00  0.0000E+00
    -59.365  0.0000E+00  0.0000E+00
    -59.114  0.0000E+00  0.0000E+00
    -58.864  0.0000E+00  0.0000E+00
    -58.614  0.0000E+00  0.0000E+00
    -58.363  0.0000E+00  0.0000E+00
    -58.113  0.0000E+00  0.0000E+00
    -57.862  0.0000E+00  0.0000E+00
    -57.612  0.0000E+00  0.0000E+00
    -57.361  0.0000E+00  0.0000E+00
    -57.111  0.0000E+00  0.0000E+00
    -56.861  0.0000E+00  0.0000E+00
    -56.610  0.3996E-09  0.1001E-09
    -56.360  0.1873E-02  0.4689E-03
    -56.109  0.2586E+00  0.6522E-01
    -55.859  0.2173E+00  0.1197E+00
    -55.609  0.1390E-02  0.1200E+00
    -55.358  0.2532E-09  0.1200E+00
    -55.108  0.0000E+00  0.1200E+00
    -54.857  0.0000E+00  0.1200E+00
    -54.607  0.0000E+00  0.1200E+00
    -54.356  0.0000E+00  0.1200E+00
    -54.106  0.0000E+00  0.1200E+00
    -53.856  0.0000E+00  0.1200E+00
    -53.605  0.0000E+00  0.1200E+00
    -53.355  0.0000E+00  0.1200E+00
    -53.104  0.0000E+00  0.1200E+00
    -52.854  0.0000E+00  0.1200E+00
    -52.604  0.0000E+00  0.1200E+00
    -52.353  0.0000E+00  0.1200E+00
    -52.103  0.0000E+00  0.1200E+00
    -51.852  0.0000E+00  0.1200E+00
    -51.602  0.0000E+00  0.1200E+00
    -51.351  0.0000E+00  0.1200E+00
    -51.101  0.0000E+00  0.1200E+00
    -50.851  0.0000E+00  0.1200E+00
    -50.600  0.0000E+00  0.1200E+00
    -50.350  0.0000E+00  0.1200E+00
    -50.099  0.0000E+00  0.1200E+00
    -49.849  0.0000E+00  0.1200E+00
    -49.599  0.0000E+00  0.1200E+00
    -49.348  0.6619E-14  0.1200E+00
    -49.098  0.6620E-05  0.1200E+00
    -48.847  0.6025E-01  0.1351E+00
    -48.597  0.2585E+00  0.1998E+00
    -48.346  0.1439E+00  0.2359E+00
    -48.096  0.8413E-01  0.2569E+00
    -47.846  0.1228E-01  0.2600E+00
    -47.595  0.2025E-06  0.2600E+00
    -47.345  0.1209E-09  0.2600E+00
    -47.094  0.7145E-03  0.2602E+00
    -46.844  0.1475E+00  0.2971E+00
    -46.594  0.2739E+00  0.3657E+00
    -46.343  0.5709E-01  0.3800E+00
    -46.093  0.7671E-04  0.3800E+00
    -45.842  0.1222E-11  0.3800E+00
    -45.592  0.0000E+00  0.3800E+00
    -45.341  0.0000E+00  0.3800E+00
    -45.091  0.0000E+00  0.3800E+00
    -44.841  0.0000E+00  0.3800E+00
    -44.590  0.0000E+00  0.3800E+00
    -44.340  0.0000E+00  0.3800E+00
    -44.089  0.0000E+00  0.3800E+00
    -43.839  0.0000E+00  0.3800E+00
    -43.589  0.0000E+00  0.3800E+00
    -43.338  0.0000E+00  0.3800E+00
    -43.088  0.0000E+00  0.3800E+00
    -42.837  0.0000E+00  0.3800E+00
    -42.587  0.0000E+00  0.3800E+00
    -42.336  0.0000E+00  0.3800E+00
    -42.086  0.0000E+00  0.3800E+00
    -41.836  0.0000E+00  0.3800E+00
    -41.585  0.0000E+00  0.3800E+00
    -41.335  0.0000E+00  0.3800E+00
    -41.084  0.0000E+00  0.3800E+00
    -40.834  0.0000E+00  0.3800E+00
    -40.584  0.0000E+00  0.3800E+00
    -40.333  0.0000E+00  0.3800E+00
    -40.083  0.0000E+00  0.3800E+00
    -39.832  0.0000E+00  0.3800E+00
    -39.582  0.0000E+00  0.3800E+00
    -39.331  0.0000E+00  0.3800E+00
    -39.081  0.0000E+00  0.3800E+00
    -38.831  0.0000E+00  0.3800E+00
    -38.580  0.0000E+00  0.3800E+00
    -38.330  0.0000E+00  0.3800E+00
    -38.079  0.0000E+00  0.3800E+00
    -37.829  0.0000E+00  0.3800E+00
    -37.579  0.0000E+00  0.3800E+00
    -37.328  0.0000E+00  0.3800E+00
    -37.078  0.0000E+00  0.3800E+00
    -36.827  0.0000E+00  0.3800E+00
    -36.577  0.0000E+00  0.3800E+00
    -36.326  0.0000E+00  0.3800E+00
    -36.076  0.0000E+00  0.3800E+00
    -35.826  0.0000E+00  0.3800E+00
    -35.575  0.7758E-10  0.3800E+00
    -35.325  0.5532E-03  0.3801E+00
    -35.074  0.8570E-01  0.4016E+00
    -34.824  0.7676E+00  0.5938E+00
    -34.574  0.5680E+00  0.7360E+00
    -34.323  0.1579E-01  0.7400E+00
    -34.073  0.2598E-06  0.7400E+00
    -33.822  0.0000E+00  0.7400E+00
    -33.572  0.0000E+00  0.7400E+00
    -33.321  0.0000E+00  0.7400E+00
    -33.071  0.0000E+00  0.7400E+00
    -32.821  0.0000E+00  0.7400E+00
    -32.570  0.0000E+00  0.7400E+00
    -32.320  0.0000E+00  0.7400E+00
    -32.069  0.0000E+00  0.7400E+00
    -31.819  0.0000E+00  0.7400E+00
    -31.569  0.0000E+00  0.7400E+00
    -31.318  0.0000E+00  0.7400E+00
    -31.068  0.0000E+00  0.7400E+00
    -30.817  0.1983E-13  0.7400E+00
    -30.567  0.9152E-05  0.7400E+00
    -30.316  0.4440E-01  0.7511E+00
    -30.066  0.7145E+00  0.9300E+00
    -29.816  0.6575E+00  0.1095E+01
    -29.565  0.2120E-01  0.1100E+01
    -29.315  0.1585E-06  0.1100E+01
    -29.064  0.0000E+00  0.1100E+01
    -28.814  0.0000E+00  0.1100E+01
    -28.564  0.0000E+00  0.1100E+01
    -28.313  0.0000E+00  0.1100E+01
    -28.063  0.0000E+00  0.1100E+01
    -27.812  0.0000E+00  0.1100E+01
    -27.562  0.0000E+00  0.1100E+01
    -27.311  0.0000E+00  0.1100E+01
    -27.061  0.0000E+00  0.1100E+01
    -26.811  0.0000E+00  0.1100E+01
    -26.560  0.0000E+00  0.1100E+01
    -26.310  0.0000E+00  0.1100E+01
    -26.059  0.0000E+00  0.1100E+01
    -25.809  0.2659E-12  0.1100E+01
    -25.559  0.3648E-04  0.1100E+01
    -25.308  0.8682E-01  0.1122E+01
    -25.058  0.6411E+00  0.1282E+01
    -24.807  0.5432E+00  0.1418E+01
    -24.557  0.3023E+00  0.1494E+01
    -24.306  0.1036E+00  0.1520E+01
    -24.056  0.4627E-04  0.1520E+01
    -23.806  0.3092E-12  0.1520E+01
    -23.555  0.3004E-05  0.1520E+01
    -23.305  0.4816E-01  0.1532E+01
    -23.054  0.3870E+00  0.1629E+01
    -22.804  0.6962E+00  0.1803E+01
    -22.554  0.3026E+00  0.1879E+01
    -22.303  0.3810E-02  0.1880E+01
    -22.053  0.1032E+00  0.1906E+01
    -21.802  0.2564E+00  0.1970E+01
    -21.552  0.5637E+00  0.2111E+01
    -21.301  0.5557E+00  0.2250E+01
    -21.051  0.1920E+00  0.2299E+01
    -20.801  0.5968E-02  0.2300E+01
    -20.550  0.2660E-07  0.2300E+01
    -20.300  0.0000E+00  0.2300E+01
    -20.049  0.0000E+00  0.2300E+01
    -19.799  0.0000E+00  0.2300E+01
    -19.549  0.0000E+00  0.2300E+01
    -19.298  0.0000E+00  0.2300E+01
    -19.048  0.0000E+00  0.2300E+01
    -18.797  0.0000E+00  0.2300E+01
    -18.547  0.0000E+00  0.2300E+01
    -18.296  0.0000E+00  0.2300E+01
    -18.046  0.0000E+00  0.2300E+01
    -17.796  0.0000E+00  0.2300E+01
    -17.545  0.0000E+00  0.2300E+01
    -17.295  0.0000E+00  0.2300E+01
    -17.044  0.0000E+00  0.2300E+01
    -16.794  0.0000E+00  0.2300E+01
    -16.544  0.0000E+00  0.2300E+01
    -16.293  0.0000E+00  0.2300E+01
    -16.043  0.0000E+00  0.2300E+01
    -15.792  0.0000E+00  0.2300E+01
    -15.542  0.0000E+00  0.2300E+01
    -15.291  0.0000E+00  0.2300E+01
    -15.041  0.0000E+00  0.2300E+01
    -14.791  0.0000E+00  0.2300E+01
    -14.540  0.0000E+00  0.2300E+01
    -14.290  0.0000E+00  0.2300E+01
    -14.039  0.0000E+00  0.2300E+01
    -13.789  0.0000E+00  0.2300E+01
    -13.538  0.0000E+00  0.2300E+01
    -13.288  0.0000E+00  0.2300E+01
    -13.038  0.0000E+00  0.2300E+01
    -12.787  0.0000E+00  0.2300E+01
    -12.537  0.0000E+00  0.2300E+01
    -12.286  0.0000E+00  0.2300E+01
    -12.036  0.0000E+00  0.2300E+01
    -11.786  0.0000E+00  0.2300E+01
    -11.535  0.0000E+00  0.2300E+01
    -11.285  0.0000E+00  0.2300E+01
    -11.034  0.0000E+00  0.2300E+01
    -10.784  0.0000E+00  0.2300E+01
    -10.533  0.0000E+00  0.2300E+01
    -10.283  0.0000E+00  0.2300E+01
    -10.033  0.0000E+00  0.2300E+01
     -9.782  0.0000E+00  0.2300E+01
     -9.532  0.0000E+00  0.2300E+01
     -9.281  0.0000E+00  0.2300E+01
     -9.031  0.0000E+00  0.2300E+01
     -8.781  0.0000E+00  0.2300E+01
     -8.530  0.0000E+00  0.2300E+01
     -8.280  0.0000E+00  0.2300E+01
     -8.029  0.1576E-15  0.2300E+01
     -7.779  0.1816E-06  0.2300E+01
     -7.528  0.3896E-02  0.2301E+01
     -7.278  0.6715E-01  0.2318E+01
     -7.028  0.5851E-01  0.2332E+01
     -6.777  0.1014E+00  0.2358E+01
     -6.527  0.8788E-01  0.2380E+01
     -6.276  0.1107E+00  0.2408E+01
     -6.026  0.1709E+00  0.2450E+01
     -5.776  0.2809E+00  0.2521E+01
     -5.525  0.1457E+00  0.2557E+01
     -5.275  0.1123E-01  0.2560E+01
     -5.024  0.1554E-06  0.2560E+01
     -4.774  0.0000E+00  0.2560E+01
     -4.523  0.0000E+00  0.2560E+01
     -4.273  0.2377E-14  0.2560E+01
     -4.023  0.9560E-06  0.2560E+01
     -3.772  0.5096E-02  0.2561E+01
     -3.522  0.5700E-01  0.2576E+01
     -3.271  0.3402E-01  0.2584E+01
     -3.021  0.9739E-01  0.2608E+01
     -2.771  0.1213E+00  0.2639E+01
     -2.520  0.1795E+00  0.2684E+01
     -2.270  0.2353E+00  0.2743E+01
     -2.019  0.2680E+00  0.2810E+01
     -1.769  0.2238E+00  0.2866E+01
     -1.518  0.1792E+00  0.2911E+01
     -1.268  0.1029E+00  0.2937E+01
     -1.018  0.1386E-01  0.2940E+01
     -0.767  0.1097E-03  0.2940E+01
     -0.517  0.1189E-09  0.2940E+01
     -0.266  0.0000E+00  0.2940E+01
     -0.016  0.0000E+00  0.2940E+01
      0.234  0.0000E+00  0.2940E+01
      0.485  0.0000E+00  0.2940E+01
      0.735  0.4606E-10  0.2940E+01
      0.986  0.1019E-03  0.2940E+01
      1.236  0.8367E-02  0.2942E+01
      1.487  0.3890E-01  0.2952E+01
      1.737  0.1088E+00  0.2979E+01
      1.987  0.1356E+00  0.3013E+01
      2.238  0.1845E+00  0.3059E+01
      2.488  0.2625E+00  0.3125E+01
      2.739  0.2799E+00  0.3195E+01
      2.989  0.3036E+00  0.3271E+01
      3.239  0.3509E+00  0.3359E+01
      3.490  0.3323E+00  0.3442E+01
      3.740  0.3607E+00  0.3533E+01
      3.991  0.4312E+00  0.3641E+01
      4.241  0.5611E+00  0.3781E+01
      4.492  0.6461E+00  0.3943E+01
      4.742  0.6721E+00  0.4111E+01
      4.992  0.6348E+00  0.4270E+01
      5.243  0.5317E+00  0.4403E+01
      5.493  0.4220E+00  0.4509E+01
      5.744  0.3625E+00  0.4600E+01
      5.994  0.3128E+00  0.4678E+01
      6.244  0.2781E+00  0.4748E+01
      6.495  0.1985E+00  0.4797E+01
      6.745  0.1635E+00  0.4838E+01
      6.996  0.7635E-01  0.4857E+01
      7.246  0.9459E-01  0.4881E+01
      7.497  0.1667E+00  0.4923E+01
      7.747  0.2052E+00  0.4974E+01
      7.997  0.2344E+00  0.5033E+01
      8.248  0.2247E+00  0.5089E+01
      8.498  0.2591E+00  0.5154E+01
      8.749  0.2672E+00  0.5221E+01
      8.999  0.3097E+00  0.5299E+01
      9.249  0.4107E+00  0.5401E+01
      9.500  0.4836E+00  0.5522E+01
      9.750  0.5439E+00  0.5659E+01
     10.001  0.5362E+00  0.5793E+01
     10.251  0.5293E+00  0.5926E+01
     10.502  0.5297E+00  0.6058E+01
     10.752  0.5228E+00  0.6189E+01
     11.002  0.5254E+00  0.6321E+01
     11.253  0.4238E+00  0.6427E+01
     11.503  0.4143E+00  0.6531E+01
     11.754  0.3958E+00  0.6630E+01
     12.004  0.3082E+00  0.6707E+01
     12.254  0.5247E-01  0.6720E+01
     12.505  0.1361E-03  0.6720E+01
     12.755  0.2479E-10  0.6720E+01
     13.006  0.0000E+00  0.6720E+01
     13.256  0.0000E+00  0.6720E+01
     13.507  0.0000E+00  0.6720E+01
     13.757  0.0000E+00  0.6720E+01
     14.007  0.0000E+00  0.6720E+01
     14.258  0.0000E+00  0.6720E+01
     14.508  0.0000E+00  0.6720E+01
     14.759  0.0000E+00  0.6720E+01
     15.009  0.0000E+00  0.6720E+01
     15.259  0.0000E+00  0.6720E+01
     15.510  0.0000E+00  0.6720E+01
