<?xml version="1.0" encoding="ISO-8859-1"?>
<modeling>
 <generator>
  <i name="program" type="string">vasp </i>
  <i name="version" type="string">5.4.4.18Apr17-6-g9f103f2a35  </i>
  <i name="subversion" type="string">(build Oct 18 2021 20:38:43) complex            parallel </i>
  <i name="platform" type="string">LinuxIFC </i>
  <i name="date" type="string">2024 06 16 </i>
  <i name="time" type="string">13:04:20 </i>
 </generator>
 <incar>
  <i type="string" name="SYSTEM">HECN</i>
  <i type="int" name="ISTART">     0</i>
  <i type="string" name="PREC">normal</i>
  <i type="string" name="ALGO">Fast</i>
  <i type="int" name="ICHARG">     2</i>
  <i type="int" name="NELM">    60</i>
  <i type="int" name="IBRION">     2</i>
  <i name="EDIFF">      0.00001000</i>
  <i name="EDIFFG">     -0.01000000</i>
  <i type="int" name="NSW">   100</i>
  <i type="int" name="ISIF">     3</i>
  <i name="ENCUT">    400.00000000</i>
  <i name="POTIM">      0.50000000</i>
  <i type="logical" name="LREAL"> F  </i>
  <i type="int" name="ISMEAR">     0</i>
  <i name="SIGMA">      0.10000000</i>
  <i type="logical" name="LWAVE"> F  </i>
  <i type="logical" name="LCHARG"> F  </i>
  <v type="int" name="KPOINT_BSE">    -1     0     0     0</v>
  <i type="int" name="NELM">    60</i>
 </incar>
 <structure name="primitive_cell" >
  <crystal>
   <varray name="basis" >
    <v>       8.67813696       0.01620652       0.00217410 </v>
    <v>       0.02201766       8.71582325      -0.02280410 </v>
    <v>       0.03340209      -0.03761768       8.71683243 </v>
   </varray>
   <i name="volume">    659.30479274 </i>
   <varray name="rec_basis" >
    <v>       0.11523276      -0.00029226      -0.00044282 </v>
    <v>      -0.00021439       0.11473569       0.00049597 </v>
    <v>      -0.00002930       0.00030023       0.11472198 </v>
   </varray>
  </crystal>
  <varray name="positions" >
   <v>      -0.00080569       0.00247634      -0.00719726 </v>
   <v>      -0.00885942       0.00688398      -0.25190189 </v>
   <v>       0.00175205       0.25351941       0.00116624 </v>
   <v>      -0.25350388      -0.00209323       0.00185776 </v>
   <v>       0.25369375       0.00310549      -0.00685672 </v>
   <v>      -0.00050328      -0.25512521      -0.00426209 </v>
   <v>      -0.00362475       0.00419433       0.25143786 </v>
   <v>      -0.25726084      -0.02553462      -0.21801077 </v>
   <v>       0.22982417       0.01858153      -0.26044569 </v>
   <v>       0.24509920       0.24806118      -0.00883021 </v>
   <v>      -0.24308645       0.25594068       0.00338236 </v>
   <v>       0.24249134      -0.25178027      -0.00464173 </v>
   <v>      -0.23409819      -0.25909302      -0.00039908 </v>
   <v>       0.00232591      -0.25965407      -0.24306528 </v>
   <v>       0.00296389      -0.23976336       0.24985252 </v>
   <v>      -0.01316138       0.23299902       0.26709739 </v>
   <v>       0.00272709       0.24905357      -0.26698590 </v>
   <v>      -0.26283731      -0.00272246       0.24636318 </v>
   <v>       0.26784062       0.00165542       0.24582683 </v>
   <v>       0.23660560      -0.24402750      -0.24745014 </v>
   <v>      -0.24512462      -0.24365276      -0.24162633 </v>
   <v>      -0.23854893       0.24620704      -0.24955426 </v>
   <v>       0.24577676       0.24870995      -0.25205427 </v>
   <v>      -0.24803160       0.24618112       0.24805367 </v>
   <v>       0.24920105       0.24696772       0.24869631 </v>
   <v>      -0.25855780      -0.24702216       0.24381899 </v>
   <v>       0.25463040      -0.25104868       0.24883523 </v>
   <v>      -0.47821494       0.01195078      -0.02057659 </v>
   <v>       0.00499303       0.00418427      -0.49413218 </v>
   <v>       0.00274210      -0.48757155      -0.01729587 </v>
   <v>      -0.48353954       0.00031802      -0.24917850 </v>
   <v>      -0.00046133      -0.24620588      -0.49297868 </v>
   <v>      -0.49118985       0.00312446       0.23825602 </v>
   <v>      -0.49555846       0.24076279       0.00175039 </v>
   <v>       0.25575292       0.00143010      -0.49140564 </v>
   <v>       0.00601505       0.49711587      -0.24138821 </v>
   <v>      -0.00414906       0.49174956       0.24701594 </v>
   <v>      -0.00028867       0.24909422      -0.49879104 </v>
   <v>      -0.23829934      -0.49749637       0.00082811 </v>
   <v>       0.24055950       0.49869415      -0.00860509 </v>
   <v>       0.49917217      -0.24117158       0.00654222 </v>
   <v>      -0.25905503       0.01127630       0.49752918 </v>
   <v>       0.24550110       0.48310167      -0.24813028 </v>
   <v>      -0.23883321       0.24263936       0.48353577 </v>
   <v>       0.49200938      -0.24339758      -0.24221494 </v>
   <v>      -0.48850373       0.24376999      -0.25693618 </v>
   <v>       0.24795159      -0.24682968      -0.49390710 </v>
   <v>      -0.24602228      -0.49245266      -0.24768819 </v>
   <v>       0.24244419       0.49389228       0.24697457 </v>
   <v>       0.25161609       0.24847287      -0.49690849 </v>
   <v>      -0.49050863       0.25661234       0.25220646 </v>
   <v>      -0.25428504      -0.23937835       0.49664915 </v>
   <v>      -0.25002160      -0.49564963       0.25118867 </v>
   <v>       0.49526373      -0.26594584       0.25702757 </v>
   <v>       0.48410448      -0.01299432      -0.46986236 </v>
   <v>      -0.00026885      -0.49986279      -0.49514717 </v>
   <v>       0.49791258      -0.49882558       0.00061183 </v>
   <v>       0.49293519      -0.23835637       0.49471046 </v>
   <v>      -0.49824105       0.24297407       0.49296390 </v>
   <v>       0.25130699       0.49785846      -0.49489540 </v>
   <v>      -0.25332264       0.49548357       0.49912921 </v>
   <v>       0.49696473       0.49984030      -0.25220201 </v>
   <v>      -0.49978426       0.49818307       0.25225444 </v>
   <v>       0.49637533      -0.48940996       0.49996345 </v>
  </varray>
 </structure>
 <varray name="primitive_index" >
  <v type="int" >        1 </v>
  <v type="int" >       29 </v>
  <v type="int" >       23 </v>
  <v type="int" >       25 </v>
  <v type="int" >       22 </v>
  <v type="int" >       38 </v>
  <v type="int" >       34 </v>
  <v type="int" >       58 </v>
  <v type="int" >       56 </v>
  <v type="int" >       14 </v>
  <v type="int" >       17 </v>
  <v type="int" >       18 </v>
  <v type="int" >        9 </v>
  <v type="int" >       12 </v>
  <v type="int" >       59 </v>
  <v type="int" >        8 </v>
  <v type="int" >       10 </v>
  <v type="int" >       16 </v>
  <v type="int" >        2 </v>
  <v type="int" >       45 </v>
  <v type="int" >       49 </v>
  <v type="int" >       30 </v>
  <v type="int" >       42 </v>
  <v type="int" >       24 </v>
  <v type="int" >       21 </v>
  <v type="int" >       39 </v>
  <v type="int" >       36 </v>
  <v type="int" >       53 </v>
  <v type="int" >       61 </v>
  <v type="int" >       54 </v>
  <v type="int" >       33 </v>
  <v type="int" >       47 </v>
  <v type="int" >       26 </v>
  <v type="int" >       35 </v>
  <v type="int" >       43 </v>
  <v type="int" >       48 </v>
  <v type="int" >       27 </v>
  <v type="int" >       44 </v>
  <v type="int" >       40 </v>
  <v type="int" >       37 </v>
  <v type="int" >       28 </v>
  <v type="int" >       31 </v>
  <v type="int" >       13 </v>
  <v type="int" >       11 </v>
  <v type="int" >        7 </v>
  <v type="int" >        5 </v>
  <v type="int" >       20 </v>
  <v type="int" >       63 </v>
  <v type="int" >        3 </v>
  <v type="int" >       19 </v>
  <v type="int" >       15 </v>
  <v type="int" >       64 </v>
  <v type="int" >       60 </v>
  <v type="int" >       55 </v>
  <v type="int" >       57 </v>
  <v type="int" >        6 </v>
  <v type="int" >        4 </v>
  <v type="int" >       51 </v>
  <v type="int" >       32 </v>
  <v type="int" >       46 </v>
  <v type="int" >       50 </v>
  <v type="int" >       52 </v>
  <v type="int" >       41 </v>
  <v type="int" >       62 </v>
 </varray>
 <kpoints>
  <generation param="Gamma">
   <v type="int" name="divisions">       3        3        3 </v>
   <v name="usershift">      0.00000000       0.00000000       0.00000000 </v>
   <v name="genvec1">      0.33333333       0.00000000      -0.00000000 </v>
   <v name="genvec2">     -0.00000000       0.33333333      -0.00000000 </v>
   <v name="genvec3">      0.00000000       0.00000000       0.33333333 </v>
   <v name="shift">      0.00000000       0.00000000       0.00000000 </v>
  </generation>
  <varray name="kpointlist" >
   <v>       0.00000000       0.00000000       0.00000000 </v>
   <v>       0.33333333       0.00000000       0.00000000 </v>
   <v>       0.00000000       0.33333333      -0.00000000 </v>
   <v>       0.33333333       0.33333333      -0.00000000 </v>
   <v>      -0.33333333       0.33333333       0.00000000 </v>
   <v>       0.00000000       0.00000000       0.33333333 </v>
   <v>       0.33333333       0.00000000       0.33333333 </v>
   <v>      -0.33333333      -0.00000000       0.33333333 </v>
   <v>      -0.00000000       0.33333333       0.33333333 </v>
   <v>       0.33333333       0.33333333       0.33333333 </v>
   <v>      -0.33333333       0.33333333       0.33333333 </v>
   <v>      -0.00000000      -0.33333333       0.33333333 </v>
   <v>       0.33333333      -0.33333333       0.33333333 </v>
   <v>      -0.33333333      -0.33333333       0.33333333 </v>
  </varray>
  <varray name="weights" >
   <v>       0.03703704 </v>
   <v>       0.07407407 </v>
   <v>       0.07407407 </v>
   <v>       0.07407407 </v>
   <v>       0.07407407 </v>
   <v>       0.07407407 </v>
   <v>       0.07407407 </v>
   <v>       0.07407407 </v>
   <v>       0.07407407 </v>
   <v>       0.07407407 </v>
   <v>       0.07407407 </v>
   <v>       0.07407407 </v>
   <v>       0.07407407 </v>
   <v>       0.07407407 </v>
  </varray>
 </kpoints>
 <parameters>
  <separator name="general" >
   <i type="string" name="SYSTEM">HECN</i>
   <i type="logical" name="LCOMPAT"> F  </i>
  </separator>
  <separator name="electronic" >
   <i type="string" name="PREC">normal</i>
   <i name="ENMAX">    400.00000000</i>
   <i name="ENAUG">    644.87300000</i>
   <i name="EDIFF">      0.00001000</i>
   <i type="int" name="IALGO">    68</i>
   <i type="int" name="IWAVPR">    11</i>
   <i type="int" name="NBANDS">   336</i>
   <i name="NELECT">    523.00000000</i>
   <i type="int" name="TURBO">     0</i>
   <i type="int" name="IRESTART">     0</i>
   <i type="int" name="NREBOOT">     0</i>
   <i type="int" name="NMIN">     0</i>
   <i name="EREF">      0.00000000</i>
   <separator name="electronic smearing" >
    <i type="int" name="ISMEAR">     0</i>
    <i name="SIGMA">      0.10000000</i>
    <i name="KSPACING">      0.50000000</i>
    <i type="logical" name="KGAMMA"> T  </i>
   </separator>
   <separator name="electronic projectors" >
    <i type="logical" name="LREAL"> F  </i>
    <v name="ROPT">      0.00000000      0.00000000      0.00000000      0.00000000      0.00000000      0.00000000      0.00000000</v>
    <i type="int" name="LMAXPAW">  -100</i>
    <i type="int" name="LMAXMIX">     2</i>
    <i type="logical" name="NLSPLINE"> F  </i>
   </separator>
   <separator name="electronic startup" >
    <i type="int" name="ISTART">     0</i>
    <i type="int" name="ICHARG">     2</i>
    <i type="int" name="INIWAV">     1</i>
   </separator>
   <separator name="electronic spin" >
    <i type="int" name="ISPIN">     1</i>
    <i type="logical" name="LNONCOLLINEAR"> F  </i>
    <v name="MAGMOM">      1.00000000      1.00000000      1.00000000      1.00000000      1.00000000      1.00000000      1.00000000      1.00000000      1.00000000      1.00000000      1.00000000      1.00000000      1.00000000      1.00000000      1.00000000      1.00000000      1.00000000      1.00000000      1.00000000      1.00000000
      1.00000000      1.00000000      1.00000000      1.00000000      1.00000000      1.00000000      1.00000000      1.00000000      1.00000000      1.00000000      1.00000000      1.00000000      1.00000000      1.00000000      1.00000000      1.00000000      1.00000000      1.00000000      1.00000000      1.00000000
      1.00000000      1.00000000      1.00000000      1.00000000      1.00000000      1.00000000      1.00000000      1.00000000      1.00000000      1.00000000      1.00000000      1.00000000      1.00000000      1.00000000      1.00000000      1.00000000      1.00000000      1.00000000      1.00000000      1.00000000
      1.00000000      1.00000000      1.00000000      1.00000000</v>
    <i name="NUPDOWN">     -1.00000000</i>
    <i type="logical" name="LSORBIT"> F  </i>
    <v name="SAXIS">      0.00000000      0.00000000      1.00000000</v>
    <i type="logical" name="LSPIRAL"> F  </i>
    <v name="QSPIRAL">      0.00000000      0.00000000      0.00000000</v>
    <i type="logical" name="LZEROZ"> F  </i>
   </separator>
   <separator name="electronic exchange-correlation" >
    <i type="logical" name="LASPH"> F  </i>
    <i type="logical" name="LMETAGGA"> F  </i>
   </separator>
   <separator name="electronic convergence" >
    <i type="int" name="NELM">    60</i>
    <i type="int" name="NELMDL">    -5</i>
    <i type="int" name="NELMIN">     2</i>
    <i name="ENINI">    400.00000000</i>
    <separator name="electronic convergence detail" >
     <i type="logical" name="LDIAG"> T  </i>
     <i type="logical" name="LSUBROT"> F  </i>
     <i name="WEIMIN">      0.00100000</i>
     <i name="EBREAK">      0.00000001</i>
     <i name="DEPER">      0.30000000</i>
     <i type="int" name="NRMM">     4</i>
     <i name="TIME">      0.40000000</i>
    </separator>
   </separator>
   <separator name="electronic mixer" >
    <i name="AMIX">      0.40000000</i>
    <i name="BMIX">      1.00000000</i>
    <i name="AMIN">      0.10000000</i>
    <i name="AMIX_MAG">      1.60000000</i>
    <i name="BMIX_MAG">      1.00000000</i>
    <separator name="electronic mixer details" >
     <i type="int" name="IMIX">     4</i>
     <i type="logical" name="MIXFIRST"> F  </i>
     <i type="int" name="MAXMIX">   -45</i>
     <i name="WC">    100.00000000</i>
     <i type="int" name="INIMIX">     1</i>
     <i type="int" name="MIXPRE">     1</i>
     <i type="int" name="MREMOVE">     5</i>
    </separator>
   </separator>
   <separator name="electronic dipolcorrection" >
    <i type="logical" name="LDIPOL"> F  </i>
    <i type="logical" name="LMONO"> F  </i>
    <i type="int" name="IDIPOL">     0</i>
    <i name="EPSILON">      1.00000000</i>
    <v name="DIPOL">   -100.00000000   -100.00000000   -100.00000000</v>
    <i name="EFIELD">      0.00000000</i>
   </separator>
  </separator>
  <separator name="grids" >
   <i type="int" name="NGX">    42</i>
   <i type="int" name="NGY">    48</i>
   <i type="int" name="NGZ">    48</i>
   <i type="int" name="NGXF">    84</i>
   <i type="int" name="NGYF">    96</i>
   <i type="int" name="NGZF">    96</i>
   <i type="logical" name="ADDGRID"> F  </i>
  </separator>
  <separator name="ionic" >
   <i type="int" name="NSW">   100</i>
   <i type="int" name="IBRION">     2</i>
   <i type="int" name="MDALGO">     0</i>
   <i type="int" name="ISIF">     3</i>
   <i name="PSTRESS">      0.00000000</i>
   <i name="EDIFFG">     -0.01000000</i>
   <i type="int" name="NFREE">     1</i>
   <i name="POTIM">      0.50000000</i>
   <i name="SMASS">     -3.00000000</i>
   <i name="SCALEE">      1.00000000</i>
  </separator>
  <separator name="ionic md" >
   <i name="TEBEG">      0.00010000</i>
   <i name="TEEND">      0.00010000</i>
   <i type="int" name="NBLOCK">     1</i>
   <i type="int" name="KBLOCK">   100</i>
   <i type="int" name="NPACO">   256</i>
   <i name="APACO">     16.00000000</i>
  </separator>
  <separator name="symmetry" >
   <i type="int" name="ISYM">     2</i>
   <i name="SYMPREC">      0.00001000</i>
  </separator>
  <separator name="dos" >
   <i type="int" name="LORBIT">     0</i>
   <v name="RWIGS">     -1.00000000     -1.00000000     -1.00000000     -1.00000000     -1.00000000     -1.00000000     -1.00000000</v>
   <i type="int" name="NEDOS">   301</i>
   <i name="EMIN">     10.00000000</i>
   <i name="EMAX">    -10.00000000</i>
   <i name="EFERMI">      0.00000000</i>
  </separator>
  <separator name="writing" >
   <i type="int" name="NWRITE">     2</i>
   <i type="logical" name="LWAVE"> F  </i>
   <i type="logical" name="LDOWNSAMPLE"> F  </i>
   <i type="logical" name="LCHARG"> F  </i>
   <i type="logical" name="LPARD"> F  </i>
   <i type="logical" name="LVTOT"> F  </i>
   <i type="logical" name="LVHAR"> F  </i>
   <i type="logical" name="LELF"> F  </i>
   <i type="logical" name="LOPTICS"> F  </i>
   <v name="STM">      0.00000000      0.00000000      0.00000000      0.00000000      0.00000000      0.00000000      0.00000000</v>
  </separator>
  <separator name="performance" >
   <i type="int" name="NPAR">    24</i>
   <i type="int" name="NSIM">     4</i>
   <i type="int" name="NBLK">    -1</i>
   <i type="logical" name="LPLANE"> T  </i>
   <i type="logical" name="LSCALAPACK"> T  </i>
   <i type="logical" name="LSCAAWARE"> F  </i>
   <i type="logical" name="LSCALU"> F  </i>
   <i type="logical" name="LASYNC"> F  </i>
   <i type="logical" name="LORBITALREAL"> F  </i>
  </separator>
  <separator name="miscellaneous" >
   <i type="int" name="IDIOT">     3</i>
   <i type="int" name="ISPECIAL">     0</i>
   <i type="logical" name="LMUSIC"> F  </i>
   <v name="POMASS">    178.49000000     50.94100000     47.88000000     14.00100000     12.01100000     51.99600000     92.91000000</v>
   <v name="DARWINR">      0.00000000      0.00000000      0.00000000      0.00000000      0.00000000      0.00000000      0.00000000</v>
   <v name="DARWINV">      1.00000000      1.00000000      1.00000000      1.00000000      1.00000000      1.00000000      1.00000000</v>
   <i type="logical" name="LCORR"> T  </i>
  </separator>
  <i type="logical" name="GGA_COMPAT"> T  </i>
  <i type="logical" name="LBERRY"> F  </i>
  <i type="int" name="ICORELEVEL">     0</i>
  <i type="logical" name="LDAU"> F  </i>
  <i type="int" name="I_CONSTRAINED_M">     0</i>
  <separator name="electronic exchange-correlation" >
   <i type="string" name="GGA">--</i>
   <i type="int" name="VOSKOWN">     0</i>
   <i type="logical" name="LHFCALC"> F  </i>
   <i type="string" name="PRECFOCK"></i>
   <i type="logical" name="LSYMGRAD"> F  </i>
   <i type="logical" name="LHFONE"> F  </i>
   <i type="logical" name="LRHFCALC"> F  </i>
   <i type="logical" name="LTHOMAS"> F  </i>
   <i type="logical" name="LMODELHF"> F  </i>
   <i name="ENCUT4O">     -1.00000000</i>
   <i type="int" name="EXXOEP">     0</i>
   <i type="int" name="FOURORBIT">     0</i>
   <i name="AEXX">      0.00000000</i>
   <i name="HFALPHA">      0.00000000</i>
   <i name="MCALPHA">      0.00000000</i>
   <i name="ALDAX">      1.00000000</i>
   <i name="AGGAX">      1.00000000</i>
   <i name="ALDAC">      1.00000000</i>
   <i name="AGGAC">      1.00000000</i>
   <i type="int" name="NKREDX">     1</i>
   <i type="int" name="NKREDY">     1</i>
   <i type="int" name="NKREDZ">     1</i>
   <i type="logical" name="SHIFTRED"> F  </i>
   <i type="logical" name="ODDONLY"> F  </i>
   <i type="logical" name="EVENONLY"> F  </i>
   <i type="int" name="LMAXFOCK">     0</i>
   <i type="int" name="NMAXFOCKAE">     0</i>
   <i type="logical" name="LFOCKAEDFT"> F  </i>
   <i name="HFSCREEN">      0.00000000</i>
   <i name="HFSCREENC">      0.00000000</i>
   <i type="int" name="NBANDSGWLOW">     0</i>
  </separator>
  <separator name="vdW DFT" >
   <i type="logical" name="LUSE_VDW"> F  </i>
   <i name="Zab_VDW">     -0.84910000</i>
   <i name="PARAM1">      0.12340000</i>
   <i name="PARAM2">      1.00000000</i>
   <i name="PARAM3">      0.00000000</i>
  </separator>
  <separator name="model GW" >
   <i type="int" name="MODEL_GW">     0</i>
   <i name="MODEL_EPS0">      6.18098243</i>
   <i name="MODEL_ALPHA">      1.00000000</i>
  </separator>
  <separator name="linear response parameters" >
   <i type="logical" name="LEPSILON"> F  </i>
   <i type="logical" name="LRPA"> F  </i>
   <i type="logical" name="LNABLA"> F  </i>
   <i type="logical" name="LVEL"> F  </i>
   <i type="int" name="KINTER">     0</i>
   <i name="CSHIFT">      0.10000000</i>
   <i name="OMEGAMAX">     -1.00000000</i>
   <i name="DEG_THRESHOLD">      0.00200000</i>
   <i name="RTIME">     -0.10000000</i>
   <i name="WPLASMAI">      0.00000000</i>
   <v name="DFIELD">      0.00000000      0.00000000      0.00000000</v>
   <v name="WPLASMA">      0.00000000      0.00000000      0.00000000      0.00000000      0.00000000      0.00000000      0.00000000      0.00000000      0.00000000</v>
  </separator>
  <separator name="orbital magnetization" >
   <i type="logical" name="NUCIND"> F  </i>
   <v name="MAGPOS">      0.00000000      0.00000000      0.00000000</v>
   <i type="logical" name="LNICSALL"> T  </i>
   <i type="logical" name="ORBITALMAG"> F  </i>
   <i type="logical" name="LMAGBLOCH"> F  </i>
   <i type="logical" name="LCHIMAG"> F  </i>
   <i type="logical" name="LGAUGE"> T  </i>
   <i type="int" name="MAGATOM">     0</i>
   <v name="MAGDIPOL">      0.00000000      0.00000000      0.00000000</v>
   <v name="AVECCONST">      0.00000000      0.00000000      0.00000000</v>
  </separator>
  <separator name="response functions" >
   <i type="logical" name="LADDER"> F  </i>
   <i type="logical" name="LRPAFORCE"> F  </i>
   <i type="logical" name="LFXC"> F  </i>
   <i type="logical" name="LHARTREE"> T  </i>
   <i type="int" name="IBSE">     0</i>
   <v type="int" name="KPOINT">    -1     0     0     0</v>
   <i type="logical" name="LTCTE"> F  </i>
   <i type="logical" name="LTETE"> F  </i>
   <i type="logical" name="LTRIPLET"> F  </i>
   <i type="logical" name="LFXCEPS"> F  </i>
   <i type="logical" name="LFXHEG"> F  </i>
   <i type="int" name="NATURALO">     2</i>
   <i type="logical" name="L2ORDER"> F  </i>
   <i type="logical" name="LMP2LT"> F  </i>
   <i type="logical" name="LUSEW"> F  </i>
   <i name="ENCUTGW">     -2.00000000</i>
   <i name="ENCUTGWSOFT">     -2.00000000</i>
   <i name="ENCUTLF">     -1.00000000</i>
   <i type="int" name="LMAXMP2">    -1</i>
   <i name="SCISSOR">      0.00000000</i>
   <i type="int" name="NOMEGA">     0</i>
   <i type="int" name="NOMEGAR">     0</i>
   <i type="int" name="NBANDSGW">    -1</i>
   <i type="int" name="NBANDSO">    -1</i>
   <i type="int" name="NBANDSV">    -1</i>
   <i type="int" name="NELM">    60</i>
   <i type="int" name="NELMHF">     1</i>
   <i type="int" name="DIM">     3</i>
   <i type="int" name="ANTIRES">     0</i>
   <i name="OMEGAMAX">    -30.00000000</i>
   <i name="OMEGAMIN">    -30.00000000</i>
   <i name="OMEGATL">   -200.00000000</i>
   <i type="int" name="OMEGAGRID">   140</i>
   <i name="CSHIFT">     -0.10000000</i>
   <i type="logical" name="SELFENERGY"> F  </i>
   <i type="logical" name="LSPECTRAL"> F  </i>
   <i type="logical" name="LSPECTRALGW"> F  </i>
   <i type="logical" name="LSINGLES"> F  </i>
   <i type="logical" name="LFERMIGW"> F  </i>
   <i type="logical" name="ODDONLYGW"> F  </i>
   <i type="logical" name="EVENONLYGW"> F  </i>
   <i type="int" name="NKREDLFX">     1</i>
   <i type="int" name="NKREDLFY">     1</i>
   <i type="int" name="NKREDLFZ">     1</i>
   <i type="int" name="MAXMEM">  2800</i>
   <i type="int" name="TELESCOPE">     0</i>
   <i type="int" name="TAUPAR">     1</i>
   <i type="int" name="OMEGAPAR">    -1</i>
   <i name="LAMBDA">      1.00000000</i>
  </separator>
  <separator name="External order field" >
   <i name="OFIELD_KAPPA">      0.00000000</i>
   <v name="OFIELD_K">      0.00000000      0.00000000      0.00000000</v>
   <i name="OFIELD_Q6_NEAR">      0.00000000</i>
   <i name="OFIELD_Q6_FAR">      0.00000000</i>
   <i name="OFIELD_A">      0.00000000</i>
  </separator>
 </parameters>
 <atominfo>
  <atoms>      64 </atoms>
  <types>       7 </types>
  <array name="atoms" >
   <dimension dim="1">ion</dimension>
   <field type="string">element</field>
   <field type="int">atomtype</field>
   <set>
    <rc><c>Hf</c><c>   1</c></rc>
    <rc><c>Hf</c><c>   1</c></rc>
    <rc><c>Hf</c><c>   1</c></rc>
    <rc><c>Hf</c><c>   1</c></rc>
    <rc><c>Hf</c><c>   1</c></rc>
    <rc><c>Hf</c><c>   1</c></rc>
    <rc><c>Hf</c><c>   1</c></rc>
    <rc><c>V </c><c>   2</c></rc>
    <rc><c>V </c><c>   2</c></rc>
    <rc><c>V </c><c>   2</c></rc>
    <rc><c>V </c><c>   2</c></rc>
    <rc><c>V </c><c>   2</c></rc>
    <rc><c>V </c><c>   2</c></rc>
    <rc><c>Ti</c><c>   3</c></rc>
    <rc><c>Ti</c><c>   3</c></rc>
    <rc><c>Ti</c><c>   3</c></rc>
    <rc><c>Ti</c><c>   3</c></rc>
    <rc><c>Ti</c><c>   3</c></rc>
    <rc><c>Ti</c><c>   3</c></rc>
    <rc><c>Ti</c><c>   3</c></rc>
    <rc><c>N </c><c>   4</c></rc>
    <rc><c>N </c><c>   4</c></rc>
    <rc><c>N </c><c>   4</c></rc>
    <rc><c>N </c><c>   4</c></rc>
    <rc><c>N </c><c>   4</c></rc>
    <rc><c>N </c><c>   4</c></rc>
    <rc><c>N </c><c>   4</c></rc>
    <rc><c>N </c><c>   4</c></rc>
    <rc><c>N </c><c>   4</c></rc>
    <rc><c>N </c><c>   4</c></rc>
    <rc><c>N </c><c>   4</c></rc>
    <rc><c>N </c><c>   4</c></rc>
    <rc><c>N </c><c>   4</c></rc>
    <rc><c>C </c><c>   5</c></rc>
    <rc><c>C </c><c>   5</c></rc>
    <rc><c>C </c><c>   5</c></rc>
    <rc><c>C </c><c>   5</c></rc>
    <rc><c>C </c><c>   5</c></rc>
    <rc><c>C </c><c>   5</c></rc>
    <rc><c>C </c><c>   5</c></rc>
    <rc><c>C </c><c>   5</c></rc>
    <rc><c>C </c><c>   5</c></rc>
    <rc><c>C </c><c>   5</c></rc>
    <rc><c>C </c><c>   5</c></rc>
    <rc><c>C </c><c>   5</c></rc>
    <rc><c>C </c><c>   5</c></rc>
    <rc><c>C </c><c>   5</c></rc>
    <rc><c>C </c><c>   5</c></rc>
    <rc><c>C </c><c>   5</c></rc>
    <rc><c>C </c><c>   5</c></rc>
    <rc><c>C </c><c>   5</c></rc>
    <rc><c>C </c><c>   5</c></rc>
    <rc><c>Cr</c><c>   6</c></rc>
    <rc><c>Cr</c><c>   6</c></rc>
    <rc><c>Cr</c><c>   6</c></rc>
    <rc><c>Cr</c><c>   6</c></rc>
    <rc><c>Cr</c><c>   6</c></rc>
    <rc><c>Cr</c><c>   6</c></rc>
    <rc><c>Nb</c><c>   7</c></rc>
    <rc><c>Nb</c><c>   7</c></rc>
    <rc><c>Nb</c><c>   7</c></rc>
    <rc><c>Nb</c><c>   7</c></rc>
    <rc><c>Nb</c><c>   7</c></rc>
    <rc><c>Nb</c><c>   7</c></rc>
   </set>
  </array>
  <array name="atomtypes" >
   <dimension dim="1">type</dimension>
   <field type="int">atomspertype</field>
   <field type="string">element</field>
   <field>mass</field>
   <field>valence</field>
   <field type="string">pseudopotential</field>
   <set>
    <rc><c>   7</c><c>Hf</c><c>    178.49000000</c><c>     10.00000000</c><c> PAW_PBE Hf_pv 06Sep2000                </c></rc>
    <rc><c>   6</c><c>V </c><c>     50.94100000</c><c>     13.00000000</c><c> PAW_PBE V_sv 07Sep2000                 </c></rc>
    <rc><c>   7</c><c>Ti</c><c>     47.88000000</c><c>     12.00000000</c><c> PAW_PBE Ti_sv 07Sep2000                </c></rc>
    <rc><c>  13</c><c>N </c><c>     14.00100000</c><c>      5.00000000</c><c> PAW_PBE N 08Apr2002                    </c></rc>
    <rc><c>  19</c><c>C </c><c>     12.01100000</c><c>      4.00000000</c><c> PAW_PBE C 08Apr2002                    </c></rc>
    <rc><c>   6</c><c>Cr</c><c>     51.99600000</c><c>     12.00000000</c><c> PAW_PBE Cr_pv 07Sep2000                </c></rc>
    <rc><c>   6</c><c>Nb</c><c>     92.91000000</c><c>     13.00000000</c><c> PAW_PBE Nb_sv 17Jan2003                </c></rc>
   </set>
  </array>
 </atominfo>
 <structure name="initialpos" >
  <crystal>
   <varray name="basis" >
    <v>       8.67813696       0.01620652       0.00217410 </v>
    <v>       0.02201766       8.71582325      -0.02280410 </v>
    <v>       0.03340209      -0.03761768       8.71683243 </v>
   </varray>
   <i name="volume">    659.30479274 </i>
   <varray name="rec_basis" >
    <v>       0.11523276      -0.00029226      -0.00044282 </v>
    <v>      -0.00021439       0.11473569       0.00049597 </v>
    <v>      -0.00002930       0.00030023       0.11472198 </v>
   </varray>
  </crystal>
  <varray name="positions" >
   <v>       0.99919431       0.00247634       0.99280274 </v>
   <v>       0.26784062       0.00165542       0.24582683 </v>
   <v>       0.24244419       0.49389228       0.24697457 </v>
   <v>       0.49791258       0.50117442       0.00061183 </v>
   <v>       0.51149627       0.24376999       0.74306382 </v>
   <v>       0.99973115       0.50013721       0.50485283 </v>
   <v>       0.49200938       0.75660242       0.75778506 </v>
   <v>       0.98683862       0.23299902       0.26709739 </v>
   <v>       0.76590181       0.74090698       0.99960092 </v>
   <v>       0.00272709       0.24905357       0.73301410 </v>
   <v>       0.76116679       0.24263936       0.48353577 </v>
   <v>       0.00232591       0.74034593       0.75693472 </v>
   <v>       0.24550110       0.48310167       0.75186972 </v>
   <v>       0.24509920       0.24806118       0.99116979 </v>
   <v>       0.50949137       0.25661234       0.25220646 </v>
   <v>       0.73716269       0.99727754       0.24636318 </v>
   <v>       0.75691355       0.25594068       0.00338236 </v>
   <v>       0.24249134       0.74821973       0.99535827 </v>
   <v>       0.25161609       0.24847287       0.50309151 </v>
   <v>       0.24795159       0.75317032       0.50609290 </v>
   <v>       0.24920105       0.24696772       0.24869631 </v>
   <v>       0.25369375       0.00310549       0.99314328 </v>
   <v>       0.00175205       0.25351941       0.00116624 </v>
   <v>       0.75196840       0.24618112       0.24805367 </v>
   <v>       0.74649612       0.99790677       0.00185776 </v>
   <v>       0.50881015       0.00312446       0.23825602 </v>
   <v>       0.99585094       0.49174956       0.24701594 </v>
   <v>       0.49917217       0.75882842       0.00654222 </v>
   <v>       0.99114058       0.00688398       0.74809811 </v>
   <v>       0.76145107       0.24620704       0.75044574 </v>
   <v>       0.74094497       0.01127630       0.49752918 </v>
   <v>       0.50175895       0.24297407       0.49296390 </v>
   <v>       0.51646046       0.00031802       0.75082150 </v>
   <v>       0.99637525       0.00419433       0.25143786 </v>
   <v>       0.50444154       0.24076279       0.00175039 </v>
   <v>       0.25463040       0.74895132       0.24883523 </v>
   <v>       0.24055950       0.49869415       0.99139491 </v>
   <v>       0.99949672       0.74487479       0.99573791 </v>
   <v>       0.74144220       0.75297784       0.24381899 </v>
   <v>       0.76170066       0.50250363       0.00082811 </v>
   <v>       0.50021574       0.49818307       0.25225444 </v>
   <v>       0.24577676       0.24870995       0.74794573 </v>
   <v>       0.25575292       0.00143010       0.50859436 </v>
   <v>       0.99971133       0.24909422       0.50120896 </v>
   <v>       0.23660560       0.75597250       0.75254986 </v>
   <v>       0.25130699       0.49785846       0.50510460 </v>
   <v>       0.99953867       0.75379412       0.50702132 </v>
   <v>       0.00601505       0.49711587       0.75861179 </v>
   <v>       0.75487538       0.75634724       0.75837367 </v>
   <v>       0.74667736       0.49548357       0.49912921 </v>
   <v>       0.49293519       0.76164363       0.49471046 </v>
   <v>       0.49696473       0.49984030       0.74779799 </v>
   <v>       0.52178506       0.01195078       0.97942341 </v>
   <v>       0.00274210       0.51242845       0.98270413 </v>
   <v>       0.49526373       0.73405416       0.25702757 </v>
   <v>       0.22982417       0.01858153       0.73955431 </v>
   <v>       0.48410448       0.98700568       0.53013764 </v>
   <v>       0.74273916       0.97446538       0.78198923 </v>
   <v>       0.00296389       0.76023664       0.24985252 </v>
   <v>       0.74997840       0.50435037       0.25118867 </v>
   <v>       0.00499303       0.00418427       0.50586782 </v>
   <v>       0.49637533       0.51059004       0.49996345 </v>
   <v>       0.75397772       0.50754734       0.75231181 </v>
   <v>       0.74571496       0.76062165       0.49664915 </v>
  </varray>
 </structure>
 <calculation>
  <scstep>
   <time name="dav">   20.06   20.15</time>
   <time name="total">   20.10   20.20</time>
   <energy>
    <i name="alphaZ">   4142.37212360 </i>
    <i name="ewald"> -45176.62073063 </i>
    <i name="hartreedc"> -10512.63224793 </i>
    <i name="XCdc">   2221.36082582 </i>
    <i name="pawpsdc">  35001.64816172 </i>
    <i name="pawaedc"> -35081.79203647 </i>
    <i name="eentropy">     -0.09228654 </i>
    <i name="bandstr">   2538.44904299 </i>
    <i name="atom">  54287.75104140 </i>
    <i name="e_fr_energy">   7420.44389397 </i>
    <i name="e_wo_entrp">   7420.53618051 </i>
    <i name="e_0_energy">   7420.49003724 </i>
   </energy>
  </scstep>
  <scstep>
   <time name="dav">   20.50   20.52</time>
   <time name="total">   20.50   20.53</time>
   <energy>
    <i name="e_fr_energy">    531.22130948 </i>
    <i name="e_wo_entrp">    531.37068608 </i>
    <i name="e_0_energy">    531.29599778 </i>
   </energy>
  </scstep>
  <scstep>
   <time name="dav">   28.87   28.88</time>
   <time name="total">   28.87   28.89</time>
   <energy>
    <i name="e_fr_energy">   -629.21168722 </i>
    <i name="e_wo_entrp">   -629.12528714 </i>
    <i name="e_0_energy">   -629.16848718 </i>
   </energy>
  </scstep>
  <scstep>
   <time name="dav">   31.33   32.24</time>
   <time name="total">   31.33   32.24</time>
   <energy>
    <i name="e_fr_energy">   -779.26306603 </i>
    <i name="e_wo_entrp">   -779.16839863 </i>
    <i name="e_0_energy">   -779.21573233 </i>
   </energy>
  </scstep>
  <scstep>
   <time name="dav">   35.90   36.37</time>
   <time name="total">   36.12   36.59</time>
   <energy>
    <i name="e_fr_energy">   -797.57608002 </i>
    <i name="e_wo_entrp">   -797.47399887 </i>
    <i name="e_0_energy">   -797.52503945 </i>
   </energy>
  </scstep>
  <scstep>
   <time name="diag">    1.78    1.82</time>
   <time name="diis">   16.68   17.24</time>
   <time name="orth">    0.46    0.46</time>
   <time name="total">   19.17   19.78</time>
   <energy>
    <i name="e_fr_energy">   -875.39889037 </i>
    <i name="e_wo_entrp">   -875.23850488 </i>
    <i name="e_0_energy">   -875.31869762 </i>
   </energy>
  </scstep>
  <scstep>
   <time name="diag">    1.82    1.85</time>
   <time name="diis">   19.46   20.10</time>
   <time name="orth">    0.46    0.47</time>
   <time name="total">   21.99   22.68</time>
   <energy>
    <i name="e_fr_energy">   -658.34785073 </i>
    <i name="e_wo_entrp">   -658.18659563 </i>
    <i name="e_0_energy">   -658.26722318 </i>
   </energy>
  </scstep>
  <scstep>
   <time name="diag">    1.83    1.83</time>
   <time name="diis">   20.31   20.32</time>
   <time name="orth">    0.46    0.46</time>
   <time name="total">   22.85   22.87</time>
   <energy>
    <i name="e_fr_energy">   -642.40924523 </i>
    <i name="e_wo_entrp">   -642.26565488 </i>
    <i name="e_0_energy">   -642.33745005 </i>
   </energy>
  </scstep>
  <scstep>
   <time name="diag">    1.84    1.86</time>
   <time name="diis">   20.32   20.39</time>
   <time name="orth">    0.46    0.46</time>
   <time name="total">   22.87   22.96</time>
   <energy>
    <i name="e_fr_energy">   -634.09241117 </i>
    <i name="e_wo_entrp">   -633.95726887 </i>
    <i name="e_0_energy">   -634.02484002 </i>
   </energy>
  </scstep>
  <scstep>
   <time name="diag">    1.82    1.82</time>
   <time name="diis">   20.95   20.97</time>
   <time name="orth">    0.46    0.46</time>
   <time name="total">   23.49   23.51</time>
   <energy>
    <i name="e_fr_energy">   -633.17451177 </i>
    <i name="e_wo_entrp">   -633.04184134 </i>
    <i name="e_0_energy">   -633.10817655 </i>
   </energy>
  </scstep>
  <scstep>
   <time name="diag">    1.85    1.85</time>
   <time name="diis">   20.55   20.57</time>
   <time name="orth">    0.46    0.46</time>
   <time name="total">   23.11   23.14</time>
   <energy>
    <i name="e_fr_energy">   -632.65466641 </i>
    <i name="e_wo_entrp">   -632.52403260 </i>
    <i name="e_0_energy">   -632.58934951 </i>
   </energy>
  </scstep>
  <scstep>
   <time name="diag">    1.85    1.90</time>
   <time name="diis">   20.19   20.69</time>
   <time name="orth">    0.46    0.46</time>
   <time name="total">   22.75   23.30</time>
   <energy>
    <i name="e_fr_energy">   -632.27670136 </i>
    <i name="e_wo_entrp">   -632.13505060 </i>
    <i name="e_0_energy">   -632.20587598 </i>
   </energy>
  </scstep>
  <scstep>
   <time name="diag">    1.82    1.83</time>
   <time name="diis">   20.52   20.55</time>
   <time name="orth">    0.46    0.46</time>
   <time name="total">   23.05   23.08</time>
   <energy>
    <i name="e_fr_energy">   -632.50897589 </i>
    <i name="e_wo_entrp">   -632.38424751 </i>
    <i name="e_0_energy">   -632.44661170 </i>
   </energy>
  </scstep>
  <scstep>
   <time name="diag">    1.83    1.83</time>
   <time name="diis">   20.33   20.37</time>
   <time name="orth">    0.46    0.46</time>
   <time name="total">   22.86   22.90</time>
   <energy>
    <i name="e_fr_energy">   -632.21697980 </i>
    <i name="e_wo_entrp">   -632.07608388 </i>
    <i name="e_0_energy">   -632.14653184 </i>
   </energy>
  </scstep>
  <scstep>
   <time name="diag">    1.83    1.83</time>
   <time name="diis">   20.37   20.40</time>
   <time name="orth">    0.46    0.46</time>
   <time name="total">   22.91   22.94</time>
   <energy>
    <i name="e_fr_energy">   -632.20315302 </i>
    <i name="e_wo_entrp">   -632.06439015 </i>
    <i name="e_0_energy">   -632.13377159 </i>
   </energy>
  </scstep>
  <scstep>
   <time name="diag">    1.83    1.83</time>
   <time name="diis">   19.87   19.89</time>
   <time name="orth">    0.46    0.46</time>
   <time name="total">   22.40   22.42</time>
   <energy>
    <i name="e_fr_energy">   -632.10974752 </i>
    <i name="e_wo_entrp">   -631.97060137 </i>
    <i name="e_0_energy">   -632.04017444 </i>
   </energy>
  </scstep>
  <scstep>
   <time name="diag">    1.82    1.82</time>
   <time name="diis">   20.97   20.99</time>
   <time name="orth">    0.46    0.46</time>
   <time name="total">   23.49   23.52</time>
   <energy>
    <i name="e_fr_energy">   -631.88615582 </i>
    <i name="e_wo_entrp">   -631.74736332 </i>
    <i name="e_0_energy">   -631.81675957 </i>
   </energy>
  </scstep>
  <scstep>
   <time name="diag">    1.85    1.85</time>
   <time name="diis">   20.70   20.71</time>
   <time name="orth">    0.46    0.46</time>
   <time name="total">   23.26   23.28</time>
   <energy>
    <i name="e_fr_energy">   -631.87349185 </i>
    <i name="e_wo_entrp">   -631.73819833 </i>
    <i name="e_0_energy">   -631.80584509 </i>
   </energy>
  </scstep>
  <scstep>
   <time name="diag">    1.82    1.83</time>
   <time name="diis">   20.80   20.84</time>
   <time name="orth">    0.46    0.46</time>
   <time name="total">   23.34   23.38</time>
   <energy>
    <i name="e_fr_energy">   -631.83957282 </i>
    <i name="e_wo_entrp">   -631.70268658 </i>
    <i name="e_0_energy">   -631.77112970 </i>
   </energy>
  </scstep>
  <scstep>
   <time name="diag">    1.82    1.86</time>
   <time name="diis">   19.61   20.29</time>
   <time name="orth">    0.45    0.46</time>
   <time name="total">   22.13   22.87</time>
   <energy>
    <i name="e_fr_energy">   -631.84474500 </i>
    <i name="e_wo_entrp">   -631.70634509 </i>
    <i name="e_0_energy">   -631.77554505 </i>
   </energy>
  </scstep>
  <scstep>
   <time name="diag">    1.82    1.83</time>
   <time name="diis">   20.77   20.80</time>
   <time name="orth">    0.48    0.48</time>
   <time name="total">   23.32   23.36</time>
   <energy>
    <i name="e_fr_energy">   -631.84040417 </i>
    <i name="e_wo_entrp">   -631.70390933 </i>
    <i name="e_0_energy">   -631.77215675 </i>
   </energy>
  </scstep>
  <scstep>
   <time name="diag">    1.79    1.83</time>
   <time name="diis">   19.64   20.32</time>
   <time name="orth">    0.45    0.46</time>
   <time name="total">   22.13   22.86</time>
   <energy>
    <i name="e_fr_energy">   -631.84723138 </i>
    <i name="e_wo_entrp">   -631.70941243 </i>
    <i name="e_0_energy">   -631.77832190 </i>
   </energy>
  </scstep>
  <scstep>
   <time name="diag">    1.79    1.82</time>
   <time name="diis">   19.69   20.32</time>
   <time name="orth">    0.45    0.46</time>
   <time name="total">   22.18   22.86</time>
   <energy>
    <i name="e_fr_energy">   -631.83624107 </i>
    <i name="e_wo_entrp">   -631.69956629 </i>
    <i name="e_0_energy">   -631.76790368 </i>
   </energy>
  </scstep>
  <scstep>
   <time name="diag">    1.85    1.85</time>
   <time name="diis">   20.05   20.07</time>
   <time name="orth">    0.47    0.47</time>
   <time name="total">   22.61   22.63</time>
   <energy>
    <i name="e_fr_energy">   -631.83706095 </i>
    <i name="e_wo_entrp">   -631.69965708 </i>
    <i name="e_0_energy">   -631.76835901 </i>
   </energy>
  </scstep>
  <scstep>
   <time name="diag">    1.79    1.82</time>
   <time name="diis">   19.96   20.45</time>
   <time name="orth">    0.47    0.47</time>
   <time name="total">   22.46   22.99</time>
   <energy>
    <i name="e_fr_energy">   -631.83608783 </i>
    <i name="e_wo_entrp">   -631.69899823 </i>
    <i name="e_0_energy">   -631.76754303 </i>
   </energy>
  </scstep>
  <scstep>
   <time name="diag">    1.78    1.82</time>
   <time name="diis">   18.87   19.52</time>
   <time name="orth">    0.45    0.46</time>
   <time name="total">   21.36   22.05</time>
   <energy>
    <i name="e_fr_energy">   -631.83647282 </i>
    <i name="e_wo_entrp">   -631.69922258 </i>
    <i name="e_0_energy">   -631.76784770 </i>
   </energy>
  </scstep>
  <scstep>
   <time name="diag">    1.79    1.83</time>
   <time name="diis">   18.15   18.75</time>
   <time name="orth">    0.45    0.46</time>
   <time name="total">   20.64   21.29</time>
   <energy>
    <i name="e_fr_energy">   -631.83671880 </i>
    <i name="e_wo_entrp">   -631.69958744 </i>
    <i name="e_0_energy">   -631.76815312 </i>
   </energy>
  </scstep>
  <scstep>
   <time name="diag">    1.79    1.83</time>
   <time name="diis">   18.18   18.75</time>
   <time name="orth">    0.45    0.46</time>
   <time name="total">   20.69   21.30</time>
   <energy>
    <i name="e_fr_energy">   -631.83683801 </i>
    <i name="e_wo_entrp">   -631.69968662 </i>
    <i name="e_0_energy">   -631.76826232 </i>
   </energy>
  </scstep>
  <scstep>
   <time name="diag">    1.80    1.83</time>
   <time name="diis">   17.68   17.88</time>
   <time name="orth">    0.46    0.46</time>
   <time name="total">   20.19   20.42</time>
   <energy>
    <i name="e_fr_energy">   -631.83693341 </i>
    <i name="e_wo_entrp">   -631.69978136 </i>
    <i name="e_0_energy">   -631.76835738 </i>
   </energy>
  </scstep>
  <scstep>
   <time name="diag">    1.80    1.84</time>
   <time name="diis">   16.81   17.36</time>
   <time name="orth">    0.46    0.46</time>
   <time name="total">   19.32   19.92</time>
   <energy>
    <i name="e_fr_energy">   -631.83699619 </i>
    <i name="e_wo_entrp">   -631.69985798 </i>
    <i name="e_0_energy">   -631.76842709 </i>
   </energy>
  </scstep>
  <scstep>
   <time name="diag">    1.78    1.82</time>
   <time name="diis">   16.25   16.76</time>
   <time name="orth">    0.45    0.46</time>
   <time name="total">   18.74   19.29</time>
   <energy>
    <i name="e_fr_energy">   -631.83704302 </i>
    <i name="e_wo_entrp">   -631.69989666 </i>
    <i name="e_0_energy">   -631.76846984 </i>
   </energy>
  </scstep>
  <scstep>
   <time name="diag">    1.79    1.83</time>
   <time name="diis">   16.04   16.15</time>
   <time name="orth">    0.46    0.46</time>
   <time name="total">   18.54   18.69</time>
   <energy>
    <i name="e_fr_energy">   -631.83707388 </i>
    <i name="e_wo_entrp">   -631.69991691 </i>
    <i name="e_0_energy">   -631.76849539 </i>
   </energy>
  </scstep>
  <scstep>
   <time name="diag">    1.79    1.82</time>
   <time name="diis">   16.03   16.07</time>
   <time name="orth">    0.46    0.46</time>
   <time name="total">   18.54   18.61</time>
   <energy>
    <i name="e_fr_energy">   -631.83709654 </i>
    <i name="e_wo_entrp">   -631.69994845 </i>
    <i name="e_0_energy">   -631.76852249 </i>
   </energy>
  </scstep>
  <scstep>
   <time name="diag">    1.83    1.88</time>
   <time name="diis">   15.36   15.77</time>
   <time name="orth">    0.46    0.46</time>
   <time name="total">   17.89   18.35</time>
   <energy>
    <i name="e_fr_energy">   -631.83711095 </i>
    <i name="e_wo_entrp">   -631.69996310 </i>
    <i name="e_0_energy">   -631.76853703 </i>
   </energy>
  </scstep>
  <scstep>
   <time name="diag">    1.82    1.82</time>
   <time name="diis">   14.93   14.94</time>
   <time name="orth">    0.46    0.46</time>
   <time name="total">   17.46   17.47</time>
   <energy>
    <i name="e_fr_energy">   -631.83712044 </i>
    <i name="e_wo_entrp">   -631.69997065 </i>
    <i name="e_0_energy">   -631.76854555 </i>
   </energy>
  </scstep>
  <scstep>
   <time name="diag">    1.82    1.82</time>
   <time name="diis">   14.54   14.56</time>
   <time name="orth">    0.46    0.46</time>
   <time name="total">   16.85   16.87</time>
   <energy>
    <i name="alphaZ">   4142.37212360 </i>
    <i name="ewald"> -45176.62073063 </i>
    <i name="hartreedc">  -9805.30353675 </i>
    <i name="XCdc">   2202.12355168 </i>
    <i name="pawpsdc">  36436.76878196 </i>
    <i name="pawaedc"> -36537.27567232 </i>
    <i name="eentropy">     -0.13714935 </i>
    <i name="bandstr">  -6181.51553604 </i>
    <i name="atom">  54287.75104140 </i>
    <i name="e_fr_energy">   -631.83712645 </i>
    <i name="e_wo_entrp">   -631.69997710 </i>
    <i name="e_0_energy">   -631.76855177 </i>
   </energy>
  </scstep>
  <structure>
   <crystal>
    <varray name="basis" >
     <v>       8.67813696       0.01620652       0.00217410 </v>
     <v>       0.02201766       8.71582325      -0.02280410 </v>
     <v>       0.03340209      -0.03761768       8.71683243 </v>
    </varray>
    <i name="volume">    659.30479274 </i>
    <varray name="rec_basis" >
     <v>       0.11523276      -0.00029226      -0.00044282 </v>
     <v>      -0.00021439       0.11473569       0.00049597 </v>
     <v>      -0.00002930       0.00030023       0.11472198 </v>
    </varray>
   </crystal>
   <varray name="positions" >
    <v>       0.99919431       0.00247634       0.99280274 </v>
    <v>       0.26784062       0.00165542       0.24582683 </v>
    <v>       0.24244419       0.49389228       0.24697457 </v>
    <v>       0.49791258       0.50117442       0.00061183 </v>
    <v>       0.51149627       0.24376999       0.74306382 </v>
    <v>       0.99973115       0.50013721       0.50485283 </v>
    <v>       0.49200938       0.75660242       0.75778506 </v>
    <v>       0.98683862       0.23299902       0.26709739 </v>
    <v>       0.76590181       0.74090698       0.99960092 </v>
    <v>       0.00272709       0.24905357       0.73301410 </v>
    <v>       0.76116679       0.24263936       0.48353577 </v>
    <v>       0.00232591       0.74034593       0.75693472 </v>
    <v>       0.24550110       0.48310167       0.75186972 </v>
    <v>       0.24509920       0.24806118       0.99116979 </v>
    <v>       0.50949137       0.25661234       0.25220646 </v>
    <v>       0.73716269       0.99727754       0.24636318 </v>
    <v>       0.75691355       0.25594068       0.00338236 </v>
    <v>       0.24249134       0.74821973       0.99535827 </v>
    <v>       0.25161609       0.24847287       0.50309151 </v>
    <v>       0.24795159       0.75317032       0.50609290 </v>
    <v>       0.24920105       0.24696772       0.24869631 </v>
    <v>       0.25369375       0.00310549       0.99314328 </v>
    <v>       0.00175205       0.25351941       0.00116624 </v>
    <v>       0.75196840       0.24618112       0.24805367 </v>
    <v>       0.74649612       0.99790677       0.00185776 </v>
    <v>       0.50881015       0.00312446       0.23825602 </v>
    <v>       0.99585094       0.49174956       0.24701594 </v>
    <v>       0.49917217       0.75882842       0.00654222 </v>
    <v>       0.99114058       0.00688398       0.74809811 </v>
    <v>       0.76145107       0.24620704       0.75044574 </v>
    <v>       0.74094497       0.01127630       0.49752918 </v>
    <v>       0.50175895       0.24297407       0.49296390 </v>
    <v>       0.51646046       0.00031802       0.75082150 </v>
    <v>       0.99637525       0.00419433       0.25143786 </v>
    <v>       0.50444154       0.24076279       0.00175039 </v>
    <v>       0.25463040       0.74895132       0.24883523 </v>
    <v>       0.24055950       0.49869415       0.99139491 </v>
    <v>       0.99949672       0.74487479       0.99573791 </v>
    <v>       0.74144220       0.75297784       0.24381899 </v>
    <v>       0.76170066       0.50250363       0.00082811 </v>
    <v>       0.50021574       0.49818307       0.25225444 </v>
    <v>       0.24577676       0.24870995       0.74794573 </v>
    <v>       0.25575292       0.00143010       0.50859436 </v>
    <v>       0.99971133       0.24909422       0.50120896 </v>
    <v>       0.23660560       0.75597250       0.75254986 </v>
    <v>       0.25130699       0.49785846       0.50510460 </v>
    <v>       0.99953867       0.75379412       0.50702132 </v>
    <v>       0.00601505       0.49711587       0.75861179 </v>
    <v>       0.75487538       0.75634724       0.75837367 </v>
    <v>       0.74667736       0.49548357       0.49912921 </v>
    <v>       0.49293519       0.76164363       0.49471046 </v>
    <v>       0.49696473       0.49984030       0.74779799 </v>
    <v>       0.52178506       0.01195078       0.97942341 </v>
    <v>       0.00274210       0.51242845       0.98270413 </v>
    <v>       0.49526373       0.73405416       0.25702757 </v>
    <v>       0.22982417       0.01858153       0.73955431 </v>
    <v>       0.48410448       0.98700568       0.53013764 </v>
    <v>       0.74273916       0.97446538       0.78198923 </v>
    <v>       0.00296389       0.76023664       0.24985252 </v>
    <v>       0.74997840       0.50435037       0.25118867 </v>
    <v>       0.00499303       0.00418427       0.50586782 </v>
    <v>       0.49637533       0.51059004       0.49996345 </v>
    <v>       0.75397772       0.50754734       0.75231181 </v>
    <v>       0.74571496       0.76062165       0.49664915 </v>
   </varray>
  </structure>
  <varray name="forces" >
   <v>       0.00636576      -0.00232885       0.00160446 </v>
   <v>      -0.02125588      -0.00490322       0.01094708 </v>
   <v>      -0.00503090      -0.00128221       0.00261546 </v>
   <v>      -0.00027475      -0.00175002      -0.01482197 </v>
   <v>       0.00037948       0.00371831      -0.00614409 </v>
   <v>       0.00139501       0.00248771       0.01098468 </v>
   <v>      -0.00163385      -0.01317574       0.00013259 </v>
   <v>      -0.00338273      -0.00986044       0.00128357 </v>
   <v>       0.01035634      -0.00815134      -0.00298293 </v>
   <v>       0.00883646      -0.00209425      -0.01161543 </v>
   <v>       0.00631972      -0.01142274      -0.00687443 </v>
   <v>       0.01154036       0.00633318       0.00779260 </v>
   <v>      -0.00325611      -0.00560455       0.00506732 </v>
   <v>       0.00877613       0.00009074      -0.00103929 </v>
   <v>       0.00184489       0.00827743       0.00467089 </v>
   <v>      -0.00888295      -0.00518452      -0.00968552 </v>
   <v>      -0.00372631      -0.00164965       0.00079089 </v>
   <v>      -0.00561357      -0.00714079       0.00425265 </v>
   <v>      -0.00829310       0.00408091       0.00031845 </v>
   <v>       0.01100642       0.00173781       0.00068751 </v>
   <v>      -0.01103648      -0.00405922      -0.00374210 </v>
   <v>       0.02042005      -0.00232704       0.00044961 </v>
   <v>       0.00378438      -0.00118857       0.00971631 </v>
   <v>       0.00733123      -0.00780577       0.00257736 </v>
   <v>      -0.01328862      -0.00950964       0.00514901 </v>
   <v>       0.02474380      -0.00785934       0.01178576 </v>
   <v>       0.00084328      -0.00780034      -0.00225825 </v>
   <v>      -0.00192145       0.00675696       0.00713195 </v>
   <v>       0.00460465      -0.00249733       0.00888762 </v>
   <v>       0.01436012      -0.00745788      -0.00425032 </v>
   <v>      -0.00816127       0.02239585       0.00962167 </v>
   <v>       0.00469609      -0.00218782      -0.00900049 </v>
   <v>      -0.00125066       0.00378196       0.01364470 </v>
   <v>      -0.00992981       0.00553851       0.00325696 </v>
   <v>       0.00070781      -0.00461123       0.00155599 </v>
   <v>       0.00906738       0.00036973       0.00198306 </v>
   <v>      -0.00885715      -0.00475533      -0.00804150 </v>
   <v>      -0.00057622      -0.01215677      -0.00639126 </v>
   <v>      -0.01350482       0.00503060      -0.01260168 </v>
   <v>       0.00652995       0.00353895      -0.00412764 </v>
   <v>       0.00318883       0.00397914       0.00038510 </v>
   <v>      -0.01055946       0.00090736      -0.00099870 </v>
   <v>       0.01275282       0.00245736       0.00642571 </v>
   <v>      -0.00639511       0.00746862      -0.00377290 </v>
   <v>      -0.00566655      -0.00128193      -0.00010473 </v>
   <v>      -0.00492358       0.00376837       0.00236190 </v>
   <v>      -0.00120438      -0.00204785       0.01223989 </v>
   <v>       0.01687006      -0.00611940       0.00170702 </v>
   <v>       0.00498615       0.01750304       0.01358118 </v>
   <v>      -0.00101425      -0.00148098      -0.00737208 </v>
   <v>      -0.01926123       0.01537397      -0.00374404 </v>
   <v>      -0.00374274       0.00116907       0.00265727 </v>
   <v>      -0.00368142       0.01096191      -0.00199641 </v>
   <v>      -0.00456062       0.00999639       0.00474193 </v>
   <v>       0.00128873      -0.00764070       0.00937701 </v>
   <v>       0.01775640       0.00913221      -0.01531216 </v>
   <v>      -0.00830520      -0.00365192      -0.00570557 </v>
   <v>      -0.00847360      -0.00552887      -0.00265423 </v>
   <v>      -0.00361572       0.00258170      -0.00800669 </v>
   <v>      -0.01100670       0.00588167      -0.00834966 </v>
   <v>      -0.00529523       0.00336718      -0.01589192 </v>
   <v>       0.00738525       0.00560114       0.00273795 </v>
   <v>      -0.00300451       0.00801797       0.00102197 </v>
   <v>       0.00244937      -0.00578951      -0.00665908 </v>
  </varray>
  <varray name="stress" >
   <v>     -11.01478593       0.38972621       0.07589672 </v>
   <v>       0.38972797     -12.88847537      -0.43942974 </v>
   <v>       0.07589527      -0.43942937     -10.44925666 </v>
  </varray>
  <energy>
   <i name="e_fr_energy">   -631.83712645 </i>
   <i name="e_wo_entrp">   -631.76855177 </i>
   <i name="e_0_energy">     -0.13714935 </i>
  </energy>
  <time name="totalsc">  841.35  852.15</time>
 </calculation>
 <calculation>
  <scstep>
   <time name="dav">   26.38   26.42</time>
   <time name="total">   26.63   26.67</time>
   <energy>
    <i name="alphaZ">   4186.82858567 </i>
    <i name="ewald"> -45336.91421471 </i>
    <i name="hartreedc">  -9841.01050556 </i>
    <i name="XCdc">   2210.05651458 </i>
    <i name="pawpsdc">  36436.79870780 </i>
    <i name="pawaedc"> -36537.28370268 </i>
    <i name="eentropy">     -0.12936350 </i>
    <i name="bandstr">  -6038.50936831 </i>
    <i name="atom">  54287.75104140 </i>
    <i name="e_fr_energy">   -632.41230531 </i>
    <i name="e_wo_entrp">   -632.28294180 </i>
    <i name="e_0_energy">   -632.34762356 </i>
   </energy>
  </scstep>
  <scstep>
   <time name="diag">    1.83    1.86</time>
   <time name="diis">   15.93   15.96</time>
   <time name="orth">    0.46    0.46</time>
   <time name="total">   18.46   18.52</time>
   <energy>
    <i name="e_fr_energy">   -634.67895666 </i>
    <i name="e_wo_entrp">   -634.53001792 </i>
    <i name="e_0_energy">   -634.60448729 </i>
   </energy>
  </scstep>
  <scstep>
   <time name="diag">    1.79    1.83</time>
   <time name="diis">   16.04   16.56</time>
   <time name="orth">    0.45    0.46</time>
   <time name="total">   18.53   19.10</time>
   <energy>
    <i name="e_fr_energy">   -632.52349465 </i>
    <i name="e_wo_entrp">   -632.38538062 </i>
    <i name="e_0_energy">   -632.45443763 </i>
   </energy>
  </scstep>
  <scstep>
   <time name="diag">    1.79    1.83</time>
   <time name="diis">   18.27   18.91</time>
   <time name="orth">    0.48    0.48</time>
   <time name="total">   20.78   21.48</time>
   <energy>
    <i name="e_fr_energy">   -631.94993344 </i>
    <i name="e_wo_entrp">   -631.81156104 </i>
    <i name="e_0_energy">   -631.88074724 </i>
   </energy>
  </scstep>
  <scstep>
   <time name="diag">    1.84    1.88</time>
   <time name="diis">   17.81   17.92</time>
   <time name="orth">    0.46    0.46</time>
   <time name="total">   20.36   20.51</time>
   <energy>
    <i name="e_fr_energy">   -631.99616842 </i>
    <i name="e_wo_entrp">   -631.86633175 </i>
    <i name="e_0_energy">   -631.93125008 </i>
   </energy>
  </scstep>
  <scstep>
   <time name="diag">    1.80    1.83</time>
   <time name="diis">   18.20   18.25</time>
   <time name="orth">    0.46    0.46</time>
   <time name="total">   20.71   20.79</time>
   <energy>
    <i name="e_fr_energy">   -631.85568364 </i>
    <i name="e_wo_entrp">   -631.72142469 </i>
    <i name="e_0_energy">   -631.78855417 </i>
   </energy>
  </scstep>
  <scstep>
   <time name="diag">    1.83    1.83</time>
   <time name="diis">   18.49   18.52</time>
   <time name="orth">    0.47    0.47</time>
   <time name="total">   21.03   21.07</time>
   <energy>
    <i name="e_fr_energy">   -631.84861872 </i>
    <i name="e_wo_entrp">   -631.71483765 </i>
    <i name="e_0_energy">   -631.78172819 </i>
   </energy>
  </scstep>
  <scstep>
   <time name="diag">    1.85    1.87</time>
   <time name="diis">   16.44   16.48</time>
   <time name="orth">    0.46    0.46</time>
   <time name="total">   19.00   19.05</time>
   <energy>
    <i name="e_fr_energy">   -631.83970105 </i>
    <i name="e_wo_entrp">   -631.70390537 </i>
    <i name="e_0_energy">   -631.77180321 </i>
   </energy>
  </scstep>
  <scstep>
   <time name="diag">    1.83    1.83</time>
   <time name="diis">   18.54   18.58</time>
   <time name="orth">    0.46    0.46</time>
   <time name="total">   21.07   21.11</time>
   <energy>
    <i name="e_fr_energy">   -631.81931382 </i>
    <i name="e_wo_entrp">   -631.68491256 </i>
    <i name="e_0_energy">   -631.75211319 </i>
   </energy>
  </scstep>
  <scstep>
   <time name="diag">    1.83    1.83</time>
   <time name="diis">   19.07   19.12</time>
   <time name="orth">    0.46    0.46</time>
   <time name="total">   21.60   21.66</time>
   <energy>
    <i name="e_fr_energy">   -631.81982898 </i>
    <i name="e_wo_entrp">   -631.68517279 </i>
    <i name="e_0_energy">   -631.75250088 </i>
   </energy>
  </scstep>
  <scstep>
   <time name="diag">    1.79    1.82</time>
   <time name="diis">   17.57   18.13</time>
   <time name="orth">    0.45    0.46</time>
   <time name="total">   20.06   20.67</time>
   <energy>
    <i name="e_fr_energy">   -631.81771725 </i>
    <i name="e_wo_entrp">   -631.68303702 </i>
    <i name="e_0_energy">   -631.75037713 </i>
   </energy>
  </scstep>
  <scstep>
   <time name="diag">    1.79    1.82</time>
   <time name="diis">   18.47   19.07</time>
   <time name="orth">    0.47    0.48</time>
   <time name="total">   20.99   21.63</time>
   <energy>
    <i name="e_fr_energy">   -631.81697897 </i>
    <i name="e_wo_entrp">   -631.68220111 </i>
    <i name="e_0_energy">   -631.74959004 </i>
   </energy>
  </scstep>
  <scstep>
   <time name="diag">    1.82    1.82</time>
   <time name="diis">   18.85   18.87</time>
   <time name="orth">    0.46    0.46</time>
   <time name="total">   21.38   21.40</time>
   <energy>
    <i name="e_fr_energy">   -631.81724247 </i>
    <i name="e_wo_entrp">   -631.68245340 </i>
    <i name="e_0_energy">   -631.74984794 </i>
   </energy>
  </scstep>
  <scstep>
   <time name="diag">    1.83    1.83</time>
   <time name="diis">   17.69   17.70</time>
   <time name="orth">    0.46    0.46</time>
   <time name="total">   20.22   20.24</time>
   <energy>
    <i name="e_fr_energy">   -631.81714697 </i>
    <i name="e_wo_entrp">   -631.68236861 </i>
    <i name="e_0_energy">   -631.74975779 </i>
   </energy>
  </scstep>
  <scstep>
   <time name="diag">    1.82    1.82</time>
   <time name="diis">   18.14   18.16</time>
   <time name="orth">    0.46    0.46</time>
   <time name="total">   20.67   20.68</time>
   <energy>
    <i name="e_fr_energy">   -631.81732561 </i>
    <i name="e_wo_entrp">   -631.68249067 </i>
    <i name="e_0_energy">   -631.74990814 </i>
   </energy>
  </scstep>
  <scstep>
   <time name="diag">    1.82    1.82</time>
   <time name="diis">   18.20   18.23</time>
   <time name="orth">    0.46    0.46</time>
   <time name="total">   20.71   20.75</time>
   <energy>
    <i name="e_fr_energy">   -631.81743928 </i>
    <i name="e_wo_entrp">   -631.68268300 </i>
    <i name="e_0_energy">   -631.75006114 </i>
   </energy>
  </scstep>
  <scstep>
   <time name="diag">    1.83    1.83</time>
   <time name="diis">   18.12   18.17</time>
   <time name="orth">    0.46    0.46</time>
   <time name="total">   20.66   20.71</time>
   <energy>
    <i name="e_fr_energy">   -631.81762208 </i>
    <i name="e_wo_entrp">   -631.68270196 </i>
    <i name="e_0_energy">   -631.75016202 </i>
   </energy>
  </scstep>
  <scstep>
   <time name="diag">    1.82    1.85</time>
   <time name="diis">   16.85   16.86</time>
   <time name="orth">    0.46    0.46</time>
   <time name="total">   19.38   19.42</time>
   <energy>
    <i name="e_fr_energy">   -631.81761783 </i>
    <i name="e_wo_entrp">   -631.68283675 </i>
    <i name="e_0_energy">   -631.75022729 </i>
   </energy>
  </scstep>
  <scstep>
   <time name="diag">    1.81    1.82</time>
   <time name="diis">   17.12   17.17</time>
   <time name="orth">    0.46    0.46</time>
   <time name="total">   19.63   19.69</time>
   <energy>
    <i name="e_fr_energy">   -631.81763362 </i>
    <i name="e_wo_entrp">   -631.68277966 </i>
    <i name="e_0_energy">   -631.75020664 </i>
   </energy>
  </scstep>
  <scstep>
   <time name="diag">    1.82    1.82</time>
   <time name="diis">   16.74   16.77</time>
   <time name="orth">    0.46    0.46</time>
   <time name="total">   19.26   19.29</time>
   <energy>
    <i name="e_fr_energy">   -631.81763662 </i>
    <i name="e_wo_entrp">   -631.68281666 </i>
    <i name="e_0_energy">   -631.75022664 </i>
   </energy>
  </scstep>
  <scstep>
   <time name="diag">    1.79    1.83</time>
   <time name="diis">   15.13   15.60</time>
   <time name="orth">    0.48    0.49</time>
   <time name="total">   17.43   17.95</time>
   <energy>
    <i name="alphaZ">   4186.82858567 </i>
    <i name="ewald"> -45336.91421471 </i>
    <i name="hartreedc">  -9748.61818518 </i>
    <i name="XCdc">   2204.93600605 </i>
    <i name="pawpsdc">  36563.59118485 </i>
    <i name="pawaedc"> -36663.21126458 </i>
    <i name="eentropy">     -0.13484102 </i>
    <i name="bandstr">  -6126.04595697 </i>
    <i name="atom">  54287.75104140 </i>
    <i name="e_fr_energy">   -631.81764449 </i>
    <i name="e_wo_entrp">   -631.68280347 </i>
    <i name="e_0_energy">   -631.75022398 </i>
   </energy>
  </scstep>
  <structure>
   <crystal>
    <varray name="basis" >
     <v>       8.64848864       0.01719052       0.00236915 </v>
     <v>       0.02299555       8.68098431      -0.02391769 </v>
     <v>       0.03348863      -0.03865141       8.68858493 </v>
    </varray>
    <i name="volume">    652.30418168 </i>
    <varray name="rec_basis" >
     <v>       0.11562787      -0.00030752      -0.00044704 </v>
     <v>      -0.00022912       0.11519633       0.00051334 </v>
     <v>      -0.00003216       0.00031719       0.11509508 </v>
    </varray>
   </crystal>
   <varray name="positions" >
    <v>       0.99922969       0.00246342       0.99281158 </v>
    <v>       0.26772229       0.00162876       0.24588738 </v>
    <v>       0.24241619       0.49388530       0.24698904 </v>
    <v>       0.49791140       0.50116438       0.00052977 </v>
    <v>       0.51149846       0.24379042       0.74302987 </v>
    <v>       0.99973864       0.50015123       0.50491366 </v>
    <v>       0.49200048       0.75652951       0.75778561 </v>
    <v>       0.98681992       0.23294451       0.26710435 </v>
    <v>       0.76595956       0.74086168       0.99958428 </v>
    <v>       0.00277650       0.24904161       0.73294977 </v>
    <v>       0.76120223       0.24257590       0.48349755 </v>
    <v>       0.00238981       0.74038106       0.75697792 </v>
    <v>       0.24548297       0.48307080       0.75189769 </v>
    <v>       0.24514801       0.24806157       0.99116403 </v>
    <v>       0.50950141       0.25665825       0.25223243 </v>
    <v>       0.73711359       0.99724870       0.24630951 </v>
    <v>       0.75689284       0.25593161       0.00338672 </v>
    <v>       0.24246015       0.74818036       0.99538171 </v>
    <v>       0.25156993       0.24849556       0.50309334 </v>
    <v>       0.24801274       0.75317984       0.50609672 </v>
    <v>       0.24913983       0.24694528       0.24867556 </v>
    <v>       0.25380730       0.00309241       0.99314571 </v>
    <v>       0.00177289       0.25351302       0.00121999 </v>
    <v>       0.75200921       0.24613790       0.24806781 </v>
    <v>       0.74642227       0.99785439       0.00188613 </v>
    <v>       0.50894756       0.00308098       0.23832110 </v>
    <v>       0.99585578       0.49170632       0.24700333 </v>
    <v>       0.49916124       0.75886601       0.00658180 </v>
    <v>       0.99116602       0.00687032       0.74814726 </v>
    <v>       0.76153110       0.24616551       0.75042208 </v>
    <v>       0.74089907       0.01140057       0.49758277 </v>
    <v>       0.50178528       0.24296169       0.49291405 </v>
    <v>       0.51645316       0.00033929       0.75089708 </v>
    <v>       0.99631990       0.00422517       0.25145598 </v>
    <v>       0.50444551       0.24073729       0.00175894 </v>
    <v>       0.25468076       0.74895332       0.24884620 </v>
    <v>       0.24051050       0.49866773       0.99135034 </v>
    <v>       0.99949383       0.74480735       0.99570237 </v>
    <v>       0.74136733       0.75300552       0.24374934 </v>
    <v>       0.76173700       0.50252305       0.00080531 </v>
    <v>       0.50023341       0.49820507       0.25225662 </v>
    <v>       0.24571807       0.24871506       0.74794023 </v>
    <v>       0.25582364       0.00144372       0.50862994 </v>
    <v>       0.99967576       0.24913553       0.50118820 </v>
    <v>       0.23657412       0.75596546       0.75254927 </v>
    <v>       0.25127952       0.49787943       0.50511773 </v>
    <v>       0.99953174       0.75378309       0.50708903 </v>
    <v>       0.00610889       0.49708186       0.75862113 </v>
    <v>       0.75490256       0.75644439       0.75844908 </v>
    <v>       0.74667190       0.49547520       0.49908838 </v>
    <v>       0.49282798       0.76172884       0.49468999 </v>
    <v>       0.49694385       0.49984687       0.74781272 </v>
    <v>       0.52176448       0.01201144       0.97941252 </v>
    <v>       0.00271650       0.51248395       0.98273053 </v>
    <v>       0.49527080       0.73401208       0.25707936 </v>
    <v>       0.22992308       0.01863153       0.73946967 </v>
    <v>       0.48405848       0.98698542       0.53010602 </v>
    <v>       0.74269218       0.97443480       0.78197447 </v>
    <v>       0.00294393       0.76025077       0.24980825 </v>
    <v>       0.74991731       0.50438284       0.25114255 </v>
    <v>       0.00496388       0.00420259       0.50577993 </v>
    <v>       0.49641625       0.51062103       0.49997867 </v>
    <v>       0.75396089       0.50759177       0.75231758 </v>
    <v>       0.74572880       0.76058942       0.49661221 </v>
   </varray>
  </structure>
  <varray name="forces" >
   <v>       0.00403685      -0.00954009       0.01766588 </v>
   <v>      -0.01736529      -0.00759854       0.01783396 </v>
   <v>       0.01131125       0.00393215      -0.00148656 </v>
   <v>      -0.00014528       0.00253167       0.01157072 </v>
   <v>      -0.01737929       0.01655119      -0.00781371 </v>
   <v>      -0.00406632       0.01137901      -0.01245829 </v>
   <v>      -0.01035785      -0.00870251      -0.00796512 </v>
   <v>       0.04167119       0.06428704      -0.05050454 </v>
   <v>      -0.04050893       0.03703236       0.00853808 </v>
   <v>      -0.00085345       0.00322817       0.04697638 </v>
   <v>      -0.03650459       0.02772034       0.03489717 </v>
   <v>      -0.01079298       0.04174813      -0.01506910 </v>
   <v>       0.02154108       0.04891505      -0.01321434 </v>
   <v>       0.02371899      -0.00493973       0.02488957 </v>
   <v>      -0.02333101      -0.01892294      -0.00163342 </v>
   <v>       0.03821212       0.01091752      -0.00427614 </v>
   <v>      -0.00379953      -0.02577903      -0.00731337 </v>
   <v>       0.02485943       0.01138841       0.01401549 </v>
   <v>       0.00594028       0.01398873      -0.02653789 </v>
   <v>      -0.00855827      -0.01217432      -0.01202812 </v>
   <v>      -0.02099051       0.00274958      -0.00639353 </v>
   <v>       0.06420561      -0.01793236      -0.03298606 </v>
   <v>       0.00345940       0.05808643       0.01182035 </v>
   <v>      -0.00381667      -0.01035725      -0.01518273 </v>
   <v>       0.00082535      -0.01194021       0.03918998 </v>
   <v>      -0.00238491      -0.03138606       0.02209800 </v>
   <v>      -0.01112802      -0.02510235      -0.04102823 </v>
   <v>       0.01363351       0.04454662       0.05166927 </v>
   <v>      -0.01884746      -0.02727042      -0.00708372 </v>
   <v>       0.03212902      -0.04378083      -0.01652863 </v>
   <v>      -0.03042776       0.01786586       0.04222914 </v>
   <v>       0.01318871      -0.02169048      -0.02477142 </v>
   <v>      -0.04586744      -0.00127782       0.00293164 </v>
   <v>      -0.00996540       0.00886817      -0.00720080 </v>
   <v>      -0.01335629       0.00299644       0.01448205 </v>
   <v>       0.01941940      -0.01126628       0.00437133 </v>
   <v>      -0.01138602      -0.00197329      -0.00391659 </v>
   <v>       0.01280808      -0.00271397      -0.00066993 </v>
   <v>      -0.02411866       0.01926080      -0.02952903 </v>
   <v>       0.00928584      -0.00936525       0.00252386 </v>
   <v>      -0.01566555       0.00114913      -0.00549720 </v>
   <v>       0.00690024       0.00392885       0.00091584 </v>
   <v>       0.00505299      -0.00031426      -0.01621393 </v>
   <v>       0.01260475       0.01549343      -0.00517503 </v>
   <v>      -0.00318900      -0.00062002      -0.00436387 </v>
   <v>      -0.00294820       0.00816765       0.01541569 </v>
   <v>       0.01356855      -0.00134490       0.02293835 </v>
   <v>       0.01491935      -0.01333909      -0.00267858 </v>
   <v>       0.01051130      -0.01121647      -0.00342911 </v>
   <v>      -0.00073513      -0.01968409       0.00373819 </v>
   <v>      -0.01272215       0.01320153      -0.01157674 </v>
   <v>      -0.02121486      -0.00260171      -0.00118603 </v>
   <v>      -0.06816739      -0.03527036       0.04105522 </v>
   <v>      -0.00093828      -0.05409548       0.06103017 </v>
   <v>       0.00511906       0.05014834      -0.01851317 </v>
   <v>       0.05165224      -0.04800040       0.03430804 </v>
   <v>       0.03591405       0.05841138      -0.05176736 </v>
   <v>       0.03877768       0.08833738      -0.06193356 </v>
   <v>      -0.01329461      -0.06558735      -0.00240948 </v>
   <v>       0.00677408      -0.02770470      -0.01436130 </v>
   <v>      -0.03055972      -0.01901192      -0.00754011 </v>
   <v>       0.00441548      -0.04180965      -0.00133682 </v>
   <v>      -0.00249366      -0.03609446      -0.01342007 </v>
   <v>      -0.00857541      -0.00642282       0.01988925 </v>
  </varray>
  <varray name="stress" >
   <v>      20.19275604      -0.08630782       0.22456095 </v>
   <v>      -0.08630620      21.06493710       0.05946035 </v>
   <v>       0.22455946       0.05946050      19.73316260 </v>
  </varray>
  <energy>
   <i name="e_fr_energy">   -631.81764449 </i>
   <i name="e_wo_entrp">   -631.75022398 </i>
   <i name="e_0_energy">     -0.13484102 </i>
  </energy>
  <time name="totalsc">  470.43  474.43</time>
 </calculation>
 <calculation>
  <scstep>
   <time name="dav">   26.18   26.22</time>
   <time name="total">   26.43   26.48</time>
   <energy>
    <i name="alphaZ">   4158.20880777 </i>
    <i name="ewald"> -45233.85713207 </i>
    <i name="hartreedc">  -9725.93433551 </i>
    <i name="XCdc">   2199.85133278 </i>
    <i name="pawpsdc">  36563.62806928 </i>
    <i name="pawaedc"> -36663.19005118 </i>
    <i name="eentropy">     -0.14005624 </i>
    <i name="bandstr">  -6218.41455445 </i>
    <i name="atom">  54287.75104140 </i>
    <i name="e_fr_energy">   -632.09687823 </i>
    <i name="e_wo_entrp">   -631.95682199 </i>
    <i name="e_0_energy">   -632.02685011 </i>
   </energy>
  </scstep>
  <scstep>
   <time name="diag">    1.85    1.86</time>
   <time name="diis">   16.86   16.88</time>
   <time name="orth">    0.47    0.47</time>
   <time name="total">   19.42   19.45</time>
   <energy>
    <i name="e_fr_energy">   -633.15428629 </i>
    <i name="e_wo_entrp">   -633.01373901 </i>
    <i name="e_0_energy">   -633.08401265 </i>
   </energy>
  </scstep>
  <scstep>
   <time name="diag">    1.82    1.85</time>
   <time name="diis">   15.91   16.05</time>
   <time name="orth">    0.46    0.46</time>
   <time name="total">   18.44   18.62</time>
   <energy>
    <i name="e_fr_energy">   -632.08918799 </i>
    <i name="e_wo_entrp">   -631.94911985 </i>
    <i name="e_0_energy">   -632.01915392 </i>
   </energy>
  </scstep>
  <scstep>
   <time name="diag">    1.84    1.86</time>
   <time name="diis">   18.57   18.59</time>
   <time name="orth">    0.46    0.46</time>
   <time name="total">   21.12   21.16</time>
   <energy>
    <i name="e_fr_energy">   -631.94299585 </i>
    <i name="e_wo_entrp">   -631.81062790 </i>
    <i name="e_0_energy">   -631.87681187 </i>
   </energy>
  </scstep>
  <scstep>
   <time name="diag">    1.79    1.83</time>
   <time name="diis">   17.31   17.90</time>
   <time name="orth">    0.46    0.47</time>
   <time name="total">   19.81   20.45</time>
   <energy>
    <i name="e_fr_energy">   -631.91300933 </i>
    <i name="e_wo_entrp">   -631.77384728 </i>
    <i name="e_0_energy">   -631.84342830 </i>
   </energy>
  </scstep>
  <scstep>
   <time name="diag">    1.82    1.86</time>
   <time name="diis">   17.99   18.57</time>
   <time name="orth">    0.46    0.46</time>
   <time name="total">   20.51   21.14</time>
   <energy>
    <i name="e_fr_energy">   -631.86806331 </i>
    <i name="e_wo_entrp">   -631.73225533 </i>
    <i name="e_0_energy">   -631.80015932 </i>
   </energy>
  </scstep>
  <scstep>
   <time name="diag">    1.83    1.83</time>
   <time name="diis">   17.85   17.87</time>
   <time name="orth">    0.46    0.46</time>
   <time name="total">   20.38   20.42</time>
   <energy>
    <i name="e_fr_energy">   -631.86476999 </i>
    <i name="e_wo_entrp">   -631.72824589 </i>
    <i name="e_0_energy">   -631.79650794 </i>
   </energy>
  </scstep>
  <scstep>
   <time name="diag">    1.79    1.83</time>
   <time name="diis">   17.35   17.45</time>
   <time name="orth">    0.46    0.46</time>
   <time name="total">   19.86   20.00</time>
   <energy>
    <i name="e_fr_energy">   -631.85525390 </i>
    <i name="e_wo_entrp">   -631.71933062 </i>
    <i name="e_0_energy">   -631.78729226 </i>
   </energy>
  </scstep>
  <scstep>
   <time name="diag">    1.81    1.84</time>
   <time name="diis">   18.30   18.36</time>
   <time name="orth">    0.46    0.46</time>
   <time name="total">   20.83   20.92</time>
   <energy>
    <i name="e_fr_energy">   -631.84797032 </i>
    <i name="e_wo_entrp">   -631.71182967 </i>
    <i name="e_0_energy">   -631.77990000 </i>
   </energy>
  </scstep>
  <scstep>
   <time name="diag">    1.79    1.82</time>
   <time name="diis">   18.23   18.83</time>
   <time name="orth">    0.45    0.46</time>
   <time name="total">   20.72   21.37</time>
   <energy>
    <i name="e_fr_energy">   -631.84834876 </i>
    <i name="e_wo_entrp">   -631.71159357 </i>
    <i name="e_0_energy">   -631.77997116 </i>
   </energy>
  </scstep>
  <scstep>
   <time name="diag">    1.79    1.83</time>
   <time name="diis">   16.87   17.44</time>
   <time name="orth">    0.45    0.46</time>
   <time name="total">   19.36   19.98</time>
   <energy>
    <i name="e_fr_energy">   -631.84663985 </i>
    <i name="e_wo_entrp">   -631.71040372 </i>
    <i name="e_0_energy">   -631.77852178 </i>
   </energy>
  </scstep>
  <scstep>
   <time name="diag">    1.86    1.89</time>
   <time name="diis">   17.72   18.04</time>
   <time name="orth">    0.46    0.46</time>
   <time name="total">   20.28   20.64</time>
   <energy>
    <i name="e_fr_energy">   -631.84628158 </i>
    <i name="e_wo_entrp">   -631.71000288 </i>
    <i name="e_0_energy">   -631.77814223 </i>
   </energy>
  </scstep>
  <scstep>
   <time name="diag">    1.82    1.82</time>
   <time name="diis">   17.40   17.44</time>
   <time name="orth">    0.46    0.46</time>
   <time name="total">   19.93   19.98</time>
   <energy>
    <i name="e_fr_energy">   -631.84636896 </i>
    <i name="e_wo_entrp">   -631.70995976 </i>
    <i name="e_0_energy">   -631.77816436 </i>
   </energy>
  </scstep>
  <scstep>
   <time name="diag">    1.82    1.83</time>
   <time name="diis">   16.54   16.60</time>
   <time name="orth">    0.46    0.46</time>
   <time name="total">   19.07   19.14</time>
   <energy>
    <i name="e_fr_energy">   -631.84625018 </i>
    <i name="e_wo_entrp">   -631.70999722 </i>
    <i name="e_0_energy">   -631.77812370 </i>
   </energy>
  </scstep>
  <scstep>
   <time name="diag">    1.82    1.83</time>
   <time name="diis">   17.53   17.58</time>
   <time name="orth">    0.46    0.46</time>
   <time name="total">   20.06   20.12</time>
   <energy>
    <i name="e_fr_energy">   -631.84629306 </i>
    <i name="e_wo_entrp">   -631.70996793 </i>
    <i name="e_0_energy">   -631.77813049 </i>
   </energy>
  </scstep>
  <scstep>
   <time name="diag">    1.79    1.83</time>
   <time name="diis">   16.43   17.02</time>
   <time name="orth">    0.47    0.48</time>
   <time name="total">   18.94   19.58</time>
   <energy>
    <i name="e_fr_energy">   -631.84630193 </i>
    <i name="e_wo_entrp">   -631.70999337 </i>
    <i name="e_0_energy">   -631.77814765 </i>
   </energy>
  </scstep>
  <scstep>
   <time name="diag">    1.80    1.84</time>
   <time name="diis">   16.49   16.59</time>
   <time name="orth">    0.46    0.46</time>
   <time name="total">   18.99   19.14</time>
   <energy>
    <i name="e_fr_energy">   -631.84634617 </i>
    <i name="e_wo_entrp">   -631.70997810 </i>
    <i name="e_0_energy">   -631.77816214 </i>
   </energy>
  </scstep>
  <scstep>
   <time name="diag">    1.79    1.82</time>
   <time name="diis">   15.33   15.84</time>
   <time name="orth">    0.45    0.46</time>
   <time name="total">   17.82   18.38</time>
   <energy>
    <i name="e_fr_energy">   -631.84634137 </i>
    <i name="e_wo_entrp">   -631.71004552 </i>
    <i name="e_0_energy">   -631.77819344 </i>
   </energy>
  </scstep>
  <scstep>
   <time name="diag">    1.82    1.82</time>
   <time name="diis">   17.04   17.06</time>
   <time name="orth">    0.45    0.45</time>
[...]
      </set>
     </set>
    </set>
   </array>
  </eigenvalues>
  <separator name="orbital magnetization" >
   <v name="MAGDIPOLOUT">      0.00000000      0.00000000      0.00000000</v>
  </separator>
  <dos>
   <i name="efermi">      8.78179261 </i>
   <total>
    <array>
     <dimension dim="1">gridpoints</dimension>
     <dimension dim="2">spin</dimension>
     <field>energy</field>
     <field>total</field>
     <field>integrated</field>
     <set>
      <set comment="spin 1">
       <r>   -59.6152     0.0000     0.0000 </r>
       <r>   -59.3648     0.0000     0.0000 </r>
       <r>   -59.1143     0.0000     0.0000 </r>
       <r>   -58.8639     0.0000     0.0000 </r>
       <r>   -58.6135     0.0000     0.0000 </r>
       <r>   -58.3631     0.0000     0.0000 </r>
       <r>   -58.1127     0.0000     0.0000 </r>
       <r>   -57.8623     0.0000     0.0000 </r>
       <r>   -57.6118     0.0000     0.0000 </r>
       <r>   -57.3614     0.0000     0.0000 </r>
       <r>   -57.1110     0.0000     0.0000 </r>
       <r>   -56.8606     0.0000     0.0000 </r>
       <r>   -56.6102     0.0000     0.0000 </r>
       <r>   -56.3598     0.1873     0.0469 </r>
       <r>   -56.1093    25.8589     6.5224 </r>
       <r>   -55.8589    21.7350    11.9652 </r>
       <r>   -55.6085     0.1390    12.0000 </r>
       <r>   -55.3581     0.0000    12.0000 </r>
       <r>   -55.1077     0.0000    12.0000 </r>
       <r>   -54.8573     0.0000    12.0000 </r>
       <r>   -54.6068     0.0000    12.0000 </r>
       <r>   -54.3564     0.0000    12.0000 </r>
       <r>   -54.1060     0.0000    12.0000 </r>
       <r>   -53.8556     0.0000    12.0000 </r>
       <r>   -53.6052     0.0000    12.0000 </r>
       <r>   -53.3548     0.0000    12.0000 </r>
       <r>   -53.1043     0.0000    12.0000 </r>
       <r>   -52.8539     0.0000    12.0000 </r>
       <r>   -52.6035     0.0000    12.0000 </r>
       <r>   -52.3531     0.0000    12.0000 </r>
       <r>   -52.1027     0.0000    12.0000 </r>
       <r>   -51.8523     0.0000    12.0000 </r>
       <r>   -51.6018     0.0000    12.0000 </r>
       <r>   -51.3514     0.0000    12.0000 </r>
       <r>   -51.1010     0.0000    12.0000 </r>
       <r>   -50.8506     0.0000    12.0000 </r>
       <r>   -50.6002     0.0000    12.0000 </r>
       <r>   -50.3498     0.0000    12.0000 </r>
       <r>   -50.0993     0.0000    12.0000 </r>
       <r>   -49.8489     0.0000    12.0000 </r>
       <r>   -49.5985     0.0000    12.0000 </r>
       <r>   -49.3481     0.0000    12.0000 </r>
       <r>   -49.0977     0.0007    12.0002 </r>
       <r>   -48.8473     6.0249    13.5089 </r>
       <r>   -48.5968    25.8493    19.9820 </r>
       <r>   -48.3464    14.3906    23.5856 </r>
       <r>   -48.0960     8.4132    25.6924 </r>
       <r>   -47.8456     1.2282    26.0000 </r>
       <r>   -47.5952     0.0000    26.0000 </r>
       <r>   -47.3448     0.0000    26.0000 </r>
       <r>   -47.0943     0.0715    26.0179 </r>
       <r>   -46.8439    14.7453    29.7104 </r>
       <r>   -46.5935    27.3864    36.5684 </r>
       <r>   -46.3431     5.7093    37.9981 </r>
       <r>   -46.0927     0.0077    38.0000 </r>
       <r>   -45.8423     0.0000    38.0000 </r>
       <r>   -45.5918     0.0000    38.0000 </r>
       <r>   -45.3414     0.0000    38.0000 </r>
       <r>   -45.0910     0.0000    38.0000 </r>
       <r>   -44.8406     0.0000    38.0000 </r>
       <r>   -44.5902     0.0000    38.0000 </r>
       <r>   -44.3398     0.0000    38.0000 </r>
       <r>   -44.0893     0.0000    38.0000 </r>
       <r>   -43.8389     0.0000    38.0000 </r>
       <r>   -43.5885     0.0000    38.0000 </r>
       <r>   -43.3381     0.0000    38.0000 </r>
       <r>   -43.0877     0.0000    38.0000 </r>
       <r>   -42.8373     0.0000    38.0000 </r>
       <r>   -42.5868     0.0000    38.0000 </r>
       <r>   -42.3364     0.0000    38.0000 </r>
       <r>   -42.0860     0.0000    38.0000 </r>
       <r>   -41.8356     0.0000    38.0000 </r>
       <r>   -41.5852     0.0000    38.0000 </r>
       <r>   -41.3348     0.0000    38.0000 </r>
       <r>   -41.0843     0.0000    38.0000 </r>
       <r>   -40.8339     0.0000    38.0000 </r>
       <r>   -40.5835     0.0000    38.0000 </r>
       <r>   -40.3331     0.0000    38.0000 </r>
       <r>   -40.0827     0.0000    38.0000 </r>
       <r>   -39.8323     0.0000    38.0000 </r>
       <r>   -39.5818     0.0000    38.0000 </r>
       <r>   -39.3314     0.0000    38.0000 </r>
       <r>   -39.0810     0.0000    38.0000 </r>
       <r>   -38.8306     0.0000    38.0000 </r>
       <r>   -38.5802     0.0000    38.0000 </r>
       <r>   -38.3298     0.0000    38.0000 </r>
       <r>   -38.0793     0.0000    38.0000 </r>
       <r>   -37.8289     0.0000    38.0000 </r>
       <r>   -37.5785     0.0000    38.0000 </r>
       <r>   -37.3281     0.0000    38.0000 </r>
       <r>   -37.0777     0.0000    38.0000 </r>
       <r>   -36.8273     0.0000    38.0000 </r>
       <r>   -36.5768     0.0000    38.0000 </r>
       <r>   -36.3264     0.0000    38.0000 </r>
       <r>   -36.0760     0.0000    38.0000 </r>
       <r>   -35.8256     0.0000    38.0000 </r>
       <r>   -35.5752     0.0000    38.0000 </r>
       <r>   -35.3248     0.0553    38.0139 </r>
       <r>   -35.0743     8.5698    40.1599 </r>
       <r>   -34.8239    76.7559    59.3808 </r>
       <r>   -34.5735    56.7998    73.6045 </r>
       <r>   -34.3231     1.5794    74.0000 </r>
       <r>   -34.0727     0.0000    74.0000 </r>
       <r>   -33.8223     0.0000    74.0000 </r>
       <r>   -33.5718     0.0000    74.0000 </r>
       <r>   -33.3214     0.0000    74.0000 </r>
       <r>   -33.0710     0.0000    74.0000 </r>
       <r>   -32.8206     0.0000    74.0000 </r>
       <r>   -32.5702     0.0000    74.0000 </r>
       <r>   -32.3198     0.0000    74.0000 </r>
       <r>   -32.0693     0.0000    74.0000 </r>
       <r>   -31.8189     0.0000    74.0000 </r>
       <r>   -31.5685     0.0000    74.0000 </r>
       <r>   -31.3181     0.0000    74.0000 </r>
       <r>   -31.0677     0.0000    74.0000 </r>
       <r>   -30.8173     0.0000    74.0000 </r>
       <r>   -30.5668     0.0009    74.0002 </r>
       <r>   -30.3164     4.4402    75.1121 </r>
       <r>   -30.0660    71.4460    93.0034 </r>
       <r>   -29.8156    65.7531   109.4691 </r>
       <r>   -29.5652     2.1202   110.0000 </r>
       <r>   -29.3148     0.0000   110.0000 </r>
       <r>   -29.0643     0.0000   110.0000 </r>
       <r>   -28.8139     0.0000   110.0000 </r>
       <r>   -28.5635     0.0000   110.0000 </r>
       <r>   -28.3131     0.0000   110.0000 </r>
       <r>   -28.0627     0.0000   110.0000 </r>
       <r>   -27.8123     0.0000   110.0000 </r>
       <r>   -27.5618     0.0000   110.0000 </r>
       <r>   -27.3114     0.0000   110.0000 </r>
       <r>   -27.0610     0.0000   110.0000 </r>
       <r>   -26.8106     0.0000   110.0000 </r>
       <r>   -26.5602     0.0000   110.0000 </r>
       <r>   -26.3098     0.0000   110.0000 </r>
       <r>   -26.0593     0.0000   110.0000 </r>
       <r>   -25.8089     0.0000   110.0000 </r>
       <r>   -25.5585     0.0036   110.0009 </r>
       <r>   -25.3081     8.6821   112.1751 </r>
       <r>   -25.0577    64.1140   128.2303 </r>
       <r>   -24.8073    54.3212   141.8332 </r>
       <r>   -24.5568    30.2332   149.4041 </r>
       <r>   -24.3064    10.3617   151.9988 </r>
       <r>   -24.0560     0.0046   152.0000 </r>
       <r>   -23.8056     0.0000   152.0000 </r>
       <r>   -23.5552     0.0003   152.0001 </r>
       <r>   -23.3048     4.8164   153.2062 </r>
       <r>   -23.0543    38.7040   162.8983 </r>
       <r>   -22.8039    69.6192   180.3321 </r>
       <r>   -22.5535    30.2581   187.9093 </r>
       <r>   -22.3031     0.3810   188.0047 </r>
       <r>   -22.0527    10.3175   190.5883 </r>
       <r>   -21.8023    25.6419   197.0095 </r>
       <r>   -21.5518    56.3744   211.1266 </r>
       <r>   -21.3014    55.5680   225.0417 </r>
       <r>   -21.0510    19.2032   229.8505 </r>
       <r>   -20.8006     0.5968   230.0000 </r>
       <r>   -20.5502     0.0000   230.0000 </r>
       <r>   -20.2998     0.0000   230.0000 </r>
       <r>   -20.0493     0.0000   230.0000 </r>
       <r>   -19.7989     0.0000   230.0000 </r>
       <r>   -19.5485     0.0000   230.0000 </r>
       <r>   -19.2981     0.0000   230.0000 </r>
       <r>   -19.0477     0.0000   230.0000 </r>
       <r>   -18.7973     0.0000   230.0000 </r>
       <r>   -18.5468     0.0000   230.0000 </r>
       <r>   -18.2964     0.0000   230.0000 </r>
       <r>   -18.0460     0.0000   230.0000 </r>
       <r>   -17.7956     0.0000   230.0000 </r>
       <r>   -17.5452     0.0000   230.0000 </r>
       <r>   -17.2948     0.0000   230.0000 </r>
       <r>   -17.0443     0.0000   230.0000 </r>
       <r>   -16.7939     0.0000   230.0000 </r>
       <r>   -16.5435     0.0000   230.0000 </r>
       <r>   -16.2931     0.0000   230.0000 </r>
       <r>   -16.0427     0.0000   230.0000 </r>
       <r>   -15.7922     0.0000   230.0000 </r>
       <r>   -15.5418     0.0000   230.0000 </r>
       <r>   -15.2914     0.0000   230.0000 </r>
       <r>   -15.0410     0.0000   230.0000 </r>
       <r>   -14.7906     0.0000   230.0000 </r>
       <r>   -14.5402     0.0000   230.0000 </r>
       <r>   -14.2897     0.0000   230.0000 </r>
       <r>   -14.0393     0.0000   230.0000 </r>
       <r>   -13.7889     0.0000   230.0000 </r>
       <r>   -13.5385     0.0000   230.0000 </r>
       <r>   -13.2881     0.0000   230.0000 </r>
       <r>   -13.0377     0.0000   230.0000 </r>
       <r>   -12.7872     0.0000   230.0000 </r>
       <r>   -12.5368     0.0000   230.0000 </r>
       <r>   -12.2864     0.0000   230.0000 </r>
       <r>   -12.0360     0.0000   230.0000 </r>
       <r>   -11.7856     0.0000   230.0000 </r>
       <r>   -11.5352     0.0000   230.0000 </r>
       <r>   -11.2847     0.0000   230.0000 </r>
       <r>   -11.0343     0.0000   230.0000 </r>
       <r>   -10.7839     0.0000   230.0000 </r>
       <r>   -10.5335     0.0000   230.0000 </r>
       <r>   -10.2831     0.0000   230.0000 </r>
       <r>   -10.0327     0.0000   230.0000 </r>
       <r>    -9.7822     0.0000   230.0000 </r>
       <r>    -9.5318     0.0000   230.0000 </r>
       <r>    -9.2814     0.0000   230.0000 </r>
       <r>    -9.0310     0.0000   230.0000 </r>
       <r>    -8.7806     0.0000   230.0000 </r>
       <r>    -8.5302     0.0000   230.0000 </r>
       <r>    -8.2797     0.0000   230.0000 </r>
       <r>    -8.0293     0.0000   230.0000 </r>
       <r>    -7.7789     0.0000   230.0000 </r>
       <r>    -7.5285     0.3896   230.0976 </r>
       <r>    -7.2781     6.7146   231.7790 </r>
       <r>    -7.0277     5.8507   233.2441 </r>
       <r>    -6.7772    10.1413   235.7837 </r>
       <r>    -6.5268     8.7880   237.9843 </r>
       <r>    -6.2764    11.0696   240.7564 </r>
       <r>    -6.0260    17.0894   245.0358 </r>
       <r>    -5.7756    28.0920   252.0706 </r>
       <r>    -5.5252    14.5691   255.7189 </r>
       <r>    -5.2747     1.1225   256.0000 </r>
       <r>    -5.0243     0.0000   256.0000 </r>
       <r>    -4.7739     0.0000   256.0000 </r>
       <r>    -4.5235     0.0000   256.0000 </r>
       <r>    -4.2731     0.0000   256.0000 </r>
       <r>    -4.0227     0.0001   256.0000 </r>
       <r>    -3.7722     0.5096   256.1276 </r>
       <r>    -3.5218     5.7001   257.5550 </r>
       <r>    -3.2714     3.4025   258.4071 </r>
       <r>    -3.0210     9.7394   260.8460 </r>
       <r>    -2.7706    12.1313   263.8838 </r>
       <r>    -2.5202    17.9488   268.3785 </r>
       <r>    -2.2697    23.5293   274.2707 </r>
       <r>    -2.0193    26.7966   280.9810 </r>
       <r>    -1.7689    22.3821   286.5858 </r>
       <r>    -1.5185    17.9221   291.0738 </r>
       <r>    -1.2681    10.2880   293.6501 </r>
       <r>    -1.0177     1.3863   293.9973 </r>
       <r>    -0.7672     0.0110   294.0000 </r>
       <r>    -0.5168     0.0000   294.0000 </r>
       <r>    -0.2664     0.0000   294.0000 </r>
       <r>    -0.0160     0.0000   294.0000 </r>
       <r>     0.2344     0.0000   294.0000 </r>
       <r>     0.4848     0.0000   294.0000 </r>
       <r>     0.7353     0.0000   294.0000 </r>
       <r>     0.9857     0.0102   294.0026 </r>
       <r>     1.2361     0.8367   294.2121 </r>
       <r>     1.4865     3.8903   295.1863 </r>
       <r>     1.7369    10.8829   297.9115 </r>
       <r>     1.9873    13.5574   301.3065 </r>
       <r>     2.2378    18.4510   305.9270 </r>
       <r>     2.4882    26.2524   312.5010 </r>
       <r>     2.7386    27.9869   319.5094 </r>
       <r>     2.9890    30.3638   327.1130 </r>
       <r>     3.2394    35.0866   335.8993 </r>
       <r>     3.4898    33.2271   344.2199 </r>
       <r>     3.7403    36.0694   353.2523 </r>
       <r>     3.9907    43.1242   364.0513 </r>
       <r>     4.2411    56.1135   378.1030 </r>
       <r>     4.4915    64.6085   394.2821 </r>
       <r>     4.7419    67.2068   411.1118 </r>
       <r>     4.9923    63.4831   427.0090 </r>
       <r>     5.2428    53.1666   440.3228 </r>
       <r>     5.4932    42.1986   450.8901 </r>
       <r>     5.7436    36.2465   459.9668 </r>
       <r>     5.9940    31.2816   467.8002 </r>
       <r>     6.2444    27.8112   474.7646 </r>
       <r>     6.4948    19.8459   479.7344 </r>
       <r>     6.7453    16.3547   483.8299 </r>
       <r>     6.9957     7.6349   485.7418 </r>
       <r>     7.2461     9.4592   488.1105 </r>
       <r>     7.4965    16.6678   492.2844 </r>
       <r>     7.7469    20.5165   497.4221 </r>
       <r>     7.9973    23.4406   503.2920 </r>
       <r>     8.2478    22.4693   508.9187 </r>
       <r>     8.4982    25.9062   515.4060 </r>
       <r>     8.7486    26.7165   522.0963 </r>
       <r>     8.9990    30.9673   529.8510 </r>
       <r>     9.2494    41.0744   540.1368 </r>
       <r>     9.4998    48.3589   552.2466 </r>
       <r>     9.7503    54.3938   565.8678 </r>
       <r>    10.0007    53.6212   579.2954 </r>
       <r>    10.2511    52.9329   592.5507 </r>
       <r>    10.5015    52.9707   605.8154 </r>
       <r>    10.7519    52.2831   618.9080 </r>
       <r>    11.0023    52.5429   632.0656 </r>
       <r>    11.2528    42.3849   642.6795 </r>
       <r>    11.5032    41.4260   653.0533 </r>
       <r>    11.7536    39.5782   662.9643 </r>
       <r>    12.0040    30.8219   670.6826 </r>
       <r>    12.2544     5.2471   671.9966 </r>
       <r>    12.5048     0.0136   672.0000 </r>
       <r>    12.7553     0.0000   672.0000 </r>
       <r>    13.0057     0.0000   672.0000 </r>
       <r>    13.2561     0.0000   672.0000 </r>
       <r>    13.5065     0.0000   672.0000 </r>
       <r>    13.7569     0.0000   672.0000 </r>
       <r>    14.0073     0.0000   672.0000 </r>
       <r>    14.2578     0.0000   672.0000 </r>
       <r>    14.5082     0.0000   672.0000 </r>
       <r>    14.7586     0.0000   672.0000 </r>
       <r>    15.0090     0.0000   672.0000 </r>
       <r>    15.2594     0.0000   672.0000 </r>
       <r>    15.5098     0.0000   672.0000 </r>
      </set>
     </set>
    </array>
   </total>
  </dos>
 </calculation>
 <structure name="finalpos" >
  <crystal>
   <varray name="basis" >
    <v>       8.66757305       0.01687232       0.00239444 </v>
    <v>       0.02268668       8.70109927      -0.02321675 </v>
    <v>       0.03358311      -0.03799053       8.70686770 </v>
   </varray>
   <i name="volume">    656.63774926 </i>
   <varray name="rec_basis" >
    <v>       0.11537326      -0.00030201      -0.00044632 </v>
    <v>      -0.00022386       0.11492993       0.00050234 </v>
    <v>      -0.00003233       0.00030654       0.11485333 </v>
   </varray>
  </crystal>
  <varray name="positions" >
   <v>       0.99944028       0.00246142       0.99286361 </v>
   <v>       0.26757640       0.00151906       0.24614532 </v>
   <v>       0.24246879       0.49388795       0.24697314 </v>
   <v>       0.49794521       0.50121898       0.00052005 </v>
   <v>       0.51138440       0.24379549       0.74295624 </v>
   <v>       0.99970866       0.50022826       0.50489850 </v>
   <v>       0.49204773       0.75661205       0.75770533 </v>
   <v>       0.98698367       0.23320110       0.26688671 </v>
   <v>       0.76585967       0.74111636       0.99949114 </v>
   <v>       0.00303464       0.24899553       0.73311590 </v>
   <v>       0.76120822       0.24295202       0.48357664 </v>
   <v>       0.00236254       0.74073372       0.75701560 </v>
   <v>       0.24557322       0.48338171       0.75187930 </v>
   <v>       0.24552033       0.24796348       0.99123903 </v>
   <v>       0.50940769       0.25649493       0.25221165 </v>
   <v>       0.73724995       0.99730011       0.24616330 </v>
   <v>       0.75677093       0.25560819       0.00332836 </v>
   <v>       0.24259467       0.74822258       0.99550022 </v>
   <v>       0.25139700       0.24860600       0.50302513 </v>
   <v>       0.24797081       0.75315515       0.50602320 </v>
   <v>       0.24893748       0.24691026       0.24859188 </v>
   <v>       0.25434250       0.00288835       0.99312763 </v>
   <v>       0.00187069       0.25370554       0.00137541 </v>
   <v>       0.75195520       0.24605266       0.24798706 </v>
   <v>       0.74641870       0.99772011       0.00200422 </v>
   <v>       0.50885950       0.00280547       0.23888751 </v>
   <v>       0.99581720       0.49148515       0.24672592 </v>
   <v>       0.49925211       0.75918152       0.00673874 </v>
   <v>       0.99139547       0.00657963       0.74816579 </v>
   <v>       0.76166729       0.24562678       0.75033649 </v>
   <v>       0.74069908       0.01154064       0.49800866 </v>
   <v>       0.50185690       0.24290179       0.49276864 </v>
   <v>       0.51579267       0.00039550       0.75093537 </v>
   <v>       0.99623817       0.00419562       0.25141252 </v>
   <v>       0.50435961       0.24079402       0.00179033 </v>
   <v>       0.25462236       0.74886568       0.24887973 </v>
   <v>       0.24055972       0.49864440       0.99136694 </v>
   <v>       0.99955881       0.74478559       0.99569017 </v>
   <v>       0.74121869       0.75302063       0.24364846 </v>
   <v>       0.76166398       0.50243890       0.00071505 </v>
   <v>       0.50017554       0.49821513       0.25221583 </v>
   <v>       0.24581860       0.24876954       0.74793045 </v>
   <v>       0.25572566       0.00151280       0.50852868 </v>
   <v>       0.99973974       0.24922413       0.50115602 </v>
   <v>       0.23664449       0.75590700       0.75253200 </v>
   <v>       0.25127210       0.49801154       0.50514753 </v>
   <v>       0.99948863       0.75383294       0.50716362 </v>
   <v>       0.00618419       0.49704621       0.75868284 </v>
   <v>       0.75490056       0.75655779       0.75841502 </v>
   <v>       0.74667870       0.49538407       0.49905018 </v>
   <v>       0.49277765       0.76182451       0.49463506 </v>
   <v>       0.49692313       0.49987155       0.74777550 </v>
   <v>       0.52123979       0.01186578       0.97960669 </v>
   <v>       0.00264790       0.51219155       0.98301014 </v>
   <v>       0.49539288       0.73421193       0.25708954 </v>
   <v>       0.23058514       0.01831538       0.73938058 </v>
   <v>       0.48413121       0.98725901       0.52980133 </v>
   <v>       0.74263362       0.97505262       0.78182648 </v>
   <v>       0.00275809       0.75997761       0.24968967 </v>
   <v>       0.74984862       0.50423758       0.25096060 </v>
   <v>       0.00474497       0.00418955       0.50576251 </v>
   <v>       0.49645257       0.51048915       0.49992757 </v>
   <v>       0.75403931       0.50752880       0.75234091 </v>
   <v>       0.74560633       0.76053122       0.49669651 </v>
  </varray>
 </structure>
</modeling>
