  64  64   0   0
  0.1071860E+02  0.8790748E-09  0.8842321E-09  0.8825549E-09  0.5000000E-15
  1.000000000000000E-004
  CAR 
 HECN                                    
     12.66223207    -38.79329456  301      7.39058632      1.00000000
    -38.793  0.0000E+00  0.0000E+00
    -38.622  0.0000E+00  0.0000E+00
    -38.450  0.0000E+00  0.0000E+00
    -38.279  0.0000E+00  0.0000E+00
    -38.107  0.0000E+00  0.0000E+00
    -37.936  0.0000E+00  0.0000E+00
    -37.764  0.0000E+00  0.0000E+00
    -37.593  0.0000E+00  0.0000E+00
    -37.421  0.0000E+00  0.0000E+00
    -37.250  0.0000E+00  0.0000E+00
    -37.078  0.0000E+00  0.0000E+00
    -36.907  0.9341E-11  0.1602E-11
    -36.735  0.4196E-05  0.7197E-06
    -36.564  0.7155E-02  0.1228E-02
    -36.392  0.1105E+00  0.2018E-01
    -36.221  0.5535E+00  0.1151E+00
    -36.049  0.8252E+00  0.2567E+00
    -35.877  0.5153E+00  0.3451E+00
    -35.706  0.8659E-01  0.3599E+00
    -35.534  0.5681E-03  0.3600E+00
    -35.363  0.2291E-07  0.3600E+00
    -35.191  0.3426E-14  0.3600E+00
    -35.020  0.0000E+00  0.3600E+00
    -34.848  0.0000E+00  0.3600E+00
    -34.677  0.0000E+00  0.3600E+00
    -34.505  0.0000E+00  0.3600E+00
    -34.334  0.0000E+00  0.3600E+00
    -34.162  0.0000E+00  0.3600E+00
    -33.991  0.0000E+00  0.3600E+00
    -33.819  0.0000E+00  0.3600E+00
    -33.648  0.0000E+00  0.3600E+00
    -33.476  0.0000E+00  0.3600E+00
    -33.305  0.0000E+00  0.3600E+00
    -33.133  0.0000E+00  0.3600E+00
    -32.962  0.0000E+00  0.3600E+00
    -32.790  0.0000E+00  0.3600E+00
    -32.619  0.0000E+00  0.3600E+00
    -32.447  0.0000E+00  0.3600E+00
    -32.276  0.6473E-17  0.3600E+00
    -32.104  0.1641E-09  0.3600E+00
    -31.933  0.2559E-04  0.3600E+00
    -31.761  0.1778E-01  0.3631E+00
    -31.590  0.3064E+00  0.4156E+00
    -31.418  0.9794E+00  0.5836E+00
    -31.246  0.6712E+00  0.6987E+00
    -31.075  0.1224E+00  0.7197E+00
    -30.903  0.1721E-02  0.7200E+00
    -30.732  0.2103E-06  0.7200E+00
    -30.560  0.9685E-13  0.7200E+00
    -30.389  0.0000E+00  0.7200E+00
    -30.217  0.0000E+00  0.7200E+00
    -30.046  0.0000E+00  0.7200E+00
    -29.874  0.0000E+00  0.7200E+00
    -29.703  0.0000E+00  0.7200E+00
    -29.531  0.0000E+00  0.7200E+00
    -29.360  0.0000E+00  0.7200E+00
    -29.188  0.0000E+00  0.7200E+00
    -29.017  0.0000E+00  0.7200E+00
    -28.845  0.0000E+00  0.7200E+00
    -28.674  0.0000E+00  0.7200E+00
    -28.502  0.3474E-15  0.7200E+00
    -28.331  0.4683E-08  0.7200E+00
    -28.159  0.2352E-03  0.7200E+00
    -27.988  0.6901E-01  0.7319E+00
    -27.816  0.4472E+00  0.8086E+00
    -27.645  0.7658E+00  0.9399E+00
    -27.473  0.7172E+00  0.1063E+01
    -27.302  0.9906E-01  0.1080E+01
    -27.130  0.3799E-03  0.1080E+01
    -26.959  0.1018E-07  0.1080E+01
    -26.787  0.1059E-14  0.1080E+01
    -26.615  0.0000E+00  0.1080E+01
    -26.444  0.0000E+00  0.1080E+01
    -26.272  0.0000E+00  0.1080E+01
    -26.101  0.0000E+00  0.1080E+01
    -25.929  0.0000E+00  0.1080E+01
    -25.758  0.0000E+00  0.1080E+01
    -25.586  0.0000E+00  0.1080E+01
    -25.415  0.0000E+00  0.1080E+01
    -25.243  0.0000E+00  0.1080E+01
    -25.072  0.0000E+00  0.1080E+01
    -24.900  0.0000E+00  0.1080E+01
    -24.729  0.0000E+00  0.1080E+01
    -24.557  0.0000E+00  0.1080E+01
    -24.386  0.0000E+00  0.1080E+01
    -24.214  0.0000E+00  0.1080E+01
    -24.043  0.4354E-14  0.1080E+01
    -23.871  0.2571E-07  0.1080E+01
    -23.700  0.5668E-03  0.1080E+01
    -23.528  0.8412E-01  0.1095E+01
    -23.357  0.2849E+00  0.1143E+01
    -23.185  0.4983E+00  0.1229E+01
    -23.014  0.9008E+00  0.1383E+01
    -22.842  0.5833E+00  0.1483E+01
    -22.671  0.9519E-01  0.1500E+01
    -22.499  0.1489E-02  0.1500E+01
    -22.328  0.1816E-06  0.1500E+01
    -22.156  0.7944E-13  0.1500E+01
    -21.984  0.0000E+00  0.1500E+01
    -21.813  0.0000E+00  0.1500E+01
    -21.641  0.0000E+00  0.1500E+01
    -21.470  0.0000E+00  0.1500E+01
    -21.298  0.0000E+00  0.1500E+01
    -21.127  0.0000E+00  0.1500E+01
    -20.955  0.0000E+00  0.1500E+01
    -20.784  0.0000E+00  0.1500E+01
    -20.612  0.0000E+00  0.1500E+01
    -20.441  0.0000E+00  0.1500E+01
    -20.269  0.0000E+00  0.1500E+01
    -20.098  0.0000E+00  0.1500E+01
    -19.926  0.0000E+00  0.1500E+01
    -19.755  0.0000E+00  0.1500E+01
    -19.583  0.0000E+00  0.1500E+01
    -19.412  0.0000E+00  0.1500E+01
    -19.240  0.0000E+00  0.1500E+01
    -19.069  0.0000E+00  0.1500E+01
    -18.897  0.0000E+00  0.1500E+01
    -18.726  0.0000E+00  0.1500E+01
    -18.554  0.0000E+00  0.1500E+01
    -18.383  0.0000E+00  0.1500E+01
    -18.211  0.0000E+00  0.1500E+01
    -18.040  0.0000E+00  0.1500E+01
    -17.868  0.0000E+00  0.1500E+01
    -17.697  0.0000E+00  0.1500E+01
    -17.525  0.0000E+00  0.1500E+01
    -17.353  0.0000E+00  0.1500E+01
    -17.182  0.0000E+00  0.1500E+01
    -17.010  0.0000E+00  0.1500E+01
    -16.839  0.0000E+00  0.1500E+01
    -16.667  0.0000E+00  0.1500E+01
    -16.496  0.0000E+00  0.1500E+01
    -16.324  0.0000E+00  0.1500E+01
    -16.153  0.0000E+00  0.1500E+01
    -15.981  0.0000E+00  0.1500E+01
    -15.810  0.0000E+00  0.1500E+01
    -15.638  0.0000E+00  0.1500E+01
    -15.467  0.0000E+00  0.1500E+01
    -15.295  0.0000E+00  0.1500E+01
    -15.124  0.0000E+00  0.1500E+01
    -14.952  0.0000E+00  0.1500E+01
    -14.781  0.0000E+00  0.1500E+01
    -14.609  0.0000E+00  0.1500E+01
    -14.438  0.0000E+00  0.1500E+01
    -14.266  0.0000E+00  0.1500E+01
    -14.095  0.0000E+00  0.1500E+01
    -13.923  0.0000E+00  0.1500E+01
    -13.752  0.0000E+00  0.1500E+01
    -13.580  0.0000E+00  0.1500E+01
    -13.409  0.0000E+00  0.1500E+01
    -13.237  0.0000E+00  0.1500E+01
    -13.066  0.0000E+00  0.1500E+01
    -12.894  0.0000E+00  0.1500E+01
    -12.722  0.0000E+00  0.1500E+01
    -12.551  0.0000E+00  0.1500E+01
    -12.379  0.0000E+00  0.1500E+01
    -12.208  0.0000E+00  0.1500E+01
    -12.036  0.0000E+00  0.1500E+01
    -11.865  0.0000E+00  0.1500E+01
    -11.693  0.0000E+00  0.1500E+01
    -11.522  0.0000E+00  0.1500E+01
    -11.350  0.0000E+00  0.1500E+01
    -11.179  0.0000E+00  0.1500E+01
    -11.007  0.0000E+00  0.1500E+01
    -10.836  0.0000E+00  0.1500E+01
    -10.664  0.0000E+00  0.1500E+01
    -10.493  0.0000E+00  0.1500E+01
    -10.321  0.0000E+00  0.1500E+01
    -10.150  0.0000E+00  0.1500E+01
     -9.978  0.0000E+00  0.1500E+01
     -9.807  0.0000E+00  0.1500E+01
     -9.635  0.0000E+00  0.1500E+01
     -9.464  0.0000E+00  0.1500E+01
     -9.292  0.0000E+00  0.1500E+01
     -9.121  0.8153E-15  0.1500E+01
     -8.949  0.2987E-08  0.1500E+01
     -8.778  0.4669E-04  0.1500E+01
     -8.606  0.8160E-02  0.1501E+01
     -8.435  0.6831E-01  0.1513E+01
     -8.263  0.7787E-01  0.1526E+01
     -8.091  0.8363E-01  0.1541E+01
     -7.920  0.1010E+00  0.1558E+01
     -7.748  0.1389E+00  0.1582E+01
     -7.577  0.2151E+00  0.1619E+01
     -7.405  0.2765E+00  0.1666E+01
     -7.234  0.1550E+00  0.1693E+01
     -7.062  0.2532E+00  0.1736E+01
     -6.891  0.1340E+00  0.1759E+01
     -6.719  0.4168E-02  0.1760E+01
     -6.548  0.1190E-05  0.1760E+01
     -6.376  0.1355E-11  0.1760E+01
     -6.205  0.0000E+00  0.1760E+01
     -6.033  0.0000E+00  0.1760E+01
     -5.862  0.1781E-15  0.1760E+01
     -5.690  0.1315E-08  0.1760E+01
     -5.519  0.3515E-04  0.1760E+01
     -5.347  0.6582E-02  0.1761E+01
     -5.176  0.5287E-01  0.1770E+01
     -5.004  0.5301E-01  0.1779E+01
     -4.833  0.6705E-02  0.1780E+01
     -4.661  0.6449E-01  0.1792E+01
     -4.490  0.1046E+00  0.1809E+01
     -4.318  0.1098E+00  0.1828E+01
     -4.147  0.1221E+00  0.1849E+01
     -3.975  0.1789E+00  0.1880E+01
     -3.804  0.2219E+00  0.1918E+01
     -3.632  0.2295E+00  0.1957E+01
     -3.460  0.2459E+00  0.2000E+01
     -3.289  0.2417E+00  0.2041E+01
     -3.117  0.2156E+00  0.2078E+01
     -2.946  0.1546E+00  0.2104E+01
     -2.774  0.1140E+00  0.2124E+01
     -2.603  0.7025E-01  0.2136E+01
     -2.431  0.2244E-01  0.2140E+01
     -2.260  0.5675E-03  0.2140E+01
     -2.088  0.2907E-06  0.2140E+01
     -1.917  0.8563E-12  0.2140E+01
     -1.745  0.0000E+00  0.2140E+01
     -1.574  0.0000E+00  0.2140E+01
     -1.402  0.0000E+00  0.2140E+01
     -1.231  0.0000E+00  0.2140E+01
     -1.059  0.0000E+00  0.2140E+01
     -0.888  0.2158E-17  0.2140E+01
     -0.716  0.4428E-10  0.2140E+01
     -0.545  0.3202E-05  0.2140E+01
     -0.373  0.1158E-02  0.2140E+01
     -0.202  0.8558E-02  0.2142E+01
     -0.030  0.1258E-01  0.2144E+01
      0.141  0.6733E-01  0.2155E+01
      0.313  0.9695E-01  0.2172E+01
      0.484  0.8986E-01  0.2187E+01
      0.656  0.1634E+00  0.2215E+01
      0.827  0.1618E+00  0.2243E+01
      0.999  0.2307E+00  0.2283E+01
      1.170  0.3043E+00  0.2335E+01
      1.342  0.2850E+00  0.2384E+01
      1.514  0.2359E+00  0.2424E+01
      1.685  0.3015E+00  0.2476E+01
      1.857  0.3349E+00  0.2533E+01
      2.028  0.3174E+00  0.2588E+01
      2.200  0.3248E+00  0.2644E+01
      2.371  0.3882E+00  0.2710E+01
      2.543  0.4609E+00  0.2789E+01
      2.714  0.5438E+00  0.2883E+01
      2.886  0.5689E+00  0.2980E+01
      3.057  0.6406E+00  0.3090E+01
      3.229  0.6914E+00  0.3209E+01
      3.400  0.6837E+00  0.3326E+01
      3.572  0.6078E+00  0.3430E+01
      3.743  0.5532E+00  0.3525E+01
      3.915  0.5252E+00  0.3615E+01
      4.086  0.4643E+00  0.3695E+01
      4.258  0.3843E+00  0.3761E+01
      4.429  0.3504E+00  0.3821E+01
      4.601  0.3046E+00  0.3873E+01
      4.772  0.2956E+00  0.3924E+01
      4.944  0.2389E+00  0.3965E+01
      5.115  0.2000E+00  0.3999E+01
      5.287  0.1500E+00  0.4025E+01
      5.458  0.1329E+00  0.4047E+01
      5.630  0.6830E-01  0.4059E+01
      5.801  0.8093E-01  0.4073E+01
      5.973  0.1355E+00  0.4096E+01
      6.145  0.1660E+00  0.4125E+01
      6.316  0.1903E+00  0.4157E+01
      6.488  0.2344E+00  0.4198E+01
      6.659  0.2237E+00  0.4236E+01
      6.831  0.1973E+00  0.4270E+01
      7.002  0.2566E+00  0.4314E+01
      7.174  0.3159E+00  0.4368E+01
      7.345  0.2942E+00  0.4418E+01
      7.517  0.2631E+00  0.4464E+01
      7.688  0.2899E+00  0.4513E+01
      7.860  0.3996E+00  0.4582E+01
      8.031  0.4696E+00  0.4662E+01
      8.203  0.4930E+00  0.4747E+01
      8.374  0.4779E+00  0.4829E+01
      8.546  0.4836E+00  0.4912E+01
      8.717  0.4643E+00  0.4992E+01
      8.889  0.4558E+00  0.5070E+01
      9.060  0.4109E+00  0.5140E+01
      9.232  0.3924E+00  0.5207E+01
      9.403  0.3746E+00  0.5272E+01
      9.575  0.3993E+00  0.5340E+01
      9.746  0.3810E+00  0.5406E+01
      9.918  0.3694E+00  0.5469E+01
     10.089  0.3520E+00  0.5529E+01
     10.261  0.3124E+00  0.5583E+01
     10.432  0.9826E-01  0.5600E+01
     10.604  0.1701E-02  0.5600E+01
     10.776  0.4362E-06  0.5600E+01
     10.947  0.7492E-12  0.5600E+01
     11.119  0.0000E+00  0.5600E+01
     11.290  0.0000E+00  0.5600E+01
     11.462  0.0000E+00  0.5600E+01
     11.633  0.0000E+00  0.5600E+01
     11.805  0.0000E+00  0.5600E+01
     11.976  0.0000E+00  0.5600E+01
     12.148  0.0000E+00  0.5600E+01
     12.319  0.0000E+00  0.5600E+01
     12.491  0.0000E+00  0.5600E+01
     12.662  0.0000E+00  0.5600E+01
