 vasp.5.4.4.18Apr17-6-g9f103f2a35 (build Oct 18 2021 20:38:43) complex          
  
 executed on             LinuxIFC date 2024.06.24  10:46:28
 running on   24 total cores
 distrk:  each k-point on   24 cores,    1 groups
 distr:  one band on NCORES_PER_BAND=   1 cores,   24 groups


--------------------------------------------------------------------------------------------------------


 INCAR:
 POTCAR:   PAW_PBE V_sv 07Sep2000                 
 POTCAR:   PAW_PBE Ta_pv 07Sep2000                
 POTCAR:   PAW_PBE Zr_sv 07Sep2000                
 POTCAR:   PAW_PBE N 08Apr2002                    
 POTCAR:   PAW_PBE C 08Apr2002                    
 POTCAR:   PAW_PBE Cr_pv 07Sep2000                
 POTCAR:   PAW_PBE W_pv 06Sep2000                 

 ----------------------------------------------------------------------------- 
|                                                                             |
|           W    W    AA    RRRRR   N    N  II  N    N   GGGG   !!!           |
|           W    W   A  A   R    R  NN   N  II  NN   N  G    G  !!!           |
|           W    W  A    A  R    R  N N  N  II  N N  N  G       !!!           |
|           W WW W  AAAAAA  RRRRR   N  N N  II  N  N N  G  GGG   !            |
|           WW  WW  A    A  R   R   N   NN  II  N   NN  G    G                |
|           W    W  A    A  R    R  N    N  II  N    N   GGGG   !!!           |
|                                                                             |
|      For optimal performance we recommend to set                            |
|        NCORE= 4 - approx SQRT( number of cores)                             |
|      NCORE specifies how many cores store one orbital (NPAR=cpu/NCORE).     |
|      This setting can  greatly improve the performance of VASP for DFT.     |
|      The default,   NCORE=1            might be grossly inefficient         |
|      on modern multi-core architectures or massively parallel machines.     |
|      Do your own testing !!!!                                               |
|      Unfortunately you need to use the default for GW and RPA calculations. |
|      (for HF NCORE is supported but not extensively tested yet)             |
|                                                                             |
 ----------------------------------------------------------------------------- 

 POTCAR:   PAW_PBE V_sv 07Sep2000                 
   VRHFIN =V: p6 d4 s1                                                          
   LEXCH  = PE                                                                  
   EATOM  =  1951.3925 eV,  143.4233 Ry                                         
                                                                                
   TITEL  = PAW_PBE V_sv 07Sep2000                                              
   LULTRA =        F    use ultrasoft PP ?                                      
   IUNSCR =        1    unscreen: 0-lin 1-nonlin 2-no                           
   RPACOR =    2.000    partial core radius                                     
   POMASS =   50.941; ZVAL   =   13.000    mass and valenz                      
   RCORE  =    2.300    outmost cutoff radius                                   
   RWIGS  =    2.300; RWIGS  =    1.217    wigner-seitz radius (au A)           
   ENMAX  =  263.675; ENMIN  =  197.756 eV                                      
   RCLOC  =    1.779    cutoff for local pot                                    
   LCOR   =        T    correct aug charges                                     
   LPAW   =        T    paw PP                                                  
   EAUG   =  526.568                                                            
   DEXC   =     .000                                                            
   RMAX   =    2.839    core radius for proj-oper                               
   RAUG   =    1.300    factor for augmentation sphere                          
   RDEP   =    2.430    radius for radial grids                                 
   QCUT   =   -4.402; QGAM   =    8.804    optimization parameters              
                                                                                
   Description                                                                  
     l     E      TYP  RCUT    TYP  RCUT                                        
     0   .000     23  1.800                                                     
     0   .000     23  2.300                                                     
     0   .000     23  1.800                                                     
     0   .000     23  2.300                                                     
     1   .000     23  2.000                                                     
     1   .400     23  2.000                                                     
     2   .000     23  2.300                                                     
     2   .000     23  2.300                                                     
     3   .000      7   .000                                                     
  local pseudopotential read in
  partial core-charges read in
  atomic valenz-charges read in
  non local Contribution for L=           0  read in
    real space projection operators read in
  non local Contribution for L=           0  read in
    real space projection operators read in
  non local Contribution for L=           1  read in
    real space projection operators read in
  non local Contribution for L=           1  read in
    real space projection operators read in
  non local Contribution for L=           2  read in
    real space projection operators read in
  non local Contribution for L=           2  read in
    real space projection operators read in
    PAW grid and wavefunctions read in
 
   number of l-projection  operators is LMAX  =           6
   number of lm-projection operators is LMMAX =          18
 
 POTCAR:   PAW_PBE Ta_pv 07Sep2000                
   VRHFIN =Ta:  5p6s5d                                                          
   LEXCH  = PE                                                                  
   EATOM  =  1045.8051 eV,   76.8645 Ry                                         
                                                                                
   TITEL  = PAW_PBE Ta_pv 07Sep2000                                             
   LULTRA =        F    use ultrasoft PP ?                                      
   IUNSCR =        1    unscreen: 0-lin 1-nonlin 2-no                           
   RPACOR =    2.330    partial core radius                                     
   POMASS =  180.948; ZVAL   =   11.000    mass and valenz                      
   RCORE  =    2.500    outmost cutoff radius                                   
   RWIGS  =    2.840; RWIGS  =    1.503    wigner-seitz radius (au A)           
   ENMAX  =  223.675; ENMIN  =  167.756 eV                                      
   RCLOC  =    2.205    cutoff for local pot                                    
   LCOR   =        T    correct aug charges                                     
   LPAW   =        T    paw PP                                                  
   EAUG   =  377.421                                                            
   DEXC   =    -.043                                                            
   RMAX   =    3.083    core radius for proj-oper                               
   RAUG   =    1.300    factor for augmentation sphere                          
   RDEP   =    2.526    radius for radial grids                                 
   QCUT   =   -4.055; QGAM   =    8.109    optimization parameters              
                                                                                
   Description                                                                  
     l     E      TYP  RCUT    TYP  RCUT                                        
     1   .000     23  2.500                                                     
     1   .100     23  2.500                                                     
     2   .000     23  2.500                                                     
     2   .000     23  2.500                                                     
     0   .000     23  2.500                                                     
     0   .000     23  2.500                                                     
     3   .000      7   .000                                                     
  local pseudopotential read in
  partial core-charges read in
  atomic valenz-charges read in
  non local Contribution for L=           1  read in
    real space projection operators read in
  non local Contribution for L=           1  read in
    real space projection operators read in
  non local Contribution for L=           2  read in
    real space projection operators read in
  non local Contribution for L=           2  read in
    real space projection operators read in
  non local Contribution for L=           0  read in
    real space projection operators read in
  non local Contribution for L=           0  read in
    real space projection operators read in
    PAW grid and wavefunctions read in
 
   number of l-projection  operators is LMAX  =           6
   number of lm-projection operators is LMMAX =          18
 
 POTCAR:   PAW_PBE Zr_sv 07Sep2000                
   VRHFIN =Zr: 4s4p5s4d                                                         
   LEXCH  = PE                                                                  
   EATOM  =  1283.3934 eV,   94.3268 Ry                                         
                                                                                
   TITEL  = PAW_PBE Zr_sv 07Sep2000                                             
   LULTRA =        F    use ultrasoft PP ?                                      
   IUNSCR =        1    unscreen: 0-lin 1-nonlin 2-no                           
   RPACOR =    2.200    partial core radius                                     
   POMASS =   91.224; ZVAL   =   12.000    mass and valenz                      
   RCORE  =    2.500    outmost cutoff radius                                   
   RWIGS  =    3.070; RWIGS  =    1.625    wigner-seitz radius (au A)           
   ENMAX  =  229.839; ENMIN  =  172.379 eV                                      
   RCLOC  =    2.213    cutoff for local pot                                    
   LCOR   =        T    correct aug charges                                     
   LPAW   =        T    paw PP                                                  
   EAUG   =  357.078                                                            
   DEXC   =     .000                                                            
   RMAX   =    3.041    core radius for proj-oper                               
   RAUG   =    1.300    factor for augmentation sphere                          
   RDEP   =    2.597    radius for radial grids                                 
   QCUT   =   -4.110; QGAM   =    8.220    optimization parameters              
                                                                                
   Description                                                                  
     l     E      TYP  RCUT    TYP  RCUT                                        
     0   .000     23  2.500                                                     
     0   .000     23  2.500                                                     
     1   .000     23  2.500                                                     
     1   .000     23  2.500                                                     
     2   .000     23  2.500                                                     
     2   .000     23  2.500                                                     
     3   .000      7   .000                                                     
  local pseudopotential read in
  partial core-charges read in
  atomic valenz-charges read in
  non local Contribution for L=           0  read in
    real space projection operators read in
  non local Contribution for L=           0  read in
    real space projection operators read in
  non local Contribution for L=           1  read in
    real space projection operators read in
  non local Contribution for L=           1  read in
    real space projection operators read in
  non local Contribution for L=           2  read in
    real space projection operators read in
  non local Contribution for L=           2  read in
    real space projection operators read in
    PAW grid and wavefunctions read in
 
   number of l-projection  operators is LMAX  =           6
   number of lm-projection operators is LMMAX =          18
 
 POTCAR:   PAW_PBE N 08Apr2002                    
   VRHFIN =N: s2p3                                                              
   LEXCH  = PE                                                                  
   EATOM  =   264.5486 eV,   19.4438 Ry                                         
                                                                                
   TITEL  = PAW_PBE N 08Apr2002                                                 
   LULTRA =        F    use ultrasoft PP ?                                      
   IUNSCR =        0    unscreen: 0-lin 1-nonlin 2-no                           
   RPACOR =     .000    partial core radius                                     
   POMASS =   14.001; ZVAL   =    5.000    mass and valenz                      
   RCORE  =    1.500    outmost cutoff radius                                   
   RWIGS  =    1.400; RWIGS  =     .741    wigner-seitz radius (au A)           
   ENMAX  =  400.000; ENMIN  =  300.000 eV                                      
   ICORE  =        2    local potential                                         
   LCOR   =        T    correct aug charges                                     
   LPAW   =        T    paw PP                                                  
   EAUG   =  627.112                                                            
   DEXC   =     .000                                                            
   RMAX   =    2.247    core radius for proj-oper                               
   RAUG   =    1.300    factor for augmentation sphere                          
   RDEP   =    1.514    radius for radial grids                                 
   QCUT   =   -5.562; QGAM   =   11.124    optimization parameters              
                                                                                
   Description                                                                  
     l     E      TYP  RCUT    TYP  RCUT                                        
     0   .000     23  1.200                                                     
     0   .000     23  1.200                                                     
     1   .000     23  1.500                                                     
     1   .700     23  1.500                                                     
     2   .000      7  1.500                                                     
  local pseudopotential read in
  atomic valenz-charges read in
  non local Contribution for L=           0  read in
    real space projection operators read in
  non local Contribution for L=           0  read in
    real space projection operators read in
  non local Contribution for L=           1  read in
    real space projection operators read in
  non local Contribution for L=           1  read in
    real space projection operators read in
    PAW grid and wavefunctions read in
 
   number of l-projection  operators is LMAX  =           4
   number of lm-projection operators is LMMAX =           8
 
 POTCAR:   PAW_PBE C 08Apr2002                    
   VRHFIN =C: s2p2                                                              
   LEXCH  = PE                                                                  
   EATOM  =   147.1560 eV,   10.8157 Ry                                         
                                                                                
   TITEL  = PAW_PBE C 08Apr2002                                                 
   LULTRA =        F    use ultrasoft PP ?                                      
   IUNSCR =        0    unscreen: 0-lin 1-nonlin 2-no                           
   RPACOR =     .000    partial core radius                                     
   POMASS =   12.011; ZVAL   =    4.000    mass and valenz                      
   RCORE  =    1.500    outmost cutoff radius                                   
   RWIGS  =    1.630; RWIGS  =     .863    wigner-seitz radius (au A)           
   ENMAX  =  400.000; ENMIN  =  300.000 eV                                      
   ICORE  =        2    local potential                                         
   LCOR   =        T    correct aug charges                                     
   LPAW   =        T    paw PP                                                  
   EAUG   =  644.873                                                            
   DEXC   =     .000                                                            
   RMAX   =    2.266    core radius for proj-oper                               
   RAUG   =    1.300    factor for augmentation sphere                          
   RDEP   =    1.501    radius for radial grids                                 
   RDEPT  =    1.300    core radius for aug-charge                              
   QCUT   =   -5.516; QGAM   =   11.032    optimization parameters              
                                                                                
   Description                                                                  
     l     E      TYP  RCUT    TYP  RCUT                                        
     0   .000     23  1.200                                                     
     0   .000     23  1.200                                                     
     1   .000     23  1.500                                                     
     1  2.500     23  1.500                                                     
     2   .000      7  1.500                                                     
  local pseudopotential read in
  atomic valenz-charges read in
  non local Contribution for L=           0  read in
    real space projection operators read in
  non local Contribution for L=           0  read in
    real space projection operators read in
  non local Contribution for L=           1  read in
    real space projection operators read in
  non local Contribution for L=           1  read in
    real space projection operators read in
    PAW grid and wavefunctions read in
 
   number of l-projection  operators is LMAX  =           4
   number of lm-projection operators is LMMAX =           8
 
 POTCAR:   PAW_PBE Cr_pv 07Sep2000                
   VRHFIN =Cr : p6d5s1                                                          
   LEXCH  = PE                                                                  
   EATOM  =  1647.5667 eV,  121.0927 Ry                                         
                                                                                
   TITEL  = PAW_PBE Cr_pv 07Sep2000                                             
   LULTRA =        F    use ultrasoft PP ?                                      
   IUNSCR =        1    unscreen: 0-lin 1-nonlin 2-no                           
   RPACOR =    2.080    partial core radius                                     
   POMASS =   51.996; ZVAL   =   12.000    mass and valenz                      
   RCORE  =    2.300    outmost cutoff radius                                   
   RWIGS  =    2.500; RWIGS  =    1.323    wigner-seitz radius (au A)           
   ENMAX  =  265.683; ENMIN  =  199.262 eV                                      
   RCLOC  =    1.721    cutoff for local pot                                    
   LCOR   =        T    correct aug charges                                     
   LPAW   =        T    paw PP                                                  
   EAUG   =  519.424                                                            
   DEXC   =    -.003                                                            
   RMAX   =    2.829    core radius for proj-oper                               
   RAUG   =    1.300    factor for augmentation sphere                          
   RDEP   =    2.447    radius for radial grids                                 
   QCUT   =   -4.419; QGAM   =    8.838    optimization parameters              
                                                                                
   Description                                                                  
     l     E      TYP  RCUT    TYP  RCUT                                        
     1   .000     23  2.000                                                     
     1   .100     23  2.000                                                     
     2   .000     23  2.300                                                     
     2   .000     23  2.300                                                     
     0   .000     23  2.300                                                     
     0   .000     23  2.300                                                     
     3   .000      7   .000                                                     
  local pseudopotential read in
  partial core-charges read in
  atomic valenz-charges read in
  non local Contribution for L=           1  read in
    real space projection operators read in
  non local Contribution for L=           1  read in
    real space projection operators read in
  non local Contribution for L=           2  read in
    real space projection operators read in
  non local Contribution for L=           2  read in
    real space projection operators read in
  non local Contribution for L=           0  read in
    real space projection operators read in
  non local Contribution for L=           0  read in
    real space projection operators read in
    PAW grid and wavefunctions read in
 
   number of l-projection  operators is LMAX  =           6
   number of lm-projection operators is LMMAX =          18
 
 POTCAR:   PAW_PBE W_pv 06Sep2000                 
   VRHFIN =W : 5p6s5d                                                           
   LEXCH  = PE                                                                  
   EATOM  =  1260.0376 eV,   92.6101 Ry                                         
                                                                                
   TITEL  = PAW_PBE W_pv 06Sep2000                                              
   LULTRA =        F    use ultrasoft PP ?                                      
   IUNSCR =        1    unscreen: 0-lin 1-nonlin 2-no                           
   RPACOR =    2.330    partial core radius                                     
   POMASS =  183.850; ZVAL   =   12.000    mass and valenz                      
   RCORE  =    2.500    outmost cutoff radius                                   
   RWIGS  =    2.750; RWIGS  =    1.455    wigner-seitz radius (au A)           
   ENMAX  =  223.065; ENMIN  =  167.299 eV                                      
   RCLOC  =    2.147    cutoff for local pot                                    
   LCOR   =        T    correct aug charges                                     
   LPAW   =        T    paw PP                                                  
   EAUG   =  373.438                                                            
   DEXC   =    -.018                                                            
   RMAX   =    3.087    core radius for proj-oper                               
   RAUG   =    1.300    factor for augmentation sphere                          
   RDEP   =    2.539    radius for radial grids                                 
   QCUT   =   -4.049; QGAM   =    8.098    optimization parameters              
                                                                                
   Description                                                                  
     l     E      TYP  RCUT    TYP  RCUT                                        
     1   .000     23  2.500                                                     
     1  -.200     23  2.500                                                     
     2   .000     23  2.500                                                     
     2   .000     23  2.500                                                     
     0   .000     23  2.500                                                     
     0   .000     23  2.500                                                     
     3   .000      7   .000                                                     
  local pseudopotential read in
  partial core-charges read in
  atomic valenz-charges read in
  non local Contribution for L=           1  read in
    real space projection operators read in
  non local Contribution for L=           1  read in
    real space projection operators read in
  non local Contribution for L=           2  read in
    real space projection operators read in
  non local Contribution for L=           2  read in
    real space projection operators read in
  non local Contribution for L=           0  read in
    real space projection operators read in
  non local Contribution for L=           0  read in
    real space projection operators read in
    PAW grid and wavefunctions read in
 
   number of l-projection  operators is LMAX  =           6
   number of lm-projection operators is LMMAX =          18
 

 ----------------------------------------------------------------------------- 
|                                                                             |
|  ADVICE TO THIS USER RUNNING 'VASP/VAMP'   (HEAR YOUR MASTER'S VOICE ...):  |
|                                                                             |
|      You have a (more or less) 'large supercell' and for larger cells       |
|      it might be more efficient to use real space projection operators      |
|      So try LREAL= Auto  in the INCAR   file.                               |
|      Mind: If you want to do a very accurate calculations keep the          |
|      reciprocal projection scheme          (i.e. LREAL=.FALSE.)             |
|                                                                             |
 ----------------------------------------------------------------------------- 

 PAW_PBE V_sv 07Sep2000                 :
 energy of atom  1       EATOM=-1951.3925
 kinetic energy error for atom=    0.0321 (will be added to EATOM!!)
 PAW_PBE Ta_pv 07Sep2000                :
 energy of atom  2       EATOM=-1045.8051
 kinetic energy error for atom=    0.0046 (will be added to EATOM!!)
 PAW_PBE Zr_sv 07Sep2000                :
 energy of atom  3       EATOM=-1283.3934
 kinetic energy error for atom=    0.0044 (will be added to EATOM!!)
 PAW_PBE N 08Apr2002                    :
 energy of atom  4       EATOM= -264.5486
 kinetic energy error for atom=    0.0736 (will be added to EATOM!!)
 PAW_PBE C 08Apr2002                    :
 energy of atom  5       EATOM= -147.1560
 kinetic energy error for atom=    0.0288 (will be added to EATOM!!)
 PAW_PBE Cr_pv 07Sep2000                :
 energy of atom  6       EATOM=-1647.5667
 kinetic energy error for atom=    0.0284 (will be added to EATOM!!)
 PAW_PBE W_pv 06Sep2000                 :
 energy of atom  7       EATOM=-1260.0376
 kinetic energy error for atom=    0.0051 (will be added to EATOM!!)
 
 
 POSCAR: 86-ZrVTaCrW                             
  positions in direct lattice
  velocities in cartesian coordinates
 exchange correlation table for  LEXCH =        8
   RHO(1)=    0.500       N(1)  =     2000
   RHO(2)=  100.500       N(2)  =     4000
 


--------------------------------------------------------------------------------------------------------


 ion  position               nearest neighbor table
   1  0.003  0.981  0.029-  34 1.96  22 2.00  38 2.06  25 2.17  23 2.31  59 2.77   2 2.85   9 3.05
                            18 3.05  16 3.09  12 3.11  14 3.12  17 3.22   8 3.23
   2  0.234  0.980  0.257-  36 2.05  34 2.07  22 2.09  43 2.18  26 2.22  61 2.81  59 2.82   1 2.85
                            20 2.97  18 2.99  19 3.19  15 3.20  14 3.22
   3  0.276  0.516  0.244-  41 1.91  36 2.03  37 2.12  46 2.24  21 2.32  55 2.79  62 2.99  18 3.02
                            20 3.05  15 3.09  59 3.19  14 3.22   8 3.23  19 3.25
   4  0.499  0.473  0.989-  35 2.05  52 2.12  37 2.20  41 2.23  40 2.26   5 2.87  60 2.96  13 2.97
                            17 2.98  63 3.00  14 3.01  15 3.07  18 3.22   9 3.25
   5  0.481  0.245  0.755-  42 1.99  35 2.07  33 2.08  32 2.19  52 2.26  53 2.71  56 2.78   4 2.87
                            13 2.98  14 3.01  19 3.02  17 3.15  11 3.18
   6  0.001  0.497  0.531-  48 1.96  50 2.16  44 2.16  46 2.19  47 2.22  13 2.98  10 2.99  12 3.01
                            63 3.01  11 3.03  64 3.03  20 3.09  19 3.10   8 3.13
   7  0.504  0.762  0.735-  51 2.06  49 2.11  28 2.13  33 2.16  45 2.18  52 2.29  57 2.78  58 2.79
                            56 2.86  53 2.93  63 3.02  64 3.02  62 3.04  20 3.05  18 3.12  13 3.14
   8  0.999  0.272  0.254-  27 2.01  21 2.12  44 2.18  24 2.19  23 2.23  34 2.33  19 3.10  14 3.12
                            61 3.12   6 3.13  11 3.17  60 3.18  17 3.19   1 3.23   3 3.23  54 3.34
   9  0.744  0.751  0.001-  28 2.04  25 2.14  40 2.16  39 2.18  49 2.26  38 2.27  58 2.89  63 2.98
                            53 2.99  60 3.00   1 3.05  16 3.09  54 3.10  12 3.15   7 3.15  59 3.16
  10  0.011  0.236  0.748-  29 2.07  42 2.14  44 2.19  23 2.26  30 2.29  48 2.32   6 2.99  14 3.03
                            19 3.05  11 3.10  17 3.11  61 3.11  56 3.15  54 3.16  13 3.18  58 3.31
  11  0.749  0.261  0.513-  30 2.03  50 2.09  32 2.12  44 2.17  31 2.25  24 2.28   6 3.03  62 3.08
                            63 3.09  10 3.10   8 3.17   5 3.18  61 3.24  15 3.25  16 3.26  60 3.26
  12  0.000  0.760  0.752-  29 2.12  38 2.21  47 2.23  45 2.24  49 2.25  48 2.28  54 2.83  58 2.99
                             6 3.01  63 3.11  20 3.11   1 3.11   9 3.15  64 3.16  61 3.19  13 3.20
  13  0.258  0.502  0.754-  52 2.17  37 2.22  48 2.26  45 2.28  46 2.28  42 2.29  54 2.89   4 2.97
                             6 2.98   5 2.98  62 3.10  20 3.11  18 3.13  19 3.14   7 3.14  14 3.17
  14  0.245  0.242  0.001-  22 2.14  23 2.16  21 2.20  42 2.21  35 2.24  37 2.28   5 3.01   4 3.01
                            10 3.03  15 3.07   8 3.12   1 3.12  13 3.17   2 3.22  54 3.22  56 3.22
  15  0.493  0.239  0.248-  26 2.22  21 2.22  24 2.26  35 2.29  32 2.30  41 2.35  16 3.06  19 3.07
                            14 3.07   4 3.07   3 3.09  60 3.10   2 3.20  62 3.23  17 3.24  57 3.24
  16  0.739  0.991  0.259-  39 2.18  26 2.22  31 2.24  24 2.29  34 2.30  25 2.37  55 3.05  15 3.06
                            61 3.08   1 3.09   9 3.09  64 3.10  59 3.10  57 3.25  53 3.25  11 3.26
  17  0.753  0.248  0.989-  23 2.16  30 2.17  25 2.22  35 2.22  40 2.25  24 2.34  53 2.82   4 2.98
                            58 3.11  10 3.11  63 3.13   5 3.15  60 3.17   8 3.19   1 3.22  15 3.24
  18  0.269  0.759  0.001-  22 2.13  28 2.15  36 2.21  45 2.21  37 2.26  38 2.35   2 2.99   3 3.02
                             1 3.05  54 3.09   7 3.12  13 3.13  56 3.20  59 3.21  12 3.21   4 3.22
  19  0.252  0.251  0.499-  46 2.19  21 2.20  43 2.21  42 2.22  32 2.25  44 2.25  56 3.00   5 3.02
                            57 3.02  10 3.05  61 3.05  15 3.07   6 3.10   8 3.10  62 3.13  13 3.14
  20  0.247  0.748  0.501-  46 2.17  43 2.19  45 2.20  36 2.21  47 2.25  51 2.26  57 2.90  55 2.95
                             2 2.97  56 2.99  61 3.04   3 3.05   7 3.05  62 3.06  59 3.08   6 3.09
  21  0.240  0.254  0.250-   8 2.12  14 2.20  19 2.20  15 2.22   3 2.32
  22  0.231  0.998  0.020-   1 2.00   2 2.09  18 2.13  14 2.14
  23  0.999  0.243  0.003-  17 2.16  14 2.16   8 2.23  10 2.26   1 2.31  54 2.46
  24  0.750  0.251  0.254-   8 2.19  60 2.26  15 2.26  11 2.28  16 2.29  17 2.34
  25  0.759  0.994  0.992-  53 2.01  58 2.04   9 2.14   1 2.17  17 2.22  16 2.37
  26  0.486  0.987  0.274-  57 2.14  15 2.22   2 2.22  55 2.22  16 2.22
  27  0.993  0.501  0.250-   8 2.01  59 2.24  60 2.37
  28  0.513  0.771  0.977-   9 2.04   7 2.13  53 2.15  18 2.15
  29  0.981  0.001  0.751-  10 2.07  12 2.12  58 2.15  61 2.38
  30  0.751  0.253  0.743-  11 2.03  17 2.17  10 2.29  63 2.30  58 2.43
  31  0.753  0.004  0.512-  58 2.22  16 2.24  11 2.25  61 2.27  64 2.39  57 2.45
  32  0.508  0.251  0.509-  11 2.12   5 2.19  19 2.25  62 2.25  15 2.30  57 2.32
  33  0.507  0.009  0.740-  53 1.89  56 1.99  57 1.99  58 2.05   5 2.08   7 2.16
  34  0.999  0.006  0.249-   1 1.96  61 2.06   2 2.07  59 2.19  16 2.30   8 2.33
  35  0.500  0.238  0.989-  53 2.01   4 2.05   5 2.07  17 2.22  14 2.24  15 2.29
  36  0.259  0.747  0.251-   3 2.03   2 2.05  55 2.17  18 2.21  20 2.21  59 2.25
  37  0.250  0.502  0.005-   3 2.12  54 2.13   4 2.20  13 2.22  18 2.26  14 2.28
  38  0.002  0.747  0.003-  54 2.00   1 2.06  59 2.18  12 2.21   9 2.27  18 2.35
  39  0.742  0.741  0.248-  60 2.06  55 2.12   9 2.18  16 2.18  64 2.19  59 2.30
  40  0.754  0.504  0.000-  60 2.12  63 2.16   9 2.16  17 2.25   4 2.26  54 2.27
  41  0.493  0.507  0.240-   3 1.91  60 2.02  55 2.04   4 2.23  62 2.29  15 2.35
  42  0.255  0.240  0.751-   5 1.99  56 2.13  10 2.14  14 2.21  19 2.22  13 2.29
  43  0.248  0.999  0.503-  57 1.99  56 2.01  61 2.10   2 2.18  20 2.19  19 2.21
  44  0.995  0.252  0.501-   6 2.16  11 2.17   8 2.18  10 2.19  61 2.21  19 2.25
  45  0.256  0.762  0.750-  56 2.10   7 2.18  20 2.20  18 2.21  12 2.24  13 2.28
  46  0.248  0.500  0.495-  20 2.17  19 2.19   6 2.19  62 2.22   3 2.24  13 2.28
  47  0.991  0.749  0.500-  64 2.13  59 2.21  61 2.22   6 2.22  12 2.23  20 2.25
  48  0.000  0.500  0.754-  54 1.91   6 1.96  13 2.26  63 2.26  12 2.28  10 2.32
  49  0.744  0.757  0.745-  58 1.93   7 2.11  63 2.11  64 2.20  12 2.25   9 2.26
  50  0.758  0.499  0.495-  64 2.04  11 2.09   6 2.16  62 2.26  60 2.28  63 2.31
  51  0.505  0.762  0.501-  55 1.91  57 2.01   7 2.06  64 2.16  62 2.23  20 2.26
  52  0.505  0.501  0.751-  63 2.10   4 2.12  13 2.17  62 2.22   5 2.26   7 2.29
  53  0.534  0.014  0.952-  33 1.89  35 2.01  25 2.01  28 2.15  58 2.48   5 2.71  17 2.82   7 2.93
                            56 2.97   9 2.99  18 3.25  16 3.25  14 3.25  15 3.28
  54  0.010  0.521  0.969-  48 1.91  38 2.00  37 2.13  40 2.27  23 2.46  12 2.83  13 2.89  63 2.99
                            18 3.09   9 3.10  10 3.16  14 3.22  59 3.22  17 3.29   8 3.34
  55  0.503  0.735  0.286-  51 1.91  41 2.04  39 2.12  36 2.17  26 2.22  62 2.74   3 2.79  60 2.80
                            64 2.84  20 2.95  57 3.02  16 3.05  18 3.25   9 3.29
  56  0.281  1.000  0.728-  33 1.99  43 2.01  45 2.10  42 2.13  57 2.53   5 2.78   7 2.86  53 2.97
                            20 2.99  19 3.00  10 3.15  18 3.20  61 3.22  14 3.22  12 3.24
  57  0.474  0.989  0.517-  43 1.99  33 1.99  51 2.01  26 2.14  32 2.32  31 2.45  56 2.53   7 2.78
                            20 2.90  55 3.02  19 3.02  58 3.16  15 3.24  16 3.25  64 3.31  11 3.39
  58  0.737  0.976  0.762-  49 1.93  25 2.04  33 2.05  29 2.15  31 2.22  30 2.43  53 2.48   7 2.79
                             9 2.89  12 2.99  17 3.11  57 3.16  64 3.17  10 3.31  11 3.32
  59  0.003  0.757  0.249-  38 2.18  34 2.19  47 2.21  27 2.24  36 2.25  39 2.30   1 2.77   2 2.82
                            61 2.96  20 3.08  16 3.10  64 3.13   9 3.16   3 3.19  18 3.21  54 3.22
  60  0.723  0.507  0.239-  41 2.02  39 2.06  40 2.12  24 2.26  50 2.28  27 2.37  55 2.80   4 2.96
                             9 3.00  64 3.01  62 3.02  15 3.10  17 3.17   8 3.18  11 3.26  59 3.29
  61  0.010  0.001  0.482-  34 2.06  43 2.10  44 2.21  47 2.22  31 2.27  29 2.38   2 2.81  59 2.96
                            20 3.04  19 3.05  16 3.08  10 3.11   8 3.12  12 3.19  56 3.22  11 3.24
  62  0.500  0.508  0.499-  46 2.22  52 2.22  51 2.23  32 2.25  50 2.26  41 2.29  55 2.74  64 2.93
                             3 2.99  60 3.02   7 3.04  20 3.06  11 3.08  13 3.10  63 3.11  19 3.13
  63  0.743  0.516  0.756-  52 2.10  49 2.11  40 2.16  48 2.26  30 2.30  50 2.31  64 2.97   9 2.98
                            54 2.99   4 3.00   6 3.01   7 3.02  11 3.09  12 3.11  62 3.11  17 3.13
  64  0.749  0.731  0.497-  50 2.04  47 2.13  51 2.16  39 2.19  49 2.20  31 2.39  55 2.84  62 2.93
                            63 2.97  60 3.01   7 3.02   6 3.03  16 3.10  59 3.13  12 3.16  58 3.17
 
  LATTYP: Found a triclinic cell.
 ALAT       =    12.4059979251
 B/A-ratio  =     0.7059266981
 C/A-ratio  =     0.7071760224
 COS(alpha) =     0.0013227906
 COS(beta)  =     0.0026689495
 COS(gamma) =     0.7034728804
  
  Lattice vectors:
  
 A1 = (   0.0020770731,   8.7348735827,   8.8096971399)
 A2 = (  -0.0029813848,   8.7577213969,  -0.0075412837)
 A3 = (  -8.7731800658,   0.0086412934,   0.0264744632)


Analysis of symmetry for initial positions (statically):
=====================================================================
 Subroutine PRICEL returns:
 Original cell was already a primitive cell.
 

 Routine SETGRP: Setting up the symmetry group for a 
 triclinic supercell.


 Subroutine GETGRP returns: Found  1 space group operations
 (whereof  1 operations were pure point group operations)
 out of a pool of  2 trial point group operations.


The static configuration has the point symmetry C_1 .


Analysis of symmetry for dynamics (positions and initial velocities):
=====================================================================
 Subroutine PRICEL returns:
 Original cell was already a primitive cell.
 

 Routine SETGRP: Setting up the symmetry group for a 
 triclinic supercell.


 Subroutine GETGRP returns: Found  1 space group operations
 (whereof  1 operations were pure point group operations)
 out of a pool of  2 trial point group operations.


The dynamic configuration has the point symmetry C_1 .


 Subroutine INISYM returns: Found  1 space group operations
 (whereof  1 operations are pure point group operations),
 and found     1 'primitive' translations

 
 
 KPOINTS: HECN                                    

Automatic generation of k-mesh.
Space group operators:
 irot       det(A)        alpha          n_x          n_y          n_z        tau_x        tau_y        tau_z
    1     1.000000     0.000001     1.000000     0.000000     0.000000     0.000000     0.000000     0.000000
 
 Subroutine IBZKPT returns following result:
 ===========================================
 
 Found     14 irreducible k-points:
 
 Following reciprocal coordinates:
            Coordinates               Weight
  0.000000  0.000000  0.000000      1.000000
  0.333333 -0.000000  0.000000      2.000000
 -0.000000  0.333333 -0.000000      2.000000
  0.333333  0.333333  0.000000      2.000000
 -0.333333  0.333333 -0.000000      2.000000
 -0.000000 -0.000000  0.333333      2.000000
  0.333333  0.000000  0.333333      2.000000
 -0.333333 -0.000000  0.333333      2.000000
 -0.000000  0.333333  0.333333      2.000000
  0.333333  0.333333  0.333333      2.000000
 -0.333333  0.333333  0.333333      2.000000
 -0.000000 -0.333333  0.333333      2.000000
  0.333333 -0.333333  0.333333      2.000000
 -0.333333 -0.333333  0.333333      2.000000
 
 Following cartesian coordinates:
            Coordinates               Weight
  0.000000  0.000000  0.000000      1.000000
  0.037995  0.000013 -0.000022      2.000000
  0.000038  0.038062  0.000099      2.000000
  0.038032  0.038075  0.000077      2.000000
 -0.037957  0.038049  0.000120      2.000000
  0.000114  0.000033  0.037805      2.000000
  0.038109  0.000046  0.037783      2.000000
 -0.037880  0.000020  0.037827      2.000000
  0.000152  0.038094  0.037903      2.000000
  0.038146  0.038107  0.037882      2.000000
 -0.037843  0.038081  0.037925      2.000000
  0.000076 -0.038029  0.037706      2.000000
  0.038071 -0.038016  0.037684      2.000000
 -0.037918 -0.038042  0.037728      2.000000
 


--------------------------------------------------------------------------------------------------------




 Dimension of arrays:
   k-points           NKPTS =     14   k-points in BZ     NKDIM =     14   number of bands    NBANDS=    336
   number of dos      NEDOS =    301   number of ions     NIONS =     64
   non local maximal  LDIM  =      6   non local SUM 2l+1 LMDIM =     18
   total plane-waves  NPLWV = 110592
   max r-space proj   IRMAX =      1   max aug-charges    IRDMAX=  10164
   dimension x,y,z NGX =    48 NGY =   48 NGZ =   48
   dimension x,y,z NGXF=    96 NGYF=   96 NGZF=   96
   support grid    NGXF=    96 NGYF=   96 NGZF=   96
   ions per type =               7   6   7  13  19   6   6
   NGX,Y,Z   is equivalent  to a cutoff of   9.10,  9.11,  9.05 a.u.
   NGXF,Y,Z  is equivalent  to a cutoff of  18.19, 18.22, 18.10 a.u.

 SYSTEM =  HECN                                    
 POSCAR =  86-ZrVTaCrW                             

 Startparameter for this run:
   NWRITE =      2    write-flag & timer
   PREC   = normal    normal or accurate (medium, high low for compatibility)
   ISTART =      0    job   : 0-new  1-cont  2-samecut
   ICHARG =      2    charge: 1-file 2-atom 10-const
   ISPIN  =      1    spin polarized calculation?
   LNONCOLLINEAR =      F non collinear calculations
   LSORBIT =      F    spin-orbit coupling
   INIWAV =      1    electr: 0-lowe 1-rand  2-diag
   LASPH  =      F    aspherical Exc in radial PAW
   METAGGA=      F    non-selfconsistent MetaGGA calc.

 Electronic Relaxation 1
   ENCUT  =  400.0 eV  29.40 Ry    5.42 a.u.  14.31 14.28 14.38*2*pi/ulx,y,z
   ENINI  =  400.0     initial cutoff
   ENAUG  =  644.9 eV  augmentation charge cutoff
   NELM   =     60;   NELMIN=  2; NELMDL= -5     # of ELM steps 
   EDIFF  = 0.1E-04   stopping-criterion for ELM
   LREAL  =      F    real-space projection
   NLSPLINE    = F    spline interpolate recip. space projectors
   LCOMPAT=      F    compatible to vasp.4.4
   GGA_COMPAT  = T    GGA compatible to vasp.4.4-vasp.4.6
   LMAXPAW     = -100 max onsite density
   LMAXMIX     =    2 max onsite mixed and CHGCAR
   VOSKOWN=      0    Vosko Wilk Nusair interpolation
   ROPT   =    0.00000   0.00000   0.00000   0.00000
   ROPT   =    0.00000   0.00000   0.00000
 Ionic relaxation
   EDIFFG = -.1E-01   stopping-criterion for IOM
   NSW    =    100    number of steps for IOM
   NBLOCK =      1;   KBLOCK =    100    inner block; outer block 
   IBRION =      2    ionic relax: 0-MD 1-quasi-New 2-CG
   NFREE  =      1    steps in history (QN), initial steepest desc. (CG)
   ISIF   =      3    stress and relaxation
   IWAVPR =     11    prediction:  0-non 1-charg 2-wave 3-comb
   ISYM   =      2    0-nonsym 1-usesym 2-fastsym
   LCORR  =      T    Harris-Foulkes like correction to forces

   POTIM  = 0.5000    time-step for ionic-motion
   TEIN   =    0.0    initial temperature
   TEBEG  =    0.0;   TEEND  =   0.0 temperature during run
   SMASS  =  -3.00    Nose mass-parameter (am)
   estimated Nose-frequenzy (Omega)   =  0.10E-29 period in steps =****** mass=  -0.176E-26a.u.
   SCALEE = 1.0000    scale energy and forces
   NPACO  =    256;   APACO  = 16.0  distance and # of slots for P.C.
   PSTRESS=    0.0 pullay stress

  Mass of Ions in am
   POMASS =  50.94180.95 91.22 14.00 12.01 52.00183.85
  Ionic Valenz
   ZVAL   =  13.00 11.00 12.00  5.00  4.00 12.00 12.00
  Atomic Wigner-Seitz radii
   RWIGS  =  -1.00 -1.00 -1.00 -1.00 -1.00 -1.00 -1.00
  virtual crystal weights 
   VCA    =   1.00  1.00  1.00  1.00  1.00  1.00  1.00
   NELECT =     526.0000    total number of electrons
   NUPDOWN=      -1.0000    fix difference up-down

 DOS related values:
   EMIN   =  10.00;   EMAX   =-10.00  energy-range for DOS
   EFERMI =   0.00
   ISMEAR =     0;   SIGMA  =   0.10  broadening in eV -4-tet -1-fermi 0-gaus

 Electronic relaxation 2 (details)
   IALGO  =     68    algorithm
   LDIAG  =      T    sub-space diagonalisation (order eigenvalues)
   LSUBROT=      F    optimize rotation matrix (better conditioning)
   TURBO    =      0    0=normal 1=particle mesh
   IRESTART =      0    0=no restart 2=restart with 2 vectors
   NREBOOT  =      0    no. of reboots
   NMIN     =      0    reboot dimension
   EREF     =   0.00    reference energy to select bands
   IMIX   =      4    mixing-type and parameters
     AMIX     =   0.40;   BMIX     =  1.00
     AMIX_MAG =   1.60;   BMIX_MAG =  1.00
     AMIN     =   0.10
     WC   =   100.;   INIMIX=   1;  MIXPRE=   1;  MAXMIX= -45

 Intra band minimization:
   WEIMIN = 0.0010     energy-eigenvalue tresh-hold
   EBREAK =  0.74E-08  absolut break condition
   DEPER  =   0.30     relativ break condition  

   TIME   =   0.40     timestep for ELM

  volume/ion in A,a.u.               =      10.59        71.43
  Fermi-wavevector in a.u.,A,eV,Ry     =   1.504677  2.843427 30.804309  2.264053
  Thomas-Fermi vector in A             =   2.615625
 
 Write flags
   LWAVE        =      F    write WAVECAR
   LDOWNSAMPLE  =      F    k-point downsampling of WAVECAR
   LCHARG       =      F    write CHGCAR
   LVTOT        =      F    write LOCPOT, total local potential
   LVHAR        =      F    write LOCPOT, Hartree potential only
   LELF         =      F    write electronic localiz. function (ELF)
   LORBIT       =      0    0 simple, 1 ext, 2 COOP (PROOUT), +10 PAW based schemes


 Dipole corrections
   LMONO  =      F    monopole corrections only (constant potential shift)
   LDIPOL =      F    correct potential (dipole corrections)
   IDIPOL =      0    1-x, 2-y, 3-z, 4-all directions 
   EPSILON=  1.0000000 bulk dielectric constant

 Exchange correlation treatment:
   GGA     =    --    GGA type
   LEXCH   =     8    internal setting for exchange type
   VOSKOWN=      0    Vosko Wilk Nusair interpolation
   LHFCALC =     F    Hartree Fock is set to
   LHFONE  =     F    Hartree Fock one center treatment
   AEXX    =    0.0000 exact exchange contribution

 Linear response parameters
   LEPSILON=     F    determine dielectric tensor
   LRPA    =     F    only Hartree local field effects (RPA)
   LNABLA  =     F    use nabla operator in PAW spheres
   LVEL    =     F    velocity operator in full k-point grid
   LINTERFAST=   F  fast interpolation
   KINTER  =     0    interpolate to denser k-point grid
   CSHIFT  =0.1000    complex shift for real part using Kramers Kronig
   OMEGAMAX=  -1.0    maximum frequency
   DEG_THRESHOLD= 0.2000000E-02 threshold for treating states as degnerate
   RTIME   =   -0.100 relaxation time in fs
  (WPLASMAI=    0.000 imaginary part of plasma frequency in eV, 0.658/RTIME)
   DFIELD  = 0.0000000 0.0000000 0.0000000 field for delta impulse in time
 
 Orbital magnetization related:
   ORBITALMAG=     F  switch on orbital magnetization
   LCHIMAG   =     F  perturbation theory with respect to B field
   DQ        =  0.001000  dq finite difference perturbation B field
   LLRAUG    =     F  two centre corrections for induced B field



--------------------------------------------------------------------------------------------------------


 conjugate gradient relaxation of ions
 charge density and potential will be updated during run
 non-spin polarized calculation
 RMM-DIIS sequential band-by-band and
  variant of blocked Davidson during initial phase
 perform sub-space diagonalisation
    before iterative eigenvector-optimisation
 modified Broyden-mixing scheme, WC =      100.0
 initial mixing is a Kerker type mixing with AMIX =  0.4000 and BMIX =      1.0000
 Hartree-type preconditioning will be used
 using additional bands           73
 reciprocal scheme for non local part
 use partial core corrections
 calculate Harris-corrections to forces 
   (improved forces if not selfconsistent)
 use gradient corrections 
 use of overlap-Matrix (Vanderbilt PP)
 Gauss-broadening in eV      SIGMA  =   0.10


--------------------------------------------------------------------------------------------------------


  energy-cutoff  :      400.00
  volume of cell :      677.45
      direct lattice vectors                 reciprocal lattice vectors
     8.773180066 -0.008641293 -0.026474463     0.113983595  0.000038747 -0.000065292
    -0.002981385  8.757721397 -0.007541284     0.000113361  0.114185246  0.000295819
     0.005058458 -0.022847814  8.817238424     0.000342342  0.000097778  0.113414252

  length of vectors
     8.773224267  8.757725151  8.817269477     0.113983621  0.114185685  0.113414811


 
 k-points in units of 2pi/SCALE and weight: HECN                                    
   0.00000000  0.00000000  0.00000000       0.037
   0.03799453  0.00001292 -0.00002176       0.074
   0.00003779  0.03806175  0.00009861       0.074
   0.03803232  0.03807466  0.00007684       0.074
  -0.03795674  0.03804883  0.00012037       0.074
   0.00011411  0.00003259  0.03780475       0.074
   0.03810865  0.00004551  0.03778299       0.074
  -0.03788042  0.00001968  0.03782651       0.074
   0.00015190  0.03809434  0.03790336       0.074
   0.03814643  0.03810726  0.03788159       0.074
  -0.03784263  0.03808143  0.03792512       0.074
   0.00007633 -0.03802916  0.03770614       0.074
   0.03807086 -0.03801624  0.03768438       0.074
  -0.03791820 -0.03804207  0.03772791       0.074
 
 k-points in reciprocal lattice and weights: HECN                                    
   0.00000000  0.00000000  0.00000000       0.037
   0.33333333 -0.00000000  0.00000000       0.074
  -0.00000000  0.33333333 -0.00000000       0.074
   0.33333333  0.33333333  0.00000000       0.074
  -0.33333333  0.33333333 -0.00000000       0.074
  -0.00000000 -0.00000000  0.33333333       0.074
   0.33333333  0.00000000  0.33333333       0.074
  -0.33333333 -0.00000000  0.33333333       0.074
  -0.00000000  0.33333333  0.33333333       0.074
   0.33333333  0.33333333  0.33333333       0.074
  -0.33333333  0.33333333  0.33333333       0.074
  -0.00000000 -0.33333333  0.33333333       0.074
   0.33333333 -0.33333333  0.33333333       0.074
  -0.33333333 -0.33333333  0.33333333       0.074
 
 position of ions in fractional coordinates (direct lattice) 
   0.00336138  0.98136866  0.02881007
   0.23410465  0.98008591  0.25651805
   0.27574435  0.51623164  0.24393653
   0.49861393  0.47273608  0.98893840
   0.48095511  0.24501241  0.75479983
   0.00114234  0.49718607  0.53134459
   0.50390608  0.76203065  0.73484503
   0.99924861  0.27249539  0.25431144
   0.74359484  0.75089987  0.00081531
   0.01131462  0.23556079  0.74789554
   0.74899966  0.26089745  0.51344759
   0.00037600  0.75988916  0.75242305
   0.25786219  0.50203426  0.75363280
   0.24487077  0.24155372  0.00142477
   0.49263893  0.23863781  0.24795512
   0.73852275  0.99062141  0.25924619
   0.75308635  0.24754613  0.98898012
   0.26929384  0.75873076  0.00076164
   0.25188134  0.25099984  0.49911900
   0.24748331  0.74841544  0.50088293
   0.24003605  0.25376798  0.25022637
   0.23070494  0.99832538  0.02014688
   0.99871935  0.24342005  0.00326088
   0.75042955  0.25142415  0.25446971
   0.75865781  0.99420114  0.99173145
   0.48619203  0.98721388  0.27396904
   0.99306322  0.50136768  0.24961232
   0.51304802  0.77114323  0.97658770
   0.98080732  0.00136161  0.75066053
   0.75119493  0.25304427  0.74340834
   0.75290597  0.00356239  0.51222385
   0.50790644  0.25116175  0.50859350
   0.50700394  0.00888409  0.73973505
   0.99948256  0.00644925  0.24918338
   0.50004605  0.23828859  0.98851747
   0.25928456  0.74730941  0.25065767
   0.24965935  0.50174199  0.00526816
   0.00185580  0.74731178  0.00283734
   0.74176155  0.74138649  0.24810174
   0.75419106  0.50421819  0.00011257
   0.49282738  0.50713509  0.23955435
   0.25473030  0.24014331  0.75093311
   0.24823313  0.99880800  0.50306473
   0.99548897  0.25186006  0.50079606
   0.25588135  0.76178360  0.75041987
   0.24798922  0.50041820  0.49537736
   0.99140233  0.74860739  0.50007960
   0.00042440  0.50004131  0.75369020
   0.74382418  0.75676921  0.74454760
   0.75768693  0.49876151  0.49499677
   0.50518579  0.76201819  0.50082792
   0.50464280  0.50140738  0.75082979
   0.53363948  0.01431567  0.95236199
   0.00990760  0.52126575  0.96861559
   0.50341429  0.73492020  0.28562196
   0.28086942  0.99960796  0.72841245
   0.47418472  0.98852685  0.51672887
   0.73743203  0.97628962  0.76167298
   0.00312437  0.75664707  0.24943750
   0.72274846  0.50703810  0.23869273
   0.00967231  0.00056213  0.48206337
   0.50039732  0.50778360  0.49903315
   0.74342734  0.51567535  0.75620682
   0.74891469  0.73109744  0.49664342
 
 position of ions in cartesian coordinates  (Angst):
   0.02670987  8.59386598  0.24653545
   2.05221778  8.57543549  2.24819192
   2.41884970  4.51305671  2.13965335
   4.37802291  4.11318713  8.70294007
   4.22259341  2.12434879  6.64066933
   0.01122747  4.34206716  4.68121223
   4.42230409  6.65250815  6.46021652
   8.76706203  2.37199346  2.21381503
   6.52145684  6.56972763 -0.01816022
   0.10234611  2.04579024  6.59229731
   6.57292835  2.26666368  4.50539295
   0.00483929  6.63770309  6.62855289
   2.26458687  4.37722902  6.63434733
   2.14758242  2.11331167  0.00425805
   4.32255284  2.08000118  2.17143741
   6.47755101  8.66328128  2.25881296
   6.61122680  2.13883639  8.69826916
   2.36030510  6.64240821 -0.00613565
   2.21157676  2.18460631  4.39228994
   2.17151804  6.54083121  4.40420822
   2.10638866  2.21463788  2.19803702
   2.02114148  8.74060166  0.16400336
   8.76123546  2.12310021  0.00047572
   6.58419119  2.18960387  2.22195680
   6.65789410  8.67772188  8.71675003
   4.26389286  8.63528323  2.39533382
   8.71209033  4.37655401  2.17081954
   4.50370363  6.72671131  8.59140850
   8.60859235 -0.01370177  6.59277623
   6.59337449  2.19261469  6.53301281
   6.60796011  0.01298917  4.49644019
   4.45777858  2.18359542  4.46904948
   4.45175232  0.05652189  6.50893061
   8.76988174  0.04215060  2.17059988
   4.39128400  2.05995861  8.70095872
   2.27379008  6.53676005  2.19760836
   2.18883719  4.39183882  0.03605729
   0.01406760  6.54466747  0.01933270
   6.50665233  6.48077793  2.16234345
   6.61515127  4.40928263 -0.02277670
   4.32336315  4.43161591  2.09533603
   2.23787738  2.08374986  6.61260142
   2.17736082  8.73364323  4.42153750
   8.73538633  2.18567581  4.38738391
   2.24641800  6.65213197  6.60411175
   2.17666795  4.36906194  4.35752110
   8.69804890  6.53610227  4.37742879
   0.00604499  4.36199865  6.64168401
   6.52721355  6.60413503  6.53945436
   6.64834083  4.35015738  4.34068391
   4.43234741  6.65773476  4.39679810
   4.42962527  4.36967058  6.60310390
   4.68649005  0.09900195  8.38296699
   0.09026678  4.54288388  8.53632130
   4.41579795  6.42535033  2.49952707
   2.46482239  8.73521835  6.40761204
   4.15977457  8.64133901  4.53611310
   6.47056622  8.52629754  6.68896668
   0.02641657  6.62077812  2.19356109
   6.34049814  4.42879932  2.08165264
   0.08729370 -0.00617469  4.25020736
   4.39108626  4.43130138  4.38301718
   6.52450976  4.49243922  6.64408513
   6.57069601  6.38492887  4.35368292
 


--------------------------------------------------------------------------------------------------------


 k-point  1 :   0.0000 0.0000 0.0000  plane waves:   12285
 k-point  2 :   0.3333-0.0000 0.0000  plane waves:   12334
 k-point  3 :  -0.0000 0.3333-0.0000  plane waves:   12333
 k-point  4 :   0.3333 0.3333 0.0000  plane waves:   12290
 k-point  5 :  -0.3333 0.3333-0.0000  plane waves:   12288
 k-point  6 :  -0.0000-0.0000 0.3333  plane waves:   12317
 k-point  7 :   0.3333 0.0000 0.3333  plane waves:   12305
 k-point  8 :  -0.3333-0.0000 0.3333  plane waves:   12308
 k-point  9 :  -0.0000 0.3333 0.3333  plane waves:   12312
 k-point 10 :   0.3333 0.3333 0.3333  plane waves:   12295
 k-point 11 :  -0.3333 0.3333 0.3333  plane waves:   12292
 k-point 12 :  -0.0000-0.3333 0.3333  plane waves:   12306
 k-point 13 :   0.3333-0.3333 0.3333  plane waves:   12296
 k-point 14 :  -0.3333-0.3333 0.3333  plane waves:   12288

 maximum and minimum number of plane-waves per node :     12334    12285

 maximum number of plane-waves:     12334
 maximum index in each direction: 
   IXMAX=   14   IYMAX=   14   IZMAX=   14
   IXMIN=  -14   IYMIN=  -14   IZMIN=  -14


 serial   3D FFT for wavefunctions
 parallel 3D FFT for charge:
    minimum data exchange during FFTs selected (reduces bandwidth)


 total amount of memory used by VASP MPI-rank0   268817. kBytes
=======================================================================

   base      :      30000. kBytes
   nonl-proj :     186717. kBytes
   fftplans  :       1726. kBytes
   grid      :       8060. kBytes
   one-center:        995. kBytes
   wavefun   :      41319. kBytes
 
     INWAV:  cpu time    0.0000: real time    0.0000
 Broyden mixing: mesh for mixing (old mesh)
   NGX = 29   NGY = 29   NGZ = 29
  (NGX  = 96   NGY  = 96   NGZ  = 96)
  gives a total of  24389 points

 initial charge density was supplied:
 charge density of overlapping atoms calculated
 number of electron     526.0000000 magnetization 
 keeping initial charge density in first step


--------------------------------------------------------------------------------------------------------


 Maximum index for augmentation-charges          551 (set IRDMAX)


--------------------------------------------------------------------------------------------------------


 First call to EWALD:  gamma=   0.202
 Maximum number of real-space cells 3x 3x 3
 Maximum number of reciprocal cells 3x 3x 3

    FEWALD:  cpu time    0.0037: real time    0.0042


--------------------------------------- Iteration      1(   1)  ---------------------------------------


    POTLOK:  cpu time    0.0314: real time    0.0416
    SETDIJ:  cpu time    0.0098: real time    0.0135
     EDDAV:  cpu time   21.0298: real time   21.0998
       DOS:  cpu time    0.0020: real time    0.0035
    --------------------------------------------
      LOOP:  cpu time   21.0731: real time   21.1584

 eigenvalue-minimisations  :  9456
 total energy-change (2. order) : 0.6534198E+04  (-0.2225452E+05)
 number of electron     526.0000000 magnetization 
 augmentation part      526.0000000 magnetization 

 Free energy of the ion-electron system (eV)
  ---------------------------------------------------
  alpha Z        PSCENC =      5096.54082163
  Ewald energy   TEWEN  =    -45082.66083587
  -Hartree energ DENC   =     -9359.95400983
  -exchange      EXHF   =         0.00000000
  -V(xc)+E(xc)   XCENC  =      2073.40656766
  PAW double counting   =     33590.35687253   -33724.33278891
  entropy T*S    EENTRO =        -0.07251375
  eigenvalues    EBANDS =      1343.84868831
  atomic energy  EATOM  =     52597.06565719
  Solvation  Ediel_sol  =         0.00000000
  ---------------------------------------------------
  free energy    TOTEN  =      6534.19845897 eV

  energy without entropy =     6534.27097272  energy(sigma->0) =     6534.23471585


--------------------------------------------------------------------------------------------------------




--------------------------------------- Iteration      1(   2)  ---------------------------------------


     EDDAV:  cpu time   22.4090: real time   22.4505
       DOS:  cpu time    0.0013: real time    0.0013
    --------------------------------------------
      LOOP:  cpu time   22.4104: real time   22.4519

 eigenvalue-minimisations  :  9744
 total energy-change (2. order) :-0.6354993E+04  (-0.6083382E+04)
 number of electron     526.0000000 magnetization 
 augmentation part      526.0000000 magnetization 

 Free energy of the ion-electron system (eV)
  ---------------------------------------------------
  alpha Z        PSCENC =      5096.54082163
  Ewald energy   TEWEN  =    -45082.66083587
  -Hartree energ DENC   =     -9359.95400983
  -exchange      EXHF   =         0.00000000
  -V(xc)+E(xc)   XCENC  =      2073.40656766
  PAW double counting   =     33590.35687253   -33724.33278891
  entropy T*S    EENTRO =        -0.14272090
  eigenvalues    EBANDS =     -5011.07385941
  atomic energy  EATOM  =     52597.06565719
  Solvation  Ediel_sol  =         0.00000000
  ---------------------------------------------------
  free energy    TOTEN  =       179.20570410 eV

  energy without entropy =      179.34842500  energy(sigma->0) =      179.27706455


--------------------------------------------------------------------------------------------------------




--------------------------------------- Iteration      1(   3)  ---------------------------------------


     EDDAV:  cpu time   29.3079: real time   29.3244
       DOS:  cpu time    0.0013: real time    0.0013
    --------------------------------------------
      LOOP:  cpu time   29.3091: real time   29.3256

 eigenvalue-minimisations  : 13608
 total energy-change (2. order) :-0.8769219E+03  (-0.8082219E+03)
 number of electron     526.0000000 magnetization 
 augmentation part      526.0000000 magnetization 

 Free energy of the ion-electron system (eV)
  ---------------------------------------------------
  alpha Z        PSCENC =      5096.54082163
  Ewald energy   TEWEN  =    -45082.66083587
  -Hartree energ DENC   =     -9359.95400983
  -exchange      EXHF   =         0.00000000
  -V(xc)+E(xc)   XCENC  =      2073.40656766
  PAW double counting   =     33590.35687253   -33724.33278891
  entropy T*S    EENTRO =        -0.11511123
  eigenvalues    EBANDS =     -5888.02338523
  atomic energy  EATOM  =     52597.06565719
  Solvation  Ediel_sol  =         0.00000000
  ---------------------------------------------------
  free energy    TOTEN  =      -697.71621205 eV

  energy without entropy =     -697.60110082  energy(sigma->0) =     -697.65865643


--------------------------------------------------------------------------------------------------------




--------------------------------------- Iteration      1(   4)  ---------------------------------------


     EDDAV:  cpu time   35.7360: real time   35.8425
       DOS:  cpu time    0.0013: real time    0.0013
    --------------------------------------------
      LOOP:  cpu time   35.7372: real time   35.8438

 eigenvalue-minimisations  : 16944
 total energy-change (2. order) :-0.8886485E+02  (-0.8641208E+02)
 number of electron     526.0000000 magnetization 
 augmentation part      526.0000000 magnetization 

 Free energy of the ion-electron system (eV)
  ---------------------------------------------------
  alpha Z        PSCENC =      5096.54082163
  Ewald energy   TEWEN  =    -45082.66083587
  -Hartree energ DENC   =     -9359.95400983
  -exchange      EXHF   =         0.00000000
  -V(xc)+E(xc)   XCENC  =      2073.40656766
  PAW double counting   =     33590.35687253   -33724.33278891
  entropy T*S    EENTRO =        -0.10288976
  eigenvalues    EBANDS =     -5976.90045378
  atomic energy  EATOM  =     52597.06565719
  Solvation  Ediel_sol  =         0.00000000
  ---------------------------------------------------
  free energy    TOTEN  =      -786.58105913 eV

  energy without entropy =     -786.47816937  energy(sigma->0) =     -786.52961425


--------------------------------------------------------------------------------------------------------




--------------------------------------- Iteration      1(   5)  ---------------------------------------


     EDDAV:  cpu time   37.4703: real time   37.5055
       DOS:  cpu time    0.0012: real time    0.0012
    CHARGE:  cpu time    0.2716: real time    0.2754
    MIXING:  cpu time    0.0020: real time    0.0032
    --------------------------------------------
      LOOP:  cpu time   37.7451: real time   37.7853

 eigenvalue-minimisations  : 18120
 total energy-change (2. order) :-0.5689460E+01  (-0.5624892E+01)
 number of electron     525.9999921 magnetization 
 augmentation part      121.3237127 magnetization 

 Broyden mixing:
  rms(total) = 0.75160E+01    rms(broyden)= 0.75147E+01
  rms(prec ) = 0.11696E+02
  weight for this iteration     100.00

 Free energy of the ion-electron system (eV)
  ---------------------------------------------------
  alpha Z        PSCENC =      5096.54082163
  Ewald energy   TEWEN  =    -45082.66083587
  -Hartree energ DENC   =     -9359.95400983
  -exchange      EXHF   =         0.00000000
  -V(xc)+E(xc)   XCENC  =      2073.40656766
  PAW double counting   =     33590.35687253   -33724.33278891
  entropy T*S    EENTRO =        -0.10732322
  eigenvalues    EBANDS =     -5982.58548024
  atomic energy  EATOM  =     52597.06565719
  Solvation  Ediel_sol  =         0.00000000
  ---------------------------------------------------
  free energy    TOTEN  =      -792.27051905 eV

  energy without entropy =     -792.16319583  energy(sigma->0) =     -792.21685744


--------------------------------------------------------------------------------------------------------




--------------------------------------- Iteration      1(   6)  ---------------------------------------


    POTLOK:  cpu time    0.0238: real time    0.0268
    SETDIJ:  cpu time    0.0078: real time    0.0078
    EDDIAG:  cpu time    1.9975: real time    2.0004
  RMM-DIIS:  cpu time   17.0367: real time   17.0858
    ORTHCH:  cpu time    0.4782: real time    0.4790
       DOS:  cpu time    0.0010: real time    0.0011
    CHARGE:  cpu time    0.2656: real time    0.2659
    MIXING:  cpu time    0.0015: real time    0.0023
    --------------------------------------------
      LOOP:  cpu time   19.8122: real time   19.8690

 eigenvalue-minimisations  : 11372
 total energy-change (2. order) :-0.5252809E+02  (-0.1820035E+03)
 number of electron     526.0000022 magnetization 
 augmentation part      162.3316442 magnetization 

 Broyden mixing:
  rms(total) = 0.10992E+02    rms(broyden)= 0.10990E+02
  rms(prec ) = 0.17993E+02
  weight for this iteration     100.00

 eigenvalues of (default mixing * dielectric matrix)
  average eigenvalue GAMMA=   0.3912
  0.3912

 Free energy of the ion-electron system (eV)
  ---------------------------------------------------
  alpha Z        PSCENC =      5096.54082163
  Ewald energy   TEWEN  =    -45082.66083587
  -Hartree energ DENC   =     -8462.92571916
  -exchange      EXHF   =         0.00000000
  -V(xc)+E(xc)   XCENC  =      2051.39476324
  PAW double counting   =     32348.04201044   -32503.91884296
  entropy T*S    EENTRO =        -0.12808433
  eigenvalues    EBANDS =     -6888.20837803
  atomic energy  EATOM  =     52597.06565719
  Solvation  Ediel_sol  =         0.00000000
  ---------------------------------------------------
  free energy    TOTEN  =      -844.79860785 eV

  energy without entropy =     -844.67052352  energy(sigma->0) =     -844.73456569


--------------------------------------------------------------------------------------------------------




--------------------------------------- Iteration      1(   7)  ---------------------------------------


    POTLOK:  cpu time    0.0233: real time    0.0267
    SETDIJ:  cpu time    0.0076: real time    0.0076
    EDDIAG:  cpu time    2.0014: real time    2.0058
  RMM-DIIS:  cpu time   20.0053: real time   20.0437
    ORTHCH:  cpu time    0.4793: real time    0.4801
       DOS:  cpu time    0.0011: real time    0.0011
    CHARGE:  cpu time    0.2579: real time    0.2583
    MIXING:  cpu time    0.0011: real time    0.0015
    --------------------------------------------
      LOOP:  cpu time   22.7771: real time   22.8248

 eigenvalue-minimisations  : 13016
 total energy-change (2. order) : 0.1700314E+03  (-0.2338781E+02)
 number of electron     525.9999988 magnetization 
 augmentation part      131.3098450 magnetization 

 Broyden mixing:
  rms(total) = 0.55722E+01    rms(broyden)= 0.55700E+01
  rms(prec ) = 0.10080E+02
  weight for this iteration     100.00

 eigenvalues of (default mixing * dielectric matrix)
  average eigenvalue GAMMA=   0.4216
  0.5974  0.2457

 Free energy of the ion-electron system (eV)
  ---------------------------------------------------
  alpha Z        PSCENC =      5096.54082163
  Ewald energy   TEWEN  =    -45082.66083587
  -Hartree energ DENC   =     -8938.95490652
  -exchange      EXHF   =         0.00000000
  -V(xc)+E(xc)   XCENC  =      2067.51078015
  PAW double counting   =     33596.94123148   -33810.28806983
  entropy T*S    EENTRO =        -0.16215447
  eigenvalues    EBANDS =     -6200.75969214
  atomic energy  EATOM  =     52597.06565719
  Solvation  Ediel_sol  =         0.00000000
  ---------------------------------------------------
  free energy    TOTEN  =      -674.76716837 eV

  energy without entropy =     -674.60501390  energy(sigma->0) =     -674.68609114


--------------------------------------------------------------------------------------------------------




--------------------------------------- Iteration      1(   8)  ---------------------------------------


    POTLOK:  cpu time    0.0238: real time    0.0275
    SETDIJ:  cpu time    0.0077: real time    0.0077
    EDDIAG:  cpu time    1.9788: real time    1.9833
  RMM-DIIS:  cpu time   21.7059: real time   21.7751
    ORTHCH:  cpu time    0.5045: real time    0.5086
       DOS:  cpu time    0.0011: real time    0.0011
    CHARGE:  cpu time    0.2642: real time    0.2710
    MIXING:  cpu time    0.0011: real time    0.0011
    --------------------------------------------
      LOOP:  cpu time   24.4873: real time   24.5753

 eigenvalue-minimisations  : 14499
 total energy-change (2. order) : 0.1286226E+02  (-0.6154974E+01)
 number of electron     525.9999991 magnetization 
 augmentation part      133.7804437 magnetization 

 Broyden mixing:
  rms(total) = 0.32688E+01    rms(broyden)= 0.32643E+01
  rms(prec ) = 0.57398E+01
  weight for this iteration     100.00

 eigenvalues of (default mixing * dielectric matrix)
  average eigenvalue GAMMA=   0.4666
  0.8343  0.3730  0.1925

 Free energy of the ion-electron system (eV)
  ---------------------------------------------------
  alpha Z        PSCENC =      5096.54082163
  Ewald energy   TEWEN  =    -45082.66083587
  -Hartree energ DENC   =     -8938.87114253
  -exchange      EXHF   =         0.00000000
  -V(xc)+E(xc)   XCENC  =      2066.93374801
  PAW double counting   =     33967.19972705   -34181.98328824
  entropy T*S    EENTRO =        -0.13597274
  eigenvalues    EBANDS =     -6185.99362621
  atomic energy  EATOM  =     52597.06565719
  Solvation  Ediel_sol  =         0.00000000
  ---------------------------------------------------
  free energy    TOTEN  =      -661.90491170 eV

  energy without entropy =     -661.76893896  energy(sigma->0) =     -661.83692533


--------------------------------------------------------------------------------------------------------




--------------------------------------- Iteration      1(   9)  ---------------------------------------


    POTLOK:  cpu time    0.0235: real time    0.0262
    SETDIJ:  cpu time    0.0076: real time    0.0076
    EDDIAG:  cpu time    2.0379: real time    2.0392
  RMM-DIIS:  cpu time   22.1329: real time   22.1463
    ORTHCH:  cpu time    0.4771: real time    0.4772
       DOS:  cpu time    0.0011: real time    0.0011
    CHARGE:  cpu time    0.2583: real time    0.2584
    MIXING:  cpu time    0.0010: real time    0.0010
    --------------------------------------------
      LOOP:  cpu time   24.9393: real time   24.9571

 eigenvalue-minimisations  : 14639
 total energy-change (2. order) : 0.1318558E+02  (-0.1742787E+01)
 number of electron     525.9999998 magnetization 
 augmentation part      134.0256570 magnetization 

 Broyden mixing:
  rms(total) = 0.20761E+01    rms(broyden)= 0.20748E+01
  rms(prec ) = 0.34037E+01
  weight for this iteration     100.00

 eigenvalues of (default mixing * dielectric matrix)
  average eigenvalue GAMMA=   0.3923
  0.8140  0.3581  0.1984  0.1984

 Free energy of the ion-electron system (eV)
  ---------------------------------------------------
  alpha Z        PSCENC =      5096.54082163
  Ewald energy   TEWEN  =    -45082.66083587
  -Hartree energ DENC   =     -8842.93062136
  -exchange      EXHF   =         0.00000000
  -V(xc)+E(xc)   XCENC  =      2062.61879584
  PAW double counting   =     34191.04936691   -34410.69644819
  entropy T*S    EENTRO =        -0.12985234
  eigenvalues    EBANDS =     -6259.57622000
  atomic energy  EATOM  =     52597.06565719
  Solvation  Ediel_sol  =         0.00000000
  ---------------------------------------------------
  free energy    TOTEN  =      -648.71933619 eV

  energy without entropy =     -648.58948385  energy(sigma->0) =     -648.65441002


--------------------------------------------------------------------------------------------------------




--------------------------------------- Iteration      1(  10)  ---------------------------------------


    POTLOK:  cpu time    0.0238: real time    0.0272
    SETDIJ:  cpu time    0.0077: real time    0.0077
    EDDIAG:  cpu time    1.9930: real time    1.9938
  RMM-DIIS:  cpu time   22.3038: real time   22.3182
    ORTHCH:  cpu time    0.4756: real time    0.4759
       DOS:  cpu time    0.0011: real time    0.0011
    CHARGE:  cpu time    0.2577: real time    0.2578
    MIXING:  cpu time    0.0012: real time    0.0012
    --------------------------------------------
      LOOP:  cpu time   25.0639: real time   25.0830

 eigenvalue-minimisations  : 14643
 total energy-change (2. order) : 0.2269967E+01  (-0.4584556E+00)
 number of electron     525.9999994 magnetization 
 augmentation part      134.1083430 magnetization 

 Broyden mixing:
  rms(total) = 0.12633E+01    rms(broyden)= 0.12624E+01
  rms(prec ) = 0.20434E+01
  weight for this iteration     100.00

 eigenvalues of (default mixing * dielectric matrix)
  average eigenvalue GAMMA=   0.4318
  0.6976  0.6976  0.4362  0.2003  0.1273

 Free energy of the ion-electron system (eV)
  ---------------------------------------------------
  alpha Z        PSCENC =      5096.54082163
  Ewald energy   TEWEN  =    -45082.66083587
  -Hartree energ DENC   =     -8832.33119240
  -exchange      EXHF   =         0.00000000
  -V(xc)+E(xc)   XCENC  =      2061.90648073
  PAW double counting   =     34259.23293408   -34478.02725519
  entropy T*S    EENTRO =        -0.14039421
  eigenvalues    EBANDS =     -6268.03558485
  atomic energy  EATOM  =     52597.06565719
  Solvation  Ediel_sol  =         0.00000000
  ---------------------------------------------------
  free energy    TOTEN  =      -646.44936889 eV

  energy without entropy =     -646.30897468  energy(sigma->0) =     -646.37917178


--------------------------------------------------------------------------------------------------------




--------------------------------------- Iteration      1(  11)  ---------------------------------------


    POTLOK:  cpu time    0.0236: real time    0.0266
    SETDIJ:  cpu time    0.0076: real time    0.0076
    EDDIAG:  cpu time    1.9929: real time    1.9940
  RMM-DIIS:  cpu time   22.7628: real time   22.7933
    ORTHCH:  cpu time    0.4784: real time    0.4785
       DOS:  cpu time    0.0011: real time    0.0011
    CHARGE:  cpu time    0.2569: real time    0.2569
    MIXING:  cpu time    0.0012: real time    0.0012
    --------------------------------------------
      LOOP:  cpu time   25.5246: real time   25.5593

 eigenvalue-minimisations  : 14931
 total energy-change (2. order) : 0.3240996E+00  (-0.3085745E+00)
 number of electron     525.9999999 magnetization 
 augmentation part      134.4972578 magnetization 

 Broyden mixing:
  rms(total) = 0.12718E+01    rms(broyden)= 0.12710E+01
  rms(prec ) = 0.20745E+01
  weight for this iteration     100.00

 eigenvalues of (default mixing * dielectric matrix)
  average eigenvalue GAMMA=   0.5006
  1.0486  1.0486  0.4042  0.2066  0.1853  0.1106

 Free energy of the ion-electron system (eV)
  ---------------------------------------------------
  alpha Z        PSCENC =      5096.54082163
  Ewald energy   TEWEN  =    -45082.66083587
  -Hartree energ DENC   =     -8813.14499957
  -exchange      EXHF   =         0.00000000
  -V(xc)+E(xc)   XCENC  =      2060.61662290
  PAW double counting   =     34396.93188152   -34613.82256378
  entropy T*S    EENTRO =        -0.13343813
  eigenvalues    EBANDS =     -6287.51841524
  atomic energy  EATOM  =     52597.06565719
  Solvation  Ediel_sol  =         0.00000000
  ---------------------------------------------------
  free energy    TOTEN  =      -646.12526933 eV

  energy without entropy =     -645.99183121  energy(sigma->0) =     -646.05855027


--------------------------------------------------------------------------------------------------------




--------------------------------------- Iteration      1(  12)  ---------------------------------------


    POTLOK:  cpu time    0.0235: real time    0.0268
    SETDIJ:  cpu time    0.0076: real time    0.0076
    EDDIAG:  cpu time    1.9772: real time    1.9778
  RMM-DIIS:  cpu time   21.8492: real time   21.8615
    ORTHCH:  cpu time    0.4740: real time    0.4742
       DOS:  cpu time    0.0011: real time    0.0011
    CHARGE:  cpu time    0.2582: real time    0.2582
    MIXING:  cpu time    0.0012: real time    0.0012
    --------------------------------------------
      LOOP:  cpu time   24.5919: real time   24.6085

 eigenvalue-minimisations  : 14454
 total energy-change (2. order) : 0.5644957E+00  (-0.2106099E+00)
 number of electron     525.9999995 magnetization 
 augmentation part      134.5973759 magnetization 

 Broyden mixing:
  rms(total) = 0.10475E+01    rms(broyden)= 0.10464E+01
  rms(prec ) = 0.16612E+01
  weight for this iteration     100.00

 eigenvalues of (default mixing * dielectric matrix)
  average eigenvalue GAMMA=   0.5053
  1.2123  1.2123  0.3926  0.2300  0.2300  0.1525  0.1072

 Free energy of the ion-electron system (eV)
  ---------------------------------------------------
  alpha Z        PSCENC =      5096.54082163
  Ewald energy   TEWEN  =    -45082.66083587
  -Hartree energ DENC   =     -8788.82789616
  -exchange      EXHF   =         0.00000000
  -V(xc)+E(xc)   XCENC  =      2059.04003271
  PAW double counting   =     34578.05529495   -34792.94872749
  entropy T*S    EENTRO =        -0.13451887
  eigenvalues    EBANDS =     -6311.69060170
  atomic energy  EATOM  =     52597.06565719
  Solvation  Ediel_sol  =         0.00000000
  ---------------------------------------------------
  free energy    TOTEN  =      -645.56077361 eV

  energy without entropy =     -645.42625474  energy(sigma->0) =     -645.49351417


--------------------------------------------------------------------------------------------------------




--------------------------------------- Iteration      1(  13)  ---------------------------------------


    POTLOK:  cpu time    0.0239: real time    0.0267
    SETDIJ:  cpu time    0.0076: real time    0.0076
    EDDIAG:  cpu time    1.9815: real time    1.9829
  RMM-DIIS:  cpu time   21.1117: real time   21.2192
    ORTHCH:  cpu time    0.4751: real time    0.4754
       DOS:  cpu time    0.0011: real time    0.0011
    CHARGE:  cpu time    0.2570: real time    0.2571
    MIXING:  cpu time    0.0013: real time    0.0013
    --------------------------------------------
      LOOP:  cpu time   23.8591: real time   23.9712

 eigenvalue-minimisations  : 13833
 total energy-change (2. order) : 0.2065989E+00  (-0.1537030E+00)
 number of electron     525.9999998 magnetization 
 augmentation part      134.7868244 magnetization 

 Broyden mixing:
  rms(total) = 0.97754E+00    rms(broyden)= 0.97642E+00
  rms(prec ) = 0.15796E+01
  weight for this iteration     100.00

 eigenvalues of (default mixing * dielectric matrix)
  average eigenvalue GAMMA=   0.5453
  1.3969  1.3969  0.4599  0.4599  0.2384  0.1845  0.1257  0.1004

 Free energy of the ion-electron system (eV)
  ---------------------------------------------------
  alpha Z        PSCENC =      5096.54082163
[...]
  0.003   0.028   0.001   0.004  -0.000   0.045   0.144  -0.036  -0.005   0.045   0.731   0.000   0.000   0.018  -0.026  -0.653
 -0.005  -0.051  -0.000  -0.001   0.001  -0.002  -0.005   0.011   0.008  -0.000   0.000   0.805  -0.040  -0.001   0.002   0.007
  0.001   0.016   0.001   0.000   0.000   0.075  -0.003   0.055   0.038  -0.016   0.000  -0.040   0.743  -0.008   0.015   0.030
 -0.003  -0.019   0.004   0.000  -0.006  -0.006   0.001  -0.007  -0.256   0.009   0.018  -0.001  -0.008   0.292   0.005  -0.019
 -0.008  -0.038   0.008  -0.006   0.000  -0.004   0.001   0.001   0.009  -0.313  -0.026   0.002   0.015   0.005   0.308   0.038
 -0.012  -0.038  -0.005  -0.018   0.002  -0.041  -0.168   0.034   0.018  -0.027  -0.653   0.007   0.030  -0.019   0.038   0.803
  0.002  -0.011   0.000   0.005   0.007   0.000  -0.001  -0.003  -0.000   0.003   0.006  -0.256  -0.008  -0.001   0.002  -0.009
  0.002  -0.028  -0.008  -0.001  -0.003  -0.081   0.001  -0.051  -0.008   0.017   0.030  -0.006  -0.642   0.016  -0.020  -0.068


------------------------ aborting loop because EDIFF is reached ----------------------------------------


    CHARGE:  cpu time    0.2707: real time    0.2707
    FORLOC:  cpu time    0.0137: real time    0.0137
    FORNL :  cpu time   14.3197: real time   14.3395
    STRESS:  cpu time   26.3069: real time   26.3865
    FORCOR:  cpu time    0.0335: real time    0.0340
    FORHAR:  cpu time    0.0178: real time    0.0178
    MIXING:  cpu time    0.0014: real time    0.0014
    OFIELD:  cpu time    0.0000: real time    0.0000

  FORCE on cell =-STRESS in cart. coord.  units (eV):
  Direction    XX          YY          ZZ          XY          YZ          ZX
  --------------------------------------------------------------------------------------
  Alpha Z  5098.19183  5098.19183  5098.19183
  Ewald  -15055.90941-14955.51405-15076.18970  -121.52380   171.51431   272.86315
  Hartree  2867.58874  2983.75959  2916.46080   -71.34859   129.05192   210.15693
  E(xc)   -2422.08833 -2422.08412 -2422.24169    -0.23202     0.17385     0.12667
  Local    3476.44940  3264.02491  3445.97320   192.23025  -301.53492  -483.83427
  n-local -2442.28479 -2449.57662 -2448.19093     1.09610    -1.36006    -0.60522
  augment  1026.59814  1025.68784  1027.04592    -0.32096     0.70065     1.10680
  Kinetic  7451.41409  7455.44940  7458.90684     0.09595     1.45099     0.15762
  Fock        0.00000     0.00000     0.00000     0.00000     0.00000     0.00000
  -------------------------------------------------------------------------------------
  Total      -0.04034    -0.06122    -0.04372    -0.00308    -0.00325    -0.02831
  in kB      -0.09543    -0.14483    -0.10344    -0.00727    -0.00768    -0.06698
  external pressure =       -0.11 kB  Pullay stress =        0.00 kB


 VOLUME and BASIS-vectors are now :
 -----------------------------------------------------------------------------
  energy-cutoff  :      400.00
  volume of cell :      677.24
      direct lattice vectors                 reciprocal lattice vectors
     8.772336048 -0.008632699 -0.026559068     0.113994565  0.000038652 -0.000064159
    -0.002973387  8.756784409 -0.007547395     0.000113276  0.114197464  0.000295948
     0.004969705 -0.022852467  8.816174563     0.000343510  0.000097879  0.113427941

  length of vectors
     8.772380501  8.756788166  8.816205582     0.113994589  0.114197903  0.113428504


 FORCES acting on ions
    electron-ion (+dipol)            ewald-force                    non-local-force                 convergence-correction
 -----------------------------------------------------------------------------------------------
   0.555E+02 -.701E+02 0.119E+03   -.540E+02 0.690E+02 -.118E+03   -.152E+01 0.106E+01 -.616E+00   -.267E-01 -.684E-02 -.109E-01
   -.745E+02 -.102E+03 0.295E+02   0.766E+02 0.100E+03 -.303E+02   -.211E+01 0.210E+01 0.730E+00   -.410E-01 0.150E-01 0.582E-04
   0.192E+03 0.945E+02 0.126E+02   -.192E+03 -.925E+02 -.137E+02   0.130E+00 -.198E+01 0.115E+01   -.534E-01 -.250E-01 -.409E-01
   -.110E+02 -.961E+02 -.471E+02   0.942E+01 0.937E+02 0.463E+02   0.156E+01 0.232E+01 0.799E+00   0.222E-01 -.148E-01 -.308E-01
   -.465E+02 -.200E+03 0.515E+02   0.447E+02 0.200E+03 -.503E+02   0.186E+01 -.375E+00 -.126E+01   0.208E-01 0.412E-01 -.501E-02
   -.132E+02 0.208E+02 0.966E+02   0.152E+02 -.207E+02 -.968E+02   -.196E+01 -.119E+00 0.138E+00   -.207E-01 -.474E-02 0.344E-01
   0.566E+02 0.232E+03 -.603E+02   -.583E+02 -.233E+03 0.613E+02   0.164E+01 0.806E+00 -.985E+00   0.291E-01 -.272E-01 -.432E-02
   0.604E+02 -.255E+02 0.422E+00   -.596E+02 0.265E+02 0.102E+00   -.803E+00 -.105E+01 -.493E+00   -.233E-01 0.207E-01 -.314E-01
   -.662E+02 0.979E+02 -.911E+02   0.650E+02 -.983E+02 0.915E+02   0.112E+01 0.438E+00 -.342E+00   0.679E-01 -.433E-01 -.214E-01
   0.142E+02 -.336E+02 -.112E+02   -.128E+02 0.328E+02 0.105E+02   -.138E+01 0.785E+00 0.696E+00   -.208E-01 0.419E-01 0.298E-01
   -.699E+02 0.169E+02 0.905E+02   0.697E+02 -.173E+02 -.895E+02   0.104E+00 0.445E+00 -.103E+01   0.126E-01 0.510E-02 0.105E-01
   -.483E+02 0.916E+01 0.123E+02   0.497E+02 -.854E+01 -.122E+02   -.143E+01 -.573E+00 -.223E+00   -.197E-01 -.482E-01 0.421E-01
   0.695E+02 -.887E+01 0.989E+00   -.687E+02 0.941E+01 -.399E+00   -.714E+00 -.529E+00 -.631E+00   -.475E-01 -.556E-02 0.401E-01
   0.662E+02 -.505E+02 -.186E+02   -.657E+02 0.502E+02 0.182E+02   -.444E+00 0.274E+00 0.328E+00   -.497E-01 0.510E-01 -.160E-01
   -.546E+02 0.169E+02 0.817E+01   0.539E+02 -.179E+02 -.951E+01   0.746E+00 0.974E+00 0.134E+01   0.243E-01 0.110E-01 0.271E-02
   -.123E+02 -.685E+02 0.559E+00   0.113E+02 0.671E+02 0.574E+00   0.100E+01 0.136E+01 -.114E+01   0.383E-01 0.178E-01 0.439E-02
   -.110E+03 -.881E+02 -.102E+03   0.110E+03 0.885E+02 0.101E+03   0.472E+00 -.502E+00 0.125E+01   0.494E-01 0.476E-01 -.983E-02
   0.212E+02 0.625E+02 0.251E+02   -.200E+02 -.623E+02 -.252E+02   -.109E+01 -.165E+00 0.145E+00   -.705E-01 -.495E-01 -.274E-01
   0.902E+02 -.865E+02 0.373E+02   -.909E+02 0.872E+02 -.367E+02   0.677E+00 -.702E+00 -.637E+00   -.138E-01 0.897E-02 0.150E-01
   0.145E+03 0.106E+03 -.359E+02   -.145E+03 -.106E+03 0.359E+02   -.491E-02 0.603E+00 -.702E-01   -.335E-01 -.777E-02 0.279E-01
   0.199E+02 -.123E+02 0.364E+01   -.183E+02 0.120E+02 -.367E+01   -.154E+01 0.265E+00 0.362E-01   -.132E-01 -.247E-02 -.591E-02
   -.711E+02 -.206E+02 0.637E+02   0.741E+02 0.213E+02 -.655E+02   -.298E+01 -.678E+00 0.184E+01   -.245E-01 0.244E-02 -.500E-03
   0.116E+02 -.459E+02 -.358E+01   -.119E+02 0.464E+02 0.349E+01   0.320E+00 -.592E+00 0.894E-01   -.684E-02 0.394E-01 -.768E-02
   -.242E+02 0.205E+01 -.951E+01   0.232E+02 -.393E+01 0.863E+01   0.100E+01 0.188E+01 0.895E+00   0.108E-01 0.880E-02 -.543E-02
   -.604E+02 -.194E+02 -.966E+02   0.633E+02 0.213E+02 0.981E+02   -.298E+01 -.190E+01 -.157E+01   0.282E-01 0.154E-02 -.920E-02
   -.307E+02 -.262E+02 0.905E+02   0.295E+02 0.250E+02 -.944E+02   0.113E+01 0.117E+01 0.394E+01   0.932E-02 0.228E-01 0.123E-01
   0.118E+02 -.909E+01 0.116E+02   -.991E+01 0.108E+02 -.113E+02   -.191E+01 -.171E+01 -.208E+00   -.183E-01 -.704E-03 -.400E-01
   0.257E+02 0.555E+02 -.109E+03   -.288E+02 -.572E+02 0.112E+03   0.308E+01 0.173E+01 -.340E+01   0.909E-02 -.212E-01 -.118E-01
   -.473E+02 -.114E+02 0.963E+01   0.480E+02 0.116E+02 -.718E+01   -.727E+00 -.199E+00 -.245E+01   -.196E-01 0.784E-03 0.518E-02
   -.568E+02 -.181E+02 0.867E+01   0.548E+02 0.150E+02 -.664E+01   0.205E+01 0.308E+01 -.204E+01   0.118E-01 0.731E-02 0.602E-02
   -.348E+02 -.293E+02 0.324E+02   0.321E+02 0.295E+02 -.300E+02   0.268E+01 -.184E+00 -.236E+01   0.603E-02 0.398E-02 0.969E-02
   -.309E+02 -.222E+02 0.612E+02   0.300E+02 0.189E+02 -.607E+02   0.890E+00 0.336E+01 -.523E+00   0.782E-02 0.109E-02 0.483E-02
   -.241E+02 -.232E+02 0.274E+02   0.256E+02 0.243E+02 -.293E+02   -.150E+01 -.109E+01 0.193E+01   0.278E-01 0.740E-02 -.216E-01
   0.668E+02 -.613E+02 -.337E+02   -.672E+02 0.630E+02 0.320E+02   0.409E+00 -.178E+01 0.169E+01   -.984E-02 0.136E-02 -.439E-02
   0.695E+01 -.288E+01 -.845E+02   -.739E+01 0.294E+01 0.851E+02   0.433E+00 -.795E-01 -.531E+00   0.530E-02 0.208E-01 -.261E-02
   0.206E+02 0.153E+02 0.252E+02   -.193E+02 -.153E+02 -.254E+02   -.128E+01 -.158E-01 0.213E+00   -.273E-01 0.524E-02 -.695E-02
   0.335E+02 0.481E+01 0.126E+02   -.335E+02 -.482E+01 -.112E+02   0.546E-02 0.755E-02 -.134E+01   -.450E-01 -.134E-02 -.258E-01
   0.143E+01 0.298E+02 0.949E+01   -.549E+00 -.299E+02 -.948E+01   -.879E+00 0.201E+00 0.335E-02   -.482E-02 -.458E-01 -.928E-02
   -.444E+02 -.122E+02 0.239E+02   0.435E+02 0.138E+02 -.252E+02   0.877E+00 -.152E+01 0.131E+01   0.282E-01 -.753E-02 -.712E-02
   -.430E+02 0.111E+02 -.201E+02   0.436E+02 -.119E+02 0.208E+02   -.638E+00 0.811E+00 -.702E+00   0.393E-01 -.230E-02 -.708E-02
   -.348E+02 0.511E+02 0.160E+02   0.329E+02 -.511E+02 -.180E+02   0.190E+01 0.890E-01 0.202E+01   0.234E-01 -.221E-01 -.857E-02
   0.896E+02 -.436E+02 -.966E+01   -.891E+02 0.432E+02 0.990E+01   -.502E+00 0.402E+00 -.240E+00   -.992E-02 0.215E-01 0.483E-02
   0.678E+02 -.243E+02 0.226E+02   -.673E+02 0.242E+02 -.231E+02   -.439E+00 0.107E+00 0.497E+00   -.465E-02 0.367E-02 -.441E-02
   0.168E+02 0.838E+01 0.117E+02   -.161E+02 -.707E+01 -.117E+02   -.693E+00 -.131E+01 0.485E-01   -.586E-02 0.206E-02 0.391E-02
   0.693E+02 0.463E+02 -.271E+02   -.690E+02 -.459E+02 0.273E+02   -.342E+00 -.394E+00 -.141E+00   -.158E-01 -.220E-01 0.627E-02
   0.245E+02 0.181E+02 -.798E+01   -.264E+02 -.178E+02 0.662E+01   0.190E+01 -.256E+00 0.134E+01   -.743E-02 -.448E-02 0.198E-01
   0.173E+01 0.332E+01 -.540E+01   -.339E+00 -.473E+01 0.567E+01   -.138E+01 0.141E+01 -.270E+00   -.551E-02 -.203E-02 0.445E-02
   -.488E+01 0.235E+02 -.586E+01   0.537E+01 -.238E+02 0.543E+01   -.487E+00 0.361E+00 0.367E+00   -.206E-02 0.290E-02 0.529E-01
   -.744E+02 0.528E+02 -.594E-01   0.736E+02 -.514E+02 0.331E+00   0.820E+00 -.139E+01 -.277E+00   0.150E-01 -.258E-02 0.523E-02
   -.180E+02 0.397E+02 0.241E+02   0.202E+02 -.409E+02 -.250E+02   -.222E+01 0.123E+01 0.909E+00   0.621E-02 -.410E-02 0.447E-02
   -.121E+02 0.297E+02 0.155E+01   0.109E+02 -.277E+02 -.127E+01   0.123E+01 -.195E+01 -.303E+00   0.668E-02 0.342E-02 0.214E-01
   0.128E+02 -.400E+01 0.178E+02   -.135E+02 0.396E+01 -.161E+02   0.679E+00 0.472E-01 -.171E+01   0.430E-02 -.629E-02 0.539E-02
   0.138E+03 0.121E+02 -.374E+03   -.137E+03 -.108E+02 0.374E+03   -.828E+00 -.136E+01 -.242E+00   0.406E-01 0.195E-01 -.161E-01
   0.200E+02 0.882E+02 -.110E+03   -.181E+02 -.857E+02 0.109E+03   -.192E+01 -.249E+01 0.635E+00   -.217E-01 -.638E-02 -.113E-01
   -.395E+02 -.724E+02 0.203E+03   0.376E+02 0.733E+02 -.202E+03   0.186E+01 -.890E+00 -.386E+00   0.304E-01 -.475E-02 0.967E-02
   0.339E+03 0.565E+01 -.157E+03   -.338E+03 -.639E+01 0.155E+03   -.995E+00 0.736E+00 0.197E+01   -.207E-01 0.867E-02 -.123E-01
   -.139E+03 -.116E+03 0.211E+03   0.137E+03 0.114E+03 -.213E+03   0.238E+01 0.203E+01 0.153E+01   0.276E-01 0.206E-01 0.519E-02
   -.254E+03 -.902E+02 0.123E+03   0.256E+03 0.890E+02 -.124E+03   -.141E+01 0.120E+01 0.885E+00   0.401E-01 0.285E-02 -.121E-01
   0.789E+02 0.148E+03 -.239E+02   -.777E+02 -.149E+03 0.234E+02   -.122E+01 0.924E+00 0.498E+00   -.266E-01 -.256E-01 -.397E-01
   -.155E+03 0.876E+02 0.135E+02   0.155E+03 -.870E+02 -.151E+02   -.880E-01 -.602E+00 0.168E+01   0.567E-01 -.234E-01 -.344E-01
   0.108E+03 -.471E+02 -.776E+02   -.107E+03 0.469E+02 0.775E+02   -.704E+00 0.132E+00 0.103E+00   -.262E-01 0.484E-02 0.481E-02
   -.198E+01 0.112E+03 -.235E+02   0.128E+00 -.112E+03 0.241E+02   0.183E+01 -.626E+00 -.632E+00   0.233E-01 -.275E-01 0.371E-01
   -.820E+02 0.652E+02 -.855E+01   0.810E+02 -.649E+02 0.997E+01   0.941E+00 -.286E+00 -.145E+01   0.513E-01 -.879E-02 0.401E-01
   -.141E+03 -.294E+02 0.413E+02   0.141E+03 0.297E+02 -.412E+02   -.301E+00 -.372E+00 -.110E+00   0.340E-01 -.642E-02 0.250E-01
 -----------------------------------------------------------------------------------------------
   0.362E+01 -.466E+01 -.266E+01   -.284E-12 0.810E-12 -.270E-12   -.368E+01 0.467E+01 0.267E+01   0.713E-01 -.721E-02 -.656E-02
 
 
 POSITION                                       TOTAL-FORCE (eV/Angst)
 -----------------------------------------------------------------------------------
      0.02674      8.59292      0.24646         0.000649      0.001178     -0.004254
      2.05198      8.57453      2.24792        -0.000544      0.001923      0.001698
      2.41863      4.51260      2.13939         0.001090      0.000735      0.002411
      4.37751      4.11275      8.70182        -0.000516      0.003289     -0.000642
      4.22215      2.12414      6.63987         0.002854      0.002138      0.001003
      0.01115      4.34160      4.68069        -0.002742      0.000066     -0.000777
      4.42182      6.65190      6.45943        -0.000646      0.005080      0.004228
      8.76622      2.37168      2.21347         0.000732     -0.005120     -0.000561
      6.52086      6.56902     -0.01824         0.001839     -0.000171     -0.000339
      0.10229      2.04560      6.59149         0.000075      0.002534      0.000658
      6.57225      2.26639      4.50483        -0.000271     -0.003130     -0.000641
      0.00480      6.63697      6.62778         0.001469      0.000286      0.000599
      2.26431      4.37677      6.63353         0.001114     -0.000024     -0.001228
      2.14737      2.11310      0.00425         0.001878      0.000081      0.000903
      4.32211      2.07978      2.17112        -0.000271      0.000263     -0.000514
      6.47691      8.66235      2.25848        -0.001315      0.000083     -0.001833
      6.61047      2.13863      8.69714        -0.001567     -0.000175      0.000347
      2.36008      6.64168     -0.00616         0.002006     -0.000017      0.001046
      2.21131      2.18437      4.39174         0.000189     -0.000668     -0.000082
      2.17125      6.54015      4.40368        -0.000685      0.000785      0.000782
      2.10616      2.21438      2.19775         0.000841     -0.001511      0.000206
      2.02093      8.73966      0.16397        -0.000643     -0.000040     -0.000526
      8.76043      2.12299      0.00037         0.001067      0.006852     -0.001124
      6.58355      2.18938      2.22164         0.000239      0.000871      0.000651
      6.65717      8.67677      8.71561         0.001332      0.000187     -0.000417
      4.26344      8.63435      2.39507        -0.002361     -0.001704      0.003228
      8.71123      4.37607      2.17045        -0.000583      0.001503     -0.000985
      4.50322      6.72595      8.59031        -0.000637     -0.002910      0.000015
      8.60774     -0.01370      6.59190         0.002340     -0.000107      0.001645
      6.59267      2.19230      6.53209        -0.001700     -0.005978      0.000146
      6.60725      0.01296      4.49581        -0.002573     -0.002449     -0.000180
      4.45733      2.18337      4.46845        -0.000262     -0.000590      0.000954
      4.45126      0.05656      6.50812         0.000330      0.002765     -0.000919
      8.76901      0.04214      2.17038        -0.001199      0.000406      0.001567
      4.39080      2.05973      8.69987         0.000656     -0.001091      0.000522
      2.27351      6.53606      2.19732        -0.000943     -0.000684      0.000511
      2.18865      4.39137      0.03602         0.001984     -0.000079      0.001071
      0.01409      6.54394      0.01934         0.001679     -0.000434      0.000324
      6.50600      6.48007      2.16200        -0.001665      0.000998     -0.000348
      6.61450      4.40883     -0.02283        -0.001060     -0.000926      0.000338
      4.32294      4.43114      2.09504        -0.001705      0.000732     -0.001252
      2.23759      2.08354      6.61177         0.001075     -0.000086      0.000045
      2.17710      8.73270      4.42103        -0.001576      0.000059      0.002429
      8.73450      2.18543      4.38676         0.000628     -0.000385      0.000038
      2.24615      6.65142      6.60328         0.001944      0.001528      0.000559
      2.17644      4.36858      4.35698        -0.000377     -0.000500     -0.001010
      8.69715      6.53541      4.37680        -0.000510     -0.000758     -0.000656
      0.00598      4.36155      6.64088        -0.000128      0.000289     -0.002956
      6.52654      6.60343      6.53858        -0.000107      0.000204     -0.000265
      6.64764      4.34971      4.34009        -0.000452     -0.000521     -0.000258
      4.43189      6.65701      4.39624        -0.001030     -0.000616      0.001601
      4.42916      4.36923      6.60225         0.000589      0.001734     -0.000128
      4.68599      0.09899      8.38181         0.000539     -0.001993     -0.001537
      0.09022      4.54231      8.53519         0.002654     -0.009426      0.000328
      4.41532      6.42465      2.49924        -0.001629     -0.000243     -0.001120
      2.46456      8.73431      6.40678        -0.001113      0.002232      0.002884
      4.15928      8.64033      4.53549        -0.000266     -0.002920     -0.001456
      6.46987      8.52540      6.68809         0.000098      0.003171     -0.001915
      0.02641      6.62013      2.19327         0.000314      0.001407     -0.001041
      6.33985      4.42837      2.08133         0.001358     -0.000041      0.001504
      0.08721     -0.00617      4.24952        -0.002916      0.000021     -0.002173
      4.39063      4.43085      4.38241         0.000121      0.000386     -0.001213
      6.52382      4.49196      6.64322         0.000702     -0.001661     -0.001648
      6.57002      6.38424      4.35308        -0.000391      0.003175     -0.000241
 -----------------------------------------------------------------------------------
    total drift:                                0.007995      0.007434     -0.005581


--------------------------------------------------------------------------------------------------------



  FREE ENERGIE OF THE ION-ELECTRON SYSTEM (eV)
  ---------------------------------------------------
  free  energy   TOTEN  =      -644.90798908 eV

  energy  without entropy=     -644.76947592  energy(sigma->0) =     -644.83873250
 
 d Force =-0.4538550E-07[-0.132E-04, 0.131E-04]  d Energy = 0.3236719E-03-0.324E-03
 d Force = 0.3140560E+00[ 0.314E+00, 0.314E+00]  d Ewald  =-0.9465250E+01 0.978E+01


--------------------------------------------------------------------------------------------------------


    POTLOK:  cpu time    0.0330: real time    0.0330


--------------------------------------------------------------------------------------------------------




--------------------------------------------------------------------------------------------------------


  
 reached required accuracy - stopping structural energy minimisation
     LOOP+:  cpu time  250.3066: real time  250.9055
    4ORBIT:  cpu time    0.0000: real time    0.0000

 total amount of memory used by VASP MPI-rank0   268817. kBytes
=======================================================================

   base      :      30000. kBytes
   nonl-proj :     186717. kBytes
   fftplans  :       1726. kBytes
   grid      :       8060. kBytes
   one-center:        995. kBytes
   wavefun   :      41319. kBytes
 
  
  
 General timing and accounting informations for this job:
 ========================================================
  
                  Total CPU time used (sec):     1291.317
                            User time (sec):     1284.368
                          System time (sec):        6.949
                         Elapsed time (sec):     1295.471
  
                   Maximum memory used (kb):      352980.
                   Average memory used (kb):           0.
  
                          Minor page faults:       365519
                          Major page faults:            0
                 Voluntary context switches:         3713
