 running on   24 total cores
 distrk:  each k-point on   24 cores,    1 groups
 distr:  one band on    1 cores,   24 groups
 using from now: INCAR     
 vasp.5.4.4.18Apr17-6-g9f103f2a35 (build Oct 18 2021 20:38:43) complex          
  
 POSCAR found type information on POSCAR  V  Ta Zr N  C  Cr W 
 POSCAR found :  7 types and      64 ions
 scaLAPACK will be used

 ----------------------------------------------------------------------------- 
|                                                                             |
|           W    W    AA    RRRRR   N    N  II  N    N   GGGG   !!!           |
|           W    W   A  A   R    R  NN   N  II  NN   N  G    G  !!!           |
|           W    W  A    A  R    R  N N  N  II  N N  N  G       !!!           |
|           W WW W  AAAAAA  RRRRR   N  N N  II  N  N N  G  GGG   !            |
|           WW  WW  A    A  R   R   N   NN  II  N   NN  G    G                |
|           W    W  A    A  R    R  N    N  II  N    N   GGGG   !!!           |
|                                                                             |
|      For optimal performance we recommend to set                            |
|        NCORE= 4 - approx SQRT( number of cores)                             |
|      NCORE specifies how many cores store one orbital (NPAR=cpu/NCORE).     |
|      This setting can  greatly improve the performance of VASP for DFT.     |
|      The default,   NCORE=1            might be grossly inefficient         |
|      on modern multi-core architectures or massively parallel machines.     |
|      Do your own testing !!!!                                               |
|      Unfortunately you need to use the default for GW and RPA calculations. |
|      (for HF NCORE is supported but not extensively tested yet)             |
|                                                                             |
 ----------------------------------------------------------------------------- 


 ----------------------------------------------------------------------------- 
|                                                                             |
|  ADVICE TO THIS USER RUNNING 'VASP/VAMP'   (HEAR YOUR MASTER'S VOICE ...):  |
|                                                                             |
|      You have a (more or less) 'large supercell' and for larger cells       |
|      it might be more efficient to use real space projection operators      |
|      So try LREAL= Auto  in the INCAR   file.                               |
|      Mind: If you want to do a very accurate calculations keep the          |
|      reciprocal projection scheme          (i.e. LREAL=.FALSE.)             |
|                                                                             |
 ----------------------------------------------------------------------------- 

 LDA part: xc-table for Pade appr. of Perdew
 POSCAR, INCAR and KPOINTS ok, starting setup
 FFT: planning ...
 WAVECAR not read
 entering main loop
       N       E                     dE             d eps       ncg     rms          rms(c)
DAV:   1     0.653419845897E+04    0.65342E+04   -0.22255E+05  9456   0.150E+03
DAV:   2     0.179205704103E+03   -0.63550E+04   -0.60834E+04  9744   0.541E+02
DAV:   3    -0.697716212051E+03   -0.87692E+03   -0.80822E+03 13608   0.186E+02
DAV:   4    -0.786581059135E+03   -0.88865E+02   -0.86412E+02 16944   0.690E+01
DAV:   5    -0.792270519054E+03   -0.56895E+01   -0.56249E+01 18120   0.147E+01    0.752E+01
RMM:   6    -0.844798607849E+03   -0.52528E+02   -0.18200E+03 11372   0.111E+02    0.110E+02
RMM:   7    -0.674767168374E+03    0.17003E+03   -0.23388E+02 13016   0.416E+01    0.557E+01
RMM:   8    -0.661904911703E+03    0.12862E+02   -0.61550E+01 14499   0.160E+01    0.327E+01
RMM:   9    -0.648719336187E+03    0.13186E+02   -0.17428E+01 14639   0.912E+00    0.208E+01
RMM:  10    -0.646449368891E+03    0.22700E+01   -0.45846E+00 14643   0.515E+00    0.126E+01
RMM:  11    -0.646125269332E+03    0.32410E+00   -0.30857E+00 14931   0.373E+00    0.127E+01
RMM:  12    -0.645560773606E+03    0.56450E+00   -0.21061E+00 14454   0.294E+00    0.105E+01
RMM:  13    -0.645354174659E+03    0.20660E+00   -0.15370E+00 13833   0.319E+00    0.978E+00
RMM:  14    -0.645504116702E+03   -0.14994E+00   -0.16718E+00 13822   0.311E+00    0.942E+00
RMM:  15    -0.645198401224E+03    0.30572E+00   -0.11674E+00 14329   0.252E+00    0.684E+00
RMM:  16    -0.645035789016E+03    0.16261E+00   -0.39310E-01 14434   0.136E+00    0.373E+00
RMM:  17    -0.644916857272E+03    0.11893E+00   -0.30238E-01 14673   0.941E-01    0.162E+00
RMM:  18    -0.644914970279E+03    0.18870E-02   -0.12929E-01 14676   0.595E-01    0.145E+00
RMM:  19    -0.644917629883E+03   -0.26596E-02   -0.88408E-02 14709   0.554E-01    0.149E+00
RMM:  20    -0.644910117711E+03    0.75122E-02   -0.47854E-02 14532   0.401E-01    0.675E-01
RMM:  21    -0.644913611245E+03   -0.34935E-02   -0.20303E-02 14638   0.314E-01    0.969E-01
RMM:  22    -0.644910317604E+03    0.32936E-02   -0.10845E-02 14100   0.219E-01    0.592E-01
RMM:  23    -0.644909064473E+03    0.12531E-02   -0.88660E-03 14739   0.160E-01    0.423E-01
RMM:  24    -0.644907686590E+03    0.13779E-02   -0.62227E-03 14179   0.124E-01    0.881E-02
RMM:  25    -0.644907797645E+03   -0.11105E-03   -0.24851E-03 13192   0.737E-02    0.431E-02
RMM:  26    -0.644907852814E+03   -0.55169E-04   -0.92656E-04 12036   0.384E-02    0.462E-02
RMM:  27    -0.644907879470E+03   -0.26655E-04   -0.51244E-04 10748   0.272E-02    0.326E-02
RMM:  28    -0.644907882230E+03   -0.27607E-05   -0.27170E-04  9852   0.209E-02    0.890E-03
RMM:  29    -0.644907893870E+03   -0.11640E-04   -0.13860E-04  8430   0.171E-02    0.140E-02
RMM:  30    -0.644907898769E+03   -0.48989E-05   -0.76973E-05  7536   0.140E-02
   1 F= -.64490790E+03 E0= -.64483859E+03  d E =-.644908E+03
 curvature:   0.00 expect dE= 0.000E+00 dE for cont linesearch  0.000E+00
 trial: gam= 0.00000 g(F)=  0.391E-04 g(S)=  0.427E-03 ort = 0.000E+00 (trialstep = 0.100E+01)
 search vector abs. value=  0.466E-03
 bond charge predicted
       N       E                     dE             d eps       ncg     rms          rms(c)
DAV:   1    -0.644912367900E+03   -0.44740E-02   -0.10680E-01 14112   0.143E+00    0.608E-01
RMM:   2    -0.644936448323E+03   -0.24080E-01   -0.51023E-02 12056   0.748E-01    0.185E+00
RMM:   3    -0.644916339919E+03    0.20108E-01   -0.15512E-02 11391   0.458E-01    0.118E+00
RMM:   4    -0.644909281610E+03    0.70583E-02   -0.49099E-03 11808   0.226E-01    0.500E-01
RMM:   5    -0.644908695665E+03    0.58594E-03   -0.18268E-03 11711   0.132E-01    0.386E-01
RMM:   6    -0.644908267401E+03    0.42826E-03   -0.11320E-03 11767   0.955E-02    0.332E-01
RMM:   7    -0.644907801796E+03    0.46561E-03   -0.48649E-04 10136   0.736E-02    0.166E-01
RMM:   8    -0.644907887344E+03   -0.85549E-04   -0.43462E-04 11777   0.584E-02    0.203E-01
RMM:   9    -0.644907701800E+03    0.18554E-03   -0.18749E-04 10325   0.457E-02    0.103E-01
RMM:  10    -0.644907657131E+03    0.44668E-04   -0.96110E-05  9859   0.270E-02    0.388E-02
RMM:  11    -0.644907665409E+03   -0.82777E-05   -0.34179E-05  7238   0.178E-02
   2 F= -.64490767E+03 E0= -.64483850E+03  d E =0.233360E-03
 trial-energy change:    0.000233  1 .order    0.000235   -0.000466    0.000936
 step:   0.3321(harm=  0.3321)  dis= 0.00013  next Energy=  -644.907976 (dE=-0.773E-04)
 bond charge predicted
       N       E                     dE             d eps       ncg     rms          rms(c)
DAV:   1    -0.644910188019E+03   -0.25309E-02   -0.48013E-02 13752   0.957E-01    0.408E-01
RMM:   2    -0.644920707897E+03   -0.10520E-01   -0.23068E-02 12152   0.500E-01    0.121E+00
RMM:   3    -0.644911831432E+03    0.88765E-02   -0.70354E-03 11372   0.312E-01    0.789E-01
RMM:   4    -0.644908765201E+03    0.30662E-02   -0.21854E-03 12105   0.152E-01    0.338E-01
RMM:   5    -0.644908511830E+03    0.25337E-03   -0.83043E-04 11622   0.875E-02    0.266E-01
RMM:   6    -0.644908285240E+03    0.22659E-03   -0.50820E-04 11767   0.656E-02    0.224E-01
RMM:   7    -0.644908075491E+03    0.20975E-03   -0.21536E-04  9623   0.512E-02    0.114E-01
RMM:   8    -0.644908103083E+03   -0.27592E-04   -0.19571E-04  9772   0.406E-02    0.136E-01
RMM:   9    -0.644908013978E+03    0.89105E-04   -0.70962E-05  7521   0.327E-02    0.722E-02
RMM:  10    -0.644907990154E+03    0.23824E-04   -0.35269E-05  6493   0.219E-02    0.291E-02
RMM:  11    -0.644907989081E+03    0.10731E-05   -0.14712E-05  5947   0.167E-02
   3 F= -.64490799E+03 E0= -.64483873E+03  d E =-.903118E-04
 curvature:  -0.17 expect dE=-0.583E-05 dE for cont linesearch -0.169E-05
 trial: gam=-0.07232 g(F)=  0.284E-04 g(S)=  0.673E-05 ort = 0.688E-04 (trialstep = 0.866E+00)
 search vector abs. value=  0.276E-04
 reached required accuracy - stopping structural energy minimisation
