<?xml version="1.0" encoding="ISO-8859-1"?>
<modeling>
 <generator>
  <i name="program" type="string">vasp </i>
  <i name="version" type="string">5.4.4.18Apr17-6-g9f103f2a35  </i>
  <i name="subversion" type="string">(build Oct 18 2021 20:38:43) complex            parallel </i>
  <i name="platform" type="string">LinuxIFC </i>
  <i name="date" type="string">2024 06 24 </i>
  <i name="time" type="string">10:46:28 </i>
 </generator>
 <incar>
  <i type="string" name="SYSTEM">HECN</i>
  <i type="int" name="ISTART">     0</i>
  <i type="string" name="PREC">normal</i>
  <i type="string" name="ALGO">Fast</i>
  <i type="int" name="ICHARG">     2</i>
  <i type="int" name="NELM">    60</i>
  <i type="int" name="IBRION">     2</i>
  <i name="EDIFF">      0.00001000</i>
  <i name="EDIFFG">     -0.01000000</i>
  <i type="int" name="NSW">   100</i>
  <i type="int" name="ISIF">     3</i>
  <i name="ENCUT">    400.00000000</i>
  <i name="POTIM">      0.50000000</i>
  <i type="logical" name="LREAL"> F  </i>
  <i type="int" name="ISMEAR">     0</i>
  <i name="SIGMA">      0.10000000</i>
  <i type="logical" name="LWAVE"> F  </i>
  <i type="logical" name="LCHARG"> F  </i>
  <v type="int" name="KPOINT_BSE">    -1     0     0     0</v>
  <i type="int" name="NELM">    60</i>
 </incar>
 <structure name="primitive_cell" >
  <crystal>
   <varray name="basis" >
    <v>       8.77318007      -0.00864129      -0.02647446 </v>
    <v>      -0.00298138       8.75772140      -0.00754128 </v>
    <v>       0.00505846      -0.02284781       8.81723842 </v>
   </varray>
   <i name="volume">    677.45490120 </i>
   <varray name="rec_basis" >
    <v>       0.11398360       0.00003875      -0.00006529 </v>
    <v>       0.00011336       0.11418525       0.00029582 </v>
    <v>       0.00034234       0.00009778       0.11341425 </v>
   </varray>
  </crystal>
  <varray name="positions" >
   <v>       0.00336138      -0.01863134       0.02881007 </v>
   <v>      -0.00051744       0.00644925       0.24918338 </v>
   <v>       0.23070494      -0.00167462       0.02014688 </v>
   <v>       0.00185580      -0.25268822       0.00283734 </v>
   <v>      -0.24134219      -0.00579886      -0.00826855 </v>
   <v>      -0.00128065       0.24342005       0.00326088 </v>
   <v>      -0.01919268       0.00136161      -0.24933947 </v>
   <v>       0.00312437      -0.24335293       0.24943750 </v>
   <v>       0.23410465      -0.01991409       0.25651805 </v>
   <v>      -0.25640516      -0.24910013       0.00081531 </v>
   <v>       0.26929384      -0.24126924       0.00076164 </v>
   <v>      -0.26147725      -0.00937859       0.25924619 </v>
   <v>       0.00037600      -0.24011084      -0.24757695 </v>
   <v>       0.24487077       0.24155372       0.00142477 </v>
   <v>      -0.24691365       0.24754613      -0.01101988 </v>
   <v>      -0.00075139       0.27249539       0.25431144 </v>
   <v>      -0.26256797      -0.02371038      -0.23832702 </v>
   <v>       0.01131462       0.23556079      -0.25210446 </v>
   <v>       0.28086942      -0.00039204      -0.27158755 </v>
   <v>       0.25928456      -0.25269059       0.25065767 </v>
   <v>      -0.25823845      -0.25861351       0.24810174 </v>
   <v>       0.24003605       0.25376798       0.25022637 </v>
   <v>      -0.24957045       0.25142415       0.25446971 </v>
   <v>       0.25588135      -0.23821640      -0.24958013 </v>
   <v>      -0.25617582      -0.24323079      -0.25545240 </v>
   <v>       0.00967231       0.00056213       0.48206337 </v>
   <v>       0.25473030       0.24014331      -0.24906689 </v>
   <v>       0.00990760      -0.47873425      -0.03138441 </v>
   <v>      -0.24880507       0.25304427      -0.25659166 </v>
   <v>      -0.46636052       0.01431567      -0.04763801 </v>
   <v>      -0.00859767      -0.25139261      -0.49992040 </v>
   <v>      -0.00693678      -0.49863232       0.24961232 </v>
   <v>      -0.48695198      -0.22885677      -0.02341230 </v>
   <v>       0.24823313      -0.00119200      -0.49693527 </v>
   <v>      -0.24580894      -0.49578181       0.00011257 </v>
   <v>       0.24965935      -0.49825801       0.00526816 </v>
   <v>       0.48619203      -0.01278612       0.27396904 </v>
   <v>      -0.00451103       0.25186006      -0.49920394 </v>
   <v>      -0.24709403       0.00356239      -0.48777615 </v>
   <v>       0.00042440      -0.49995869      -0.24630980 </v>
   <v>      -0.49995395       0.23828859      -0.01148253 </v>
   <v>      -0.49299606       0.00888409      -0.26026495 </v>
   <v>       0.27574435      -0.48376836       0.24393653 </v>
   <v>       0.24748331      -0.25158456      -0.49911707 </v>
   <v>      -0.27725154      -0.49296190       0.23869273 </v>
   <v>      -0.25108531      -0.26890256       0.49664342 </v>
   <v>       0.49263893       0.23863781       0.24795512 </v>
   <v>       0.25188134       0.25099984       0.49911900 </v>
   <v>      -0.25657266      -0.48432465      -0.24379318 </v>
   <v>       0.25786219      -0.49796574      -0.24636720 </v>
   <v>       0.48095511       0.24501241      -0.24520017 </v>
   <v>      -0.49658571      -0.26507980       0.28562196 </v>
   <v>      -0.25100034       0.26089745      -0.48655241 </v>
   <v>      -0.49609392      -0.23796935      -0.26515497 </v>
   <v>       0.47418472      -0.01147315      -0.48327113 </v>
   <v>       0.00114234       0.49718607      -0.46865541 </v>
   <v>       0.49861393       0.47273608      -0.01106160 </v>
   <v>       0.49282738      -0.49286491       0.23955435 </v>
   <v>       0.24798922      -0.49958180       0.49537736 </v>
   <v>      -0.24231307       0.49876151       0.49499677 </v>
   <v>      -0.49481421      -0.23798181      -0.49917208 </v>
   <v>      -0.49209356       0.25116175      -0.49140650 </v>
   <v>      -0.49535720      -0.49859262      -0.24917021 </v>
   <v>      -0.49960268      -0.49221640       0.49903315 </v>
  </varray>
 </structure>
 <varray name="primitive_index" >
  <v type="int" >        1 </v>
  <v type="int" >       34 </v>
  <v type="int" >       22 </v>
  <v type="int" >       38 </v>
  <v type="int" >       25 </v>
  <v type="int" >       23 </v>
  <v type="int" >       29 </v>
  <v type="int" >       59 </v>
  <v type="int" >        2 </v>
  <v type="int" >        9 </v>
  <v type="int" >       18 </v>
  <v type="int" >       16 </v>
  <v type="int" >       12 </v>
  <v type="int" >       14 </v>
  <v type="int" >       17 </v>
  <v type="int" >        8 </v>
  <v type="int" >       58 </v>
  <v type="int" >       10 </v>
  <v type="int" >       56 </v>
  <v type="int" >       36 </v>
  <v type="int" >       39 </v>
  <v type="int" >       21 </v>
  <v type="int" >       24 </v>
  <v type="int" >       45 </v>
  <v type="int" >       49 </v>
  <v type="int" >       61 </v>
  <v type="int" >       42 </v>
  <v type="int" >       54 </v>
  <v type="int" >       30 </v>
  <v type="int" >       53 </v>
  <v type="int" >       47 </v>
  <v type="int" >       27 </v>
  <v type="int" >       28 </v>
  <v type="int" >       43 </v>
  <v type="int" >       40 </v>
  <v type="int" >       37 </v>
  <v type="int" >       26 </v>
  <v type="int" >       44 </v>
  <v type="int" >       31 </v>
  <v type="int" >       48 </v>
  <v type="int" >       35 </v>
  <v type="int" >       33 </v>
  <v type="int" >        3 </v>
  <v type="int" >       20 </v>
  <v type="int" >       60 </v>
  <v type="int" >       64 </v>
  <v type="int" >       15 </v>
  <v type="int" >       19 </v>
  <v type="int" >       63 </v>
  <v type="int" >       13 </v>
  <v type="int" >        5 </v>
  <v type="int" >       55 </v>
  <v type="int" >       11 </v>
  <v type="int" >        7 </v>
  <v type="int" >       57 </v>
  <v type="int" >        6 </v>
  <v type="int" >        4 </v>
  <v type="int" >       41 </v>
  <v type="int" >       46 </v>
  <v type="int" >       50 </v>
  <v type="int" >       51 </v>
  <v type="int" >       32 </v>
  <v type="int" >       52 </v>
  <v type="int" >       62 </v>
 </varray>
 <kpoints>
  <generation param="Gamma">
   <v type="int" name="divisions">       3        3        3 </v>
   <v name="usershift">      0.00000000       0.00000000       0.00000000 </v>
   <v name="genvec1">      0.33333333      -0.00000000       0.00000000 </v>
   <v name="genvec2">      0.00000000       0.33333333       0.00000000 </v>
   <v name="genvec3">      0.00000000      -0.00000000       0.33333333 </v>
   <v name="shift">      0.00000000       0.00000000       0.00000000 </v>
  </generation>
  <varray name="kpointlist" >
   <v>       0.00000000       0.00000000       0.00000000 </v>
   <v>       0.33333333      -0.00000000       0.00000000 </v>
   <v>      -0.00000000       0.33333333      -0.00000000 </v>
   <v>       0.33333333       0.33333333       0.00000000 </v>
   <v>      -0.33333333       0.33333333      -0.00000000 </v>
   <v>      -0.00000000      -0.00000000       0.33333333 </v>
   <v>       0.33333333       0.00000000       0.33333333 </v>
   <v>      -0.33333333      -0.00000000       0.33333333 </v>
   <v>      -0.00000000       0.33333333       0.33333333 </v>
   <v>       0.33333333       0.33333333       0.33333333 </v>
   <v>      -0.33333333       0.33333333       0.33333333 </v>
   <v>      -0.00000000      -0.33333333       0.33333333 </v>
   <v>       0.33333333      -0.33333333       0.33333333 </v>
   <v>      -0.33333333      -0.33333333       0.33333333 </v>
  </varray>
  <varray name="weights" >
   <v>       0.03703704 </v>
   <v>       0.07407407 </v>
   <v>       0.07407407 </v>
   <v>       0.07407407 </v>
   <v>       0.07407407 </v>
   <v>       0.07407407 </v>
   <v>       0.07407407 </v>
   <v>       0.07407407 </v>
   <v>       0.07407407 </v>
   <v>       0.07407407 </v>
   <v>       0.07407407 </v>
   <v>       0.07407407 </v>
   <v>       0.07407407 </v>
   <v>       0.07407407 </v>
  </varray>
 </kpoints>
 <parameters>
  <separator name="general" >
   <i type="string" name="SYSTEM">HECN</i>
   <i type="logical" name="LCOMPAT"> F  </i>
  </separator>
  <separator name="electronic" >
   <i type="string" name="PREC">normal</i>
   <i name="ENMAX">    400.00000000</i>
   <i name="ENAUG">    644.87300000</i>
   <i name="EDIFF">      0.00001000</i>
   <i type="int" name="IALGO">    68</i>
   <i type="int" name="IWAVPR">    11</i>
   <i type="int" name="NBANDS">   336</i>
   <i name="NELECT">    526.00000000</i>
   <i type="int" name="TURBO">     0</i>
   <i type="int" name="IRESTART">     0</i>
   <i type="int" name="NREBOOT">     0</i>
   <i type="int" name="NMIN">     0</i>
   <i name="EREF">      0.00000000</i>
   <separator name="electronic smearing" >
    <i type="int" name="ISMEAR">     0</i>
    <i name="SIGMA">      0.10000000</i>
    <i name="KSPACING">      0.50000000</i>
    <i type="logical" name="KGAMMA"> T  </i>
   </separator>
   <separator name="electronic projectors" >
    <i type="logical" name="LREAL"> F  </i>
    <v name="ROPT">      0.00000000      0.00000000      0.00000000      0.00000000      0.00000000      0.00000000      0.00000000</v>
    <i type="int" name="LMAXPAW">  -100</i>
    <i type="int" name="LMAXMIX">     2</i>
    <i type="logical" name="NLSPLINE"> F  </i>
   </separator>
   <separator name="electronic startup" >
    <i type="int" name="ISTART">     0</i>
    <i type="int" name="ICHARG">     2</i>
    <i type="int" name="INIWAV">     1</i>
   </separator>
   <separator name="electronic spin" >
    <i type="int" name="ISPIN">     1</i>
    <i type="logical" name="LNONCOLLINEAR"> F  </i>
    <v name="MAGMOM">      1.00000000      1.00000000      1.00000000      1.00000000      1.00000000      1.00000000      1.00000000      1.00000000      1.00000000      1.00000000      1.00000000      1.00000000      1.00000000      1.00000000      1.00000000      1.00000000      1.00000000      1.00000000      1.00000000      1.00000000
      1.00000000      1.00000000      1.00000000      1.00000000      1.00000000      1.00000000      1.00000000      1.00000000      1.00000000      1.00000000      1.00000000      1.00000000      1.00000000      1.00000000      1.00000000      1.00000000      1.00000000      1.00000000      1.00000000      1.00000000
      1.00000000      1.00000000      1.00000000      1.00000000      1.00000000      1.00000000      1.00000000      1.00000000      1.00000000      1.00000000      1.00000000      1.00000000      1.00000000      1.00000000      1.00000000      1.00000000      1.00000000      1.00000000      1.00000000      1.00000000
      1.00000000      1.00000000      1.00000000      1.00000000</v>
    <i name="NUPDOWN">     -1.00000000</i>
    <i type="logical" name="LSORBIT"> F  </i>
    <v name="SAXIS">      0.00000000      0.00000000      1.00000000</v>
    <i type="logical" name="LSPIRAL"> F  </i>
    <v name="QSPIRAL">      0.00000000      0.00000000      0.00000000</v>
    <i type="logical" name="LZEROZ"> F  </i>
   </separator>
   <separator name="electronic exchange-correlation" >
    <i type="logical" name="LASPH"> F  </i>
    <i type="logical" name="LMETAGGA"> F  </i>
   </separator>
   <separator name="electronic convergence" >
    <i type="int" name="NELM">    60</i>
    <i type="int" name="NELMDL">    -5</i>
    <i type="int" name="NELMIN">     2</i>
    <i name="ENINI">    400.00000000</i>
    <separator name="electronic convergence detail" >
     <i type="logical" name="LDIAG"> T  </i>
     <i type="logical" name="LSUBROT"> F  </i>
     <i name="WEIMIN">      0.00100000</i>
     <i name="EBREAK">      0.00000001</i>
     <i name="DEPER">      0.30000000</i>
     <i type="int" name="NRMM">     4</i>
     <i name="TIME">      0.40000000</i>
    </separator>
   </separator>
   <separator name="electronic mixer" >
    <i name="AMIX">      0.40000000</i>
    <i name="BMIX">      1.00000000</i>
    <i name="AMIN">      0.10000000</i>
    <i name="AMIX_MAG">      1.60000000</i>
    <i name="BMIX_MAG">      1.00000000</i>
    <separator name="electronic mixer details" >
     <i type="int" name="IMIX">     4</i>
     <i type="logical" name="MIXFIRST"> F  </i>
     <i type="int" name="MAXMIX">   -45</i>
     <i name="WC">    100.00000000</i>
     <i type="int" name="INIMIX">     1</i>
     <i type="int" name="MIXPRE">     1</i>
     <i type="int" name="MREMOVE">     5</i>
    </separator>
   </separator>
   <separator name="electronic dipolcorrection" >
    <i type="logical" name="LDIPOL"> F  </i>
    <i type="logical" name="LMONO"> F  </i>
    <i type="int" name="IDIPOL">     0</i>
    <i name="EPSILON">      1.00000000</i>
    <v name="DIPOL">   -100.00000000   -100.00000000   -100.00000000</v>
    <i name="EFIELD">      0.00000000</i>
   </separator>
  </separator>
  <separator name="grids" >
   <i type="int" name="NGX">    48</i>
   <i type="int" name="NGY">    48</i>
   <i type="int" name="NGZ">    48</i>
   <i type="int" name="NGXF">    96</i>
   <i type="int" name="NGYF">    96</i>
   <i type="int" name="NGZF">    96</i>
   <i type="logical" name="ADDGRID"> F  </i>
  </separator>
  <separator name="ionic" >
   <i type="int" name="NSW">   100</i>
   <i type="int" name="IBRION">     2</i>
   <i type="int" name="MDALGO">     0</i>
   <i type="int" name="ISIF">     3</i>
   <i name="PSTRESS">      0.00000000</i>
   <i name="EDIFFG">     -0.01000000</i>
   <i type="int" name="NFREE">     1</i>
   <i name="POTIM">      0.50000000</i>
   <i name="SMASS">     -3.00000000</i>
   <i name="SCALEE">      1.00000000</i>
  </separator>
  <separator name="ionic md" >
   <i name="TEBEG">      0.00010000</i>
   <i name="TEEND">      0.00010000</i>
   <i type="int" name="NBLOCK">     1</i>
   <i type="int" name="KBLOCK">   100</i>
   <i type="int" name="NPACO">   256</i>
   <i name="APACO">     16.00000000</i>
  </separator>
  <separator name="symmetry" >
   <i type="int" name="ISYM">     2</i>
   <i name="SYMPREC">      0.00001000</i>
  </separator>
  <separator name="dos" >
   <i type="int" name="LORBIT">     0</i>
   <v name="RWIGS">     -1.00000000     -1.00000000     -1.00000000     -1.00000000     -1.00000000     -1.00000000     -1.00000000</v>
   <i type="int" name="NEDOS">   301</i>
   <i name="EMIN">     10.00000000</i>
   <i name="EMAX">    -10.00000000</i>
   <i name="EFERMI">      0.00000000</i>
  </separator>
  <separator name="writing" >
   <i type="int" name="NWRITE">     2</i>
   <i type="logical" name="LWAVE"> F  </i>
   <i type="logical" name="LDOWNSAMPLE"> F  </i>
   <i type="logical" name="LCHARG"> F  </i>
   <i type="logical" name="LPARD"> F  </i>
   <i type="logical" name="LVTOT"> F  </i>
   <i type="logical" name="LVHAR"> F  </i>
   <i type="logical" name="LELF"> F  </i>
   <i type="logical" name="LOPTICS"> F  </i>
   <v name="STM">      0.00000000      0.00000000      0.00000000      0.00000000      0.00000000      0.00000000      0.00000000</v>
  </separator>
  <separator name="performance" >
   <i type="int" name="NPAR">    24</i>
   <i type="int" name="NSIM">     4</i>
   <i type="int" name="NBLK">    -1</i>
   <i type="logical" name="LPLANE"> T  </i>
   <i type="logical" name="LSCALAPACK"> T  </i>
   <i type="logical" name="LSCAAWARE"> F  </i>
   <i type="logical" name="LSCALU"> F  </i>
   <i type="logical" name="LASYNC"> F  </i>
   <i type="logical" name="LORBITALREAL"> F  </i>
  </separator>
  <separator name="miscellaneous" >
   <i type="int" name="IDIOT">     3</i>
   <i type="int" name="ISPECIAL">     0</i>
   <i type="logical" name="LMUSIC"> F  </i>
   <v name="POMASS">     50.94100000    180.94800000     91.22400000     14.00100000     12.01100000     51.99600000    183.85000000</v>
   <v name="DARWINR">      0.00000000      0.00000000      0.00000000      0.00000000      0.00000000      0.00000000      0.00000000</v>
   <v name="DARWINV">      1.00000000      1.00000000      1.00000000      1.00000000      1.00000000      1.00000000      1.00000000</v>
   <i type="logical" name="LCORR"> T  </i>
  </separator>
  <i type="logical" name="GGA_COMPAT"> T  </i>
  <i type="logical" name="LBERRY"> F  </i>
  <i type="int" name="ICORELEVEL">     0</i>
  <i type="logical" name="LDAU"> F  </i>
  <i type="int" name="I_CONSTRAINED_M">     0</i>
  <separator name="electronic exchange-correlation" >
   <i type="string" name="GGA">--</i>
   <i type="int" name="VOSKOWN">     0</i>
   <i type="logical" name="LHFCALC"> F  </i>
   <i type="string" name="PRECFOCK"></i>
   <i type="logical" name="LSYMGRAD"> F  </i>
   <i type="logical" name="LHFONE"> F  </i>
   <i type="logical" name="LRHFCALC"> F  </i>
   <i type="logical" name="LTHOMAS"> F  </i>
   <i type="logical" name="LMODELHF"> F  </i>
   <i name="ENCUT4O">     -1.00000000</i>
   <i type="int" name="EXXOEP">     0</i>
   <i type="int" name="FOURORBIT">     0</i>
   <i name="AEXX">      0.00000000</i>
   <i name="HFALPHA">      0.00000000</i>
   <i name="MCALPHA">      0.00000000</i>
   <i name="ALDAX">      1.00000000</i>
   <i name="AGGAX">      1.00000000</i>
   <i name="ALDAC">      1.00000000</i>
   <i name="AGGAC">      1.00000000</i>
   <i type="int" name="NKREDX">     1</i>
   <i type="int" name="NKREDY">     1</i>
   <i type="int" name="NKREDZ">     1</i>
   <i type="logical" name="SHIFTRED"> F  </i>
   <i type="logical" name="ODDONLY"> F  </i>
   <i type="logical" name="EVENONLY"> F  </i>
   <i type="int" name="LMAXFOCK">     0</i>
   <i type="int" name="NMAXFOCKAE">     0</i>
   <i type="logical" name="LFOCKAEDFT"> F  </i>
   <i name="HFSCREEN">      0.00000000</i>
   <i name="HFSCREENC">      0.00000000</i>
   <i type="int" name="NBANDSGWLOW">     0</i>
  </separator>
  <separator name="vdW DFT" >
   <i type="logical" name="LUSE_VDW"> F  </i>
   <i name="Zab_VDW">     -0.84910000</i>
   <i name="PARAM1">      0.12340000</i>
   <i name="PARAM2">      1.00000000</i>
   <i name="PARAM3">      0.00000000</i>
  </separator>
  <separator name="model GW" >
   <i type="int" name="MODEL_GW">     0</i>
   <i name="MODEL_EPS0">      6.35113970</i>
   <i name="MODEL_ALPHA">      1.00000000</i>
  </separator>
  <separator name="linear response parameters" >
   <i type="logical" name="LEPSILON"> F  </i>
   <i type="logical" name="LRPA"> F  </i>
   <i type="logical" name="LNABLA"> F  </i>
   <i type="logical" name="LVEL"> F  </i>
   <i type="int" name="KINTER">     0</i>
   <i name="CSHIFT">      0.10000000</i>
   <i name="OMEGAMAX">     -1.00000000</i>
   <i name="DEG_THRESHOLD">      0.00200000</i>
   <i name="RTIME">     -0.10000000</i>
   <i name="WPLASMAI">      0.00000000</i>
   <v name="DFIELD">      0.00000000      0.00000000      0.00000000</v>
   <v name="WPLASMA">      0.00000000      0.00000000      0.00000000      0.00000000      0.00000000      0.00000000      0.00000000      0.00000000      0.00000000</v>
  </separator>
  <separator name="orbital magnetization" >
   <i type="logical" name="NUCIND"> F  </i>
   <v name="MAGPOS">      0.00000000      0.00000000      0.00000000</v>
   <i type="logical" name="LNICSALL"> T  </i>
   <i type="logical" name="ORBITALMAG"> F  </i>
   <i type="logical" name="LMAGBLOCH"> F  </i>
   <i type="logical" name="LCHIMAG"> F  </i>
   <i type="logical" name="LGAUGE"> T  </i>
   <i type="int" name="MAGATOM">     0</i>
   <v name="MAGDIPOL">      0.00000000      0.00000000      0.00000000</v>
   <v name="AVECCONST">      0.00000000      0.00000000      0.00000000</v>
  </separator>
  <separator name="response functions" >
   <i type="logical" name="LADDER"> F  </i>
   <i type="logical" name="LRPAFORCE"> F  </i>
   <i type="logical" name="LFXC"> F  </i>
   <i type="logical" name="LHARTREE"> T  </i>
   <i type="int" name="IBSE">     0</i>
   <v type="int" name="KPOINT">    -1     0     0     0</v>
   <i type="logical" name="LTCTE"> F  </i>
   <i type="logical" name="LTETE"> F  </i>
   <i type="logical" name="LTRIPLET"> F  </i>
   <i type="logical" name="LFXCEPS"> F  </i>
   <i type="logical" name="LFXHEG"> F  </i>
   <i type="int" name="NATURALO">     2</i>
   <i type="logical" name="L2ORDER"> F  </i>
   <i type="logical" name="LMP2LT"> F  </i>
   <i type="logical" name="LUSEW"> F  </i>
   <i name="ENCUTGW">     -2.00000000</i>
   <i name="ENCUTGWSOFT">     -2.00000000</i>
   <i name="ENCUTLF">     -1.00000000</i>
   <i type="int" name="LMAXMP2">    -1</i>
   <i name="SCISSOR">      0.00000000</i>
   <i type="int" name="NOMEGA">     0</i>
   <i type="int" name="NOMEGAR">     0</i>
   <i type="int" name="NBANDSGW">    -1</i>
   <i type="int" name="NBANDSO">    -1</i>
   <i type="int" name="NBANDSV">    -1</i>
   <i type="int" name="NELM">    60</i>
   <i type="int" name="NELMHF">     1</i>
   <i type="int" name="DIM">     3</i>
   <i type="int" name="ANTIRES">     0</i>
   <i name="OMEGAMAX">    -30.00000000</i>
   <i name="OMEGAMIN">    -30.00000000</i>
   <i name="OMEGATL">   -200.00000000</i>
   <i type="int" name="OMEGAGRID">   140</i>
   <i name="CSHIFT">     -0.10000000</i>
   <i type="logical" name="SELFENERGY"> F  </i>
   <i type="logical" name="LSPECTRAL"> F  </i>
   <i type="logical" name="LSPECTRALGW"> F  </i>
   <i type="logical" name="LSINGLES"> F  </i>
   <i type="logical" name="LFERMIGW"> F  </i>
   <i type="logical" name="ODDONLYGW"> F  </i>
   <i type="logical" name="EVENONLYGW"> F  </i>
   <i type="int" name="NKREDLFX">     1</i>
   <i type="int" name="NKREDLFY">     1</i>
   <i type="int" name="NKREDLFZ">     1</i>
   <i type="int" name="MAXMEM">  2800</i>
   <i type="int" name="TELESCOPE">     0</i>
   <i type="int" name="TAUPAR">     1</i>
   <i type="int" name="OMEGAPAR">    -1</i>
   <i name="LAMBDA">      1.00000000</i>
  </separator>
  <separator name="External order field" >
   <i name="OFIELD_KAPPA">      0.00000000</i>
   <v name="OFIELD_K">      0.00000000      0.00000000      0.00000000</v>
   <i name="OFIELD_Q6_NEAR">      0.00000000</i>
   <i name="OFIELD_Q6_FAR">      0.00000000</i>
   <i name="OFIELD_A">      0.00000000</i>
  </separator>
 </parameters>
 <atominfo>
  <atoms>      64 </atoms>
  <types>       7 </types>
  <array name="atoms" >
   <dimension dim="1">ion</dimension>
   <field type="string">element</field>
   <field type="int">atomtype</field>
   <set>
    <rc><c>V </c><c>   1</c></rc>
    <rc><c>V </c><c>   1</c></rc>
    <rc><c>V </c><c>   1</c></rc>
    <rc><c>V </c><c>   1</c></rc>
    <rc><c>V </c><c>   1</c></rc>
    <rc><c>V </c><c>   1</c></rc>
    <rc><c>V </c><c>   1</c></rc>
    <rc><c>Ta</c><c>   2</c></rc>
    <rc><c>Ta</c><c>   2</c></rc>
    <rc><c>Ta</c><c>   2</c></rc>
    <rc><c>Ta</c><c>   2</c></rc>
    <rc><c>Ta</c><c>   2</c></rc>
    <rc><c>Ta</c><c>   2</c></rc>
    <rc><c>Zr</c><c>   3</c></rc>
    <rc><c>Zr</c><c>   3</c></rc>
    <rc><c>Zr</c><c>   3</c></rc>
    <rc><c>Zr</c><c>   3</c></rc>
    <rc><c>Zr</c><c>   3</c></rc>
    <rc><c>Zr</c><c>   3</c></rc>
    <rc><c>Zr</c><c>   3</c></rc>
    <rc><c>N </c><c>   4</c></rc>
    <rc><c>N </c><c>   4</c></rc>
    <rc><c>N </c><c>   4</c></rc>
    <rc><c>N </c><c>   4</c></rc>
    <rc><c>N </c><c>   4</c></rc>
    <rc><c>N </c><c>   4</c></rc>
    <rc><c>N </c><c>   4</c></rc>
    <rc><c>N </c><c>   4</c></rc>
    <rc><c>N </c><c>   4</c></rc>
    <rc><c>N </c><c>   4</c></rc>
    <rc><c>N </c><c>   4</c></rc>
    <rc><c>N </c><c>   4</c></rc>
    <rc><c>N </c><c>   4</c></rc>
    <rc><c>C </c><c>   5</c></rc>
    <rc><c>C </c><c>   5</c></rc>
    <rc><c>C </c><c>   5</c></rc>
    <rc><c>C </c><c>   5</c></rc>
    <rc><c>C </c><c>   5</c></rc>
    <rc><c>C </c><c>   5</c></rc>
    <rc><c>C </c><c>   5</c></rc>
    <rc><c>C </c><c>   5</c></rc>
    <rc><c>C </c><c>   5</c></rc>
    <rc><c>C </c><c>   5</c></rc>
    <rc><c>C </c><c>   5</c></rc>
    <rc><c>C </c><c>   5</c></rc>
    <rc><c>C </c><c>   5</c></rc>
    <rc><c>C </c><c>   5</c></rc>
    <rc><c>C </c><c>   5</c></rc>
    <rc><c>C </c><c>   5</c></rc>
    <rc><c>C </c><c>   5</c></rc>
    <rc><c>C </c><c>   5</c></rc>
    <rc><c>C </c><c>   5</c></rc>
    <rc><c>Cr</c><c>   6</c></rc>
    <rc><c>Cr</c><c>   6</c></rc>
    <rc><c>Cr</c><c>   6</c></rc>
    <rc><c>Cr</c><c>   6</c></rc>
    <rc><c>Cr</c><c>   6</c></rc>
    <rc><c>Cr</c><c>   6</c></rc>
    <rc><c>W </c><c>   7</c></rc>
    <rc><c>W </c><c>   7</c></rc>
    <rc><c>W </c><c>   7</c></rc>
    <rc><c>W </c><c>   7</c></rc>
    <rc><c>W </c><c>   7</c></rc>
    <rc><c>W </c><c>   7</c></rc>
   </set>
  </array>
  <array name="atomtypes" >
   <dimension dim="1">type</dimension>
   <field type="int">atomspertype</field>
   <field type="string">element</field>
   <field>mass</field>
   <field>valence</field>
   <field type="string">pseudopotential</field>
   <set>
    <rc><c>   7</c><c>V </c><c>     50.94100000</c><c>     13.00000000</c><c> PAW_PBE V_sv 07Sep2000                 </c></rc>
    <rc><c>   6</c><c>Ta</c><c>    180.94800000</c><c>     11.00000000</c><c> PAW_PBE Ta_pv 07Sep2000                </c></rc>
    <rc><c>   7</c><c>Zr</c><c>     91.22400000</c><c>     12.00000000</c><c> PAW_PBE Zr_sv 07Sep2000                </c></rc>
    <rc><c>  13</c><c>N </c><c>     14.00100000</c><c>      5.00000000</c><c> PAW_PBE N 08Apr2002                    </c></rc>
    <rc><c>  19</c><c>C </c><c>     12.01100000</c><c>      4.00000000</c><c> PAW_PBE C 08Apr2002                    </c></rc>
    <rc><c>   6</c><c>Cr</c><c>     51.99600000</c><c>     12.00000000</c><c> PAW_PBE Cr_pv 07Sep2000                </c></rc>
    <rc><c>   6</c><c>W </c><c>    183.85000000</c><c>     12.00000000</c><c> PAW_PBE W_pv 06Sep2000                 </c></rc>
   </set>
  </array>
 </atominfo>
 <structure name="initialpos" >
  <crystal>
   <varray name="basis" >
    <v>       8.77318007      -0.00864129      -0.02647446 </v>
    <v>      -0.00298138       8.75772140      -0.00754128 </v>
    <v>       0.00505846      -0.02284781       8.81723842 </v>
   </varray>
   <i name="volume">    677.45490120 </i>
   <varray name="rec_basis" >
    <v>       0.11398360       0.00003875      -0.00006529 </v>
    <v>       0.00011336       0.11418525       0.00029582 </v>
    <v>       0.00034234       0.00009778       0.11341425 </v>
   </varray>
  </crystal>
  <varray name="positions" >
   <v>       0.00336138       0.98136866       0.02881007 </v>
   <v>       0.23410465       0.98008591       0.25651805 </v>
   <v>       0.27574435       0.51623164       0.24393653 </v>
   <v>       0.49861393       0.47273608       0.98893840 </v>
   <v>       0.48095511       0.24501241       0.75479983 </v>
   <v>       0.00114234       0.49718607       0.53134459 </v>
   <v>       0.50390608       0.76203065       0.73484503 </v>
   <v>       0.99924861       0.27249539       0.25431144 </v>
   <v>       0.74359484       0.75089987       0.00081531 </v>
   <v>       0.01131462       0.23556079       0.74789554 </v>
   <v>       0.74899966       0.26089745       0.51344759 </v>
   <v>       0.00037600       0.75988916       0.75242305 </v>
   <v>       0.25786219       0.50203426       0.75363280 </v>
   <v>       0.24487077       0.24155372       0.00142477 </v>
   <v>       0.49263893       0.23863781       0.24795512 </v>
   <v>       0.73852275       0.99062141       0.25924619 </v>
   <v>       0.75308635       0.24754613       0.98898012 </v>
   <v>       0.26929384       0.75873076       0.00076164 </v>
   <v>       0.25188134       0.25099984       0.49911900 </v>
   <v>       0.24748331       0.74841544       0.50088293 </v>
   <v>       0.24003605       0.25376798       0.25022637 </v>
   <v>       0.23070494       0.99832538       0.02014688 </v>
   <v>       0.99871935       0.24342005       0.00326088 </v>
   <v>       0.75042955       0.25142415       0.25446971 </v>
   <v>       0.75865781       0.99420114       0.99173145 </v>
   <v>       0.48619203       0.98721388       0.27396904 </v>
   <v>       0.99306322       0.50136768       0.24961232 </v>
   <v>       0.51304802       0.77114323       0.97658770 </v>
   <v>       0.98080732       0.00136161       0.75066053 </v>
   <v>       0.75119493       0.25304427       0.74340834 </v>
   <v>       0.75290597       0.00356239       0.51222385 </v>
   <v>       0.50790644       0.25116175       0.50859350 </v>
   <v>       0.50700394       0.00888409       0.73973505 </v>
   <v>       0.99948256       0.00644925       0.24918338 </v>
   <v>       0.50004605       0.23828859       0.98851747 </v>
   <v>       0.25928456       0.74730941       0.25065767 </v>
   <v>       0.24965935       0.50174199       0.00526816 </v>
   <v>       0.00185580       0.74731178       0.00283734 </v>
   <v>       0.74176155       0.74138649       0.24810174 </v>
   <v>       0.75419106       0.50421819       0.00011257 </v>
   <v>       0.49282738       0.50713509       0.23955435 </v>
   <v>       0.25473030       0.24014331       0.75093311 </v>
   <v>       0.24823313       0.99880800       0.50306473 </v>
   <v>       0.99548897       0.25186006       0.50079606 </v>
   <v>       0.25588135       0.76178360       0.75041987 </v>
   <v>       0.24798922       0.50041820       0.49537736 </v>
   <v>       0.99140233       0.74860739       0.50007960 </v>
   <v>       0.00042440       0.50004131       0.75369020 </v>
   <v>       0.74382418       0.75676921       0.74454760 </v>
   <v>       0.75768693       0.49876151       0.49499677 </v>
   <v>       0.50518579       0.76201819       0.50082792 </v>
   <v>       0.50464280       0.50140738       0.75082979 </v>
   <v>       0.53363948       0.01431567       0.95236199 </v>
   <v>       0.00990760       0.52126575       0.96861559 </v>
   <v>       0.50341429       0.73492020       0.28562196 </v>
   <v>       0.28086942       0.99960796       0.72841245 </v>
   <v>       0.47418472       0.98852685       0.51672887 </v>
   <v>       0.73743203       0.97628962       0.76167298 </v>
   <v>       0.00312437       0.75664707       0.24943750 </v>
   <v>       0.72274846       0.50703810       0.23869273 </v>
   <v>       0.00967231       0.00056213       0.48206337 </v>
   <v>       0.50039732       0.50778360       0.49903315 </v>
   <v>       0.74342734       0.51567535       0.75620682 </v>
   <v>       0.74891469       0.73109744       0.49664342 </v>
  </varray>
 </structure>
 <calculation>
  <scstep>
   <time name="dav">   21.03   21.10</time>
   <time name="total">   21.07   21.16</time>
   <energy>
    <i name="alphaZ">   5096.54082163 </i>
    <i name="ewald"> -45082.66083587 </i>
    <i name="hartreedc">  -9359.95400983 </i>
    <i name="XCdc">   2073.40656766 </i>
    <i name="pawpsdc">  33590.35687253 </i>
    <i name="pawaedc"> -33724.33278891 </i>
    <i name="eentropy">     -0.07251375 </i>
    <i name="bandstr">   1343.84868831 </i>
    <i name="atom">  52597.06565719 </i>
    <i name="e_fr_energy">   6534.19845897 </i>
    <i name="e_wo_entrp">   6534.27097272 </i>
    <i name="e_0_energy">   6534.23471585 </i>
   </energy>
  </scstep>
  <scstep>
   <time name="dav">   22.41   22.45</time>
   <time name="total">   22.41   22.45</time>
   <energy>
    <i name="e_fr_energy">    179.20570410 </i>
    <i name="e_wo_entrp">    179.34842500 </i>
    <i name="e_0_energy">    179.27706455 </i>
   </energy>
  </scstep>
  <scstep>
   <time name="dav">   29.31   29.32</time>
   <time name="total">   29.31   29.33</time>
   <energy>
    <i name="e_fr_energy">   -697.71621205 </i>
    <i name="e_wo_entrp">   -697.60110082 </i>
    <i name="e_0_energy">   -697.65865643 </i>
   </energy>
  </scstep>
  <scstep>
   <time name="dav">   35.74   35.84</time>
   <time name="total">   35.74   35.84</time>
   <energy>
    <i name="e_fr_energy">   -786.58105913 </i>
    <i name="e_wo_entrp">   -786.47816937 </i>
    <i name="e_0_energy">   -786.52961425 </i>
   </energy>
  </scstep>
  <scstep>
   <time name="dav">   37.47   37.51</time>
   <time name="total">   37.75   37.79</time>
   <energy>
    <i name="e_fr_energy">   -792.27051905 </i>
    <i name="e_wo_entrp">   -792.16319583 </i>
    <i name="e_0_energy">   -792.21685744 </i>
   </energy>
  </scstep>
  <scstep>
   <time name="diag">    2.00    2.00</time>
   <time name="diis">   17.04   17.09</time>
   <time name="orth">    0.48    0.48</time>
   <time name="total">   19.81   19.87</time>
   <energy>
    <i name="e_fr_energy">   -844.79860785 </i>
    <i name="e_wo_entrp">   -844.67052352 </i>
    <i name="e_0_energy">   -844.73456569 </i>
   </energy>
  </scstep>
  <scstep>
   <time name="diag">    2.00    2.01</time>
   <time name="diis">   20.01   20.04</time>
   <time name="orth">    0.48    0.48</time>
   <time name="total">   22.78   22.82</time>
   <energy>
    <i name="e_fr_energy">   -674.76716837 </i>
    <i name="e_wo_entrp">   -674.60501390 </i>
    <i name="e_0_energy">   -674.68609114 </i>
   </energy>
  </scstep>
  <scstep>
   <time name="diag">    1.98    1.98</time>
   <time name="diis">   21.71   21.78</time>
   <time name="orth">    0.50    0.51</time>
   <time name="total">   24.49   24.58</time>
   <energy>
    <i name="e_fr_energy">   -661.90491170 </i>
    <i name="e_wo_entrp">   -661.76893896 </i>
    <i name="e_0_energy">   -661.83692533 </i>
   </energy>
  </scstep>
  <scstep>
   <time name="diag">    2.04    2.04</time>
   <time name="diis">   22.13   22.15</time>
   <time name="orth">    0.48    0.48</time>
   <time name="total">   24.94   24.96</time>
   <energy>
    <i name="e_fr_energy">   -648.71933619 </i>
    <i name="e_wo_entrp">   -648.58948385 </i>
    <i name="e_0_energy">   -648.65441002 </i>
   </energy>
  </scstep>
  <scstep>
   <time name="diag">    1.99    1.99</time>
   <time name="diis">   22.30   22.32</time>
   <time name="orth">    0.48    0.48</time>
   <time name="total">   25.06   25.08</time>
   <energy>
    <i name="e_fr_energy">   -646.44936889 </i>
    <i name="e_wo_entrp">   -646.30897468 </i>
    <i name="e_0_energy">   -646.37917178 </i>
   </energy>
  </scstep>
  <scstep>
   <time name="diag">    1.99    1.99</time>
   <time name="diis">   22.76   22.79</time>
   <time name="orth">    0.48    0.48</time>
   <time name="total">   25.52   25.56</time>
   <energy>
    <i name="e_fr_energy">   -646.12526933 </i>
    <i name="e_wo_entrp">   -645.99183121 </i>
    <i name="e_0_energy">   -646.05855027 </i>
   </energy>
  </scstep>
  <scstep>
   <time name="diag">    1.98    1.98</time>
   <time name="diis">   21.85   21.86</time>
   <time name="orth">    0.47    0.47</time>
   <time name="total">   24.59   24.61</time>
   <energy>
    <i name="e_fr_energy">   -645.56077361 </i>
    <i name="e_wo_entrp">   -645.42625474 </i>
    <i name="e_0_energy">   -645.49351417 </i>
   </energy>
  </scstep>
  <scstep>
   <time name="diag">    1.98    1.98</time>
   <time name="diis">   21.11   21.22</time>
   <time name="orth">    0.48    0.48</time>
   <time name="total">   23.86   23.97</time>
   <energy>
    <i name="e_fr_energy">   -645.35417466 </i>
    <i name="e_wo_entrp">   -645.22514000 </i>
    <i name="e_0_energy">   -645.28965733 </i>
   </energy>
  </scstep>
  <scstep>
   <time name="diag">    2.00    2.00</time>
   <time name="diis">   20.94   20.96</time>
   <time name="orth">    0.48    0.48</time>
   <time name="total">   23.71   23.74</time>
   <energy>
    <i name="e_fr_energy">   -645.50411670 </i>
    <i name="e_wo_entrp">   -645.35588573 </i>
    <i name="e_0_energy">   -645.43000122 </i>
   </energy>
  </scstep>
  <scstep>
   <time name="diag">    2.01    2.02</time>
   <time name="diis">   21.52   21.54</time>
   <time name="orth">    0.47    0.48</time>
   <time name="total">   24.30   24.33</time>
   <energy>
    <i name="e_fr_energy">   -645.19840122 </i>
    <i name="e_wo_entrp">   -645.05605162 </i>
    <i name="e_0_energy">   -645.12722642 </i>
   </energy>
  </scstep>
  <scstep>
   <time name="diag">    1.99    1.99</time>
   <time name="diis">   21.60   21.69</time>
   <time name="orth">    0.48    0.48</time>
   <time name="total">   24.35   24.44</time>
   <energy>
    <i name="e_fr_energy">   -645.03578902 </i>
    <i name="e_wo_entrp">   -644.89716532 </i>
    <i name="e_0_energy">   -644.96647717 </i>
   </energy>
  </scstep>
  <scstep>
   <time name="diag">    2.00    2.00</time>
   <time name="diis">   22.50   22.53</time>
   <time name="orth">    0.47    0.47</time>
   <time name="total">   25.27   25.30</time>
   <energy>
    <i name="e_fr_energy">   -644.91685727 </i>
    <i name="e_wo_entrp">   -644.77704243 </i>
    <i name="e_0_energy">   -644.84694985 </i>
   </energy>
  </scstep>
  <scstep>
   <time name="diag">    2.01    2.02</time>
   <time name="diis">   22.55   22.65</time>
   <time name="orth">    0.48    0.48</time>
   <time name="total">   25.32   25.44</time>
   <energy>
    <i name="e_fr_energy">   -644.91497028 </i>
    <i name="e_wo_entrp">   -644.77608513 </i>
    <i name="e_0_energy">   -644.84552770 </i>
   </energy>
  </scstep>
  <scstep>
   <time name="diag">    1.99    1.99</time>
   <time name="diis">   22.56   22.58</time>
   <time name="orth">    0.47    0.47</time>
   <time name="total">   25.33   25.36</time>
   <energy>
    <i name="e_fr_energy">   -644.91762988 </i>
    <i name="e_wo_entrp">   -644.77860184 </i>
    <i name="e_0_energy">   -644.84811586 </i>
   </energy>
  </scstep>
  <scstep>
   <time name="diag">    1.99    1.99</time>
   <time name="diis">   22.03   22.07</time>
   <time name="orth">    0.47    0.47</time>
   <time name="total">   24.78   24.83</time>
   <energy>
    <i name="e_fr_energy">   -644.91011771 </i>
    <i name="e_wo_entrp">   -644.77151799 </i>
    <i name="e_0_energy">   -644.84081785 </i>
   </energy>
  </scstep>
  <scstep>
   <time name="diag">    2.01    2.04</time>
   <time name="diis">   22.12   22.16</time>
   <time name="orth">    0.47    0.47</time>
   <time name="total">   24.91   24.97</time>
   <energy>
    <i name="e_fr_energy">   -644.91361124 </i>
    <i name="e_wo_entrp">   -644.77449510 </i>
    <i name="e_0_energy">   -644.84405317 </i>
   </energy>
  </scstep>
  <scstep>
   <time name="diag">    1.98    1.98</time>
   <time name="diis">   21.41   21.44</time>
   <time name="orth">    0.47    0.47</time>
   <time name="total">   24.16   24.19</time>
   <energy>
    <i name="e_fr_energy">   -644.91031760 </i>
    <i name="e_wo_entrp">   -644.77199039 </i>
    <i name="e_0_energy">   -644.84115400 </i>
   </energy>
  </scstep>
  <scstep>
   <time name="diag">    2.00    2.01</time>
   <time name="diis">   22.14   22.21</time>
   <time name="orth">    0.47    0.47</time>
   <time name="total">   24.91   24.99</time>
   <energy>
    <i name="e_fr_energy">   -644.90906447 </i>
    <i name="e_wo_entrp">   -644.77044568 </i>
    <i name="e_0_energy">   -644.83975508 </i>
   </energy>
  </scstep>
  <scstep>
   <time name="diag">    1.98    1.98</time>
   <time name="diis">   21.35   21.40</time>
   <time name="orth">    0.47    0.47</time>
   <time name="total">   24.10   24.16</time>
   <energy>
    <i name="e_fr_energy">   -644.90768659 </i>
    <i name="e_wo_entrp">   -644.76915589 </i>
    <i name="e_0_energy">   -644.83842124 </i>
   </energy>
  </scstep>
  <scstep>
   <time name="diag">    1.99    1.99</time>
   <time name="diis">   20.31   20.34</time>
   <time name="orth">    0.50    0.51</time>
   <time name="total">   23.11   23.15</time>
   <energy>
    <i name="e_fr_energy">   -644.90779765 </i>
    <i name="e_wo_entrp">   -644.76917764 </i>
    <i name="e_0_energy">   -644.83848764 </i>
   </energy>
  </scstep>
  <scstep>
   <time name="diag">    2.02    2.02</time>
   <time name="diis">   18.41   18.42</time>
   <time name="orth">    0.48    0.48</time>
   <time name="total">   21.20   21.22</time>
   <energy>
    <i name="e_fr_energy">   -644.90785281 </i>
    <i name="e_wo_entrp">   -644.76921325 </i>
    <i name="e_0_energy">   -644.83853303 </i>
   </energy>
  </scstep>
  <scstep>
   <time name="diag">    1.99    1.99</time>
   <time name="diis">   16.48   16.50</time>
   <time name="orth">    0.47    0.47</time>
   <time name="total">   19.24   19.26</time>
   <energy>
    <i name="e_fr_energy">   -644.90787947 </i>
    <i name="e_wo_entrp">   -644.76927672 </i>
    <i name="e_0_energy">   -644.83857809 </i>
   </energy>
  </scstep>
  <scstep>
   <time name="diag">    1.99    1.99</time>
   <time name="diis">   15.37   15.38</time>
   <time name="orth">    0.48    0.48</time>
   <time name="total">   18.13   18.15</time>
   <energy>
    <i name="e_fr_energy">   -644.90788223 </i>
    <i name="e_wo_entrp">   -644.76925677 </i>
    <i name="e_0_energy">   -644.83856950 </i>
   </energy>
  </scstep>
  <scstep>
   <time name="diag">    2.09    2.11</time>
   <time name="diis">   13.09   13.15</time>
   <time name="orth">    0.47    0.47</time>
   <time name="total">   15.95   16.04</time>
   <energy>
    <i name="e_fr_energy">   -644.90789387 </i>
    <i name="e_wo_entrp">   -644.76926685 </i>
    <i name="e_0_energy">   -644.83858036 </i>
   </energy>
  </scstep>
  <scstep>
   <time name="diag">    2.01    2.02</time>
   <time name="diis">   11.68   11.69</time>
   <time name="orth">    0.47    0.47</time>
   <time name="total">   14.20   14.22</time>
   <energy>
    <i name="alphaZ">   5096.54082163 </i>
    <i name="ewald"> -45082.66083587 </i>
    <i name="hartreedc">  -8769.08734201 </i>
    <i name="XCdc">   2057.35817531 </i>
    <i name="pawpsdc">  35403.83843737 </i>
    <i name="pawaedc"> -35605.21801891 </i>
    <i name="eentropy">     -0.13862280 </i>
    <i name="bandstr">  -6342.60617068 </i>
    <i name="atom">  52597.06565719 </i>
    <i name="e_fr_energy">   -644.90789877 </i>
    <i name="e_wo_entrp">   -644.76927597 </i>
    <i name="e_0_energy">   -644.83858737 </i>
   </energy>
  </scstep>
  <structure>
   <crystal>
    <varray name="basis" >
     <v>       8.77318007      -0.00864129      -0.02647446 </v>
     <v>      -0.00298138       8.75772140      -0.00754128 </v>
     <v>       0.00505846      -0.02284781       8.81723842 </v>
    </varray>
    <i name="volume">    677.45490120 </i>
    <varray name="rec_basis" >
     <v>       0.11398360       0.00003875      -0.00006529 </v>
     <v>       0.00011336       0.11418525       0.00029582 </v>
     <v>       0.00034234       0.00009778       0.11341425 </v>
    </varray>
   </crystal>
   <varray name="positions" >
    <v>       0.00336138       0.98136866       0.02881007 </v>
    <v>       0.23410465       0.98008591       0.25651805 </v>
    <v>       0.27574435       0.51623164       0.24393653 </v>
    <v>       0.49861393       0.47273608       0.98893840 </v>
    <v>       0.48095511       0.24501241       0.75479983 </v>
    <v>       0.00114234       0.49718607       0.53134459 </v>
    <v>       0.50390608       0.76203065       0.73484503 </v>
    <v>       0.99924861       0.27249539       0.25431144 </v>
    <v>       0.74359484       0.75089987       0.00081531 </v>
    <v>       0.01131462       0.23556079       0.74789554 </v>
    <v>       0.74899966       0.26089745       0.51344759 </v>
    <v>       0.00037600       0.75988916       0.75242305 </v>
    <v>       0.25786219       0.50203426       0.75363280 </v>
    <v>       0.24487077       0.24155372       0.00142477 </v>
    <v>       0.49263893       0.23863781       0.24795512 </v>
    <v>       0.73852275       0.99062141       0.25924619 </v>
    <v>       0.75308635       0.24754613       0.98898012 </v>
    <v>       0.26929384       0.75873076       0.00076164 </v>
    <v>       0.25188134       0.25099984       0.49911900 </v>
    <v>       0.24748331       0.74841544       0.50088293 </v>
    <v>       0.24003605       0.25376798       0.25022637 </v>
    <v>       0.23070494       0.99832538       0.02014688 </v>
    <v>       0.99871935       0.24342005       0.00326088 </v>
    <v>       0.75042955       0.25142415       0.25446971 </v>
    <v>       0.75865781       0.99420114       0.99173145 </v>
    <v>       0.48619203       0.98721388       0.27396904 </v>
    <v>       0.99306322       0.50136768       0.24961232 </v>
    <v>       0.51304802       0.77114323       0.97658770 </v>
    <v>       0.98080732       0.00136161       0.75066053 </v>
    <v>       0.75119493       0.25304427       0.74340834 </v>
    <v>       0.75290597       0.00356239       0.51222385 </v>
    <v>       0.50790644       0.25116175       0.50859350 </v>
    <v>       0.50700394       0.00888409       0.73973505 </v>
    <v>       0.99948256       0.00644925       0.24918338 </v>
    <v>       0.50004605       0.23828859       0.98851747 </v>
    <v>       0.25928456       0.74730941       0.25065767 </v>
    <v>       0.24965935       0.50174199       0.00526816 </v>
    <v>       0.00185580       0.74731178       0.00283734 </v>
    <v>       0.74176155       0.74138649       0.24810174 </v>
    <v>       0.75419106       0.50421819       0.00011257 </v>
    <v>       0.49282738       0.50713509       0.23955435 </v>
    <v>       0.25473030       0.24014331       0.75093311 </v>
    <v>       0.24823313       0.99880800       0.50306473 </v>
    <v>       0.99548897       0.25186006       0.50079606 </v>
    <v>       0.25588135       0.76178360       0.75041987 </v>
    <v>       0.24798922       0.50041820       0.49537736 </v>
    <v>       0.99140233       0.74860739       0.50007960 </v>
    <v>       0.00042440       0.50004131       0.75369020 </v>
    <v>       0.74382418       0.75676921       0.74454760 </v>
    <v>       0.75768693       0.49876151       0.49499677 </v>
    <v>       0.50518579       0.76201819       0.50082792 </v>
    <v>       0.50464280       0.50140738       0.75082979 </v>
    <v>       0.53363948       0.01431567       0.95236199 </v>
    <v>       0.00990760       0.52126575       0.96861559 </v>
    <v>       0.50341429       0.73492020       0.28562196 </v>
    <v>       0.28086942       0.99960796       0.72841245 </v>
    <v>       0.47418472       0.98852685       0.51672887 </v>
    <v>       0.73743203       0.97628962       0.76167298 </v>
    <v>       0.00312437       0.75664707       0.24943750 </v>
    <v>       0.72274846       0.50703810       0.23869273 </v>
    <v>       0.00967231       0.00056213       0.48206337 </v>
    <v>       0.50039732       0.50778360       0.49903315 </v>
    <v>       0.74342734       0.51567535       0.75620682 </v>
    <v>       0.74891469       0.73109744       0.49664342 </v>
   </varray>
  </structure>
  <varray name="forces" >
   <v>       0.00152795      -0.00140951      -0.00268253 </v>
   <v>      -0.00187078       0.00050508       0.00167459 </v>
   <v>       0.00216437       0.00159952       0.00148855 </v>
   <v>      -0.00053526       0.00052442      -0.00165460 </v>
   <v>       0.00181695       0.00152646       0.00265015 </v>
   <v>      -0.00214232      -0.00017724       0.00309358 </v>
   <v>      -0.00000443       0.00656627       0.00288807 </v>
   <v>       0.00135627      -0.00428826       0.00083779 </v>
   <v>       0.00133381      -0.00091293      -0.00076821 </v>
   <v>       0.00096303       0.00206282      -0.00087953 </v>
   <v>      -0.00014591      -0.00183742       0.00297490 </v>
   <v>       0.00141990      -0.00094037       0.00214666 </v>
   <v>       0.00041598       0.00052422       0.00054951 </v>
   <v>      -0.00064814       0.00103018       0.00121215 </v>
   <v>      -0.00039070      -0.00027128      -0.00071815 </v>
   <v>      -0.00032858      -0.00081693       0.00094229 </v>
   <v>      -0.00201657       0.00143618      -0.00089557 </v>
   <v>       0.00002108      -0.00118794       0.00031856 </v>
   <v>      -0.00071092       0.00007280       0.00053898 </v>
   <v>      -0.00145292       0.00130543       0.00208953 </v>
   <v>      -0.00028015      -0.00114199      -0.00016028 </v>
   <v>      -0.00130237      -0.00050371       0.00086193 </v>
   <v>       0.00236022       0.00689758      -0.00086105 </v>
   <v>       0.00082913       0.00050663       0.00132583 </v>
   <v>      -0.00028258      -0.00129087      -0.00095750 </v>
   <v>      -0.00178675      -0.00092648       0.00448960 </v>
   <v>      -0.00052970      -0.00123834      -0.00091150 </v>
   <v>       0.00208825      -0.00226581      -0.00046704 </v>
   <v>       0.00265752      -0.00000184       0.00004536 </v>
   <v>      -0.00017625      -0.00494624      -0.00429721 </v>
   <v>      -0.00171390      -0.00195566      -0.00147445 </v>
   <v>       0.00116105       0.00052991      -0.00055895 </v>
   <v>       0.00005287       0.00298819       0.00142934 </v>
   <v>      -0.00064530      -0.00105667       0.00811179 </v>
   <v>       0.00153283      -0.00051130       0.00016001 </v>
   <v>      -0.00254843      -0.00023418       0.00030097 </v>
   <v>       0.00121286       0.00020535      -0.00043433 </v>
   <v>       0.00099033      -0.00184039       0.00091297 </v>
   <v>      -0.00076179      -0.00091572      -0.00068969 </v>
   <v>      -0.00086090       0.00064528       0.00112059 </v>
   <v>       0.00086513      -0.00003836      -0.00008125 </v>
   <v>      -0.00046141       0.00099186      -0.00065367 </v>
   <v>      -0.00119454      -0.00070138       0.00329992 </v>
   <v>      -0.00014136      -0.00108899      -0.00049788 </v>
   <v>       0.00058010       0.00013346      -0.00030696 </v>
   <v>       0.00121715      -0.00067498       0.00060918 </v>
   <v>      -0.00161198       0.00020117      -0.00075464 </v>
   <v>       0.00007892       0.00136876       0.00015020 </v>
   <v>       0.00087200      -0.00015989      -0.00089214 </v>
   <v>      -0.00164748       0.00086621      -0.00027407 </v>
   <v>       0.00017752      -0.00094418       0.00113852 </v>
   <v>       0.00138682       0.00184373      -0.00077894 </v>
   <v>       0.00203477       0.00003595      -0.00610259 </v>
   <v>       0.00269162      -0.00476998      -0.00579362 </v>
   <v>      -0.00187600      -0.00081035       0.00385780 </v>
   <v>       0.00179046       0.00162420      -0.00178196 </v>
   <v>      -0.00329481      -0.00524409      -0.00186842 </v>
   <v>      -0.00061751       0.00085978       0.00033973 </v>
   <v>       0.00069797       0.00417151      -0.00135348 </v>
   <v>      -0.00146547       0.00274604      -0.00003223 </v>
   <v>      -0.00218815       0.00018327      -0.01066521 </v>
   <v>       0.00018350       0.00152836      -0.00169744 </v>
   <v>      -0.00023728      -0.00003836       0.00051776 </v>
   <v>      -0.00060969      -0.00033893      -0.00013176 </v>
  </varray>
  <varray name="stress" >
   <v>      -0.90902669       0.00823504      -0.09454064 </v>
   <v>       0.00823564      -1.01063459      -0.00760541 </v>
   <v>      -0.09453993      -0.00760765      -1.13969489 </v>
  </varray>
  <energy>
   <i name="e_fr_energy">   -644.90789877 </i>
   <i name="e_wo_entrp">   -644.83858737 </i>
   <i name="e_0_energy">     -0.13862280 </i>
  </energy>
  <time name="totalsc">  764.65  766.28</time>
 </calculation>
 <calculation>
  <scstep>
   <time name="dav">   30.02   30.04</time>
   <time name="total">   30.32   30.34</time>
   <energy>
    <i name="alphaZ">   5101.51372444 </i>
    <i name="ewald"> -45096.83228122 </i>
    <i name="hartreedc">  -8772.40237412 </i>
    <i name="XCdc">   2058.05669813 </i>
    <i name="pawpsdc">  35403.72450055 </i>
    <i name="pawaedc"> -35605.09232789 </i>
    <i name="eentropy">     -0.13798234 </i>
    <i name="bandstr">  -6330.80798265 </i>
    <i name="atom">  52597.06565719 </i>
    <i name="e_fr_energy">   -644.91236790 </i>
    <i name="e_wo_entrp">   -644.77438556 </i>
    <i name="e_0_energy">   -644.84337673 </i>
   </energy>
  </scstep>
  <scstep>
   <time name="diag">    2.01    2.02</time>
   <time name="diis">   18.38   18.40</time>
   <time name="orth">    0.47    0.47</time>
   <time name="total">   21.16   21.19</time>
   <energy>
    <i name="e_fr_energy">   -644.93644832 </i>
    <i name="e_wo_entrp">   -644.79808726 </i>
    <i name="e_0_energy">   -644.86726779 </i>
   </energy>
  </scstep>
  <scstep>
   <time name="diag">    1.98    1.99</time>
   <time name="diis">   17.12   18.46</time>
   <time name="orth">    0.47    0.47</time>
   <time name="total">   19.88   21.22</time>
   <energy>
    <i name="e_fr_energy">   -644.91633992 </i>
    <i name="e_wo_entrp">   -644.77807278 </i>
    <i name="e_0_energy">   -644.84720635 </i>
   </energy>
  </scstep>
  <scstep>
   <time name="diag">    2.00    2.00</time>
   <time name="diis">   17.99   18.02</time>
   <time name="orth">    0.47    0.47</time>
   <time name="total">   20.77   20.81</time>
   <energy>
    <i name="e_fr_energy">   -644.90928161 </i>
    <i name="e_wo_entrp">   -644.77130155 </i>
    <i name="e_0_energy">   -644.84029158 </i>
   </energy>
  </scstep>
  <scstep>
   <time name="diag">    1.99    1.99</time>
   <time name="diis">   18.05   18.11</time>
   <time name="orth">    0.48    0.48</time>
   <time name="total">   20.82   20.89</time>
   <energy>
    <i name="e_fr_energy">   -644.90869566 </i>
    <i name="e_wo_entrp">   -644.77007635 </i>
    <i name="e_0_energy">   -644.83938601 </i>
   </energy>
  </scstep>
  <scstep>
   <time name="diag">    1.98    1.99</time>
   <time name="diis">   18.22   18.24</time>
   <time name="orth">    0.47    0.48</time>
   <time name="total">   20.97   21.00</time>
   <energy>
    <i name="e_fr_energy">   -644.90826740 </i>
    <i name="e_wo_entrp">   -644.77009853 </i>
    <i name="e_0_energy">   -644.83918297 </i>
   </energy>
  </scstep>
  <scstep>
   <time name="diag">    2.01    2.02</time>
   <time name="diis">   15.81   15.82</time>
   <time name="orth">    0.47    0.47</time>
   <time name="total">   18.59   18.62</time>
   <energy>
    <i name="e_fr_energy">   -644.90780180 </i>
    <i name="e_wo_entrp">   -644.76959247 </i>
    <i name="e_0_energy">   -644.83869714 </i>
   </energy>
  </scstep>
  <scstep>
   <time name="diag">    1.99    2.00</time>
   <time name="diis">   18.02   18.14</time>
   <time name="orth">    0.47    0.47</time>
   <time name="total">   20.79   20.92</time>
   <energy>
    <i name="e_fr_energy">   -644.90788734 </i>
    <i name="e_wo_entrp">   -644.76942536 </i>
    <i name="e_0_energy">   -644.83865635 </i>
   </energy>
  </scstep>
  <scstep>
   <time name="diag">    1.97    1.98</time>
   <time name="diis">   16.09   16.12</time>
   <time name="orth">    0.47    0.47</time>
   <time name="total">   18.84   18.87</time>
   <energy>
    <i name="e_fr_energy">   -644.90770180 </i>
    <i name="e_wo_entrp">   -644.76927238 </i>
    <i name="e_0_energy">   -644.83848709 </i>
   </energy>
  </scstep>
  <scstep>
   <time name="diag">    2.00    2.00</time>
   <time name="diis">   15.63   15.64</time>
   <time name="orth">    0.49    0.49</time>
   <time name="total">   18.44   18.45</time>
   <energy>
    <i name="e_fr_energy">   -644.90765713 </i>
    <i name="e_wo_entrp">   -644.76938891 </i>
    <i name="e_0_energy">   -644.83852302 </i>
   </energy>
  </scstep>
  <scstep>
   <time name="diag">    1.99    1.99</time>
   <time name="diis">   11.56   11.58</time>
   <time name="orth">    0.48    0.48</time>
   <time name="total">   14.06   14.08</time>
   <energy>
    <i name="alphaZ">   5101.51372444 </i>
    <i name="ewald"> -45096.83228122 </i>
    <i name="hartreedc">  -8764.35688445 </i>
    <i name="XCdc">   2057.61686722 </i>
    <i name="pawpsdc">  35413.35124882 </i>
    <i name="pawaedc"> -35614.84173223 </i>
    <i name="eentropy">     -0.13832617 </i>
    <i name="bandstr">  -6338.28593901 </i>
    <i name="atom">  52597.06565719 </i>
    <i name="e_fr_energy">   -644.90766541 </i>
    <i name="e_wo_entrp">   -644.76933924 </i>
    <i name="e_0_energy">   -644.83850232 </i>
   </energy>
  </scstep>
  <structure>
   <crystal>
    <varray name="basis" >
     <v>       8.77063896      -0.00861542      -0.02672919 </v>
     <v>      -0.00295731       8.75490039      -0.00755968 </v>
     <v>       0.00479125      -0.02286182       8.81403544 </v>
    </varray>
    <i name="volume">    676.79452517 </i>
    <varray name="rec_basis" >
     <v>       0.11401663       0.00003846      -0.00006188 </v>
     <v>       0.00011310       0.11422204       0.00029621 </v>
     <v>       0.00034586       0.00009808       0.11345548 </v>
    </varray>
   </crystal>
   <varray name="positions" >
    <v>       0.00336979       0.98136086       0.02879541 </v>
    <v>       0.23409435       0.98008870       0.25652719 </v>
    <v>       0.27575625       0.51624049       0.24394472 </v>
    <v>       0.49861100       0.47273894       0.98892934 </v>
    <v>       0.48096509       0.24502086       0.75481437 </v>
    <v>       0.00113055       0.49718513       0.53136148 </v>
    <v>       0.50390606       0.76206686       0.73486087 </v>
    <v>       0.99925606       0.27247179       0.25431602 </v>
    <v>       0.74360218       0.75089484       0.00081113 </v>
    <v>       0.01131992       0.23557215       0.74789075 </v>
    <v>       0.74899885       0.26088737       0.51346386 </v>
    <v>       0.00038380       0.75988402       0.75243481 </v>
    <v>       0.25786447       0.50203715       0.75363582 </v>
    <v>       0.24486721       0.24155941       0.00143139 </v>
    <v>       0.49263678       0.23863630       0.24795118 </v>
    <v>       0.73852094       0.99061692       0.25925134 </v>
    <v>       0.75307526       0.24755402       0.98897520 </v>
    <v>       0.26929395       0.75872423       0.00076338 </v>
    <v>       0.25187743       0.25100025       0.49912194 </v>
    <v>       0.24747532       0.74842265       0.50089435 </v>
    <v>       0.24003451       0.25376168       0.25022549 </v>
    <v>       0.23069777       0.99832261       0.02015157 </v>
    <v>       0.99873234       0.24345804       0.00325624 </v>
    <v>       0.75043410       0.25142696       0.25447698 </v>
    <v>       0.75865626       0.99419401       0.99172620 </v>
    <v>       0.48618219       0.98720883       0.27399357 </v>
    <v>       0.99306031       0.50136084       0.24960731 </v>
    <v>       0.51305950       0.77113076       0.97658517 </v>
    <v>       0.98082193       0.00136162       0.75066082 </v>
    <v>       0.75119397       0.25301696       0.74338480 </v>
    <v>       0.75289655       0.00355159       0.51221575 </v>
    <v>       0.50791283       0.25116467       0.50859046 </v>
    <v>       0.50700424       0.00890057       0.73974288 </v>
    <v>       0.99947899       0.00644354       0.24922775 </v>
    <v>       0.50005448       0.23828579       0.98851836 </v>
    <v>       0.25927055       0.74730811       0.25065928 </v>
    <v>       0.24966602       0.50174312       0.00526581 </v>
    <v>       0.00186124       0.74730166       0.00284234 </v>
    <v>       0.74175737       0.74138143       0.24809795 </v>
    <v>       0.75418632       0.50422175       0.00011869 </v>
    <v>       0.49283214       0.50713489       0.23955392 </v>
    <v>       0.25472777       0.24014877       0.75092953 </v>
    <v>       0.24822655       0.99880418       0.50308276 </v>
    <v>       0.99548819       0.25185405       0.50079333 </v>
    <v>       0.25588455       0.76178434       0.75041820 </v>
    <v>       0.24799591       0.50041450       0.49538071 </v>
    <v>       0.99139347       0.74860848       0.50007545 </v>
    <v>       0.00042483       0.50004885       0.75369103 </v>
    <v>       0.74382898       0.75676832       0.74454273 </v>
    <v>       0.75767788       0.49876627       0.49499525 </v>
    <v>       0.50518676       0.76201301       0.50083415 </v>
    <v>       0.50465043       0.50141754       0.75082556 </v>
    <v>       0.53365069       0.01431579       0.95232864 </v>
    <v>       0.00992241       0.52123941       0.96858391 </v>
    <v>       0.50340396       0.73491578       0.28564303 </v>
    <v>       0.28087927       0.99961690       0.72840274 </v>
    <v>       0.47416659       0.98849791       0.51671857 </v>
    <v>       0.73742864       0.97629435       0.76167483 </v>
    <v>       0.00312822       0.75667003       0.24943012 </v>
    <v>       0.72274041       0.50705322       0.23869254 </v>
    <v>       0.00966031       0.00056298       0.48200498 </v>
    <v>       0.50039834       0.50779199       0.49902387 </v>
    <v>       0.74342604       0.51567515       0.75620965 </v>
    <v>       0.74891134       0.73109557       0.49664269 </v>
   </varray>
  </structure>
  <varray name="forces" >
   <v>      -0.00404299       0.00504794      -0.00573106 </v>
   <v>       0.00520800       0.00735628       0.00117289 </v>
   <v>      -0.00979375      -0.00646987       0.00237031 </v>
   <v>       0.00076892       0.00528605       0.00094176 </v>
   <v>       0.00532208       0.00682408      -0.00309787 </v>
   <v>      -0.00193674       0.00047075      -0.00830008 </v>
   <v>      -0.00077424       0.00231453       0.00335799 </v>
   <v>      -0.00221474      -0.00460220      -0.00529870 </v>
   <v>       0.00597928      -0.00168604      -0.00100906 </v>
   <v>      -0.00196040       0.00411508       0.00584205 </v>
   <v>      -0.00130788      -0.00518770      -0.00836490 </v>
   <v>       0.00119556      -0.00100440       0.00182859 </v>
   <v>      -0.00006794      -0.00126971      -0.00179057 </v>
   <v>       0.00262286       0.00383286      -0.00019931 </v>
   <v>       0.00165078       0.00100157      -0.00010651 </v>
   <v>      -0.00108427       0.00396133      -0.00512766 </v>
   <v>       0.00208159       0.00118441       0.00368287 </v>
   <v>      -0.00154535      -0.00375857      -0.00007136 </v>
   <v>       0.00206609       0.00044898      -0.00181457 </v>
   <v>      -0.00245211      -0.00235773       0.00043857 </v>
   <v>       0.00215398      -0.00120032       0.00077993 </v>
   <v>       0.00338940       0.00056062      -0.00342626 </v>
   <v>      -0.00112732       0.00636238      -0.00077999 </v>
   <v>      -0.00090885      -0.00024249      -0.00065293 </v>
   <v>       0.00386573       0.00238662       0.00145254 </v>
   <v>      -0.00514689      -0.00445667       0.00153570 </v>
   <v>       0.00137046       0.00520901       0.00013804 </v>
   <v>      -0.00317182      -0.00278067       0.00262313 </v>
   <v>       0.00327534      -0.00131478       0.00337189 </v>
   <v>      -0.00315076      -0.00645108       0.00572208 </v>
   <v>      -0.00367502      -0.00360551       0.00158954 </v>
   <v>      -0.00199445      -0.00190696       0.00087659 </v>
   <v>       0.00208061       0.00269416      -0.00687269 </v>
   <v>      -0.00312695       0.00408090      -0.01198615 </v>
   <v>      -0.00109128      -0.00050895       0.00149005 </v>
   <v>      -0.00097826       0.00004706       0.00062057 </v>
   <v>      -0.00030962      -0.00038079       0.00229942 </v>
   <v>       0.00263740      -0.00453023       0.00069128 </v>
   <v>       0.00017922       0.00402763       0.00011678 </v>
   <v>       0.00204921      -0.00237849       0.00017211 </v>
   <v>      -0.00167421      -0.00271962      -0.00369607 </v>
   <v>       0.00201361       0.00011771       0.00076689 </v>
   <v>      -0.00217223       0.00112719      -0.00182003 </v>
   <v>       0.00120179       0.00071271       0.00025344 </v>
   <v>       0.00145120       0.00088141       0.00173454 </v>
   <v>      -0.00164657       0.00056148      -0.00177668 </v>
   <v>       0.00088635      -0.00198245      -0.00018303 </v>
   <v>      -0.00038101      -0.00072884       0.00040097 </v>
   <v>       0.00051963       0.00102121      -0.00053729 </v>
   <v>       0.00139877      -0.00343839      -0.00064661 </v>
   <v>      -0.00290045       0.00074121       0.00632449 </v>
   <v>      -0.00090290       0.00158508       0.00096372 </v>
   <v>      -0.00339253      -0.00397936       0.00922383 </v>
   <v>       0.00113833      -0.00897484       0.00809743 </v>
   <v>      -0.00240315       0.00677693      -0.01050451 </v>
   <v>      -0.00542019       0.00153316       0.00748611 </v>
   <v>       0.00722465       0.00142332      -0.00442909 </v>
   <v>       0.00242659       0.00798816      -0.00383435 </v>
   <v>      -0.00103145      -0.00486416      -0.00159218 </v>
   <v>       0.00922463      -0.00875413       0.00178594 </v>
   <v>      -0.00476008      -0.00038727       0.01420280 </v>
   <v>      -0.00016849      -0.00391214      -0.00027491 </v>
   <v>       0.00209892      -0.00569521      -0.00170995 </v>
   <v>       0.00123386       0.00984774       0.00127951 </v>
  </varray>
  <varray name="stress" >
   <v>       2.17731589      -0.01373006       0.02422314 </v>
   <v>      -0.01373259       2.16174391       0.00553998 </v>
   <v>       0.02422195       0.00553798       2.31497317 </v>
  </varray>
  <energy>
   <i name="e_fr_energy">   -644.90766541 </i>
   <i name="e_wo_entrp">   -644.83850232 </i>
   <i name="e_0_energy">     -0.13832617 </i>
  </energy>
  <time name="totalsc">  269.03  270.79</time>
 </calculation>
 <calculation>
  <scstep>
   <time name="dav">   29.55   29.67</time>
   <time name="total">   29.85   29.97</time>
   <energy>
    <i name="alphaZ">   5098.19183250 </i>
    <i name="ewald"> -45087.36703168 </i>
    <i name="hartreedc">  -8762.18454590 </i>
    <i name="XCdc">   2057.15286231 </i>
    <i name="pawpsdc">  35413.62476432 </i>
    <i name="pawaedc"> -35615.11089231 </i>
    <i name="eentropy">     -0.13874764 </i>
    <i name="bandstr">  -6346.14408682 </i>
    <i name="atom">  52597.06565719 </i>
    <i name="e_fr_energy">   -644.91018802 </i>
    <i name="e_wo_entrp">   -644.77144038 </i>
    <i name="e_0_energy">   -644.84081420 </i>
   </energy>
  </scstep>
  <scstep>
   <time name="diag">    2.01    2.02</time>
   <time name="diis">   18.45   18.48</time>
   <time name="orth">    0.47    0.47</time>
   <time name="total">   21.23   21.27</time>
   <energy>
    <i name="e_fr_energy">   -644.92070790 </i>
    <i name="e_wo_entrp">   -644.78263377 </i>
    <i name="e_0_energy">   -644.85167084 </i>
   </energy>
  </scstep>
  <scstep>
   <time name="diag">    1.98    1.99</time>
   <time name="diis">   17.31   17.33</time>
   <time name="orth">    0.50    0.50</time>
   <time name="total">   20.10   20.13</time>
   <energy>
    <i name="e_fr_energy">   -644.91183143 </i>
    <i name="e_wo_entrp">   -644.77342002 </i>
    <i name="e_0_energy">   -644.84262572 </i>
   </energy>
  </scstep>
  <scstep>
   <time name="diag">    2.00    2.00</time>
   <time name="diis">   18.63   18.66</time>
   <time name="orth">    0.47    0.47</time>
   <time name="total">   21.40   21.44</time>
   <energy>
    <i name="e_fr_energy">   -644.90876520 </i>
    <i name="e_wo_entrp">   -644.77003630 </i>
    <i name="e_0_energy">   -644.83940075 </i>
   </energy>
  </scstep>
  <scstep>
   <time name="diag">    1.99    2.00</time>
   <time name="diis">   18.20   18.22</time>
   <time name="orth">    0.47    0.47</time>
   <time name="total">   20.96   20.99</time>
   <energy>
    <i name="e_fr_energy">   -644.90851183 </i>
    <i name="e_wo_entrp">   -644.77021773 </i>
    <i name="e_0_energy">   -644.83936478 </i>
   </energy>
  </scstep>
  <scstep>
   <time name="diag">    1.99    1.99</time>
   <time name="diis">   17.84   17.87</time>
   <time name="orth">    0.48    0.48</time>
   <time name="total">   20.60   20.63</time>
   <energy>
    <i name="e_fr_energy">   -644.90828524 </i>
    <i name="e_wo_entrp">   -644.76967440 </i>
    <i name="e_0_energy">   -644.83897982 </i>
   </energy>
  </scstep>
  <scstep>
   <time name="diag">    2.00    2.01</time>
   <time name="diis">   15.08   15.16</time>
   <time name="orth">    0.47    0.47</time>
   <time name="total">   17.85   17.94</time>
   <energy>
    <i name="e_fr_energy">   -644.90807549 </i>
    <i name="e_wo_entrp">   -644.76948238 </i>
    <i name="e_0_energy">   -644.83877894 </i>
   </energy>
  </scstep>
  <scstep>
   <time name="diag">    1.98    1.98</time>
   <time name="diis">   15.14   15.15</time>
   <time name="orth">    0.47    0.47</time>
   <time name="total">   17.88   17.90</time>
   <energy>
    <i name="e_fr_energy">   -644.90810308 </i>
    <i name="e_wo_entrp">   -644.76968134 </i>
    <i name="e_0_energy">   -644.83889221 </i>
   </energy>
  </scstep>
  <scstep>
   <time name="diag">    1.99    1.99</time>
   <time name="diis">   11.85   11.89</time>
   <time name="orth">    0.48    0.48</time>
   <time name="total">   14.62   14.67</time>
   <energy>
    <i name="e_fr_energy">   -644.90801398 </i>
    <i name="e_wo_entrp">   -644.76956174 </i>
    <i name="e_0_energy">   -644.83878786 </i>
   </energy>
  </scstep>
  <scstep>
   <time name="diag">    2.00    2.00</time>
   <time name="diis">   10.21   10.26</time>
   <time name="orth">    0.48    0.48</time>
   <time name="total">   12.99   13.04</time>
   <energy>
    <i name="e_fr_energy">   -644.90799015 </i>
    <i name="e_wo_entrp">   -644.76942886 </i>
    <i name="e_0_energy">   -644.83870951 </i>
   </energy>
  </scstep>
  <scstep>
   <time name="diag">    1.99    1.99</time>
   <time name="diis">    9.28    9.29</time>
   <time name="orth">    0.48    0.48</time>
   <time name="total">   11.79   11.79</time>
   <energy>
    <i name="alphaZ">   5098.19183250 </i>
    <i name="ewald"> -45087.36703168 </i>
    <i name="hartreedc">  -8767.78032937 </i>
    <i name="XCdc">   2057.45898824 </i>
    <i name="pawpsdc">  35409.21706560 </i>
    <i name="pawaedc"> -35610.51727408 </i>
    <i name="eentropy">     -0.13851316 </i>
    <i name="bandstr">  -6341.03838432 </i>
    <i name="atom">  52597.06565719 </i>
    <i name="e_fr_energy">   -644.90798908 </i>
    <i name="e_wo_entrp">   -644.76947592 </i>
    <i name="e_0_energy">   -644.83873250 </i>
   </energy>
  </scstep>
  <structure>
   <crystal>
    <varray name="basis" >
     <v>       8.77233605      -0.00863270      -0.02655907 </v>
     <v>      -0.00297339       8.75678441      -0.00754740 </v>
     <v>       0.00496970      -0.02285247       8.81617456 </v>
    </varray>
    <i name="volume">    677.23551255 </i>
    <varray name="rec_basis" >
     <v>       0.11399456       0.00003865      -0.00006416 </v>
     <v>       0.00011328       0.11419746       0.00029595 </v>
     <v>       0.00034351       0.00009788       0.11342794 </v>
    </varray>
   </crystal>
   <varray name="positions" >
    <v>       0.00336417       0.98136607       0.02880520 </v>
    <v>       0.23410123       0.98008684       0.25652108 </v>
    <v>       0.27574830       0.51623458       0.24393925 </v>
    <v>       0.49861296       0.47273703       0.98893539 </v>
    <v>       0.48095842       0.24501521       0.75480465 </v>
    <v>       0.00113843       0.49718576       0.53135019 </v>
    <v>       0.50390608       0.76204267       0.73485029 </v>
    <v>       0.99925109       0.27248756       0.25431296 </v>
    <v>       0.74359728       0.75089820       0.00081392 </v>
    <v>       0.01131638       0.23556456       0.74789395 </v>
    <v>       0.74899939       0.26089410       0.51345299 </v>
    <v>       0.00037859       0.75988745       0.75242695 </v>
    <v>       0.25786295       0.50203522       0.75363380 </v>
    <v>       0.24486959       0.24155561       0.00142696 </v>
    <v>       0.49263822       0.23863731       0.24795381 </v>
    <v>       0.73852215       0.99061992       0.25924790 </v>
    <v>       0.75308267       0.24754875       0.98897849 </v>
    <v>       0.26929387       0.75872859       0.00076222 </v>
    <v>       0.25188004       0.25099997       0.49911997 </v>
    <v>       0.24748066       0.74841783       0.50088672 </v>
    <v>       0.24003554       0.25376589       0.25022608 </v>
    <v>       0.23070256       0.99832446       0.02014843 </v>
    <v>       0.99872366       0.24343266       0.00325934 </v>
    <v>       0.75043106       0.25142508       0.25447212 </v>
    <v>       0.75865729       0.99419877       0.99172971 </v>
    <v>       0.48618877       0.98721221       0.27397718 </v>
    <v>       0.99306225       0.50136541       0.24961066 </v>
    <v>       0.51305183       0.77113909       0.97658686 </v>
    <v>       0.98081217       0.00136161       0.75066062 </v>
    <v>       0.75119461       0.25303521       0.74340053 </v>
    <v>       0.75290284       0.00355881       0.51222116 </v>
    <v>       0.50790856       0.25116272       0.50859249 </v>
    <v>       0.50700404       0.00888956       0.73973765 </v>
    <v>       0.99948137       0.00644735       0.24919811 </v>
    <v>       0.50004885       0.23828766       0.98851776 </v>
    <v>       0.25927991       0.74730898       0.25065820 </v>
    <v>       0.24966156       0.50174237       0.00526738 </v>
    <v>       0.00185761       0.74730842       0.00283900 </v>
    <v>       0.74176016       0.74138481       0.24810048 </v>
    <v>       0.75418949       0.50421937       0.00011460 </v>
    <v>       0.49282896       0.50713503       0.23955421 </v>
    <v>       0.25472946       0.24014512       0.75093192 </v>
    <v>       0.24823094       0.99880673       0.50307071 </v>
    <v>       0.99548871       0.25185806       0.50079516 </v>
    <v>       0.25588241       0.76178385       0.75041931 </v>
    <v>       0.24799144       0.50041697       0.49537847 </v>
    <v>       0.99139939       0.74860776       0.50007823 </v>
    <v>       0.00042454       0.50004381       0.75369048 </v>
    <v>       0.74382578       0.75676892       0.74454599 </v>
    <v>       0.75768393       0.49876309       0.49499627 </v>
    <v>       0.50518611       0.76201647       0.50082999 </v>
    <v>       0.50464533       0.50141075       0.75082839 </v>
    <v>       0.53364320       0.01431571       0.95235092 </v>
    <v>       0.00991252       0.52125701       0.96860508 </v>
    <v>       0.50341086       0.73491873       0.28562896 </v>
    <v>       0.28087269       0.99961093       0.72840923 </v>
    <v>       0.47417870       0.98851724       0.51672545 </v>
    <v>       0.73743091       0.97629119       0.76167360 </v>
    <v>       0.00312565       0.75665469       0.24943505 </v>
    <v>       0.72274579       0.50704312       0.23869267 </v>
    <v>       0.00966832       0.00056241       0.48204399 </v>
    <v>       0.50039766       0.50778638       0.49903007 </v>
    <v>       0.74342691       0.51567528       0.75620776 </v>
    <v>       0.74891358       0.73109682       0.49664318 </v>
   </varray>
  </structure>
  <varray name="forces" >
   <v>       0.00064855       0.00117756      -0.00425422 </v>
   <v>      -0.00054409       0.00192304       0.00169832 </v>
   <v>       0.00109026       0.00073486       0.00241137 </v>
   <v>      -0.00051571       0.00328918      -0.00064217 </v>
   <v>       0.00285378       0.00213794       0.00100266 </v>
   <v>      -0.00274200       0.00006633      -0.00077706 </v>
   <v>      -0.00064604       0.00507979       0.00422841 </v>
   <v>       0.00073167      -0.00512040      -0.00056080 </v>
   <v>       0.00183947      -0.00017060      -0.00033900 </v>
   <v>       0.00007537       0.00253366       0.00065788 </v>
   <v>      -0.00027084      -0.00313043      -0.00064097 </v>
   <v>       0.00146916       0.00028577       0.00059879 </v>
   <v>       0.00111378      -0.00002420      -0.00122808 </v>
   <v>       0.00187833       0.00008116       0.00090315 </v>
   <v>      -0.00027076       0.00026316      -0.00051433 </v>
   <v>      -0.00131544       0.00008303      -0.00183319 </v>
   <v>      -0.00156749      -0.00017455       0.00034696 </v>
   <v>       0.00200648      -0.00001712       0.00104648 </v>
   <v>       0.00018903      -0.00066826      -0.00008207 </v>
   <v>      -0.00068533       0.00078519       0.00078155 </v>
   <v>       0.00084062      -0.00151069       0.00020586 </v>
   <v>      -0.00064295      -0.00004016      -0.00052633 </v>
   <v>       0.00106658       0.00685226      -0.00112428 </v>
   <v>       0.00023903       0.00087100       0.00065124 </v>
   <v>       0.00133152       0.00018659      -0.00041726 </v>
   <v>      -0.00236089      -0.00170444       0.00322828 </v>
   <v>      -0.00058310       0.00150349      -0.00098534 </v>
   <v>      -0.00063723      -0.00291024       0.00001479 </v>
   <v>       0.00233993      -0.00010709       0.00164518 </v>
   <v>      -0.00170002      -0.00597818       0.00014608 </v>
   <v>      -0.00257271      -0.00244899      -0.00017975 </v>
   <v>      -0.00026172      -0.00059050       0.00095450 </v>
   <v>       0.00032956       0.00276550      -0.00091869 </v>
   <v>      -0.00119870       0.00040559       0.00156701 </v>
   <v>       0.00065553      -0.00109135       0.00052188 </v>
   <v>      -0.00094257      -0.00068397       0.00051079 </v>
   <v>       0.00198438      -0.00007899       0.00107052 </v>
   <v>       0.00167915      -0.00043384       0.00032383 </v>
   <v>      -0.00166525       0.00099816      -0.00034807 </v>
   <v>      -0.00105958      -0.00092634       0.00033793 </v>
   <v>      -0.00170516       0.00073196      -0.00125219 </v>
   <v>       0.00107524      -0.00008649       0.00004466 </v>
   <v>      -0.00157555       0.00005939       0.00242864 </v>
   <v>       0.00062776      -0.00038510       0.00003771 </v>
   <v>       0.00194446       0.00152803       0.00055871 </v>
   <v>      -0.00037723      -0.00050042      -0.00100975 </v>
   <v>      -0.00051021      -0.00075800      -0.00065646 </v>
   <v>      -0.00012836       0.00028942      -0.00295620 </v>
   <v>      -0.00010694       0.00020366      -0.00026516 </v>
   <v>      -0.00045172      -0.00052073      -0.00025782 </v>
   <v>      -0.00103043      -0.00061582       0.00160094 </v>
   <v>       0.00058933       0.00173371      -0.00012817 </v>
   <v>       0.00053854      -0.00199329      -0.00153669 </v>
   <v>       0.00265386      -0.00942615       0.00032820 </v>
   <v>      -0.00162888      -0.00024295      -0.00111952 </v>
   <v>      -0.00111328       0.00223186       0.00288359 </v>
[...]
      </set>
     </set>
    </set>
   </array>
  </eigenvalues>
  <separator name="orbital magnetization" >
   <v name="MAGDIPOLOUT">      0.00000000      0.00000000      0.00000000</v>
  </separator>
  <dos>
   <i name="efermi">      7.80987898 </i>
   <total>
    <array>
     <dimension dim="1">gridpoints</dimension>
     <dimension dim="2">spin</dimension>
     <field>energy</field>
     <field>total</field>
     <field>integrated</field>
     <set>
      <set comment="spin 1">
       <r>   -60.6633     0.0000     0.0000 </r>
       <r>   -60.4127     0.0000     0.0000 </r>
       <r>   -60.1621     0.0000     0.0000 </r>
       <r>   -59.9114     0.0000     0.0000 </r>
       <r>   -59.6608     0.0000     0.0000 </r>
       <r>   -59.4102     0.0000     0.0000 </r>
       <r>   -59.1595     0.0000     0.0000 </r>
       <r>   -58.9089     0.0000     0.0000 </r>
       <r>   -58.6583     0.0000     0.0000 </r>
       <r>   -58.4077     0.0000     0.0000 </r>
       <r>   -58.1570     0.0000     0.0000 </r>
       <r>   -57.9064     0.0000     0.0000 </r>
       <r>   -57.6558     0.0000     0.0000 </r>
       <r>   -57.4052     0.0983     0.0246 </r>
       <r>   -57.1545    12.0188     3.0369 </r>
       <r>   -56.9039    36.6005    12.2099 </r>
       <r>   -56.6533     7.1415    13.9998 </r>
       <r>   -56.4027     0.0010    14.0000 </r>
       <r>   -56.1520     0.0000    14.0000 </r>
       <r>   -55.9014     0.0000    14.0000 </r>
       <r>   -55.6508     0.0000    14.0000 </r>
       <r>   -55.4002     0.0000    14.0000 </r>
       <r>   -55.1495     0.0000    14.0000 </r>
       <r>   -54.8989     0.0000    14.0000 </r>
       <r>   -54.6483     0.0000    14.0000 </r>
       <r>   -54.3976     0.0000    14.0000 </r>
       <r>   -54.1470     0.0000    14.0000 </r>
       <r>   -53.8964     0.0000    14.0000 </r>
       <r>   -53.6458     0.0000    14.0000 </r>
       <r>   -53.3951     0.0000    14.0000 </r>
       <r>   -53.1445     0.0000    14.0000 </r>
       <r>   -52.8939     0.0000    14.0000 </r>
       <r>   -52.6433     0.0000    14.0000 </r>
       <r>   -52.3926     0.0000    14.0000 </r>
       <r>   -52.1420     0.0000    14.0000 </r>
       <r>   -51.8914     0.0000    14.0000 </r>
       <r>   -51.6408     0.0000    14.0000 </r>
       <r>   -51.3901     0.0000    14.0000 </r>
       <r>   -51.1395     0.0000    14.0000 </r>
       <r>   -50.8889     0.0000    14.0000 </r>
       <r>   -50.6383     0.0000    14.0000 </r>
       <r>   -50.3876     0.0000    14.0000 </r>
       <r>   -50.1370     0.0000    14.0000 </r>
       <r>   -49.8864     0.0000    14.0000 </r>
       <r>   -49.6357     0.0000    14.0000 </r>
       <r>   -49.3851     0.0000    14.0000 </r>
       <r>   -49.1345     0.0000    14.0000 </r>
       <r>   -48.8839     0.0000    14.0000 </r>
       <r>   -48.6332     0.0000    14.0000 </r>
       <r>   -48.3826     0.0000    14.0000 </r>
       <r>   -48.1320     0.0000    14.0000 </r>
       <r>   -47.8814     0.0000    14.0000 </r>
       <r>   -47.6307     0.0000    14.0000 </r>
       <r>   -47.3801     0.0000    14.0000 </r>
       <r>   -47.1295     0.0000    14.0000 </r>
       <r>   -46.8789     0.0000    14.0000 </r>
       <r>   -46.6282     0.0000    14.0000 </r>
       <r>   -46.3776     0.0000    14.0000 </r>
       <r>   -46.1270     0.0000    14.0000 </r>
       <r>   -45.8763     0.0000    14.0000 </r>
       <r>   -45.6257     0.0000    14.0000 </r>
       <r>   -45.3751     0.0000    14.0000 </r>
       <r>   -45.1245     0.0000    14.0000 </r>
       <r>   -44.8738     0.0000    14.0000 </r>
       <r>   -44.6232     0.0000    14.0000 </r>
       <r>   -44.3726     0.0000    14.0000 </r>
       <r>   -44.1220     0.0000    14.0000 </r>
       <r>   -43.8713     0.0000    14.0000 </r>
       <r>   -43.6207     0.0000    14.0000 </r>
       <r>   -43.3701     0.0000    14.0000 </r>
       <r>   -43.1195     0.0000    14.0000 </r>
       <r>   -42.8688     0.0000    14.0000 </r>
       <r>   -42.6182     0.0000    14.0000 </r>
       <r>   -42.3676     0.0000    14.0000 </r>
       <r>   -42.1170     0.0000    14.0000 </r>
       <r>   -41.8663     0.0000    14.0000 </r>
       <r>   -41.6157     0.0933    14.0234 </r>
       <r>   -41.3651    12.7439    17.2173 </r>
       <r>   -41.1144     8.7502    19.4104 </r>
       <r>   -40.8638     3.7443    20.3488 </r>
       <r>   -40.6132    21.1913    25.6599 </r>
       <r>   -40.3626     3.2797    26.4818 </r>
       <r>   -40.1119     6.0395    27.9955 </r>
       <r>   -39.8613     0.0179    28.0000 </r>
       <r>   -39.6107     0.0000    28.0000 </r>
       <r>   -39.3601     0.0000    28.0000 </r>
       <r>   -39.1094     0.0000    28.0000 </r>
       <r>   -38.8588     0.0000    28.0000 </r>
       <r>   -38.6082     0.0000    28.0000 </r>
       <r>   -38.3576     0.0000    28.0000 </r>
       <r>   -38.1069     0.0000    28.0000 </r>
       <r>   -37.8563     0.0000    28.0000 </r>
       <r>   -37.6057     0.0000    28.0000 </r>
       <r>   -37.3551     0.0000    28.0000 </r>
       <r>   -37.1044     0.0000    28.0000 </r>
       <r>   -36.8538     0.0000    28.0000 </r>
       <r>   -36.6032     0.0000    28.0000 </r>
       <r>   -36.3525     0.0000    28.0000 </r>
       <r>   -36.1019     0.8840    28.2215 </r>
       <r>   -35.8513    34.4934    36.8665 </r>
       <r>   -35.6007    95.6950    60.8502 </r>
       <r>   -35.3500    12.5596    63.9980 </r>
       <r>   -35.0994     0.0081    64.0000 </r>
       <r>   -34.8488     0.0000    64.0000 </r>
       <r>   -34.5982     0.0000    64.0000 </r>
       <r>   -34.3475     0.0000    64.0000 </r>
       <r>   -34.0969     0.0000    64.0000 </r>
       <r>   -33.8463     0.0000    64.0000 </r>
       <r>   -33.5957     0.0000    64.0000 </r>
       <r>   -33.3450     0.0000    64.0000 </r>
       <r>   -33.0944     0.0000    64.0000 </r>
       <r>   -32.8438     0.0000    64.0000 </r>
       <r>   -32.5931     0.0000    64.0000 </r>
       <r>   -32.3425     0.0000    64.0000 </r>
       <r>   -32.0919     0.0000    64.0000 </r>
       <r>   -31.8413     0.0256    64.0064 </r>
       <r>   -31.5906    19.8498    68.9813 </r>
       <r>   -31.3400    86.4168    90.6396 </r>
       <r>   -31.0894    78.6226   110.3445 </r>
       <r>   -30.8388   104.5632   136.5508 </r>
       <r>   -30.5881    21.7227   141.9951 </r>
       <r>   -30.3375     0.0194   142.0000 </r>
       <r>   -30.0869     0.0000   142.0000 </r>
       <r>   -29.8363     0.0000   142.0000 </r>
       <r>   -29.5856     0.0000   142.0000 </r>
       <r>   -29.3350     0.0000   142.0000 </r>
       <r>   -29.0844     0.0000   142.0000 </r>
       <r>   -28.8338     0.0000   142.0000 </r>
       <r>   -28.5831     0.0000   142.0000 </r>
       <r>   -28.3325     0.0000   142.0000 </r>
       <r>   -28.0819     2.2834   142.5723 </r>
       <r>   -27.8312    30.2935   150.1646 </r>
       <r>   -27.5806    38.3315   159.7715 </r>
       <r>   -27.3300    47.1992   171.6009 </r>
       <r>   -27.0794    20.6246   176.7700 </r>
       <r>   -26.8287     4.9074   177.9999 </r>
       <r>   -26.5781     0.0005   178.0000 </r>
       <r>   -26.3275     0.0000   178.0000 </r>
       <r>   -26.0769     0.0000   178.0000 </r>
       <r>   -25.8262     0.0000   178.0000 </r>
       <r>   -25.5756     0.0000   178.0000 </r>
       <r>   -25.3250     0.0000   178.0000 </r>
       <r>   -25.0744     0.0000   178.0000 </r>
       <r>   -24.8237     0.0000   178.0000 </r>
       <r>   -24.5731     0.0000   178.0000 </r>
       <r>   -24.3225     0.0000   178.0000 </r>
       <r>   -24.0719     0.0000   178.0000 </r>
       <r>   -23.8212     0.0000   178.0000 </r>
       <r>   -23.5706     0.0000   178.0000 </r>
       <r>   -23.3200     0.0000   178.0000 </r>
       <r>   -23.0693     0.0000   178.0000 </r>
       <r>   -22.8187     0.0000   178.0000 </r>
       <r>   -22.5681     0.0000   178.0000 </r>
       <r>   -22.3175     0.0000   178.0000 </r>
       <r>   -22.0668     0.0000   178.0000 </r>
       <r>   -21.8162     0.0000   178.0000 </r>
       <r>   -21.5656     0.0000   178.0000 </r>
       <r>   -21.3150     0.0000   178.0000 </r>
       <r>   -21.0643     0.0000   178.0000 </r>
       <r>   -20.8137     0.0000   178.0000 </r>
       <r>   -20.5631     0.0000   178.0000 </r>
       <r>   -20.3125     0.0016   178.0004 </r>
       <r>   -20.0618     4.0450   179.0142 </r>
       <r>   -19.8112    17.0677   183.2918 </r>
       <r>   -19.5606    26.7443   189.9947 </r>
       <r>   -19.3099    25.0524   196.2734 </r>
       <r>   -19.0593    52.6269   209.4631 </r>
       <r>   -18.8087    25.4121   215.8321 </r>
       <r>   -18.5581    16.5901   219.9900 </r>
       <r>   -18.3074     0.0399   220.0000 </r>
       <r>   -18.0568     0.0000   220.0000 </r>
       <r>   -17.8062     0.0000   220.0000 </r>
       <r>   -17.5556     0.0000   220.0000 </r>
       <r>   -17.3049     0.0000   220.0000 </r>
       <r>   -17.0543     0.0000   220.0000 </r>
       <r>   -16.8037     0.0000   220.0000 </r>
       <r>   -16.5531     0.0000   220.0000 </r>
       <r>   -16.3024     0.0000   220.0000 </r>
       <r>   -16.0518     0.0000   220.0000 </r>
       <r>   -15.8012     0.0000   220.0000 </r>
       <r>   -15.5506     0.0000   220.0000 </r>
       <r>   -15.2999     0.0000   220.0000 </r>
       <r>   -15.0493     0.0000   220.0000 </r>
       <r>   -14.7987     0.0000   220.0000 </r>
       <r>   -14.5480     0.0000   220.0000 </r>
       <r>   -14.2974     0.0000   220.0000 </r>
       <r>   -14.0468     0.0000   220.0000 </r>
       <r>   -13.7962     0.0000   220.0000 </r>
       <r>   -13.5455     0.0000   220.0000 </r>
       <r>   -13.2949     0.0000   220.0000 </r>
       <r>   -13.0443     0.0000   220.0000 </r>
       <r>   -12.7937     0.0000   220.0000 </r>
       <r>   -12.5430     0.0000   220.0000 </r>
       <r>   -12.2924     0.0000   220.0000 </r>
       <r>   -12.0418     0.0000   220.0000 </r>
       <r>   -11.7912     0.0000   220.0000 </r>
       <r>   -11.5405     0.0000   220.0000 </r>
       <r>   -11.2899     0.0000   220.0000 </r>
       <r>   -11.0393     0.0000   220.0000 </r>
       <r>   -10.7887     0.0000   220.0000 </r>
       <r>   -10.5380     0.0000   220.0000 </r>
       <r>   -10.2874     0.0000   220.0000 </r>
       <r>   -10.0368     0.0000   220.0000 </r>
       <r>    -9.7861     0.0000   220.0000 </r>
       <r>    -9.5355     0.0000   220.0000 </r>
       <r>    -9.2849     0.0000   220.0000 </r>
       <r>    -9.0343     0.0000   220.0000 </r>
       <r>    -8.7836     0.0209   220.0053 </r>
       <r>    -8.5330     4.4621   221.1236 </r>
       <r>    -8.2824     4.3198   222.2062 </r>
       <r>    -8.0318     7.7024   224.1366 </r>
       <r>    -7.7811     8.1773   226.1861 </r>
       <r>    -7.5305    11.6700   229.1109 </r>
       <r>    -7.2799    17.7604   233.5621 </r>
       <r>    -7.0293    18.3504   238.1612 </r>
       <r>    -6.7786    18.1831   242.7184 </r>
       <r>    -6.5280    11.4320   245.5835 </r>
       <r>    -6.2774     1.6616   246.0000 </r>
       <r>    -6.0267     0.0001   246.0000 </r>
       <r>    -5.7761     0.0001   246.0000 </r>
       <r>    -5.5255     0.6860   246.1720 </r>
       <r>    -5.2749     5.9786   247.6704 </r>
       <r>    -5.0242     1.3579   248.0107 </r>
       <r>    -4.7736     5.9722   249.5075 </r>
       <r>    -4.5230    11.3522   252.3526 </r>
       <r>    -4.2724    13.4567   255.7253 </r>
       <r>    -4.0217    19.2649   260.5535 </r>
       <r>    -3.7711    22.6527   266.2309 </r>
       <r>    -3.5205    18.6613   270.9079 </r>
       <r>    -3.2699    18.5184   275.5491 </r>
       <r>    -3.0192    16.0789   279.5789 </r>
       <r>    -2.7686     9.4573   281.9491 </r>
       <r>    -2.5180     7.5445   283.8400 </r>
       <r>    -2.2674     0.6380   283.9999 </r>
       <r>    -2.0167     0.0005   284.0000 </r>
       <r>    -1.7661     0.0000   284.0000 </r>
       <r>    -1.5155     0.0000   284.0000 </r>
       <r>    -1.2648     0.0000   284.0000 </r>
       <r>    -1.0142     0.0000   284.0000 </r>
       <r>    -0.7636     0.0000   284.0000 </r>
       <r>    -0.5130     0.1238   284.0310 </r>
       <r>    -0.2623     1.0107   284.2843 </r>
       <r>    -0.0117     6.5164   285.9175 </r>
       <r>     0.2389     9.4035   288.2743 </r>
       <r>     0.4895    12.3959   291.3810 </r>
       <r>     0.7402    17.9447   295.8784 </r>
       <r>     0.9908    27.5427   302.7814 </r>
       <r>     1.2414    25.2090   309.0994 </r>
       <r>     1.4920    24.6705   315.2825 </r>
       <r>     1.7427    32.2883   323.3748 </r>
       <r>     1.9933    30.5980   331.0434 </r>
       <r>     2.2439    38.1837   340.6133 </r>
       <r>     2.4945    49.4308   353.0019 </r>
       <r>     2.7452    57.7876   367.4850 </r>
       <r>     2.9958    58.4552   382.1354 </r>
       <r>     3.2464    58.0393   396.6816 </r>
       <r>     3.4971    57.1736   411.0109 </r>
       <r>     3.7477    53.4264   424.4009 </r>
       <r>     3.9983    47.0024   436.1810 </r>
       <r>     4.2489    41.1683   446.4988 </r>
       <r>     4.4996    33.4071   454.8715 </r>
       <r>     4.7502    31.9585   462.8812 </r>
       <r>     5.0008    25.6182   469.3018 </r>
       <r>     5.2514    14.9425   473.0468 </r>
       <r>     5.5021    10.8651   475.7698 </r>
       <r>     5.7527     9.4578   478.1402 </r>
       <r>     6.0033    19.7044   483.0786 </r>
       <r>     6.2539    20.0952   488.1150 </r>
       <r>     6.5046    16.5903   492.2730 </r>
       <r>     6.7552    19.8238   497.2413 </r>
       <r>     7.0058    22.4433   502.8662 </r>
       <r>     7.2564    27.6466   509.7952 </r>
       <r>     7.5071    29.9156   517.2928 </r>
       <r>     7.7577    29.0157   524.5649 </r>
       <r>     8.0083    31.5192   532.4645 </r>
       <r>     8.2590    40.9392   542.7249 </r>
       <r>     8.5096    49.6921   555.1791 </r>
       <r>     8.7602    53.4860   568.5841 </r>
       <r>     9.0108    51.5571   581.5056 </r>
       <r>     9.2615    50.2461   594.0986 </r>
       <r>     9.5121    46.3231   605.7084 </r>
       <r>     9.7627    46.1515   617.2752 </r>
       <r>    10.0133    42.9501   628.0396 </r>
       <r>    10.2640    45.2199   639.3729 </r>
       <r>    10.5146    46.9119   651.1303 </r>
       <r>    10.7652    43.2157   661.9613 </r>
       <r>    11.0158    33.2066   670.2837 </r>
       <r>    11.2665     6.8319   671.9960 </r>
       <r>    11.5171     0.0160   672.0000 </r>
       <r>    11.7677     0.0000   672.0000 </r>
       <r>    12.0184     0.0000   672.0000 </r>
       <r>    12.2690     0.0000   672.0000 </r>
       <r>    12.5196     0.0000   672.0000 </r>
       <r>    12.7702     0.0000   672.0000 </r>
       <r>    13.0209     0.0000   672.0000 </r>
       <r>    13.2715     0.0000   672.0000 </r>
       <r>    13.5221     0.0000   672.0000 </r>
       <r>    13.7727     0.0000   672.0000 </r>
       <r>    14.0234     0.0000   672.0000 </r>
       <r>    14.2740     0.0000   672.0000 </r>
       <r>    14.5246     0.0000   672.0000 </r>
      </set>
     </set>
    </array>
   </total>
  </dos>
 </calculation>
 <structure name="finalpos" >
  <crystal>
   <varray name="basis" >
    <v>       8.77233605      -0.00863270      -0.02655907 </v>
    <v>      -0.00297339       8.75678441      -0.00754740 </v>
    <v>       0.00496970      -0.02285247       8.81617456 </v>
   </varray>
   <i name="volume">    677.23551255 </i>
   <varray name="rec_basis" >
    <v>       0.11399456       0.00003865      -0.00006416 </v>
    <v>       0.00011328       0.11419746       0.00029595 </v>
    <v>       0.00034351       0.00009788       0.11342794 </v>
   </varray>
  </crystal>
  <varray name="positions" >
   <v>       0.00336417       0.98136607       0.02880520 </v>
   <v>       0.23410123       0.98008684       0.25652108 </v>
   <v>       0.27574830       0.51623458       0.24393925 </v>
   <v>       0.49861296       0.47273703       0.98893539 </v>
   <v>       0.48095842       0.24501521       0.75480465 </v>
   <v>       0.00113843       0.49718576       0.53135019 </v>
   <v>       0.50390608       0.76204267       0.73485029 </v>
   <v>       0.99925109       0.27248756       0.25431296 </v>
   <v>       0.74359728       0.75089820       0.00081392 </v>
   <v>       0.01131638       0.23556456       0.74789395 </v>
   <v>       0.74899939       0.26089410       0.51345299 </v>
   <v>       0.00037859       0.75988745       0.75242695 </v>
   <v>       0.25786295       0.50203522       0.75363380 </v>
   <v>       0.24486959       0.24155561       0.00142696 </v>
   <v>       0.49263822       0.23863731       0.24795381 </v>
   <v>       0.73852215       0.99061992       0.25924790 </v>
   <v>       0.75308267       0.24754875       0.98897849 </v>
   <v>       0.26929387       0.75872859       0.00076222 </v>
   <v>       0.25188004       0.25099997       0.49911997 </v>
   <v>       0.24748066       0.74841783       0.50088672 </v>
   <v>       0.24003554       0.25376589       0.25022608 </v>
   <v>       0.23070256       0.99832446       0.02014843 </v>
   <v>       0.99872366       0.24343266       0.00325934 </v>
   <v>       0.75043106       0.25142508       0.25447212 </v>
   <v>       0.75865729       0.99419877       0.99172971 </v>
   <v>       0.48618877       0.98721221       0.27397718 </v>
   <v>       0.99306225       0.50136541       0.24961066 </v>
   <v>       0.51305183       0.77113909       0.97658686 </v>
   <v>       0.98081217       0.00136161       0.75066062 </v>
   <v>       0.75119461       0.25303521       0.74340053 </v>
   <v>       0.75290284       0.00355881       0.51222116 </v>
   <v>       0.50790856       0.25116272       0.50859249 </v>
   <v>       0.50700404       0.00888956       0.73973765 </v>
   <v>       0.99948137       0.00644735       0.24919811 </v>
   <v>       0.50004885       0.23828766       0.98851776 </v>
   <v>       0.25927991       0.74730898       0.25065820 </v>
   <v>       0.24966156       0.50174237       0.00526738 </v>
   <v>       0.00185761       0.74730842       0.00283900 </v>
   <v>       0.74176016       0.74138481       0.24810048 </v>
   <v>       0.75418949       0.50421937       0.00011460 </v>
   <v>       0.49282896       0.50713503       0.23955421 </v>
   <v>       0.25472946       0.24014512       0.75093192 </v>
   <v>       0.24823094       0.99880673       0.50307071 </v>
   <v>       0.99548871       0.25185806       0.50079516 </v>
   <v>       0.25588241       0.76178385       0.75041931 </v>
   <v>       0.24799144       0.50041697       0.49537847 </v>
   <v>       0.99139939       0.74860776       0.50007823 </v>
   <v>       0.00042454       0.50004381       0.75369048 </v>
   <v>       0.74382578       0.75676892       0.74454599 </v>
   <v>       0.75768393       0.49876309       0.49499627 </v>
   <v>       0.50518611       0.76201647       0.50082999 </v>
   <v>       0.50464533       0.50141075       0.75082839 </v>
   <v>       0.53364320       0.01431571       0.95235092 </v>
   <v>       0.00991252       0.52125701       0.96860508 </v>
   <v>       0.50341086       0.73491873       0.28562896 </v>
   <v>       0.28087269       0.99961093       0.72840923 </v>
   <v>       0.47417870       0.98851724       0.51672545 </v>
   <v>       0.73743091       0.97629119       0.76167360 </v>
   <v>       0.00312565       0.75665469       0.24943505 </v>
   <v>       0.72274579       0.50704312       0.23869267 </v>
   <v>       0.00966832       0.00056241       0.48204399 </v>
   <v>       0.50039766       0.50778638       0.49903007 </v>
   <v>       0.74342691       0.51567528       0.75620776 </v>
   <v>       0.74891358       0.73109682       0.49664318 </v>
  </varray>
 </structure>
</modeling>
