HECN                                    
           1
     8.773180   -0.008641   -0.026474
    -0.002981    8.757721   -0.007541
     0.005058   -0.022848    8.817238
   V    Ta   Zr   N    C    Cr   W 
   7   6   7  13  19   6   6
Direct configuration=     1
   0.00336138  0.98136866  0.02881007
   0.23410465  0.98008591  0.25651805
   0.27574435  0.51623164  0.24393653
   0.49861393  0.47273608  0.98893840
   0.48095511  0.24501241  0.75479983
   0.00114234  0.49718607  0.53134459
   0.50390608  0.76203065  0.73484503
   0.99924861  0.27249539  0.25431144
   0.74359484  0.75089987  0.00081531
   0.01131462  0.23556079  0.74789554
   0.74899966  0.26089745  0.51344759
   0.00037600  0.75988916  0.75242305
   0.25786219  0.50203426  0.75363280
   0.24487077  0.24155372  0.00142477
   0.49263893  0.23863781  0.24795512
   0.73852275  0.99062141  0.25924619
   0.75308635  0.24754613  0.98898012
   0.26929384  0.75873076  0.00076164
   0.25188134  0.25099984  0.49911900
   0.24748331  0.74841544  0.50088293
   0.24003605  0.25376798  0.25022637
   0.23070494  0.99832538  0.02014688
   0.99871935  0.24342005  0.00326088
   0.75042955  0.25142415  0.25446971
   0.75865781  0.99420114  0.99173145
   0.48619203  0.98721388  0.27396904
   0.99306322  0.50136768  0.24961232
   0.51304802  0.77114323  0.97658770
   0.98080732  0.00136161  0.75066053
   0.75119493  0.25304427  0.74340834
   0.75290597  0.00356239  0.51222385
   0.50790644  0.25116175  0.50859350
   0.50700394  0.00888409  0.73973505
   0.99948256  0.00644925  0.24918338
   0.50004605  0.23828859  0.98851747
   0.25928456  0.74730941  0.25065767
   0.24965935  0.50174199  0.00526816
   0.00185580  0.74731178  0.00283734
   0.74176155  0.74138649  0.24810174
   0.75419106  0.50421819  0.00011257
   0.49282738  0.50713509  0.23955435
   0.25473030  0.24014331  0.75093311
   0.24823313  0.99880800  0.50306473
   0.99548897  0.25186006  0.50079606
   0.25588135  0.76178360  0.75041987
   0.24798922  0.50041820  0.49537736
   0.99140233  0.74860739  0.50007960
   0.00042440  0.50004131  0.75369020
   0.74382418  0.75676921  0.74454760
   0.75768693  0.49876151  0.49499677
   0.50518579  0.76201819  0.50082792
   0.50464280  0.50140738  0.75082979
   0.53363948  0.01431567  0.95236199
   0.00990760  0.52126575  0.96861559
   0.50341429  0.73492020  0.28562196
   0.28086942  0.99960796  0.72841245
   0.47418472  0.98852685  0.51672887
   0.73743203  0.97628962  0.76167298
   0.00312437  0.75664707  0.24943750
   0.72274846  0.50703810  0.23869273
   0.00967231  0.00056213  0.48206337
   0.50039732  0.50778360  0.49903315
   0.74342734  0.51567535  0.75620682
   0.74891469  0.73109744  0.49664342
HECN                                    
           1
     8.770639   -0.008615   -0.026729
    -0.002957    8.754900   -0.007560
     0.004791   -0.022862    8.814035
   V    Ta   Zr   N    C    Cr   W 
   7   6   7  13  19   6   6
Direct configuration=     2
   0.00336979  0.98136086  0.02879541
   0.23409435  0.98008870  0.25652719
   0.27575625  0.51624049  0.24394472
   0.49861100  0.47273894  0.98892934
   0.48096509  0.24502086  0.75481437
   0.00113055  0.49718513  0.53136148
   0.50390606  0.76206686  0.73486087
   0.99925606  0.27247179  0.25431602
   0.74360218  0.75089484  0.00081113
   0.01131992  0.23557215  0.74789075
   0.74899885  0.26088737  0.51346386
   0.00038380  0.75988402  0.75243481
   0.25786447  0.50203715  0.75363582
   0.24486721  0.24155941  0.00143139
   0.49263678  0.23863630  0.24795118
   0.73852094  0.99061692  0.25925134
   0.75307526  0.24755402  0.98897520
   0.26929395  0.75872423  0.00076338
   0.25187743  0.25100025  0.49912194
   0.24747532  0.74842265  0.50089435
   0.24003451  0.25376168  0.25022549
   0.23069777  0.99832261  0.02015157
   0.99873234  0.24345804  0.00325624
   0.75043410  0.25142696  0.25447698
   0.75865626  0.99419401  0.99172620
   0.48618219  0.98720883  0.27399357
   0.99306031  0.50136084  0.24960731
   0.51305950  0.77113076  0.97658517
   0.98082193  0.00136162  0.75066082
   0.75119397  0.25301696  0.74338480
   0.75289655  0.00355159  0.51221575
   0.50791283  0.25116467  0.50859046
   0.50700424  0.00890057  0.73974288
   0.99947899  0.00644354  0.24922775
   0.50005448  0.23828579  0.98851836
   0.25927055  0.74730811  0.25065928
   0.24966602  0.50174312  0.00526581
   0.00186124  0.74730166  0.00284234
   0.74175737  0.74138143  0.24809795
   0.75418632  0.50422175  0.00011869
   0.49283214  0.50713489  0.23955392
   0.25472777  0.24014877  0.75092953
   0.24822655  0.99880418  0.50308276
   0.99548819  0.25185405  0.50079333
   0.25588455  0.76178434  0.75041820
   0.24799591  0.50041450  0.49538071
   0.99139347  0.74860848  0.50007545
   0.00042483  0.50004885  0.75369103
   0.74382898  0.75676832  0.74454273
   0.75767788  0.49876627  0.49499525
   0.50518676  0.76201301  0.50083415
   0.50465043  0.50141754  0.75082556
   0.53365069  0.01431579  0.95232864
   0.00992241  0.52123941  0.96858391
   0.50340396  0.73491578  0.28564303
   0.28087927  0.99961690  0.72840274
   0.47416659  0.98849791  0.51671857
   0.73742864  0.97629435  0.76167483
   0.00312822  0.75667003  0.24943012
   0.72274041  0.50705322  0.23869254
   0.00966031  0.00056298  0.48200498
   0.50039834  0.50779199  0.49902387
   0.74342604  0.51567515  0.75620965
   0.74891134  0.73109557  0.49664269
HECN                                    
           1
     8.772336   -0.008633   -0.026559
    -0.002973    8.756784   -0.007547
     0.004970   -0.022852    8.816175
   V    Ta   Zr   N    C    Cr   W 
   7   6   7  13  19   6   6
Direct configuration=     3
   0.00336417  0.98136607  0.02880520
   0.23410123  0.98008684  0.25652108
   0.27574830  0.51623458  0.24393925
   0.49861296  0.47273703  0.98893539
   0.48095842  0.24501521  0.75480465
   0.00113843  0.49718576  0.53135019
   0.50390608  0.76204267  0.73485029
   0.99925109  0.27248756  0.25431296
   0.74359728  0.75089820  0.00081392
   0.01131638  0.23556456  0.74789395
   0.74899939  0.26089410  0.51345299
   0.00037859  0.75988745  0.75242695
   0.25786295  0.50203522  0.75363380
   0.24486959  0.24155561  0.00142696
   0.49263822  0.23863731  0.24795381
   0.73852215  0.99061992  0.25924790
   0.75308267  0.24754875  0.98897849
   0.26929387  0.75872859  0.00076222
   0.25188004  0.25099997  0.49911997
   0.24748066  0.74841783  0.50088672
   0.24003554  0.25376589  0.25022608
   0.23070256  0.99832446  0.02014843
   0.99872366  0.24343266  0.00325934
   0.75043106  0.25142508  0.25447212
   0.75865729  0.99419877  0.99172971
   0.48618877  0.98721221  0.27397718
   0.99306225  0.50136541  0.24961066
   0.51305183  0.77113909  0.97658686
   0.98081217  0.00136161  0.75066062
   0.75119461  0.25303521  0.74340053
   0.75290284  0.00355881  0.51222116
   0.50790856  0.25116272  0.50859249
   0.50700404  0.00888956  0.73973765
   0.99948137  0.00644735  0.24919811
   0.50004885  0.23828766  0.98851776
   0.25927991  0.74730898  0.25065820
   0.24966156  0.50174237  0.00526738
   0.00185761  0.74730842  0.00283900
   0.74176016  0.74138481  0.24810048
   0.75418949  0.50421937  0.00011460
   0.49282896  0.50713503  0.23955421
   0.25472946  0.24014512  0.75093192
   0.24823094  0.99880673  0.50307071
   0.99548871  0.25185806  0.50079516
   0.25588241  0.76178385  0.75041931
   0.24799144  0.50041697  0.49537847
   0.99139939  0.74860776  0.50007823
   0.00042454  0.50004381  0.75369048
   0.74382578  0.75676892  0.74454599
   0.75768393  0.49876309  0.49499627
   0.50518611  0.76201647  0.50082999
   0.50464533  0.50141075  0.75082839
   0.53364320  0.01431571  0.95235092
   0.00991252  0.52125701  0.96860508
   0.50341086  0.73491873  0.28562896
   0.28087269  0.99961093  0.72840923
   0.47417870  0.98851724  0.51672545
   0.73743091  0.97629119  0.76167360
   0.00312565  0.75665469  0.24943505
   0.72274579  0.50704312  0.23869267
   0.00966832  0.00056241  0.48204399
   0.50039766  0.50778638  0.49903007
   0.74342691  0.51567528  0.75620776
   0.74891358  0.73109682  0.49664318
