  64  64   1   0
  0.1153890E+02  0.9031530E-09  0.9071330E-09  0.9014085E-09  0.5000000E-15
  1.000000000000000E-004
  CAR 
 HEBCN                                   
     13.00000000    -48.00000000 1000      8.78042566      1.00000000
    -48.000  0.0000E+00  0.0000E+00
    -47.939  0.0000E+00  0.0000E+00
    -47.878  0.0000E+00  0.0000E+00
    -47.817  0.0000E+00  0.0000E+00
    -47.756  0.0000E+00  0.0000E+00
    -47.695  0.0000E+00  0.0000E+00
    -47.634  0.1818E-14  0.1110E-15
    -47.573  0.1290E-11  0.7885E-13
    -47.512  0.6551E-09  0.4008E-10
    -47.450  0.1618E-06  0.9918E-08
    -47.389  0.1959E-04  0.1206E-05
    -47.328  0.1175E-02  0.7296E-04
    -47.267  0.3538E-01  0.2233E-02
    -47.206  0.5428E+00  0.3538E-01
    -47.145  0.4319E+01  0.2991E+00
    -47.084  0.1815E+02  0.1407E+01
    -47.023  0.4102E+02  0.3912E+01
    -46.962  0.5122E+02  0.7040E+01
    -46.901  0.3821E+02  0.9373E+01
    -46.840  0.2209E+02  0.1072E+02
    -46.779  0.1306E+02  0.1152E+02
    -46.718  0.6057E+01  0.1189E+02
    -46.657  0.1592E+01  0.1199E+02
    -46.596  0.2127E+00  0.1200E+02
    -46.535  0.1404E-01  0.1200E+02
    -46.473  0.4530E-03  0.1200E+02
    -46.412  0.7110E-05  0.1200E+02
    -46.351  0.5401E-07  0.1200E+02
    -46.290  0.1979E-09  0.1200E+02
    -46.229  0.3491E-12  0.1200E+02
    -46.168  0.0000E+00  0.1200E+02
    -46.107  0.0000E+00  0.1200E+02
    -46.046  0.0000E+00  0.1200E+02
    -45.985  0.0000E+00  0.1200E+02
    -45.924  0.0000E+00  0.1200E+02
    -45.863  0.0000E+00  0.1200E+02
    -45.802  0.0000E+00  0.1200E+02
    -45.741  0.0000E+00  0.1200E+02
    -45.680  0.0000E+00  0.1200E+02
    -45.619  0.0000E+00  0.1200E+02
    -45.558  0.0000E+00  0.1200E+02
    -45.496  0.0000E+00  0.1200E+02
    -45.435  0.0000E+00  0.1200E+02
    -45.374  0.0000E+00  0.1200E+02
    -45.313  0.0000E+00  0.1200E+02
    -45.252  0.0000E+00  0.1200E+02
    -45.191  0.0000E+00  0.1200E+02
    -45.130  0.0000E+00  0.1200E+02
    -45.069  0.0000E+00  0.1200E+02
    -45.008  0.0000E+00  0.1200E+02
    -44.947  0.0000E+00  0.1200E+02
    -44.886  0.0000E+00  0.1200E+02
    -44.825  0.0000E+00  0.1200E+02
    -44.764  0.0000E+00  0.1200E+02
    -44.703  0.0000E+00  0.1200E+02
    -44.642  0.0000E+00  0.1200E+02
    -44.581  0.0000E+00  0.1200E+02
    -44.520  0.0000E+00  0.1200E+02
    -44.458  0.0000E+00  0.1200E+02
    -44.397  0.0000E+00  0.1200E+02
    -44.336  0.0000E+00  0.1200E+02
    -44.275  0.0000E+00  0.1200E+02
    -44.214  0.0000E+00  0.1200E+02
    -44.153  0.0000E+00  0.1200E+02
    -44.092  0.0000E+00  0.1200E+02
    -44.031  0.0000E+00  0.1200E+02
    -43.970  0.0000E+00  0.1200E+02
    -43.909  0.0000E+00  0.1200E+02
    -43.848  0.0000E+00  0.1200E+02
    -43.787  0.0000E+00  0.1200E+02
    -43.726  0.0000E+00  0.1200E+02
    -43.665  0.0000E+00  0.1200E+02
    -43.604  0.0000E+00  0.1200E+02
    -43.543  0.0000E+00  0.1200E+02
    -43.481  0.0000E+00  0.1200E+02
    -43.420  0.0000E+00  0.1200E+02
    -43.359  0.0000E+00  0.1200E+02
    -43.298  0.0000E+00  0.1200E+02
    -43.237  0.0000E+00  0.1200E+02
    -43.176  0.0000E+00  0.1200E+02
    -43.115  0.0000E+00  0.1200E+02
    -43.054  0.0000E+00  0.1200E+02
    -42.993  0.0000E+00  0.1200E+02
    -42.932  0.0000E+00  0.1200E+02
    -42.871  0.0000E+00  0.1200E+02
    -42.810  0.0000E+00  0.1200E+02
    -42.749  0.0000E+00  0.1200E+02
    -42.688  0.0000E+00  0.1200E+02
    -42.627  0.0000E+00  0.1200E+02
    -42.566  0.0000E+00  0.1200E+02
    -42.505  0.0000E+00  0.1200E+02
    -42.443  0.0000E+00  0.1200E+02
    -42.382  0.0000E+00  0.1200E+02
    -42.321  0.0000E+00  0.1200E+02
    -42.260  0.0000E+00  0.1200E+02
    -42.199  0.0000E+00  0.1200E+02
    -42.138  0.0000E+00  0.1200E+02
    -42.077  0.0000E+00  0.1200E+02
    -42.016  0.0000E+00  0.1200E+02
    -41.955  0.0000E+00  0.1200E+02
    -41.894  0.0000E+00  0.1200E+02
    -41.833  0.0000E+00  0.1200E+02
    -41.772  0.0000E+00  0.1200E+02
    -41.711  0.0000E+00  0.1200E+02
    -41.650  0.0000E+00  0.1200E+02
    -41.589  0.0000E+00  0.1200E+02
    -41.528  0.0000E+00  0.1200E+02
    -41.466  0.0000E+00  0.1200E+02
    -41.405  0.0000E+00  0.1200E+02
    -41.344  0.0000E+00  0.1200E+02
    -41.283  0.0000E+00  0.1200E+02
    -41.222  0.0000E+00  0.1200E+02
    -41.161  0.2727E-13  0.1200E+02
    -41.100  0.2087E-10  0.1200E+02
    -41.039  0.7455E-08  0.1200E+02
    -40.978  0.1283E-05  0.1200E+02
    -40.917  0.1067E-03  0.1200E+02
    -40.856  0.4309E-02  0.1200E+02
    -40.795  0.8482E-01  0.1201E+02
    -40.734  0.8181E+00  0.1206E+02
    -40.673  0.3887E+01  0.1229E+02
    -40.612  0.9133E+01  0.1285E+02
    -40.551  0.1064E+02  0.1350E+02
    -40.489  0.6172E+01  0.1388E+02
    -40.428  0.2015E+01  0.1400E+02
    -40.367  0.2114E+01  0.1413E+02
    -40.306  0.7393E+01  0.1458E+02
    -40.245  0.1760E+02  0.1566E+02
    -40.184  0.2969E+02  0.1747E+02
    -40.123  0.3726E+02  0.1974E+02
    -40.062  0.3436E+02  0.2184E+02
    -40.001  0.2741E+02  0.2351E+02
    -39.940  0.2148E+02  0.2483E+02
    -39.879  0.1316E+02  0.2563E+02
    -39.818  0.4942E+01  0.2593E+02
    -39.757  0.1012E+01  0.2599E+02
    -39.696  0.1069E+00  0.2600E+02
    -39.635  0.5647E-02  0.2600E+02
    -39.574  0.1469E-03  0.2600E+02
    -39.513  0.1863E-05  0.2600E+02
    -39.451  0.1144E-07  0.2600E+02
    -39.390  0.3389E-10  0.2600E+02
    -39.329  0.5091E-13  0.2600E+02
    -39.268  0.0000E+00  0.2600E+02
    -39.207  0.0000E+00  0.2600E+02
    -39.146  0.0000E+00  0.2600E+02
    -39.085  0.0000E+00  0.2600E+02
    -39.024  0.0000E+00  0.2600E+02
    -38.963  0.0000E+00  0.2600E+02
    -38.902  0.0000E+00  0.2600E+02
    -38.841  0.0000E+00  0.2600E+02
    -38.780  0.0000E+00  0.2600E+02
    -38.719  0.0000E+00  0.2600E+02
    -38.658  0.0000E+00  0.2600E+02
    -38.597  0.0000E+00  0.2600E+02
    -38.536  0.0000E+00  0.2600E+02
    -38.474  0.0000E+00  0.2600E+02
    -38.413  0.0000E+00  0.2600E+02
    -38.352  0.0000E+00  0.2600E+02
    -38.291  0.0000E+00  0.2600E+02
    -38.230  0.0000E+00  0.2600E+02
    -38.169  0.0000E+00  0.2600E+02
    -38.108  0.0000E+00  0.2600E+02
    -38.047  0.0000E+00  0.2600E+02
    -37.986  0.0000E+00  0.2600E+02
    -37.925  0.0000E+00  0.2600E+02
    -37.864  0.0000E+00  0.2600E+02
    -37.803  0.0000E+00  0.2600E+02
    -37.742  0.0000E+00  0.2600E+02
    -37.681  0.0000E+00  0.2600E+02
    -37.620  0.0000E+00  0.2600E+02
    -37.559  0.0000E+00  0.2600E+02
    -37.497  0.0000E+00  0.2600E+02
    -37.436  0.0000E+00  0.2600E+02
    -37.375  0.0000E+00  0.2600E+02
    -37.314  0.0000E+00  0.2600E+02
    -37.253  0.0000E+00  0.2600E+02
    -37.192  0.0000E+00  0.2600E+02
    -37.131  0.0000E+00  0.2600E+02
    -37.070  0.0000E+00  0.2600E+02
    -37.009  0.0000E+00  0.2600E+02
    -36.948  0.0000E+00  0.2600E+02
    -36.887  0.0000E+00  0.2600E+02
    -36.826  0.0000E+00  0.2600E+02
    -36.765  0.0000E+00  0.2600E+02
    -36.704  0.0000E+00  0.2600E+02
    -36.643  0.0000E+00  0.2600E+02
    -36.582  0.0000E+00  0.2600E+02
    -36.521  0.0000E+00  0.2600E+02
    -36.459  0.0000E+00  0.2600E+02
    -36.398  0.0000E+00  0.2600E+02
    -36.337  0.0000E+00  0.2600E+02
    -36.276  0.0000E+00  0.2600E+02
    -36.215  0.0000E+00  0.2600E+02
    -36.154  0.0000E+00  0.2600E+02
    -36.093  0.0000E+00  0.2600E+02
    -36.032  0.0000E+00  0.2600E+02
    -35.971  0.0000E+00  0.2600E+02
    -35.910  0.0000E+00  0.2600E+02
    -35.849  0.0000E+00  0.2600E+02
    -35.788  0.0000E+00  0.2600E+02
    -35.727  0.0000E+00  0.2600E+02
    -35.666  0.0000E+00  0.2600E+02
    -35.605  0.0000E+00  0.2600E+02
    -35.544  0.0000E+00  0.2600E+02
    -35.482  0.0000E+00  0.2600E+02
    -35.421  0.0000E+00  0.2600E+02
    -35.360  0.0000E+00  0.2600E+02
    -35.299  0.0000E+00  0.2600E+02
    -35.238  0.0000E+00  0.2600E+02
    -35.177  0.0000E+00  0.2600E+02
    -35.116  0.0000E+00  0.2600E+02
    -35.055  0.0000E+00  0.2600E+02
    -34.994  0.0000E+00  0.2600E+02
    -34.933  0.0000E+00  0.2600E+02
    -34.872  0.0000E+00  0.2600E+02
    -34.811  0.0000E+00  0.2600E+02
    -34.750  0.0000E+00  0.2600E+02
    -34.689  0.0000E+00  0.2600E+02
    -34.628  0.0000E+00  0.2600E+02
    -34.567  0.0000E+00  0.2600E+02
    -34.506  0.0000E+00  0.2600E+02
    -34.444  0.0000E+00  0.2600E+02
    -34.383  0.0000E+00  0.2600E+02
    -34.322  0.0000E+00  0.2600E+02
    -34.261  0.0000E+00  0.2600E+02
    -34.200  0.0000E+00  0.2600E+02
    -34.139  0.0000E+00  0.2600E+02
    -34.078  0.0000E+00  0.2600E+02
    -34.017  0.0000E+00  0.2600E+02
    -33.956  0.0000E+00  0.2600E+02
    -33.895  0.0000E+00  0.2600E+02
    -33.834  0.0000E+00  0.2600E+02
    -33.773  0.0000E+00  0.2600E+02
    -33.712  0.0000E+00  0.2600E+02
    -33.651  0.0000E+00  0.2600E+02
    -33.590  0.0000E+00  0.2600E+02
    -33.529  0.0000E+00  0.2600E+02
    -33.467  0.0000E+00  0.2600E+02
    -33.406  0.0000E+00  0.2600E+02
    -33.345  0.0000E+00  0.2600E+02
    -33.284  0.0000E+00  0.2600E+02
    -33.223  0.0000E+00  0.2600E+02
    -33.162  0.0000E+00  0.2600E+02
    -33.101  0.0000E+00  0.2600E+02
    -33.040  0.0000E+00  0.2600E+02
    -32.979  0.0000E+00  0.2600E+02
    -32.918  0.0000E+00  0.2600E+02
    -32.857  0.0000E+00  0.2600E+02
    -32.796  0.0000E+00  0.2600E+02
    -32.735  0.0000E+00  0.2600E+02
    -32.674  0.0000E+00  0.2600E+02
    -32.613  0.0000E+00  0.2600E+02
    -32.552  0.0000E+00  0.2600E+02
    -32.490  0.0000E+00  0.2600E+02
    -32.429  0.0000E+00  0.2600E+02
    -32.368  0.0000E+00  0.2600E+02
    -32.307  0.0000E+00  0.2600E+02
    -32.246  0.0000E+00  0.2600E+02
    -32.185  0.0000E+00  0.2600E+02
    -32.124  0.0000E+00  0.2600E+02
    -32.063  0.0000E+00  0.2600E+02
    -32.002  0.0000E+00  0.2600E+02
    -31.941  0.0000E+00  0.2600E+02
    -31.880  0.0000E+00  0.2600E+02
    -31.819  0.0000E+00  0.2600E+02
    -31.758  0.0000E+00  0.2600E+02
    -31.697  0.0000E+00  0.2600E+02
    -31.636  0.0000E+00  0.2600E+02
    -31.575  0.0000E+00  0.2600E+02
    -31.514  0.0000E+00  0.2600E+02
    -31.452  0.0000E+00  0.2600E+02
    -31.391  0.3727E-12  0.2600E+02
    -31.330  0.2099E-09  0.2600E+02
    -31.269  0.5688E-07  0.2600E+02
    -31.208  0.7434E-05  0.2600E+02
    -31.147  0.4703E-03  0.2600E+02
    -31.086  0.1446E-01  0.2600E+02
    -31.025  0.2172E+00  0.2601E+02
    -30.964  0.1603E+01  0.2611E+02
    -30.903  0.5843E+01  0.2647E+02
    -30.842  0.1076E+02  0.2713E+02
    -30.781  0.1194E+02  0.2785E+02
    -30.720  0.1786E+02  0.2895E+02
    -30.659  0.4159E+02  0.3148E+02
    -30.598  0.7237E+02  0.3590E+02
    -30.537  0.8807E+02  0.4128E+02
    -30.475  0.8934E+02  0.4674E+02
    -30.414  0.8798E+02  0.5211E+02
    -30.353  0.7880E+02  0.5692E+02
    -30.292  0.5281E+02  0.6015E+02
    -30.231  0.2316E+02  0.6156E+02
    -30.170  0.6186E+01  0.6194E+02
    -30.109  0.9510E+00  0.6199E+02
    -30.048  0.7972E-01  0.6200E+02
    -29.987  0.3486E-02  0.6200E+02
    -29.926  0.7706E-04  0.6200E+02
    -29.865  0.8435E-06  0.6200E+02
    -29.804  0.4513E-08  0.6200E+02
    -29.743  0.1170E-10  0.6200E+02
    -29.682  0.1455E-13  0.6200E+02
    -29.621  0.0000E+00  0.6200E+02
    -29.560  0.0000E+00  0.6200E+02
    -29.498  0.0000E+00  0.6200E+02
    -29.437  0.0000E+00  0.6200E+02
    -29.376  0.0000E+00  0.6200E+02
    -29.315  0.0000E+00  0.6200E+02
    -29.254  0.0000E+00  0.6200E+02
    -29.193  0.0000E+00  0.6200E+02
    -29.132  0.0000E+00  0.6200E+02
    -29.071  0.0000E+00  0.6200E+02
    -29.010  0.0000E+00  0.6200E+02
    -28.949  0.0000E+00  0.6200E+02
    -28.888  0.0000E+00  0.6200E+02
    -28.827  0.0000E+00  0.6200E+02
    -28.766  0.0000E+00  0.6200E+02
    -28.705  0.0000E+00  0.6200E+02
    -28.644  0.0000E+00  0.6200E+02
    -28.583  0.0000E+00  0.6200E+02
    -28.522  0.0000E+00  0.6200E+02
    -28.460  0.0000E+00  0.6200E+02
    -28.399  0.0000E+00  0.6200E+02
    -28.338  0.0000E+00  0.6200E+02
    -28.277  0.0000E+00  0.6200E+02
    -28.216  0.0000E+00  0.6200E+02
    -28.155  0.0000E+00  0.6200E+02
    -28.094  0.0000E+00  0.6200E+02
    -28.033  0.0000E+00  0.6200E+02
    -27.972  0.0000E+00  0.6200E+02
    -27.911  0.0000E+00  0.6200E+02
    -27.850  0.0000E+00  0.6200E+02
    -27.789  0.0000E+00  0.6200E+02
    -27.728  0.0000E+00  0.6200E+02
    -27.667  0.1998E-12  0.6200E+02
    -27.606  0.1203E-09  0.6200E+02
    -27.545  0.3490E-07  0.6200E+02
    -27.483  0.4883E-05  0.6200E+02
    -27.422  0.3309E-03  0.6200E+02
    -27.361  0.1093E-01  0.6200E+02
    -27.300  0.1781E+00  0.6201E+02
    -27.239  0.1463E+01  0.6210E+02
    -27.178  0.6407E+01  0.6249E+02
    -27.117  0.1690E+02  0.6352E+02
    -27.056  0.3228E+02  0.6549E+02
    -26.995  0.4930E+02  0.6851E+02
    -26.934  0.5837E+02  0.7207E+02
    -26.873  0.5606E+02  0.7549E+02
    -26.812  0.5319E+02  0.7874E+02
    -26.751  0.5194E+02  0.8191E+02
    -26.690  0.4554E+02  0.8469E+02
    -26.629  0.3776E+02  0.8700E+02
    -26.568  0.3510E+02  0.8914E+02
    -26.507  0.3962E+02  0.9156E+02
    -26.445  0.4313E+02  0.9419E+02
    -26.384  0.3561E+02  0.9637E+02
    -26.323  0.1937E+02  0.9755E+02
    -26.262  0.6179E+01  0.9793E+02
    -26.201  0.1064E+01  0.9799E+02
    -26.140  0.9427E-01  0.9800E+02
    -26.079  0.4197E-02  0.9800E+02
    -26.018  0.9255E-04  0.9800E+02
    -25.957  0.1002E-05  0.9800E+02
    -25.896  0.5283E-08  0.9800E+02
    -25.835  0.1352E-10  0.9800E+02
    -25.774  0.1455E-13  0.9800E+02
    -25.713  0.0000E+00  0.9800E+02
    -25.652  0.0000E+00  0.9800E+02
    -25.591  0.0000E+00  0.9800E+02
    -25.530  0.0000E+00  0.9800E+02
    -25.468  0.0000E+00  0.9800E+02
    -25.407  0.0000E+00  0.9800E+02
    -25.346  0.0000E+00  0.9800E+02
    -25.285  0.0000E+00  0.9800E+02
    -25.224  0.0000E+00  0.9800E+02
    -25.163  0.0000E+00  0.9800E+02
    -25.102  0.0000E+00  0.9800E+02
    -25.041  0.0000E+00  0.9800E+02
    -24.980  0.0000E+00  0.9800E+02
    -24.919  0.0000E+00  0.9800E+02
    -24.858  0.0000E+00  0.9800E+02
    -24.797  0.0000E+00  0.9800E+02
    -24.736  0.0000E+00  0.9800E+02
    -24.675  0.0000E+00  0.9800E+02
    -24.614  0.0000E+00  0.9800E+02
    -24.553  0.0000E+00  0.9800E+02
    -24.491  0.0000E+00  0.9800E+02
    -24.430  0.0000E+00  0.9800E+02
    -24.369  0.0000E+00  0.9800E+02
    -24.308  0.0000E+00  0.9800E+02
    -24.247  0.0000E+00  0.9800E+02
    -24.186  0.0000E+00  0.9800E+02
    -24.125  0.0000E+00  0.9800E+02
    -24.064  0.0000E+00  0.9800E+02
    -24.003  0.0000E+00  0.9800E+02
    -23.942  0.7306E-13  0.9800E+02
    -23.881  0.4955E-10  0.9800E+02
    -23.820  0.1611E-07  0.9800E+02
    -23.759  0.2538E-05  0.9800E+02
    -23.698  0.1950E-03  0.9800E+02
    -23.637  0.7384E-02  0.9800E+02
    -23.576  0.1399E+00  0.9801E+02
    -23.515  0.1358E+01  0.9809E+02
    -23.453  0.7008E+01  0.9852E+02
    -23.392  0.2050E+02  0.9977E+02
    -23.331  0.3819E+02  0.1021E+03
    -23.270  0.5447E+02  0.1054E+03
    -23.209  0.6976E+02  0.1097E+03
    -23.148  0.8048E+02  0.1146E+03
    -23.087  0.8086E+02  0.1195E+03
    -23.026  0.7483E+02  0.1241E+03
    -22.965  0.6635E+02  0.1282E+03
    -22.904  0.5163E+02  0.1313E+03
    -22.843  0.3014E+02  0.1332E+03
    -22.782  0.1184E+02  0.1339E+03
    -22.721  0.5719E+01  0.1342E+03
    -22.660  0.1002E+02  0.1348E+03
    -22.599  0.1887E+02  0.1360E+03
    -22.538  0.3235E+02  0.1380E+03
    -22.476  0.4914E+02  0.1410E+03
    -22.415  0.5693E+02  0.1444E+03
    -22.354  0.5092E+02  0.1476E+03
    -22.293  0.3739E+02  0.1498E+03
    -22.232  0.2249E+02  0.1512E+03
    -22.171  0.1094E+02  0.1519E+03
    -22.110  0.9849E+01  0.1525E+03
    -22.049  0.2685E+02  0.1541E+03
    -21.988  0.5751E+02  0.1576E+03
    -21.927  0.7781E+02  0.1624E+03
    -21.866  0.6849E+02  0.1666E+03
    -21.805  0.3922E+02  0.1690E+03
    -21.744  0.1398E+02  0.1698E+03
    -21.683  0.3727E+01  0.1700E+03
    -21.622  0.6066E+01  0.1704E+03
    -21.561  0.1889E+02  0.1716E+03
    -21.499  0.3151E+02  0.1735E+03
    -21.438  0.2679E+02  0.1751E+03
    -21.377  0.1157E+02  0.1758E+03
    -21.316  0.2521E+01  0.1760E+03
    -21.255  0.2755E+00  0.1760E+03
    -21.194  0.1497E-01  0.1760E+03
    -21.133  0.4013E-03  0.1760E+03
    -21.072  0.5273E-05  0.1760E+03
    -21.011  0.3374E-07  0.1760E+03
    -20.950  0.1047E-09  0.1760E+03
    -20.889  0.1561E-12  0.1760E+03
    -20.828  0.0000E+00  0.1760E+03
    -20.767  0.0000E+00  0.1760E+03
    -20.706  0.0000E+00  0.1760E+03
    -20.645  0.0000E+00  0.1760E+03
    -20.584  0.0000E+00  0.1760E+03
    -20.523  0.0000E+00  0.1760E+03
    -20.461  0.0000E+00  0.1760E+03
    -20.400  0.0000E+00  0.1760E+03
    -20.339  0.0000E+00  0.1760E+03
    -20.278  0.0000E+00  0.1760E+03
    -20.217  0.0000E+00  0.1760E+03
    -20.156  0.0000E+00  0.1760E+03
    -20.095  0.0000E+00  0.1760E+03
    -20.034  0.0000E+00  0.1760E+03
    -19.973  0.0000E+00  0.1760E+03
    -19.912  0.0000E+00  0.1760E+03
    -19.851  0.0000E+00  0.1760E+03
    -19.790  0.0000E+00  0.1760E+03
    -19.729  0.0000E+00  0.1760E+03
    -19.668  0.0000E+00  0.1760E+03
    -19.607  0.0000E+00  0.1760E+03
    -19.546  0.0000E+00  0.1760E+03
    -19.484  0.8073E-13  0.1760E+03
    -19.423  0.5501E-10  0.1760E+03
    -19.362  0.1803E-07  0.1760E+03
    -19.301  0.2880E-05  0.1760E+03
    -19.240  0.2260E-03  0.1760E+03
    -19.179  0.8801E-02  0.1760E+03
    -19.118  0.1721E+00  0.1760E+03
    -19.057  0.1712E+01  0.1761E+03
    -18.996  0.8748E+01  0.1766E+03
    -18.935  0.2315E+02  0.1781E+03
    -18.874  0.3186E+02  0.1800E+03
    -18.813  0.2312E+02  0.1814E+03
    -18.752  0.1164E+02  0.1821E+03
    -18.691  0.1527E+02  0.1831E+03
    -18.630  0.3512E+02  0.1852E+03
    -18.569  0.6115E+02  0.1889E+03
    -18.508  0.8190E+02  0.1939E+03
    -18.446  0.9010E+02  0.1994E+03
    -18.385  0.8184E+02  0.2044E+03
    -18.324  0.6586E+02  0.2085E+03
    -18.263  0.5061E+02  0.2116E+03
    -18.202  0.3732E+02  0.2138E+03
    -18.141  0.2685E+02  0.2155E+03
    -18.080  0.1924E+02  0.2166E+03
    -18.019  0.1333E+02  0.2175E+03
    -17.958  0.6673E+01  0.2179E+03
    -17.897  0.1872E+01  0.2180E+03
    -17.836  0.2676E+00  0.2180E+03
    -17.775  0.1894E-01  0.2180E+03
    -17.714  0.6566E-03  0.2180E+03
    -17.653  0.1108E-04  0.2180E+03
    -17.592  0.9052E-07  0.2180E+03
    -17.531  0.3570E-09  0.2180E+03
    -17.469  0.6780E-12  0.2180E+03
    -17.408  0.0000E+00  0.2180E+03
    -17.347  0.0000E+00  0.2180E+03
    -17.286  0.0000E+00  0.2180E+03
    -17.225  0.0000E+00  0.2180E+03
    -17.164  0.0000E+00  0.2180E+03
    -17.103  0.0000E+00  0.2180E+03
    -17.042  0.0000E+00  0.2180E+03
    -16.981  0.0000E+00  0.2180E+03
    -16.920  0.0000E+00  0.2180E+03
    -16.859  0.0000E+00  0.2180E+03
    -16.798  0.0000E+00  0.2180E+03
    -16.737  0.0000E+00  0.2180E+03
    -16.676  0.0000E+00  0.2180E+03
    -16.615  0.0000E+00  0.2180E+03
    -16.554  0.0000E+00  0.2180E+03
    -16.492  0.0000E+00  0.2180E+03
    -16.431  0.0000E+00  0.2180E+03
    -16.370  0.0000E+00  0.2180E+03
    -16.309  0.0000E+00  0.2180E+03
    -16.248  0.0000E+00  0.2180E+03
    -16.187  0.0000E+00  0.2180E+03
    -16.126  0.0000E+00  0.2180E+03
    -16.065  0.0000E+00  0.2180E+03
    -16.004  0.0000E+00  0.2180E+03
    -15.943  0.0000E+00  0.2180E+03
    -15.882  0.0000E+00  0.2180E+03
    -15.821  0.0000E+00  0.2180E+03
    -15.760  0.0000E+00  0.2180E+03
    -15.699  0.0000E+00  0.2180E+03
    -15.638  0.0000E+00  0.2180E+03
    -15.577  0.0000E+00  0.2180E+03
    -15.516  0.0000E+00  0.2180E+03
    -15.454  0.0000E+00  0.2180E+03
    -15.393  0.0000E+00  0.2180E+03
    -15.332  0.0000E+00  0.2180E+03
    -15.271  0.0000E+00  0.2180E+03
    -15.210  0.0000E+00  0.2180E+03
    -15.149  0.0000E+00  0.2180E+03
    -15.088  0.0000E+00  0.2180E+03
    -15.027  0.0000E+00  0.2180E+03
    -14.966  0.0000E+00  0.2180E+03
    -14.905  0.0000E+00  0.2180E+03
    -14.844  0.0000E+00  0.2180E+03
    -14.783  0.0000E+00  0.2180E+03
    -14.722  0.0000E+00  0.2180E+03
    -14.661  0.0000E+00  0.2180E+03
    -14.600  0.0000E+00  0.2180E+03
    -14.539  0.0000E+00  0.2180E+03
    -14.477  0.0000E+00  0.2180E+03
    -14.416  0.0000E+00  0.2180E+03
    -14.355  0.0000E+00  0.2180E+03
    -14.294  0.0000E+00  0.2180E+03
    -14.233  0.0000E+00  0.2180E+03
    -14.172  0.0000E+00  0.2180E+03
    -14.111  0.0000E+00  0.2180E+03
    -14.050  0.0000E+00  0.2180E+03
    -13.989  0.0000E+00  0.2180E+03
    -13.928  0.0000E+00  0.2180E+03
    -13.867  0.0000E+00  0.2180E+03
    -13.806  0.0000E+00  0.2180E+03
    -13.745  0.0000E+00  0.2180E+03
    -13.684  0.0000E+00  0.2180E+03
    -13.623  0.0000E+00  0.2180E+03
    -13.562  0.0000E+00  0.2180E+03
    -13.501  0.0000E+00  0.2180E+03
    -13.439  0.0000E+00  0.2180E+03
    -13.378  0.0000E+00  0.2180E+03
    -13.317  0.0000E+00  0.2180E+03
    -13.256  0.0000E+00  0.2180E+03
    -13.195  0.0000E+00  0.2180E+03
    -13.134  0.0000E+00  0.2180E+03
    -13.073  0.0000E+00  0.2180E+03
    -13.012  0.0000E+00  0.2180E+03
    -12.951  0.0000E+00  0.2180E+03
    -12.890  0.0000E+00  0.2180E+03
    -12.829  0.0000E+00  0.2180E+03
    -12.768  0.0000E+00  0.2180E+03
    -12.707  0.0000E+00  0.2180E+03
    -12.646  0.0000E+00  0.2180E+03
    -12.585  0.0000E+00  0.2180E+03
    -12.524  0.0000E+00  0.2180E+03
    -12.462  0.0000E+00  0.2180E+03
    -12.401  0.0000E+00  0.2180E+03
    -12.340  0.0000E+00  0.2180E+03
    -12.279  0.0000E+00  0.2180E+03
    -12.218  0.0000E+00  0.2180E+03
    -12.157  0.0000E+00  0.2180E+03
    -12.096  0.0000E+00  0.2180E+03
    -12.035  0.0000E+00  0.2180E+03
    -11.974  0.0000E+00  0.2180E+03
    -11.913  0.0000E+00  0.2180E+03
    -11.852  0.0000E+00  0.2180E+03
    -11.791  0.0000E+00  0.2180E+03
    -11.730  0.0000E+00  0.2180E+03
    -11.669  0.0000E+00  0.2180E+03
    -11.608  0.0000E+00  0.2180E+03
    -11.547  0.0000E+00  0.2180E+03
    -11.485  0.0000E+00  0.2180E+03
    -11.424  0.0000E+00  0.2180E+03
    -11.363  0.0000E+00  0.2180E+03
    -11.302  0.0000E+00  0.2180E+03
    -11.241  0.0000E+00  0.2180E+03
    -11.180  0.0000E+00  0.2180E+03
    -11.119  0.0000E+00  0.2180E+03
    -11.058  0.0000E+00  0.2180E+03
    -10.997  0.0000E+00  0.2180E+03
    -10.936  0.0000E+00  0.2180E+03
    -10.875  0.0000E+00  0.2180E+03
    -10.814  0.0000E+00  0.2180E+03
    -10.753  0.0000E+00  0.2180E+03
    -10.692  0.0000E+00  0.2180E+03
    -10.631  0.0000E+00  0.2180E+03
    -10.570  0.0000E+00  0.2180E+03
    -10.509  0.0000E+00  0.2180E+03
    -10.447  0.0000E+00  0.2180E+03
    -10.386  0.0000E+00  0.2180E+03
    -10.325  0.0000E+00  0.2180E+03
    -10.264  0.0000E+00  0.2180E+03
    -10.203  0.0000E+00  0.2180E+03
    -10.142  0.0000E+00  0.2180E+03
    -10.081  0.0000E+00  0.2180E+03
    -10.020  0.0000E+00  0.2180E+03
     -9.959  0.0000E+00  0.2180E+03
     -9.898  0.0000E+00  0.2180E+03
     -9.837  0.0000E+00  0.2180E+03
     -9.776  0.0000E+00  0.2180E+03
     -9.715  0.0000E+00  0.2180E+03
     -9.654  0.0000E+00  0.2180E+03
     -9.593  0.0000E+00  0.2180E+03
     -9.532  0.0000E+00  0.2180E+03
     -9.470  0.0000E+00  0.2180E+03
     -9.409  0.0000E+00  0.2180E+03
     -9.348  0.0000E+00  0.2180E+03
     -9.287  0.0000E+00  0.2180E+03
     -9.226  0.0000E+00  0.2180E+03
     -9.165  0.0000E+00  0.2180E+03
     -9.104  0.0000E+00  0.2180E+03
     -9.043  0.0000E+00  0.2180E+03
     -8.982  0.0000E+00  0.2180E+03
     -8.921  0.0000E+00  0.2180E+03
     -8.860  0.0000E+00  0.2180E+03
     -8.799  0.0000E+00  0.2180E+03
     -8.738  0.0000E+00  0.2180E+03
     -8.677  0.0000E+00  0.2180E+03
     -8.616  0.0000E+00  0.2180E+03
     -8.555  0.0000E+00  0.2180E+03
     -8.493  0.0000E+00  0.2180E+03
     -8.432  0.0000E+00  0.2180E+03
     -8.371  0.4352E-14  0.2180E+03
     -8.310  0.2663E-11  0.2180E+03
     -8.249  0.7995E-09  0.2180E+03
     -8.188  0.1201E-06  0.2180E+03
     -8.127  0.9161E-05  0.2180E+03
     -8.066  0.3602E-03  0.2180E+03
     -8.005  0.7443E-02  0.2180E+03
     -7.944  0.8262E-01  0.2180E+03
     -7.883  0.5082E+00  0.2180E+03
     -7.822  0.1818E+01  0.2181E+03
     -7.761  0.4083E+01  0.2184E+03
     -7.700  0.6321E+01  0.2188E+03
     -7.639  0.7291E+01  0.2192E+03
     -7.578  0.6748E+01  0.2196E+03
     -7.517  0.6340E+01  0.2200E+03
     -7.455  0.8074E+01  0.2205E+03
     -7.394  0.1004E+02  0.2211E+03
     -7.333  0.8443E+01  0.2216E+03
     -7.272  0.4924E+01  0.2219E+03
     -7.211  0.4529E+01  0.2222E+03
     -7.150  0.8465E+01  0.2227E+03
     -7.089  0.1175E+02  0.2235E+03
     -7.028  0.1164E+02  0.2242E+03
     -6.967  0.1206E+02  0.2249E+03
     -6.906  0.1371E+02  0.2257E+03
     -6.845  0.1514E+02  0.2267E+03
     -6.784  0.1618E+02  0.2277E+03
     -6.723  0.1572E+02  0.2286E+03
     -6.662  0.1560E+02  0.2296E+03
     -6.601  0.1753E+02  0.2306E+03
     -6.540  0.1910E+02  0.2318E+03
     -6.478  0.1896E+02  0.2330E+03
     -6.417  0.2109E+02  0.2343E+03
     -6.356  0.2927E+02  0.2360E+03
     -6.295  0.3921E+02  0.2384E+03
     -6.234  0.4048E+02  0.2409E+03
     -6.173  0.2986E+02  0.2427E+03
     -6.112  0.1507E+02  0.2436E+03
     -6.051  0.4799E+01  0.2439E+03
     -5.990  0.8732E+00  0.2440E+03
     -5.929  0.8442E-01  0.2440E+03
     -5.868  0.4156E-02  0.2440E+03
     -5.807  0.1018E-03  0.2440E+03
     -5.746  0.1223E-05  0.2440E+03
     -5.685  0.7165E-08  0.2440E+03
     -5.624  0.2034E-10  0.2440E+03
     -5.563  0.2803E-13  0.2440E+03
     -5.502  0.0000E+00  0.2440E+03
     -5.440  0.0000E+00  0.2440E+03
     -5.379  0.0000E+00  0.2440E+03
     -5.318  0.0000E+00  0.2440E+03
     -5.257  0.0000E+00  0.2440E+03
     -5.196  0.0000E+00  0.2440E+03
     -5.135  0.0000E+00  0.2440E+03
     -5.074  0.0000E+00  0.2440E+03
     -5.013  0.0000E+00  0.2440E+03
     -4.952  0.0000E+00  0.2440E+03
     -4.891  0.0000E+00  0.2440E+03
     -4.830  0.0000E+00  0.2440E+03
     -4.769  0.4209E-15  0.2440E+03
     -4.708  0.3618E-12  0.2440E+03
     -4.647  0.1432E-09  0.2440E+03
     -4.586  0.2830E-07  0.2440E+03
     -4.525  0.2824E-05  0.2440E+03
     -4.463  0.1444E-03  0.2440E+03
     -4.402  0.3851E-02  0.2440E+03
     -4.341  0.5472E-01  0.2440E+03
     -4.280  0.4263E+00  0.2440E+03
     -4.219  0.1888E+01  0.2441E+03
     -4.158  0.4972E+01  0.2444E+03
     -4.097  0.8146E+01  0.2449E+03
     -4.036  0.8552E+01  0.2455E+03
     -3.975  0.5722E+01  0.2458E+03
     -3.914  0.2348E+01  0.2460E+03
     -3.853  0.5695E+00  0.2460E+03
     -3.792  0.1753E+00  0.2460E+03
     -3.731  0.7075E+00  0.2460E+03
     -3.670  0.2865E+01  0.2462E+03
     -3.609  0.6943E+01  0.2466E+03
     -3.548  0.1014E+02  0.2473E+03
     -3.486  0.9847E+01  0.2479E+03
     -3.425  0.9308E+01  0.2484E+03
     -3.364  0.1149E+02  0.2491E+03
     -3.303  0.1419E+02  0.2500E+03
     -3.242  0.1634E+02  0.2510E+03
     -3.181  0.1854E+02  0.2521E+03
     -3.120  0.2061E+02  0.2534E+03
     -3.059  0.2206E+02  0.2547E+03
     -2.998  0.2195E+02  0.2561E+03
     -2.937  0.2053E+02  0.2573E+03
     -2.876  0.1935E+02  0.2585E+03
     -2.815  0.2007E+02  0.2597E+03
     -2.754  0.2266E+02  0.2611E+03
     -2.693  0.2513E+02  0.2627E+03
     -2.632  0.2600E+02  0.2642E+03
     -2.571  0.2571E+02  0.2658E+03
     -2.510  0.2490E+02  0.2673E+03
     -2.448  0.2330E+02  0.2688E+03
     -2.387  0.2068E+02  0.2700E+03
     -2.326  0.1850E+02  0.2712E+03
     -2.265  0.1868E+02  0.2723E+03
     -2.204  0.2052E+02  0.2735E+03
     -2.143  0.2097E+02  0.2748E+03
     -2.082  0.1885E+02  0.2760E+03
     -2.021  0.1619E+02  0.2770E+03
     -1.960  0.1412E+02  0.2778E+03
     -1.899  0.1228E+02  0.2786E+03
     -1.838  0.1096E+02  0.2792E+03
     -1.777  0.1034E+02  0.2799E+03
     -1.716  0.9780E+01  0.2805E+03
     -1.655  0.8650E+01  0.2810E+03
     -1.594  0.6847E+01  0.2814E+03
     -1.533  0.4770E+01  0.2817E+03
     -1.471  0.2854E+01  0.2819E+03
     -1.410  0.1341E+01  0.2820E+03
     -1.349  0.4403E+00  0.2820E+03
     -1.288  0.9245E-01  0.2820E+03
     -1.227  0.1167E-01  0.2820E+03
     -1.166  0.8424E-03  0.2820E+03
     -1.105  0.3339E-04  0.2820E+03
     -1.044  0.7008E-06  0.2820E+03
     -0.983  0.7559E-08  0.2820E+03
     -0.922  0.4096E-10  0.2820E+03
     -0.861  0.1096E-12  0.2820E+03
     -0.800  0.1347E-15  0.2820E+03
     -0.739  0.0000E+00  0.2820E+03
     -0.678  0.0000E+00  0.2820E+03
     -0.617  0.0000E+00  0.2820E+03
     -0.556  0.0000E+00  0.2820E+03
     -0.494  0.0000E+00  0.2820E+03
     -0.433  0.0000E+00  0.2820E+03
     -0.372  0.0000E+00  0.2820E+03
     -0.311  0.0000E+00  0.2820E+03
     -0.250  0.0000E+00  0.2820E+03
     -0.189  0.0000E+00  0.2820E+03
     -0.128  0.5051E-16  0.2820E+03
     -0.067  0.4460E-13  0.2820E+03
     -0.006  0.1837E-10  0.2820E+03
      0.055  0.3674E-08  0.2820E+03
      0.116  0.3594E-06  0.2820E+03
      0.177  0.1740E-04  0.2820E+03
      0.238  0.4264E-03  0.2820E+03
      0.299  0.5516E-02  0.2820E+03
      0.360  0.4073E-01  0.2820E+03
      0.421  0.1922E+00  0.2820E+03
      0.482  0.6343E+00  0.2821E+03
      0.544  0.1486E+01  0.2821E+03
      0.605  0.2507E+01  0.2823E+03
      0.666  0.3441E+01  0.2825E+03
      0.727  0.4626E+01  0.2828E+03
      0.788  0.6279E+01  0.2832E+03
      0.849  0.7879E+01  0.2837E+03
      0.910  0.9185E+01  0.2842E+03
      0.971  0.1043E+02  0.2849E+03
      1.032  0.1115E+02  0.2855E+03
      1.093  0.1110E+02  0.2862E+03
      1.154  0.1100E+02  0.2869E+03
      1.215  0.1092E+02  0.2875E+03
      1.276  0.1060E+02  0.2882E+03
      1.337  0.1111E+02  0.2889E+03
      1.398  0.1327E+02  0.2897E+03
      1.459  0.1634E+02  0.2907E+03
      1.521  0.1908E+02  0.2918E+03
      1.582  0.2095E+02  0.2931E+03
      1.643  0.2177E+02  0.2945E+03
      1.704  0.2194E+02  0.2958E+03
      1.765  0.2233E+02  0.2972E+03
      1.826  0.2274E+02  0.2985E+03
      1.887  0.2304E+02  0.3000E+03
      1.948  0.2347E+02  0.3014E+03
      2.009  0.2370E+02  0.3028E+03
      2.070  0.2389E+02  0.3043E+03
      2.131  0.2452E+02  0.3058E+03
      2.192  0.2556E+02  0.3074E+03
      2.253  0.2657E+02  0.3090E+03
      2.314  0.2710E+02  0.3106E+03
      2.375  0.2725E+02  0.3123E+03