HEBCN                                   
           1
     9.031522    0.000893    0.011738
     0.006676    9.071328   -0.001699
     0.044173   -0.017430    9.013959
   Zr   W    Hf   N    C    Ta   Nb
   7   6   7  13  19   6   6
Direct configuration=     1
   0.99375065  0.99869904  0.99791431
   0.24969581  0.99996327  0.25294603
   0.25148989  0.50043348  0.25018032
   0.49996752  0.50010548  0.00012756
   0.49904481  0.24789586  0.74548406
   0.99817213  0.49990233  0.49676097
   0.49995759  0.75226734  0.74872767
   0.98741531  0.23018904  0.27007538
   0.76984676  0.73638645  0.99769782
   0.01650939  0.27533025  0.75125827
   0.76598240  0.26265670  0.48298220
   0.99526148  0.72486118  0.75350038
   0.26183560  0.49214178  0.74788742
   0.24547348  0.25038577  0.99553414
   0.50463143  0.25405391  0.25159795
   0.74815355  0.99588339  0.25340833
   0.75570540  0.25868474  0.99364820
   0.24218774  0.74968638  0.99798260
   0.24658805  0.25113234  0.50427463
   0.24481074  0.75009088  0.50390001
   0.24493836  0.24850025  0.25163897
   0.25684637  0.99979690  0.99499961
   0.00034968  0.25331962  0.01150705
   0.75073311  0.24833109  0.24486127
   0.74554802  0.99972781  0.00094658
   0.50260459  0.99991274  0.24932571
   0.99530668  0.48949502  0.24275196
   0.50074222  0.76084457  0.00546374
   0.99914975  0.00712107  0.74819380
   0.76107646  0.24086718  0.74401110
   0.74274363  0.00570468  0.50332197
   0.50558334  0.24143298  0.49439544
   0.50057418  0.00023285  0.74795374
   0.99585507  0.99944918  0.25307706
   0.50355983  0.24369838  0.00129961
   0.25112088  0.75098178  0.24944264
   0.24397795  0.49985978  0.99490207
   0.99979253  0.74618820  0.00025238
   0.74671170  0.74832588  0.24497443
   0.75576651  0.50319579  0.99897523
   0.50217824  0.50198106  0.25261955
   0.25013524  0.24906464  0.74970947
   0.24939151  0.00033368  0.50314992
   0.99523596  0.24852367  0.51367175
   0.24117208  0.75220536  0.75132560
   0.25317401  0.49982989  0.50501368
   0.99610236  0.75511642  0.50713587
   0.00278824  0.50044996  0.75219539
   0.75299353  0.75251300  0.75238636
   0.74695815  0.49525495  0.49892326
   0.49978000  0.75100540  0.49684204
   0.49856294  0.49992556  0.74529582
   0.50848914  0.00785773  0.99314520
   0.99924969  0.50320791  0.00063114
   0.49988212  0.74515927  0.25359950
   0.24152283  0.00412548  0.74397306
   0.49013034  0.98798714  0.50276242
   0.75376975  0.98907307  0.75197235
   0.99760228  0.76553028  0.25367829
   0.74309014  0.50604712  0.25063830
   0.00450615  0.00216200  0.49883092
   0.50032646  0.51284693  0.49758957
   0.74033993  0.51228718  0.74791081
   0.75315870  0.73977668  0.49881727
