  64  64   0   0
  0.1129557E+02  0.8932500E-09  0.9055600E-09  0.8937200E-09  0.5000000E-15
  1.000000000000000E-004
  CAR 
 HECN                                    
     13.09026680    -33.51852556  301      8.23442524      1.00000000
    -33.519  0.0000E+00  0.0000E+00
    -33.363  0.0000E+00  0.0000E+00
    -33.208  0.0000E+00  0.0000E+00
    -33.052  0.0000E+00  0.0000E+00
    -32.897  0.0000E+00  0.0000E+00
    -32.742  0.0000E+00  0.0000E+00
    -32.586  0.0000E+00  0.0000E+00
    -32.431  0.0000E+00  0.0000E+00
    -32.276  0.0000E+00  0.0000E+00
    -32.120  0.0000E+00  0.0000E+00
    -31.965  0.8575E-16  0.1332E-16
    -31.810  0.4566E-09  0.7094E-10
    -31.654  0.2267E-04  0.3522E-05
    -31.499  0.1348E-01  0.2097E-02
    -31.343  0.1893E+00  0.3150E-01
    -31.188  0.4763E+00  0.1055E+00
    -31.033  0.7933E+00  0.2287E+00
    -30.877  0.5577E+00  0.3154E+00
    -30.722  0.2607E+00  0.3559E+00
    -30.567  0.2634E-01  0.3600E+00
    -30.411  0.9601E-04  0.3600E+00
    -30.256  0.4631E-08  0.3600E+00
    -30.101  0.2144E-14  0.3600E+00
    -29.945  0.0000E+00  0.3600E+00
    -29.790  0.0000E+00  0.3600E+00
    -29.634  0.0000E+00  0.3600E+00
    -29.479  0.0000E+00  0.3600E+00
    -29.324  0.0000E+00  0.3600E+00
    -29.168  0.0000E+00  0.3600E+00
    -29.013  0.0000E+00  0.3600E+00
    -28.858  0.0000E+00  0.3600E+00
    -28.702  0.0000E+00  0.3600E+00
    -28.547  0.1294E-10  0.3600E+00
    -28.392  0.2042E-05  0.3600E+00
    -28.236  0.3475E-02  0.3605E+00
    -28.081  0.1287E+00  0.3805E+00
    -27.925  0.4636E+00  0.4526E+00
    -27.770  0.8477E+00  0.5843E+00
    -27.615  0.7805E+00  0.7055E+00
    -27.459  0.2683E+00  0.7472E+00
    -27.304  0.5059E+00  0.8258E+00
    -27.149  0.6945E+00  0.9337E+00
    -26.993  0.4572E+00  0.1005E+01
    -26.838  0.4172E+00  0.1070E+01
    -26.683  0.6681E-01  0.1080E+01
    -26.527  0.4818E-03  0.1080E+01
    -26.372  0.5756E-07  0.1080E+01
    -26.216  0.7115E-13  0.1080E+01
    -26.061  0.0000E+00  0.1080E+01
    -25.906  0.0000E+00  0.1080E+01
    -25.750  0.0000E+00  0.1080E+01
    -25.595  0.0000E+00  0.1080E+01
    -25.440  0.0000E+00  0.1080E+01
    -25.284  0.0000E+00  0.1080E+01
    -25.129  0.0000E+00  0.1080E+01
    -24.974  0.0000E+00  0.1080E+01
    -24.818  0.0000E+00  0.1080E+01
    -24.663  0.1325E-12  0.1080E+01
    -24.507  0.8648E-07  0.1080E+01
    -24.352  0.5478E-03  0.1080E+01
    -24.197  0.5107E-01  0.1088E+01
    -24.041  0.2520E+00  0.1127E+01
    -23.886  0.4679E+00  0.1200E+01
    -23.731  0.8835E+00  0.1337E+01
    -23.575  0.9034E+00  0.1477E+01
    -23.420  0.1441E+00  0.1500E+01
    -23.265  0.8030E-03  0.1500E+01
    -23.109  0.6635E-07  0.1500E+01
    -22.954  0.5772E-13  0.1500E+01
    -22.799  0.0000E+00  0.1500E+01
    -22.643  0.0000E+00  0.1500E+01
    -22.488  0.0000E+00  0.1500E+01
    -22.332  0.0000E+00  0.1500E+01
    -22.177  0.0000E+00  0.1500E+01
    -22.022  0.0000E+00  0.1500E+01
    -21.866  0.0000E+00  0.1500E+01
    -21.711  0.0000E+00  0.1500E+01
    -21.556  0.0000E+00  0.1500E+01
    -21.400  0.0000E+00  0.1500E+01
    -21.245  0.0000E+00  0.1500E+01
    -21.090  0.0000E+00  0.1500E+01
    -20.934  0.0000E+00  0.1500E+01
    -20.779  0.0000E+00  0.1500E+01
    -20.623  0.0000E+00  0.1500E+01
    -20.468  0.0000E+00  0.1500E+01
    -20.313  0.0000E+00  0.1500E+01
    -20.157  0.0000E+00  0.1500E+01
    -20.002  0.0000E+00  0.1500E+01
    -19.847  0.0000E+00  0.1500E+01
    -19.691  0.0000E+00  0.1500E+01
    -19.536  0.0000E+00  0.1500E+01
    -19.381  0.0000E+00  0.1500E+01
    -19.225  0.0000E+00  0.1500E+01
    -19.070  0.0000E+00  0.1500E+01
    -18.914  0.0000E+00  0.1500E+01
    -18.759  0.0000E+00  0.1500E+01
    -18.604  0.0000E+00  0.1500E+01
    -18.448  0.0000E+00  0.1500E+01
    -18.293  0.0000E+00  0.1500E+01
    -18.138  0.0000E+00  0.1500E+01
    -17.982  0.0000E+00  0.1500E+01
    -17.827  0.0000E+00  0.1500E+01
    -17.672  0.0000E+00  0.1500E+01
    -17.516  0.0000E+00  0.1500E+01
    -17.361  0.0000E+00  0.1500E+01
    -17.205  0.0000E+00  0.1500E+01
    -17.050  0.0000E+00  0.1500E+01
    -16.895  0.0000E+00  0.1500E+01
    -16.739  0.0000E+00  0.1500E+01
    -16.584  0.0000E+00  0.1500E+01
    -16.429  0.0000E+00  0.1500E+01
    -16.273  0.0000E+00  0.1500E+01
    -16.118  0.0000E+00  0.1500E+01
    -15.963  0.0000E+00  0.1500E+01
    -15.807  0.0000E+00  0.1500E+01
    -15.652  0.0000E+00  0.1500E+01
    -15.496  0.0000E+00  0.1500E+01
    -15.341  0.0000E+00  0.1500E+01
    -15.186  0.0000E+00  0.1500E+01
    -15.030  0.0000E+00  0.1500E+01
    -14.875  0.0000E+00  0.1500E+01
    -14.720  0.0000E+00  0.1500E+01
    -14.564  0.0000E+00  0.1500E+01
    -14.409  0.0000E+00  0.1500E+01
    -14.254  0.0000E+00  0.1500E+01
    -14.098  0.0000E+00  0.1500E+01
    -13.943  0.0000E+00  0.1500E+01
    -13.787  0.0000E+00  0.1500E+01
    -13.632  0.0000E+00  0.1500E+01
    -13.477  0.0000E+00  0.1500E+01
    -13.321  0.0000E+00  0.1500E+01
    -13.166  0.0000E+00  0.1500E+01
    -13.011  0.0000E+00  0.1500E+01
    -12.855  0.0000E+00  0.1500E+01
    -12.700  0.0000E+00  0.1500E+01
    -12.545  0.0000E+00  0.1500E+01
    -12.389  0.0000E+00  0.1500E+01
    -12.234  0.0000E+00  0.1500E+01
    -12.078  0.0000E+00  0.1500E+01
    -11.923  0.0000E+00  0.1500E+01
    -11.768  0.0000E+00  0.1500E+01
    -11.612  0.0000E+00  0.1500E+01
    -11.457  0.0000E+00  0.1500E+01
    -11.302  0.0000E+00  0.1500E+01
    -11.146  0.0000E+00  0.1500E+01
    -10.991  0.0000E+00  0.1500E+01
    -10.836  0.0000E+00  0.1500E+01
    -10.680  0.0000E+00  0.1500E+01
    -10.525  0.0000E+00  0.1500E+01
    -10.369  0.0000E+00  0.1500E+01
    -10.214  0.0000E+00  0.1500E+01
    -10.059  0.0000E+00  0.1500E+01
     -9.903  0.0000E+00  0.1500E+01
     -9.748  0.0000E+00  0.1500E+01
     -9.593  0.0000E+00  0.1500E+01
     -9.437  0.0000E+00  0.1500E+01
     -9.282  0.0000E+00  0.1500E+01
     -9.127  0.0000E+00  0.1500E+01
     -8.971  0.1844E-14  0.1500E+01
     -8.816  0.1814E-08  0.1500E+01
     -8.661  0.1924E-04  0.1500E+01
     -8.505  0.3406E-02  0.1501E+01
     -8.350  0.3555E-01  0.1506E+01
     -8.194  0.6851E-01  0.1517E+01
     -8.039  0.3025E-01  0.1521E+01
     -7.884  0.1032E+00  0.1537E+01
     -7.728  0.1806E+00  0.1565E+01
     -7.573  0.1174E+00  0.1584E+01
     -7.418  0.1036E+00  0.1600E+01
     -7.262  0.1773E+00  0.1627E+01
     -7.107  0.1829E+00  0.1656E+01
     -6.952  0.2696E+00  0.1698E+01
     -6.796  0.2192E+00  0.1732E+01
     -6.641  0.6497E-01  0.1742E+01
     -6.485  0.9267E-01  0.1756E+01
     -6.330  0.2412E-01  0.1760E+01
     -6.175  0.1419E-03  0.1760E+01
     -6.019  0.1028E-07  0.1760E+01
     -5.864  0.7345E-14  0.1760E+01
     -5.709  0.0000E+00  0.1760E+01
     -5.553  0.0000E+00  0.1760E+01
     -5.398  0.1059E-17  0.1760E+01
     -5.243  0.9332E-11  0.1760E+01
     -5.087  0.6928E-06  0.1760E+01
     -4.932  0.6088E-03  0.1760E+01
     -4.776  0.1715E-01  0.1763E+01
     -4.621  0.6489E-01  0.1773E+01
     -4.466  0.4911E-01  0.1780E+01
     -4.310  0.6621E-01  0.1791E+01
     -4.155  0.7236E-01  0.1802E+01
     -4.000  0.1017E+00  0.1818E+01
     -3.844  0.1555E+00  0.1842E+01
     -3.689  0.2401E+00  0.1879E+01
     -3.534  0.2801E+00  0.1923E+01
     -3.378  0.3436E+00  0.1976E+01
     -3.223  0.3053E+00  0.2024E+01
     -3.067  0.1884E+00  0.2053E+01
     -2.912  0.1420E+00  0.2075E+01
     -2.757  0.1229E+00  0.2094E+01
     -2.601  0.1121E+00  0.2111E+01
     -2.446  0.1197E+00  0.2130E+01
     -2.291  0.5320E-01  0.2138E+01
     -2.135  0.9701E-02  0.2140E+01
     -1.980  0.1193E-02  0.2140E+01
     -1.825  0.8780E-05  0.2140E+01
     -1.669  0.8030E-09  0.2140E+01
     -1.514  0.6924E-15  0.2140E+01
     -1.358  0.0000E+00  0.2140E+01
     -1.203  0.0000E+00  0.2140E+01
     -1.048  0.0000E+00  0.2140E+01
     -0.892  0.0000E+00  0.2140E+01
     -0.737  0.2011E-16  0.2140E+01
     -0.582  0.6871E-10  0.2140E+01
     -0.426  0.2314E-05  0.2140E+01
     -0.271  0.9682E-03  0.2140E+01
     -0.116  0.9938E-02  0.2142E+01
      0.040  0.2492E-01  0.2146E+01
      0.195  0.7614E-01  0.2157E+01
      0.351  0.1112E+00  0.2175E+01
      0.506  0.9844E-01  0.2190E+01
      0.661  0.1439E+00  0.2212E+01
      0.817  0.1433E+00  0.2235E+01
      0.972  0.1808E+00  0.2263E+01
      1.127  0.2354E+00  0.2299E+01
      1.283  0.2529E+00  0.2339E+01
      1.438  0.2866E+00  0.2383E+01
      1.593  0.2531E+00  0.2422E+01
      1.749  0.2708E+00  0.2464E+01
      1.904  0.3215E+00  0.2514E+01
      2.060  0.3317E+00  0.2566E+01
      2.215  0.3363E+00  0.2618E+01
      2.370  0.3419E+00  0.2671E+01
      2.526  0.4436E+00  0.2740E+01
      2.681  0.4922E+00  0.2817E+01
      2.836  0.5408E+00  0.2901E+01
      2.992  0.6339E+00  0.2999E+01
      3.147  0.6737E+00  0.3104E+01
      3.302  0.7041E+00  0.3213E+01
      3.458  0.6948E+00  0.3321E+01
      3.613  0.6857E+00  0.3428E+01
      3.769  0.6181E+00  0.3524E+01
      3.924  0.5836E+00  0.3614E+01
      4.079  0.4839E+00  0.3690E+01
      4.235  0.4157E+00  0.3754E+01
      4.390  0.3520E+00  0.3809E+01
      4.545  0.2834E+00  0.3853E+01
      4.701  0.2452E+00  0.3891E+01
      4.856  0.2604E+00  0.3931E+01
      5.011  0.2320E+00  0.3968E+01
      5.167  0.1781E+00  0.3995E+01
      5.322  0.1816E+00  0.4023E+01
      5.477  0.1289E+00  0.4043E+01
      5.633  0.7600E-01  0.4055E+01
      5.788  0.1037E+00  0.4071E+01
      5.944  0.1338E+00  0.4092E+01
      6.099  0.1532E+00  0.4116E+01
      6.254  0.1780E+00  0.4144E+01
      6.410  0.1621E+00  0.4169E+01
      6.565  0.1914E+00  0.4199E+01
      6.720  0.2197E+00  0.4233E+01
      6.876  0.2104E+00  0.4265E+01
      7.031  0.1873E+00  0.4294E+01
      7.186  0.1652E+00  0.4320E+01
      7.342  0.2160E+00  0.4354E+01
      7.497  0.2788E+00  0.4397E+01
      7.653  0.2652E+00  0.4438E+01
      7.808  0.2242E+00  0.4473E+01
      7.963  0.1989E+00  0.4504E+01
      8.119  0.2180E+00  0.4538E+01
      8.274  0.1920E+00  0.4568E+01
      8.429  0.2207E+00  0.4602E+01
      8.585  0.2582E+00  0.4642E+01
      8.740  0.2975E+00  0.4688E+01
      8.895  0.3291E+00  0.4739E+01
      9.051  0.3479E+00  0.4793E+01
      9.206  0.3742E+00  0.4852E+01
      9.362  0.3882E+00  0.4912E+01
      9.517  0.4051E+00  0.4975E+01
      9.672  0.4270E+00  0.5041E+01
      9.828  0.4480E+00  0.5111E+01
      9.983  0.4927E+00  0.5187E+01
     10.138  0.4726E+00  0.5261E+01
     10.294  0.5032E+00  0.5339E+01
     10.449  0.5276E+00  0.5421E+01
     10.604  0.5060E+00  0.5499E+01
     10.760  0.3968E+00  0.5561E+01
     10.915  0.1980E+00  0.5592E+01
     11.071  0.4996E-01  0.5600E+01
     11.226  0.2172E-02  0.5600E+01
     11.381  0.3087E-05  0.5600E+01
     11.537  0.5617E-10  0.5600E+01
     11.692  0.9528E-17  0.5600E+01
     11.847  0.0000E+00  0.5600E+01
     12.003  0.0000E+00  0.5600E+01
     12.158  0.0000E+00  0.5600E+01
     12.313  0.0000E+00  0.5600E+01
     12.469  0.0000E+00  0.5600E+01
     12.624  0.0000E+00  0.5600E+01
     12.780  0.0000E+00  0.5600E+01
     12.935  0.0000E+00  0.5600E+01
     13.090  0.0000E+00  0.5600E+01
