  64  64   0   0
  0.1097843E+02  0.8875716E-09  0.8827255E-09  0.8968523E-09  0.5000000E-15
  1.000000000000000E-004
  CAR 
 HECN                                    
     12.88596435    -38.41551495  301      7.64124813      1.00000000
    -38.416  0.0000E+00  0.0000E+00
    -38.245  0.0000E+00  0.0000E+00
    -38.074  0.0000E+00  0.0000E+00
    -37.903  0.0000E+00  0.0000E+00
    -37.731  0.0000E+00  0.0000E+00
    -37.560  0.0000E+00  0.0000E+00
    -37.389  0.0000E+00  0.0000E+00
    -37.218  0.0000E+00  0.0000E+00
    -37.047  0.0000E+00  0.0000E+00
    -36.876  0.0000E+00  0.0000E+00
    -36.705  0.0000E+00  0.0000E+00
    -36.534  0.1085E-10  0.1855E-11
    -36.363  0.4828E-05  0.8256E-06
    -36.192  0.1019E-01  0.1743E-02
    -36.021  0.3189E+00  0.5627E-01
    -35.850  0.1034E+01  0.2331E+00
    -35.679  0.7048E+00  0.3537E+00
    -35.508  0.3699E-01  0.3600E+00
    -35.337  0.3572E-04  0.3600E+00
    -35.166  0.2113E-09  0.3600E+00
    -34.995  0.0000E+00  0.3600E+00
    -34.824  0.0000E+00  0.3600E+00
    -34.653  0.0000E+00  0.3600E+00
    -34.482  0.0000E+00  0.3600E+00
    -34.311  0.0000E+00  0.3600E+00
    -34.140  0.0000E+00  0.3600E+00
    -33.969  0.0000E+00  0.3600E+00
    -33.798  0.0000E+00  0.3600E+00
    -33.627  0.0000E+00  0.3600E+00
    -33.456  0.0000E+00  0.3600E+00
    -33.285  0.0000E+00  0.3600E+00
    -33.114  0.0000E+00  0.3600E+00
    -32.943  0.0000E+00  0.3600E+00
    -32.772  0.0000E+00  0.3600E+00
    -32.601  0.0000E+00  0.3600E+00
    -32.430  0.0000E+00  0.3600E+00
    -32.259  0.1392E-14  0.3600E+00
    -32.088  0.1133E-07  0.3600E+00
    -31.917  0.3463E-03  0.3601E+00
    -31.746  0.6928E-01  0.3719E+00
    -31.575  0.4857E+00  0.4550E+00
    -31.404  0.8585E+00  0.6018E+00
    -31.233  0.5476E+00  0.6954E+00
    -31.062  0.1413E+00  0.7196E+00
    -30.891  0.2462E-02  0.7200E+00
    -30.720  0.2742E-06  0.7200E+00
    -30.549  0.1136E-12  0.7200E+00
    -30.378  0.0000E+00  0.7200E+00
    -30.207  0.0000E+00  0.7200E+00
    -30.036  0.0000E+00  0.7200E+00
    -29.865  0.0000E+00  0.7200E+00
    -29.694  0.0000E+00  0.7200E+00
    -29.523  0.0000E+00  0.7200E+00
    -29.352  0.0000E+00  0.7200E+00
    -29.181  0.0000E+00  0.7200E+00
    -29.010  0.0000E+00  0.7200E+00
    -28.839  0.0000E+00  0.7200E+00
    -28.668  0.0000E+00  0.7200E+00
    -28.497  0.0000E+00  0.7200E+00
    -28.326  0.0000E+00  0.7200E+00
    -28.155  0.0000E+00  0.7200E+00
    -27.984  0.0000E+00  0.7200E+00
    -27.813  0.0000E+00  0.7200E+00
    -27.642  0.0000E+00  0.7200E+00
    -27.471  0.0000E+00  0.7200E+00
    -27.300  0.0000E+00  0.7200E+00
    -27.129  0.0000E+00  0.7200E+00
    -26.958  0.9901E-10  0.7200E+00
    -26.787  0.1851E-04  0.7200E+00
    -26.616  0.1606E-01  0.7227E+00
    -26.445  0.2271E+00  0.7616E+00
    -26.274  0.4987E+00  0.8469E+00
    -26.103  0.4850E+00  0.9298E+00
    -25.932  0.9767E+00  0.1097E+01
    -25.761  0.2499E+00  0.1140E+01
    -25.590  0.2583E-02  0.1140E+01
    -25.419  0.3168E-06  0.1140E+01
    -25.248  0.1777E-12  0.1140E+01
    -25.077  0.0000E+00  0.1140E+01
    -24.906  0.0000E+00  0.1140E+01
    -24.735  0.0000E+00  0.1140E+01
    -24.564  0.0000E+00  0.1140E+01
    -24.393  0.0000E+00  0.1140E+01
    -24.222  0.0000E+00  0.1140E+01
    -24.051  0.0000E+00  0.1140E+01
    -23.880  0.1951E-12  0.1140E+01
    -23.709  0.3227E-06  0.1140E+01
    -23.538  0.2016E-02  0.1140E+01
    -23.367  0.1018E+00  0.1158E+01
    -23.196  0.3588E+00  0.1219E+01
    -23.025  0.2581E+00  0.1263E+01
    -22.854  0.3302E+00  0.1320E+01
    -22.683  0.3223E+00  0.1375E+01
    -22.512  0.3233E+00  0.1430E+01
    -22.341  0.1836E+00  0.1462E+01
    -22.170  0.2153E+00  0.1498E+01
    -21.999  0.9691E-02  0.1500E+01
    -21.828  0.3868E-05  0.1500E+01
    -21.657  0.6896E-11  0.1500E+01
    -21.486  0.0000E+00  0.1500E+01
    -21.315  0.0000E+00  0.1500E+01
    -21.144  0.0000E+00  0.1500E+01
    -20.973  0.0000E+00  0.1500E+01
    -20.802  0.0000E+00  0.1500E+01
    -20.631  0.0000E+00  0.1500E+01
    -20.460  0.0000E+00  0.1500E+01
    -20.289  0.0000E+00  0.1500E+01
    -20.118  0.0000E+00  0.1500E+01
    -19.947  0.0000E+00  0.1500E+01
    -19.776  0.0000E+00  0.1500E+01
    -19.605  0.0000E+00  0.1500E+01
    -19.434  0.0000E+00  0.1500E+01
    -19.263  0.0000E+00  0.1500E+01
    -19.092  0.0000E+00  0.1500E+01
    -18.921  0.0000E+00  0.1500E+01
    -18.750  0.0000E+00  0.1500E+01
    -18.579  0.0000E+00  0.1500E+01
    -18.408  0.0000E+00  0.1500E+01
    -18.237  0.0000E+00  0.1500E+01
    -18.066  0.0000E+00  0.1500E+01
    -17.895  0.0000E+00  0.1500E+01
    -17.724  0.0000E+00  0.1500E+01
    -17.553  0.0000E+00  0.1500E+01
    -17.382  0.0000E+00  0.1500E+01
    -17.211  0.0000E+00  0.1500E+01
    -17.040  0.0000E+00  0.1500E+01
    -16.869  0.0000E+00  0.1500E+01
    -16.698  0.0000E+00  0.1500E+01
    -16.527  0.0000E+00  0.1500E+01
    -16.356  0.0000E+00  0.1500E+01
    -16.185  0.0000E+00  0.1500E+01
    -16.014  0.0000E+00  0.1500E+01
    -15.843  0.0000E+00  0.1500E+01
    -15.672  0.0000E+00  0.1500E+01
    -15.501  0.0000E+00  0.1500E+01
    -15.330  0.0000E+00  0.1500E+01
    -15.159  0.0000E+00  0.1500E+01
    -14.988  0.0000E+00  0.1500E+01
    -14.817  0.0000E+00  0.1500E+01
    -14.646  0.0000E+00  0.1500E+01
    -14.475  0.0000E+00  0.1500E+01
    -14.304  0.0000E+00  0.1500E+01
    -14.133  0.0000E+00  0.1500E+01
    -13.962  0.0000E+00  0.1500E+01
    -13.791  0.0000E+00  0.1500E+01
    -13.620  0.0000E+00  0.1500E+01
    -13.449  0.0000E+00  0.1500E+01
    -13.278  0.0000E+00  0.1500E+01
    -13.107  0.0000E+00  0.1500E+01
    -12.936  0.0000E+00  0.1500E+01
    -12.765  0.0000E+00  0.1500E+01
    -12.594  0.0000E+00  0.1500E+01
    -12.423  0.0000E+00  0.1500E+01
    -12.252  0.0000E+00  0.1500E+01
    -12.081  0.0000E+00  0.1500E+01
    -11.910  0.0000E+00  0.1500E+01
    -11.739  0.0000E+00  0.1500E+01
    -11.568  0.0000E+00  0.1500E+01
    -11.397  0.0000E+00  0.1500E+01
    -11.226  0.0000E+00  0.1500E+01
    -11.055  0.0000E+00  0.1500E+01
    -10.884  0.0000E+00  0.1500E+01
    -10.713  0.0000E+00  0.1500E+01
    -10.542  0.0000E+00  0.1500E+01
    -10.371  0.0000E+00  0.1500E+01
    -10.200  0.0000E+00  0.1500E+01
    -10.029  0.0000E+00  0.1500E+01
     -9.858  0.0000E+00  0.1500E+01
     -9.687  0.0000E+00  0.1500E+01
     -9.516  0.0000E+00  0.1500E+01
     -9.345  0.0000E+00  0.1500E+01
     -9.174  0.0000E+00  0.1500E+01
     -9.003  0.0000E+00  0.1500E+01
     -8.832  0.3256E-13  0.1500E+01
     -8.661  0.3576E-07  0.1500E+01
     -8.490  0.2057E-03  0.1500E+01
     -8.319  0.1971E-01  0.1503E+01
     -8.148  0.8220E-01  0.1517E+01
     -7.977  0.3764E-01  0.1524E+01
     -7.806  0.9472E-01  0.1540E+01
     -7.635  0.1393E+00  0.1564E+01
     -7.464  0.1933E+00  0.1597E+01
     -7.293  0.2023E+00  0.1632E+01
     -7.122  0.1398E+00  0.1655E+01
     -6.951  0.2544E+00  0.1699E+01
     -6.780  0.2281E+00  0.1738E+01
     -6.609  0.9676E-01  0.1755E+01
     -6.438  0.3183E-01  0.1760E+01
     -6.267  0.1480E-03  0.1760E+01
     -6.096  0.3181E-08  0.1760E+01
     -5.925  0.2390E-15  0.1760E+01
     -5.754  0.2656E-13  0.1760E+01
     -5.583  0.3609E-07  0.1760E+01
     -5.412  0.1996E-03  0.1760E+01
     -5.241  0.1295E-01  0.1762E+01
     -5.070  0.6030E-01  0.1773E+01
     -4.899  0.4122E-01  0.1780E+01
     -4.728  0.1397E-01  0.1782E+01
     -4.557  0.7960E-01  0.1796E+01
     -4.386  0.7114E-01  0.1808E+01
     -4.215  0.8788E-01  0.1823E+01
     -4.044  0.1416E+00  0.1847E+01
     -3.873  0.1753E+00  0.1877E+01
     -3.702  0.2006E+00  0.1911E+01
     -3.531  0.2020E+00  0.1946E+01
     -3.360  0.2035E+00  0.1981E+01
     -3.188  0.1840E+00  0.2012E+01
     -3.017  0.2062E+00  0.2047E+01
     -2.846  0.2119E+00  0.2084E+01
     -2.675  0.1123E+00  0.2103E+01
     -2.504  0.1124E+00  0.2122E+01
     -2.333  0.7087E-01  0.2134E+01
     -2.162  0.3123E-01  0.2139E+01
     -1.991  0.2996E-02  0.2140E+01
     -1.820  0.9825E-05  0.2140E+01
     -1.649  0.2491E-09  0.2140E+01
     -1.478  0.2405E-16  0.2140E+01
     -1.307  0.0000E+00  0.2140E+01
     -1.136  0.0000E+00  0.2140E+01
     -0.965  0.0000E+00  0.2140E+01
     -0.794  0.0000E+00  0.2140E+01
     -0.623  0.5413E-14  0.2140E+01
     -0.452  0.9834E-08  0.2140E+01
     -0.281  0.6559E-04  0.2140E+01
     -0.110  0.2757E-02  0.2140E+01
      0.061  0.1143E-01  0.2142E+01
      0.232  0.3267E-01  0.2148E+01
      0.403  0.1004E+00  0.2165E+01
      0.574  0.9394E-01  0.2181E+01
      0.745  0.1245E+00  0.2203E+01
      0.916  0.1488E+00  0.2228E+01
      1.087  0.1759E+00  0.2258E+01
      1.258  0.2360E+00  0.2298E+01
      1.429  0.3139E+00  0.2352E+01
      1.600  0.2827E+00  0.2400E+01
      1.771  0.2714E+00  0.2447E+01
      1.942  0.3054E+00  0.2499E+01
      2.113  0.3659E+00  0.2562E+01
      2.284  0.3445E+00  0.2621E+01
      2.455  0.3543E+00  0.2681E+01
      2.626  0.4216E+00  0.2753E+01
      2.797  0.5360E+00  0.2845E+01
      2.968  0.6364E+00  0.2954E+01
      3.139  0.6203E+00  0.3060E+01
      3.310  0.5884E+00  0.3160E+01
      3.481  0.5618E+00  0.3256E+01
      3.652  0.5372E+00  0.3348E+01
      3.823  0.5087E+00  0.3435E+01
      3.994  0.4890E+00  0.3519E+01
      4.165  0.5100E+00  0.3606E+01
      4.336  0.4979E+00  0.3691E+01
      4.507  0.4285E+00  0.3765E+01
      4.678  0.3484E+00  0.3824E+01
      4.849  0.2691E+00  0.3870E+01
      5.020  0.2891E+00  0.3920E+01
      5.191  0.2831E+00  0.3968E+01
      5.362  0.1958E+00  0.4002E+01
      5.533  0.1612E+00  0.4029E+01
      5.704  0.1179E+00  0.4049E+01
      5.875  0.7551E-01  0.4062E+01
      6.046  0.1352E+00  0.4085E+01
      6.217  0.1617E+00  0.4113E+01
      6.388  0.1531E+00  0.4139E+01
      6.559  0.1498E+00  0.4165E+01
      6.730  0.2143E+00  0.4201E+01
      6.901  0.2359E+00  0.4242E+01
      7.072  0.2191E+00  0.4279E+01
      7.243  0.2018E+00  0.4314E+01
      7.414  0.2652E+00  0.4359E+01
      7.585  0.3164E+00  0.4413E+01
      7.756  0.2870E+00  0.4462E+01
      7.927  0.2612E+00  0.4507E+01
      8.098  0.3044E+00  0.4559E+01
      8.269  0.3443E+00  0.4618E+01
      8.440  0.4116E+00  0.4688E+01
      8.611  0.4670E+00  0.4768E+01
      8.782  0.4750E+00  0.4849E+01
      8.953  0.4400E+00  0.4925E+01
      9.124  0.4618E+00  0.5004E+01
      9.295  0.4620E+00  0.5083E+01
      9.466  0.4811E+00  0.5165E+01
      9.637  0.4635E+00  0.5244E+01
      9.808  0.4149E+00  0.5315E+01
      9.979  0.4280E+00  0.5388E+01
     10.150  0.4750E+00  0.5469E+01
     10.321  0.4173E+00  0.5541E+01
     10.492  0.2918E+00  0.5591E+01
     10.663  0.5346E-01  0.5600E+01
     10.834  0.1103E-02  0.5600E+01
     11.005  0.4224E-06  0.5600E+01
     11.176  0.8681E-12  0.5600E+01
     11.347  0.0000E+00  0.5600E+01
     11.518  0.0000E+00  0.5600E+01
     11.689  0.0000E+00  0.5600E+01
     11.860  0.0000E+00  0.5600E+01
     12.031  0.0000E+00  0.5600E+01
     12.202  0.0000E+00  0.5600E+01
     12.373  0.0000E+00  0.5600E+01
     12.544  0.0000E+00  0.5600E+01
     12.715  0.0000E+00  0.5600E+01
     12.886  0.0000E+00  0.5600E+01
