       N       E                     dE             d eps       ncg     rms          rms(c)
DAV:   1     0.530170322562E+04    0.53017E+04   -0.17510E+05  8232   0.142E+03
DAV:   2     0.234835545649E+03   -0.50669E+04   -0.48857E+04  7840   0.514E+02
DAV:   3    -0.686446389294E+03   -0.92128E+03   -0.86181E+03 11816   0.181E+02
DAV:   4    -0.784855115501E+03   -0.98409E+02   -0.95447E+02 12572   0.735E+01
DAV:   5    -0.790624867841E+03   -0.57698E+01   -0.56892E+01 11872   0.143E+01    0.753E+01
RMM:   6    -0.828265184885E+03   -0.37640E+02   -0.16798E+03 10577   0.145E+02    0.107E+02
RMM:   7    -0.641868550427E+03    0.18640E+03   -0.33485E+02 10439   0.536E+01    0.456E+01
RMM:   8    -0.647624760966E+03   -0.57562E+01   -0.10590E+02 11729   0.173E+01    0.305E+01
RMM:   9    -0.643841910500E+03    0.37829E+01   -0.29600E+01 11250   0.106E+01    0.258E+01
RMM:  10    -0.640209015843E+03    0.36329E+01   -0.11330E+01 10932   0.662E+00    0.129E+01
RMM:  11    -0.640829044527E+03   -0.62003E+00   -0.52016E+00 10619   0.526E+00    0.215E+01
RMM:  12    -0.638199748369E+03    0.26293E+01   -0.48999E+00 10677   0.499E+00    0.569E+00
RMM:  13    -0.639217233422E+03   -0.10175E+01   -0.30423E+00 11036   0.391E+00    0.148E+01
RMM:  14    -0.638226615580E+03    0.99062E+00   -0.12447E+00 10647   0.290E+00    0.487E+00
RMM:  15    -0.638152810756E+03    0.73805E-01   -0.52018E-01 10460   0.181E+00    0.671E+00
RMM:  16    -0.637924735630E+03    0.22808E+00   -0.28664E-01 10900   0.131E+00    0.184E+00
RMM:  17    -0.637889029159E+03    0.35706E-01   -0.37063E-01 11042   0.953E-01    0.164E+00
RMM:  18    -0.637889597755E+03   -0.56860E-03   -0.15339E-01 11358   0.633E-01    0.983E-01
RMM:  19    -0.637886416518E+03    0.31812E-02   -0.61976E-02 10978   0.388E-01    0.416E-01
RMM:  20    -0.637883865616E+03    0.25509E-02   -0.17417E-02 10975   0.217E-01    0.272E-01
RMM:  21    -0.637883777527E+03    0.88089E-04   -0.12705E-02 11163   0.172E-01    0.902E-02
RMM:  22    -0.637884274535E+03   -0.49701E-03   -0.57770E-03 11183   0.938E-02    0.391E-02
RMM:  23    -0.637884504641E+03   -0.23011E-03   -0.26869E-03  9918   0.593E-02    0.298E-02
RMM:  24    -0.637884611426E+03   -0.10678E-03   -0.13023E-03  7757   0.331E-02    0.152E-02
RMM:  25    -0.637884673757E+03   -0.62331E-04   -0.70017E-04  6436   0.291E-02    0.874E-03
RMM:  26    -0.637884706310E+03   -0.32552E-04   -0.35585E-04  5979   0.186E-02    0.504E-03
RMM:  27    -0.637884725422E+03   -0.19113E-04   -0.20253E-04  5677   0.155E-02    0.310E-03
RMM:  28    -0.637884735835E+03   -0.10413E-04   -0.10989E-04  5482   0.109E-02    0.278E-03
RMM:  29    -0.637884741695E+03   -0.58601E-05   -0.62874E-05  5332   0.109E-02
   1 F= -.63788474E+03 E0= -.63779810E+03  d E =-.637885E+03
       N       E                     dE             d eps       ncg     rms          rms(c)
DAV:   1    -0.625539794846E+03    0.12345E+02   -0.87570E+02  8596   0.151E+02    0.102E+01
RMM:   2    -0.644985916230E+03   -0.19446E+02   -0.15658E+02 12438   0.405E+01    0.316E+01
RMM:   3    -0.639939329402E+03    0.50466E+01   -0.22255E+01 10601   0.167E+01    0.111E+01
RMM:   4    -0.641855454365E+03   -0.19161E+01   -0.78764E+00 11335   0.768E+00    0.205E+01
RMM:   5    -0.639795306772E+03    0.20601E+01   -0.24645E+00 10724   0.486E+00    0.698E+00
RMM:   6    -0.639949888889E+03   -0.15458E+00   -0.14743E+00 11033   0.316E+00    0.962E+00
RMM:   7    -0.639550747678E+03    0.39914E+00   -0.84841E-01 10938   0.242E+00    0.434E+00
RMM:   8    -0.639628895648E+03   -0.78148E-01   -0.53946E-01 11031   0.180E+00    0.659E+00
RMM:   9    -0.639440615202E+03    0.18828E+00   -0.22974E-01 10893   0.124E+00    0.162E+00
RMM:  10    -0.639462172755E+03   -0.21558E-01   -0.11972E-01 10903   0.718E-01    0.237E+00
RMM:  11    -0.639428650927E+03    0.33522E-01   -0.57566E-02 10343   0.633E-01    0.464E-01
RMM:  12    -0.639429495199E+03   -0.84427E-03   -0.36932E-02 11388   0.283E-01    0.269E-01
RMM:  13    -0.639430976401E+03   -0.14812E-02   -0.15983E-02 10890   0.186E-01    0.447E-01
RMM:  14    -0.639431288837E+03   -0.31244E-03   -0.10043E-02 10297   0.123E-01    0.267E-01
RMM:  15    -0.639431177378E+03    0.11146E-03   -0.43726E-03 10488   0.799E-02    0.724E-02
RMM:  16    -0.639431447320E+03   -0.26994E-03   -0.31825E-03 10050   0.656E-02    0.454E-02
RMM:  17    -0.639431529869E+03   -0.82549E-04   -0.12679E-03  8568   0.507E-02    0.265E-02
RMM:  18    -0.639431582290E+03   -0.52421E-04   -0.79503E-04  7776   0.295E-02    0.119E-02
RMM:  19    -0.639431622247E+03   -0.39957E-04   -0.42461E-04  7086   0.284E-02    0.910E-03
RMM:  20    -0.639431646939E+03   -0.24691E-04   -0.26458E-04  6534   0.203E-02    0.842E-03
RMM:  21    -0.639431657180E+03   -0.10241E-04   -0.13693E-04  5643   0.165E-02    0.486E-03
RMM:  22    -0.639431664747E+03   -0.75668E-05   -0.85354E-05  5400   0.952E-03
   2 F= -.63943166E+03 E0= -.63935082E+03  d E =-.154692E+01
       N       E                     dE             d eps       ncg     rms          rms(c)
DAV:   1    -0.638228421276E+03    0.12032E+01   -0.75136E+01  8708   0.461E+01    0.289E+00
RMM:   2    -0.639549677763E+03   -0.13213E+01   -0.15045E+01 12519   0.120E+01    0.280E+00
RMM:   3    -0.640044779462E+03   -0.49510E+00   -0.25225E+00 11159   0.433E+00    0.807E+00
RMM:   4    -0.639808621222E+03    0.23616E+00   -0.47355E-01 10752   0.222E+00    0.319E+00
RMM:   5    -0.639789150418E+03    0.19471E-01   -0.20677E-01 11063   0.125E+00    0.238E+00
RMM:   6    -0.639782765840E+03    0.63846E-02   -0.97615E-02 10966   0.787E-01    0.222E+00
RMM:   7    -0.639772128353E+03    0.10637E-01   -0.62050E-02 10706   0.704E-01    0.176E+00
RMM:   8    -0.639778124842E+03   -0.59965E-02   -0.54192E-02 11014   0.593E-01    0.211E+00
RMM:   9    -0.639756808160E+03    0.21317E-01   -0.23895E-02 10731   0.444E-01    0.740E-01
RMM:  10    -0.639756639265E+03    0.16889E-03   -0.10337E-02 10572   0.237E-01    0.718E-01
RMM:  11    -0.639753437575E+03    0.32017E-02   -0.52310E-03 10808   0.174E-01    0.169E-01
RMM:  12    -0.639754922257E+03   -0.14847E-02   -0.48022E-03 10824   0.142E-01    0.593E-01
RMM:  13    -0.639753719357E+03    0.12029E-02   -0.26644E-03 10090   0.125E-01    0.182E-01
RMM:  14    -0.639753462856E+03    0.25650E-03   -0.74760E-04  9366   0.592E-02    0.482E-02
RMM:  15    -0.639753440953E+03    0.21903E-04   -0.50514E-04  9345   0.378E-02    0.229E-02
RMM:  16    -0.639753468291E+03   -0.27338E-04   -0.31471E-04  8194   0.322E-02    0.181E-02
RMM:  17    -0.639753469214E+03   -0.92239E-06   -0.12098E-04  6959   0.305E-02    0.109E-02
RMM:  18    -0.639753470130E+03   -0.91657E-06   -0.70141E-05  5920   0.157E-02
   3 F= -.63975347E+03 E0= -.63967155E+03  d E =-.186873E+01
       N       E                     dE             d eps       ncg     rms          rms(c)
DAV:   1    -0.639172954225E+03    0.58051E+00   -0.86151E+01 10668   0.473E+01    0.850E+00
RMM:   2    -0.649206549177E+03   -0.10034E+02   -0.23830E+01  9501   0.207E+01    0.341E+01
RMM:   3    -0.640331400081E+03    0.88751E+01   -0.66665E+00  9698   0.109E+01    0.936E+00
RMM:   4    -0.640318008709E+03    0.13391E-01   -0.20569E+00 12170   0.395E+00    0.738E+00
RMM:   5    -0.640132476481E+03    0.18553E+00   -0.57141E-01 10825   0.215E+00    0.469E+00
RMM:   6    -0.640060269014E+03    0.72207E-01   -0.20852E-01 10628   0.135E+00    0.289E+00
RMM:   7    -0.640075520927E+03   -0.15252E-01   -0.13678E-01 10691   0.976E-01    0.367E+00
RMM:   8    -0.640018997119E+03    0.56524E-01   -0.74094E-02 10494   0.860E-01    0.160E+00
RMM:   9    -0.640022888837E+03   -0.38917E-02   -0.54579E-02 10703   0.592E-01    0.213E+00
RMM:  10    -0.640004613054E+03    0.18276E-01   -0.19597E-02 10479   0.421E-01    0.609E-01
RMM:  11    -0.640002647038E+03    0.19660E-02   -0.69542E-03 10460   0.194E-01    0.369E-01
RMM:  12    -0.640002863620E+03   -0.21658E-03   -0.35422E-03 10340   0.135E-01    0.391E-01
RMM:  13    -0.640002286375E+03    0.57725E-03   -0.20289E-03 10417   0.965E-02    0.918E-02
RMM:  14    -0.640002287255E+03   -0.87967E-06   -0.93421E-04 10255   0.574E-02    0.435E-02
RMM:  15    -0.640002305195E+03   -0.17941E-04   -0.42695E-04  8595   0.419E-02    0.257E-02
RMM:  16    -0.640002317511E+03   -0.12315E-04   -0.23413E-04  7643   0.279E-02    0.118E-02
RMM:  17    -0.640002327993E+03   -0.10482E-04   -0.12486E-04  6496   0.231E-02    0.670E-03
RMM:  18    -0.640002332245E+03   -0.42529E-05   -0.61762E-05  5672   0.157E-02
   4 F= -.64000233E+03 E0= -.63992412E+03  d E =-.248862E+00
       N       E                     dE             d eps       ncg     rms          rms(c)
DAV:   1    -0.640000980312E+03    0.13477E-02   -0.19575E-01 11480   0.226E+00    0.432E-01
RMM:   2    -0.640031003244E+03   -0.30023E-01   -0.55309E-02 10143   0.920E-01    0.206E+00
RMM:   3    -0.640004874138E+03    0.26129E-01   -0.16198E-02  9228   0.546E-01    0.666E-01
RMM:   4    -0.640003706218E+03    0.11679E-02   -0.51788E-03 11349   0.213E-01    0.356E-01
RMM:   5    -0.640003608889E+03    0.97330E-04   -0.15216E-03 10095   0.117E-01    0.343E-01
RMM:   6    -0.640003097305E+03    0.51158E-03   -0.49212E-04  8714   0.839E-02    0.110E-01
RMM:   7    -0.640003206101E+03   -0.10880E-03   -0.42254E-04  9101   0.575E-02    0.188E-01
RMM:   8    -0.640003030962E+03    0.17514E-03   -0.18750E-04  7895   0.488E-02    0.606E-02
RMM:   9    -0.640003048895E+03   -0.17933E-04   -0.11423E-04  7540   0.322E-02    0.990E-02
RMM:  10    -0.640003008021E+03    0.40874E-04   -0.34729E-05  5317   0.240E-02    0.276E-02
RMM:  11    -0.640003005018E+03    0.30029E-05   -0.16577E-05  5036   0.177E-02
   5 F= -.64000301E+03 E0= -.63992465E+03  d E =-.249535E+00
       N       E                     dE             d eps       ncg     rms          rms(c)
DAV:   1    -0.639363261045E+03    0.63975E+00   -0.83609E+01 10416   0.455E+01    0.882E+00
RMM:   2    -0.651232708377E+03   -0.11869E+02   -0.19933E+01 10842   0.153E+01    0.338E+01
RMM:   3    -0.640087751867E+03    0.11145E+02   -0.59438E+00  9404   0.106E+01    0.253E+00
RMM:   4    -0.640522245662E+03   -0.43449E+00   -0.16643E+00 11895   0.328E+00    0.100E+01
RMM:   5    -0.640124629653E+03    0.39762E+00   -0.41025E-01 10548   0.210E+00    0.230E+00
RMM:   6    -0.640177681312E+03   -0.53052E-01   -0.20717E-01 10935   0.107E+00    0.421E+00
RMM:   7    -0.640106110527E+03    0.71571E-01   -0.88418E-02 10641   0.846E-01    0.138E+00
RMM:   8    -0.640115292493E+03   -0.91820E-02   -0.50838E-02 10524   0.565E-01    0.217E+00
RMM:   9    -0.640094495478E+03    0.20797E-01   -0.22962E-02 10412   0.455E-01    0.703E-01
RMM:  10    -0.640103608233E+03   -0.91128E-02   -0.16313E-02 10532   0.331E-01    0.156E+00
RMM:  11    -0.640092483640E+03    0.11125E-01   -0.76853E-03 10042   0.278E-01    0.245E-01
RMM:  12    -0.640093530003E+03   -0.10464E-02   -0.38773E-03 10420   0.139E-01    0.541E-01
RMM:  13    -0.640092365225E+03    0.11648E-02   -0.19009E-03  9510   0.108E-01    0.132E-01
RMM:  14    -0.640092283938E+03    0.81288E-04   -0.83456E-04  9884   0.529E-02    0.441E-02
RMM:  15    -0.640092303033E+03   -0.19095E-04   -0.41046E-04  8853   0.373E-02    0.268E-02
RMM:  16    -0.640092314366E+03   -0.11333E-04   -0.20086E-04  7658   0.289E-02    0.117E-02
RMM:  17    -0.640092324077E+03   -0.97109E-05   -0.10834E-04  6283   0.193E-02    0.611E-03
RMM:  18    -0.640092329087E+03   -0.50102E-05   -0.50773E-05  5629   0.157E-02
   6 F= -.64009233E+03 E0= -.64001396E+03  d E =-.893241E-01
       N       E                     dE             d eps       ncg     rms          rms(c)
DAV:   1    -0.640016227475E+03    0.76097E-01   -0.75689E+00 10220   0.142E+01    0.259E+00
RMM:   2    -0.641195827875E+03   -0.11796E+01   -0.22494E+00 10002   0.589E+00    0.127E+01
RMM:   3    -0.640212338635E+03    0.98349E+00   -0.62403E-01  9493   0.328E+00    0.490E+00
RMM:   4    -0.640131505205E+03    0.80833E-01   -0.18737E-01 11639   0.130E+00    0.175E+00
RMM:   5    -0.640130444631E+03    0.10606E-02   -0.58964E-02 11117   0.644E-01    0.178E+00
RMM:   6    -0.640117694344E+03    0.12750E-01   -0.16890E-02 10184   0.429E-01    0.792E-01
RMM:   7    -0.640120498007E+03   -0.28037E-02   -0.13154E-02 10584   0.295E-01    0.113E+00
RMM:   8    -0.640114821207E+03    0.56768E-02   -0.62238E-03  9931   0.251E-01    0.382E-01
RMM:   9    -0.640116088403E+03   -0.12672E-02   -0.44972E-03 10674   0.177E-01    0.730E-01
RMM:  10    -0.640113855266E+03    0.22331E-02   -0.18395E-03  9680   0.142E-01    0.174E-01
RMM:  11    -0.640113711495E+03    0.14377E-03   -0.67997E-04  9764   0.616E-02    0.636E-02
RMM:  12    -0.640113811153E+03   -0.99659E-04   -0.33597E-04  8764   0.472E-02    0.151E-01
RMM:  13    -0.640113723802E+03    0.87352E-04   -0.18265E-04  7780   0.344E-02    0.345E-02
RMM:  14    -0.640113723631E+03    0.17105E-06   -0.81787E-05  6735   0.198E-02
   7 F= -.64011372E+03 E0= -.64003539E+03  d E =-.110719E+00
       N       E                     dE             d eps       ncg     rms          rms(c)
DAV:   1    -0.639924638557E+03    0.18909E+00   -0.11520E+01  7896   0.154E+01    0.105E+00
RMM:   2    -0.640142643233E+03   -0.21800E+00   -0.22135E+00 12386   0.444E+00    0.198E+00
RMM:   3    -0.640171929572E+03   -0.29286E-01   -0.34485E-01 11099   0.151E+00    0.176E+00
RMM:   4    -0.640177152465E+03   -0.52229E-02   -0.65882E-02 10883   0.749E-01    0.184E+00
RMM:   5    -0.640162932298E+03    0.14220E-01   -0.21811E-02 10080   0.523E-01    0.924E-01
RMM:   6    -0.640162742274E+03    0.19002E-03   -0.14072E-02 10687   0.305E-01    0.816E-01
RMM:   7    -0.640160648853E+03    0.20934E-02   -0.68046E-03 10629   0.212E-01    0.572E-01
RMM:   8    -0.640160974285E+03   -0.32543E-03   -0.47748E-03  9916   0.213E-01    0.653E-01
RMM:   9    -0.640159800838E+03    0.11734E-02   -0.30445E-03 10430   0.165E-01    0.494E-01
RMM:  10    -0.640158674995E+03    0.11258E-02   -0.12275E-03  9413   0.107E-01    0.117E-01
RMM:  11    -0.640158677564E+03   -0.25689E-05   -0.50010E-04  9446   0.525E-02    0.119E-01
RMM:  12    -0.640158664251E+03    0.13313E-04   -0.26815E-04  8036   0.393E-02    0.889E-02
RMM:  13    -0.640158634470E+03    0.29781E-04   -0.12044E-04  7268   0.250E-02    0.173E-02
RMM:  14    -0.640158637373E+03   -0.29025E-05   -0.61015E-05  5908   0.180E-02
   8 F= -.64015864E+03 E0= -.64008094E+03  d E =-.449137E-01
       N       E                     dE             d eps       ncg     rms          rms(c)
DAV:   1    -0.640120114827E+03    0.38520E-01   -0.23244E+00  8764   0.686E+00    0.462E-01
RMM:   2    -0.640161655751E+03   -0.41541E-01   -0.41978E-01 12387   0.190E+00    0.914E-01
RMM:   3    -0.640166458098E+03   -0.48023E-02   -0.63885E-02 11072   0.669E-01    0.765E-01
RMM:   4    -0.640168080968E+03   -0.16229E-02   -0.13034E-02 10753   0.341E-01    0.864E-01
RMM:   5    -0.640164886562E+03    0.31944E-02   -0.45529E-03  9688   0.244E-01    0.421E-01
RMM:   6    -0.640164744583E+03    0.14198E-03   -0.29213E-03 10340   0.144E-01    0.339E-01
RMM:   7    -0.640164522327E+03    0.22226E-03   -0.14418E-03 10147   0.998E-02    0.288E-01
RMM:   8    -0.640164416261E+03    0.10607E-03   -0.95598E-04  9234   0.987E-02    0.255E-01
RMM:   9    -0.640164305957E+03    0.11030E-03   -0.60282E-04  9635   0.730E-02    0.225E-01
RMM:  10    -0.640164063736E+03    0.24222E-03   -0.24947E-04  8037   0.533E-02    0.461E-02
RMM:  11    -0.640164074716E+03   -0.10980E-04   -0.10850E-04  7063   0.252E-02    0.631E-02
RMM:  12    -0.640164065193E+03    0.95235E-05   -0.52274E-05  5653   0.224E-02
   9 F= -.64016407E+03 E0= -.64008665E+03  d E =-.503416E-01
       N       E                     dE             d eps       ncg     rms          rms(c)
DAV:   1    -0.640036098935E+03    0.12798E+00   -0.66339E+00  7840   0.141E+01    0.720E-01
RMM:   2    -0.640191077327E+03   -0.15498E+00   -0.13413E+00 12340   0.358E+00    0.262E+00
RMM:   3    -0.640183799386E+03    0.72779E-02   -0.20671E-01 10931   0.124E+00    0.844E-01
RMM:   4    -0.640194514275E+03   -0.10715E-01   -0.45534E-02 10942   0.590E-01    0.160E+00
RMM:   5    -0.640184562320E+03    0.99520E-02   -0.13714E-02 10120   0.378E-01    0.500E-01
RMM:   6    -0.640184602954E+03   -0.40634E-04   -0.71588E-03 10568   0.209E-01    0.467E-01
RMM:   7    -0.640183932131E+03    0.67082E-03   -0.34373E-03 10481   0.154E-01    0.327E-01
RMM:   8    -0.640183883081E+03    0.49051E-04   -0.20829E-03  9690   0.144E-01    0.329E-01
RMM:   9    -0.640183596306E+03    0.28677E-03   -0.14264E-03 10089   0.108E-01    0.317E-01
RMM:  10    -0.640183199583E+03    0.39672E-03   -0.57533E-04  9142   0.734E-02    0.835E-02
RMM:  11    -0.640183211741E+03   -0.12158E-04   -0.23896E-04  8540   0.381E-02    0.962E-02
RMM:  12    -0.640183186337E+03    0.25404E-04   -0.11799E-04  6399   0.295E-02    0.529E-02
RMM:  13    -0.640183176673E+03    0.96635E-05   -0.62857E-05  6089   0.217E-02
  10 F= -.64018318E+03 E0= -.64010608E+03  d E =-.191115E-01
       N       E                     dE             d eps       ncg     rms          rms(c)
DAV:   1    -0.640174020653E+03    0.91657E-02   -0.58792E-01  9548   0.412E+00    0.203E-01
RMM:   2    -0.640185788233E+03   -0.11768E-01   -0.99832E-02 12267   0.926E-01    0.779E-01
RMM:   3    -0.640184593964E+03    0.11943E-02   -0.13475E-02 10816   0.350E-01    0.229E-01
RMM:   4    -0.640185515284E+03   -0.92132E-03   -0.34443E-03 10465   0.171E-01    0.467E-01
RMM:   5    -0.640184652762E+03    0.86252E-03   -0.10061E-03  9289   0.113E-01    0.152E-01
RMM:   6    -0.640184638308E+03    0.14455E-04   -0.60852E-04  9309   0.680E-02    0.127E-01
RMM:   7    -0.640184596990E+03    0.41318E-04   -0.29624E-04  8897   0.481E-02    0.954E-02
RMM:   8    -0.640184584711E+03    0.12279E-04   -0.16971E-04  7672   0.454E-02    0.845E-02
RMM:   9    -0.640184569360E+03    0.15351E-04   -0.11366E-04  7660   0.319E-02    0.846E-02
RMM:  10    -0.640184540307E+03    0.29053E-04   -0.42156E-05  5447   0.229E-02    0.218E-02
RMM:  11    -0.640184545280E+03   -0.49729E-05   -0.22204E-05  5291   0.174E-02
  11 F= -.64018455E+03 E0= -.64010756E+03  d E =-.204801E-01
       N       E                     dE             d eps       ncg     rms          rms(c)
DAV:   1    -0.640159295665E+03    0.25245E-01   -0.25109E+00 10892   0.906E+00    0.100E+00
RMM:   2    -0.640344906996E+03   -0.18561E+00   -0.46979E-01 10901   0.229E+00    0.497E+00
RMM:   3    -0.640205221607E+03    0.13969E+00   -0.11288E-01  9631   0.141E+00    0.196E+00
RMM:   4    -0.640193950053E+03    0.11272E-01   -0.41524E-02 11247   0.589E-01    0.818E-01
RMM:   5    -0.640192695279E+03    0.12548E-02   -0.11162E-02 10815   0.284E-01    0.679E-01
RMM:   6    -0.640190930342E+03    0.17649E-02   -0.34230E-03  9893   0.185E-01    0.338E-01
RMM:   7    -0.640191540184E+03   -0.60984E-03   -0.28347E-03 10330   0.144E-01    0.496E-01
RMM:   8    -0.640190341613E+03    0.11986E-02   -0.12883E-03  9547   0.122E-01    0.149E-01
RMM:   9    -0.640190501788E+03   -0.16017E-03   -0.77918E-04  9848   0.755E-02    0.267E-01
RMM:  10    -0.640190229172E+03    0.27262E-03   -0.36532E-04  8750   0.613E-02    0.853E-02
RMM:  11    -0.640190202830E+03    0.26342E-04   -0.12929E-04  7888   0.303E-02    0.622E-02
RMM:  12    -0.640190196987E+03    0.58427E-05   -0.60455E-05  5741   0.225E-02
  12 F= -.64019020E+03 E0= -.64011330E+03  d E =-.565171E-02
       N       E                     dE             d eps       ncg     rms          rms(c)
DAV:   1    -0.640189949972E+03    0.25286E-03   -0.24909E-02 11788   0.904E-01    0.101E-01
RMM:   2    -0.640191887802E+03   -0.19378E-02   -0.46674E-03 10644   0.231E-01    0.524E-01
RMM:   3    -0.640190432766E+03    0.14550E-02   -0.11275E-03  8721   0.145E-01    0.214E-01
RMM:   4    -0.640190286543E+03    0.14622E-03   -0.43338E-04  9452   0.708E-02    0.753E-02
RMM:   5    -0.640190287449E+03   -0.90625E-06   -0.12207E-04  7371   0.342E-02    0.784E-02
RMM:   6    -0.640190261792E+03    0.25657E-04   -0.34074E-05  5279   0.262E-02    0.343E-02
RMM:   7    -0.640190268386E+03   -0.65936E-05   -0.30323E-05  5329   0.209E-02
  13 F= -.64019027E+03 E0= -.64011335E+03  d E =-.572311E-02
       N       E                     dE             d eps       ncg     rms          rms(c)
DAV:   1    -0.640169643550E+03    0.20618E-01   -0.23592E+00 11956   0.918E+00    0.120E+00
RMM:   2    -0.640421243909E+03   -0.25160E+00   -0.49290E-01  9986   0.255E+00    0.598E+00
RMM:   3    -0.640212983591E+03    0.20826E+00   -0.13730E-01  9408   0.162E+00    0.225E+00
RMM:   4    -0.640196926651E+03    0.16057E-01   -0.48788E-02 11431   0.655E-01    0.870E-01
RMM:   5    -0.640199648391E+03   -0.27217E-02   -0.16307E-02 10729   0.357E-01    0.117E+00
RMM:   6    -0.640193458977E+03    0.61894E-02   -0.48049E-03  9676   0.244E-01    0.325E-01
RMM:   7    -0.640194236276E+03   -0.77730E-03   -0.34870E-03 10124   0.154E-01    0.510E-01
RMM:   8    -0.640192931374E+03    0.13049E-02   -0.17834E-03 10053   0.128E-01    0.148E-01
RMM:   9    -0.640193223562E+03   -0.29219E-03   -0.97442E-04 10056   0.858E-02    0.322E-01
RMM:  10    -0.640192789396E+03    0.43417E-03   -0.39535E-04  8796   0.672E-02    0.723E-02
RMM:  11    -0.640192811195E+03   -0.21799E-04   -0.17234E-04  7940   0.352E-02    0.998E-02
RMM:  12    -0.640192772299E+03    0.38896E-04   -0.71372E-05  6065   0.249E-02    0.337E-02
RMM:  13    -0.640192771445E+03    0.85398E-06   -0.39490E-05  5916   0.184E-02
  14 F= -.64019277E+03 E0= -.64011638E+03  d E =-.250306E-02
       N       E                     dE             d eps       ncg     rms          rms(c)
DAV:   1    -0.640192093775E+03    0.67852E-03   -0.95242E-02 12348   0.184E+00    0.245E-01
RMM:   2    -0.640202460522E+03   -0.10367E-01   -0.19548E-02 10047   0.502E-01    0.121E+00
RMM:   3    -0.640193773625E+03    0.86869E-02   -0.55658E-03  9015   0.330E-01    0.449E-01
RMM:   4    -0.640193146688E+03    0.62694E-03   -0.19769E-03 10608   0.139E-01    0.183E-01
RMM:   5    -0.640193221247E+03   -0.74559E-04   -0.62457E-04  9427   0.770E-02    0.226E-01
RMM:   6    -0.640192988246E+03    0.23300E-03   -0.16824E-04  7412   0.525E-02    0.608E-02
RMM:   7    -0.640193022742E+03   -0.34495E-04   -0.14250E-04  7404   0.365E-02    0.103E-01
RMM:   8    -0.640192966374E+03    0.56368E-04   -0.61562E-05  6224   0.288E-02    0.282E-02
RMM:   9    -0.640192966051E+03    0.32289E-06   -0.33445E-05  5480   0.204E-02
  15 F= -.64019297E+03 E0= -.64011647E+03  d E =-.269766E-02
       N       E                     dE             d eps       ncg     rms          rms(c)
DAV:   1    -0.640145665181E+03    0.47301E-01   -0.19667E+00  8260   0.917E+00    0.421E-01
RMM:   2    -0.640198132507E+03   -0.52467E-01   -0.44848E-01 12317   0.186E+00    0.137E+00
RMM:   3    -0.640196485494E+03    0.16470E-02   -0.74883E-02 10748   0.755E-01    0.704E-01
RMM:   4    -0.640198052525E+03   -0.15670E-02   -0.15145E-02 10662   0.347E-01    0.739E-01
RMM:   5    -0.640195914630E+03    0.21379E-02   -0.35297E-03  9538   0.208E-01    0.395E-01
RMM:   6    -0.640195477970E+03    0.43666E-03   -0.19330E-03  9986   0.115E-01    0.182E-01
RMM:   7    -0.640195496351E+03   -0.18381E-04   -0.95790E-04  9961   0.777E-02    0.217E-01
RMM:   8    -0.640195377000E+03    0.11935E-03   -0.59220E-04  9172   0.769E-02    0.164E-01
RMM:   9    -0.640195334040E+03    0.42960E-04   -0.43260E-04  9599   0.585E-02    0.164E-01
RMM:  10    -0.640195220958E+03    0.11308E-03   -0.16472E-04  7700   0.439E-02    0.504E-02
RMM:  11    -0.640195214869E+03    0.60892E-05   -0.69508E-05  6471   0.223E-02
  16 F= -.64019521E+03 E0= -.64011881E+03  d E =-.224882E-02
       N       E                     dE             d eps       ncg     rms          rms(c)
DAV:   1    -0.640193903057E+03    0.13179E-02   -0.53309E-02  9576   0.151E+00    0.767E-02
RMM:   2    -0.640195696742E+03   -0.17937E-02   -0.12549E-02 12219   0.310E-01    0.350E-01
RMM:   3    -0.640195282778E+03    0.41396E-03   -0.21377E-03  9679   0.140E-01    0.107E-01
RMM:   4    -0.640195335511E+03   -0.52733E-04   -0.49903E-04  9128   0.722E-02    0.122E-01
RMM:   5    -0.640195302112E+03    0.33399E-04   -0.13625E-04  6549   0.404E-02    0.937E-02
RMM:   6    -0.640195268280E+03    0.33832E-04   -0.63526E-05  5710   0.281E-02    0.251E-02
RMM:   7    -0.640195281205E+03   -0.12925E-04   -0.34038E-05  5506   0.214E-02    0.622E-02
RMM:   8    -0.640195265897E+03    0.15308E-04   -0.21687E-05  5198   0.203E-02    0.181E-02
RMM:   9    -0.640195265651E+03    0.24566E-06   -0.17483E-05  4980   0.131E-02
  17 F= -.64019527E+03 E0= -.64011890E+03  d E =-.229960E-02
       N       E                     dE             d eps       ncg     rms          rms(c)
DAV:   1    -0.640184290611E+03    0.10975E-01   -0.58595E-01  9156   0.513E+00    0.330E-01
RMM:   2    -0.640209860600E+03   -0.25570E-01   -0.13164E-01 12125   0.102E+00    0.150E+00
RMM:   3    -0.640198024498E+03    0.11836E-01   -0.18777E-02  9911   0.519E-01    0.633E-01
RMM:   4    -0.640197291688E+03    0.73281E-03   -0.62942E-03 10408   0.229E-01    0.344E-01
RMM:   5    -0.640196951207E+03    0.34048E-03   -0.16936E-03  9939   0.121E-01    0.218E-01
RMM:   6    -0.640196785471E+03    0.16574E-03   -0.58426E-04  9272   0.751E-02    0.117E-01
RMM:   7    -0.640196810283E+03   -0.24811E-04   -0.33772E-04  8866   0.533E-02    0.147E-01
RMM:   8    -0.640196726053E+03    0.84230E-04   -0.19240E-04  7914   0.470E-02    0.775E-02
RMM:   9    -0.640196712629E+03    0.13424E-04   -0.14673E-04  8461   0.350E-02    0.789E-02
RMM:  10    -0.640196692809E+03    0.19820E-04   -0.49197E-05  5605   0.268E-02    0.423E-02
RMM:  11    -0.640196686205E+03    0.66046E-05   -0.22809E-05  5166   0.203E-02
  18 F= -.64019669E+03 E0= -.64012017E+03  d E =-.142055E-02
       N       E                     dE             d eps       ncg     rms          rms(c)
DAV:   1    -0.640190554686E+03    0.61381E-02   -0.26324E-01  9072   0.348E+00    0.229E-01
RMM:   2    -0.640203145582E+03   -0.12591E-01   -0.65125E-02 12170   0.732E-01    0.106E+00
RMM:   3    -0.640197586962E+03    0.55586E-02   -0.11201E-02  9762   0.367E-01    0.443E-01
RMM:   4    -0.640197207200E+03    0.37976E-03   -0.30443E-03 10291   0.161E-01    0.232E-01
RMM:   5    -0.640197082235E+03    0.12497E-03   -0.83817E-04  9631   0.825E-02    0.164E-01
RMM:   6    -0.640196987302E+03    0.94932E-04   -0.28408E-04  8126   0.528E-02    0.783E-02
RMM:   7    -0.640196998403E+03   -0.11101E-04   -0.15659E-04  7631   0.376E-02    0.984E-02
RMM:   8    -0.640196963690E+03    0.34713E-04   -0.87413E-05  6611   0.323E-02    0.573E-02
RMM:   9    -0.640196974778E+03   -0.11088E-04   -0.76210E-05  7040   0.276E-02    0.801E-02
RMM:  10    -0.640196945423E+03    0.29356E-04   -0.29163E-05  5240   0.210E-02    0.202E-02
RMM:  11    -0.640196944745E+03    0.67789E-06   -0.14286E-05  4961   0.169E-02
  19 F= -.64019694E+03 E0= -.64012035E+03  d E =-.167909E-02
       N       E                     dE             d eps       ncg     rms          rms(c)
DAV:   1    -0.640192904094E+03    0.40413E-02   -0.23776E-01 10108   0.328E+00    0.230E-01
RMM:   2    -0.640204147109E+03   -0.11243E-01   -0.53549E-02 11747   0.665E-01    0.102E+00
RMM:   3    -0.640198239963E+03    0.59071E-02   -0.87639E-03  9525   0.357E-01    0.375E-01
RMM:   4    -0.640198112522E+03    0.12744E-03   -0.28596E-03 10448   0.153E-01    0.251E-01
RMM:   5    -0.640198000365E+03    0.11216E-03   -0.70743E-04  9384   0.832E-02    0.205E-01
RMM:   6    -0.640197833474E+03    0.16689E-03   -0.25286E-04  8014   0.551E-02    0.700E-02
RMM:   7    -0.640197856370E+03   -0.22896E-04   -0.15432E-04  7490   0.368E-02    0.997E-02
RMM:   8    -0.640197810669E+03    0.45700E-04   -0.80334E-05  6597   0.313E-02    0.417E-02
RMM:   9    -0.640197803228E+03    0.74413E-05   -0.67293E-05  6893   0.234E-02
  20 F= -.64019780E+03 E0= -.64012127E+03  d E =-.858484E-03
       N       E                     dE             d eps       ncg     rms          rms(c)
DAV:   1    -0.640164997749E+03    0.32813E-01   -0.18720E+00 10024   0.911E+00    0.633E-01
RMM:   2    -0.640246518361E+03   -0.81521E-01   -0.36791E-01 11526   0.180E+00    0.279E+00
RMM:   3    -0.640202046396E+03    0.44472E-01   -0.70013E-02  9764   0.955E-01    0.105E+00
RMM:   4    -0.640200961793E+03    0.10846E-02   -0.21849E-02 10866   0.414E-01    0.686E-01
RMM:   5    -0.640199927449E+03    0.10343E-02   -0.52569E-03 10307   0.219E-01    0.518E-01
RMM:   6    -0.640198873608E+03    0.10538E-02   -0.19362E-03  9936   0.140E-01    0.202E-01
RMM:   7    -0.640199042763E+03   -0.16916E-03   -0.11838E-03  9923   0.910E-02    0.285E-01
RMM:   8    -0.640198671936E+03    0.37083E-03   -0.63439E-04  9264   0.799E-02    0.117E-01
RMM:   9    -0.640198593287E+03    0.78648E-04   -0.44822E-04 10022   0.550E-02    0.844E-02
RMM:  10    -0.640198638057E+03   -0.44769E-04   -0.18834E-04  7973   0.431E-02    0.124E-01
RMM:  11    -0.640198572878E+03    0.65178E-04   -0.71384E-05  6194   0.290E-02    0.258E-02
RMM:  12    -0.640198581143E+03   -0.82643E-05   -0.37187E-05  5483   0.198E-02
  21 F= -.64019858E+03 E0= -.64012224E+03  d E =-.163640E-02
       N       E                     dE             d eps       ncg     rms          rms(c)
DAV:   1    -0.640195860468E+03    0.27124E-02   -0.15162E-01 10304   0.259E+00    0.842E-02
RMM:   2    -0.640198872681E+03   -0.30122E-02   -0.29447E-02 11986   0.455E-01    0.214E-01
RMM:   3    -0.640199193091E+03   -0.32041E-03   -0.41942E-03 10453   0.169E-01    0.147E-01
RMM:   4    -0.640199260618E+03   -0.67528E-04   -0.60769E-04  9518   0.810E-02    0.148E-01
RMM:   5    -0.640199163281E+03    0.97337E-04   -0.14036E-04  6957   0.443E-02    0.613E-02
RMM:   6    -0.640199155488E+03    0.77937E-05   -0.80735E-05  6141   0.284E-02
  22 F= -.64019916E+03 E0= -.64012287E+03  d E =-.574345E-03
       N       E                     dE             d eps       ncg     rms          rms(c)
DAV:   1    -0.640174647264E+03    0.24516E-01   -0.13975E+00  9520   0.777E+00    0.244E-01
RMM:   2    -0.640198686796E+03   -0.24040E-01   -0.22909E-01 11775   0.131E+00    0.708E-01
RMM:   3    -0.640200919842E+03   -0.22330E-02   -0.36700E-02 11090   0.469E-01    0.391E-01
RMM:   4    -0.640201835688E+03   -0.91585E-03   -0.54600E-03 10426   0.227E-01    0.484E-01
RMM:   5    -0.640200783572E+03    0.10521E-02   -0.15078E-03  9361   0.136E-01    0.168E-01
RMM:   6    -0.640200741923E+03    0.41649E-04   -0.78769E-04  9452   0.726E-02    0.117E-01
RMM:   7    -0.640200799319E+03   -0.57395E-04   -0.41592E-04  9295   0.563E-02    0.174E-01
RMM:   8    -0.640200656205E+03    0.14311E-03   -0.28693E-04  8878   0.550E-02    0.736E-02
RMM:   9    -0.640200681735E+03   -0.25529E-04   -0.16654E-04  8461   0.368E-02    0.108E-01
RMM:  10    -0.640200630708E+03    0.51027E-04   -0.55061E-05  5796   0.274E-02    0.244E-02
RMM:  11    -0.640200631997E+03   -0.12896E-05   -0.24675E-05  5259   0.201E-02
  23 F= -.64020063E+03 E0= -.64012446E+03  d E =-.205085E-02
       N       E                     dE             d eps       ncg     rms          rms(c)
DAV:   1    -0.640098100884E+03    0.10253E+00   -0.56024E+00  9464   0.155E+01    0.490E-01
RMM:   2    -0.640190860798E+03   -0.92760E-01   -0.91904E-01 11740   0.264E+00    0.113E+00
RMM:   3    -0.640204658752E+03   -0.13798E-01   -0.14953E-01 11184   0.922E-01    0.921E-01
RMM:   4    -0.640206472990E+03   -0.18142E-02   -0.21189E-02 10719   0.436E-01    0.877E-01
RMM:   5    -0.640203178543E+03    0.32944E-02   -0.53577E-03  9920   0.252E-01    0.373E-01
RMM:   6    -0.640202885722E+03    0.29282E-03   -0.30857E-03 10312   0.133E-01    0.208E-01
RMM:   7    -0.640202681358E+03    0.20436E-03   -0.13291E-03 10237   0.896E-02    0.182E-01
RMM:   8    -0.640202786962E+03   -0.10560E-03   -0.10262E-03  9681   0.929E-02    0.250E-01
RMM:   9    -0.640202507981E+03    0.27898E-03   -0.72746E-04  9949   0.746E-02    0.119E-01
RMM:  10    -0.640202491052E+03    0.16928E-04   -0.22713E-04  8214   0.437E-02    0.927E-02
RMM:  11    -0.640202442382E+03    0.48670E-04   -0.88469E-05  6544   0.293E-02    0.199E-02
RMM:  12    -0.640202440343E+03    0.20396E-05   -0.60175E-05  6290   0.201E-02
  24 F= -.64020244E+03 E0= -.64012677E+03  d E =-.385920E-02
       N       E                     dE             d eps       ncg     rms          rms(c)
DAV:   1    -0.640193216656E+03    0.92257E-02   -0.63004E-01  9576   0.518E+00    0.459E-01
RMM:   2    -0.640236855040E+03   -0.43638E-01   -0.14459E-01 10875   0.111E+00    0.229E+00
RMM:   3    -0.640208257447E+03    0.28598E-01   -0.29645E-02  9431   0.658E-01    0.935E-01
RMM:   4    -0.640205731864E+03    0.25256E-02   -0.99331E-03 10554   0.284E-01    0.366E-01
RMM:   5    -0.640205414814E+03    0.31705E-03   -0.23518E-03 10190   0.133E-01    0.282E-01
RMM:   6    -0.640205110790E+03    0.30402E-03   -0.72951E-04  9189   0.855E-02    0.144E-01
RMM:   7    -0.640205148667E+03   -0.37877E-04   -0.46854E-04  9030   0.596E-02    0.180E-01
RMM:   8    -0.640205014309E+03    0.13436E-03   -0.26063E-04  8391   0.537E-02    0.864E-02
RMM:   9    -0.640205013239E+03    0.10698E-05   -0.19066E-04  8786   0.395E-02    0.105E-01
RMM:  10    -0.640204972350E+03    0.40889E-04   -0.70836E-05  6135   0.308E-02    0.461E-02
RMM:  11    -0.640204961127E+03    0.11223E-04   -0.30805E-05  5452   0.194E-02    0.143E-02
RMM:  12    -0.640204966229E+03   -0.51022E-05   -0.15576E-05  5064   0.161E-02
  25 F= -.64020497E+03 E0= -.64012939E+03  d E =-.252589E-02
       N       E                     dE             d eps       ncg     rms          rms(c)
DAV:   1    -0.640189185255E+03    0.15776E-01   -0.95174E-01  9464   0.636E+00    0.563E-01
RMM:   2    -0.640254744163E+03   -0.65559E-01   -0.21571E-01 10870   0.136E+00    0.280E+00
RMM:   3    -0.640211675303E+03    0.43069E-01   -0.44821E-02  9491   0.809E-01    0.114E+00
RMM:   4    -0.640207904359E+03    0.37709E-02   -0.14907E-02 10662   0.345E-01    0.453E-01
RMM:   5    -0.640207414666E+03    0.48969E-03   -0.35307E-03 10314   0.162E-01    0.349E-01
RMM:   6    -0.640206956861E+03    0.45780E-03   -0.10971E-03  9413   0.104E-01    0.179E-01
RMM:   7    -0.640207000054E+03   -0.43193E-04   -0.69525E-04  9347   0.717E-02    0.215E-01
RMM:   8    -0.640206811439E+03    0.18862E-03   -0.38912E-04  8745   0.639E-02    0.108E-01
RMM:   9    -0.640206799456E+03    0.11983E-04   -0.27998E-04  9374   0.477E-02    0.123E-01
RMM:  10    -0.640206747228E+03    0.52228E-04   -0.11199E-04  7035   0.361E-02    0.591E-02
RMM:  11    -0.640206728586E+03    0.18643E-04   -0.46869E-05  6056   0.199E-02    0.146E-02
RMM:  12    -0.640206736617E+03   -0.80314E-05   -0.21959E-05  5238   0.185E-02
  26 F= -.64020674E+03 E0= -.64013130E+03  d E =-.429627E-02
       N       E                     dE             d eps       ncg     rms          rms(c)
DAV:   1    -0.640137173623E+03    0.69555E-01   -0.38340E+00  9268   0.127E+01    0.112E+00
RMM:   2    -0.640388390699E+03   -0.25122E+00   -0.83443E-01 10897   0.267E+00    0.541E+00
RMM:   3    -0.640222917042E+03    0.16547E+00   -0.17604E-01  9566   0.159E+00    0.213E+00
RMM:   4    -0.640210849033E+03    0.12068E-01   -0.58188E-02 10986   0.670E-01    0.951E-01
RMM:   5    -0.640208571857E+03    0.22772E-02   -0.13420E-02 10641   0.314E-01    0.709E-01
RMM:   6    -0.640206720414E+03    0.18514E-02   -0.42590E-03  9938   0.197E-01    0.358E-01
RMM:   7    -0.640206789773E+03   -0.69359E-04   -0.27445E-03 10396   0.138E-01    0.406E-01
RMM:   8    -0.640206165086E+03    0.62469E-03   -0.14968E-03  9659   0.121E-01    0.230E-01
RMM:   9    -0.640206113683E+03    0.51403E-04   -0.10946E-03 10368   0.900E-02    0.253E-01
RMM:  10    -0.640205882651E+03    0.23103E-03   -0.47768E-04  8936   0.676E-02    0.114E-01
RMM:  11    -0.640205810131E+03    0.72520E-04   -0.16946E-04  8097   0.338E-02    0.236E-02
RMM:  12    -0.640205829532E+03   -0.19401E-04   -0.78538E-05  6185   0.242E-02    0.675E-02
RMM:  13    -0.640205813760E+03    0.15772E-04   -0.38244E-05  5490   0.198E-02    0.227E-02
RMM:  14    -0.640205812240E+03    0.15208E-05   -0.21317E-05  5350   0.135E-02
  27 F= -.64020581E+03 E0= -.64013070E+03  d E =-.337190E-02
       N       E                     dE             d eps       ncg     rms          rms(c)
DAV:   1    -0.640175890357E+03    0.29923E-01   -0.17725E+00  9744   0.867E+00    0.774E-01
RMM:   2    -0.640300875055E+03   -0.12498E+00   -0.39427E-01 10669   0.188E+00    0.392E+00
RMM:   3    -0.640216781057E+03    0.84094E-01   -0.84916E-02  9527   0.111E+00    0.162E+00
RMM:   4    -0.640209115494E+03    0.76656E-02   -0.29077E-02 10790   0.481E-01    0.591E-01
RMM:   5    -0.640208346622E+03    0.76887E-03   -0.68950E-03 10567   0.222E-01    0.468E-01
RMM:   6    -0.640207468381E+03    0.87824E-03   -0.19389E-03  9671   0.142E-01    0.238E-01
RMM:   7    -0.640207595975E+03   -0.12759E-03   -0.12987E-03  9778   0.979E-02    0.302E-01
RMM:   8    -0.640207217172E+03    0.37880E-03   -0.72095E-04  9278   0.857E-02    0.142E-01
RMM:   9    -0.640207183276E+03    0.33896E-04   -0.48915E-04  9803   0.625E-02    0.155E-01
RMM:  10    -0.640207110254E+03    0.73022E-04   -0.20642E-04  8322   0.456E-02    0.829E-02
RMM:  11    -0.640207077080E+03    0.33175E-04   -0.70633E-05  6749   0.248E-02    0.152E-02
RMM:  12    -0.640207080642E+03   -0.35620E-05   -0.29290E-05  5544   0.178E-02
  28 F= -.64020708E+03 E0= -.64013173E+03  d E =-.464030E-02
       N       E                     dE             d eps       ncg     rms          rms(c)
DAV:   1    -0.640199960585E+03    0.71165E-02   -0.39751E-01  8344   0.400E+00    0.160E-01
RMM:   2    -0.640208795561E+03   -0.88350E-02   -0.81461E-02 12008   0.729E-01    0.423E-01
RMM:   3    -0.640209012270E+03   -0.21671E-03   -0.10981E-02 10507   0.285E-01    0.253E-01
RMM:   4    -0.640209236586E+03   -0.22432E-03   -0.19027E-03 10084   0.130E-01    0.271E-01
RMM:   5    -0.640208841519E+03    0.39507E-03   -0.39415E-04  8370   0.766E-02    0.778E-02
RMM:   6    -0.640208849972E+03   -0.84532E-05   -0.23021E-04  7891   0.394E-02    0.782E-02
RMM:   7    -0.640208832253E+03    0.17720E-04   -0.10523E-04  7295   0.308E-02    0.647E-02
RMM:   8    -0.640208837288E+03   -0.50352E-05   -0.69502E-05  6485   0.255E-02
  29 F= -.64020884E+03 E0= -.64013367E+03  d E =-.175665E-02
       N       E                     dE             d eps       ncg     rms          rms(c)
DAV:   1    -0.640137449462E+03    0.71383E-01   -0.36260E+00  8428   0.120E+01    0.484E-01
RMM:   2    -0.640216395560E+03   -0.78946E-01   -0.68875E-01 11805   0.217E+00    0.158E+00
RMM:   3    -0.640214097738E+03    0.22978E-02   -0.10393E-01 10806   0.839E-01    0.752E-01
RMM:   4    -0.640215830976E+03   -0.17332E-02   -0.17516E-02 10799   0.372E-01    0.768E-01
RMM:   5    -0.640212551120E+03    0.32799E-02   -0.38516E-03  9667   0.220E-01    0.194E-01
RMM:   6    -0.640212769214E+03   -0.21809E-03   -0.23561E-03 10170   0.110E-01    0.257E-01
RMM:   7    -0.640212468456E+03    0.30076E-03   -0.10566E-03 10127   0.794E-02    0.131E-01
RMM:   8    -0.640212965921E+03   -0.49746E-03   -0.92480E-04  9892   0.798E-02    0.390E-01
RMM:   9    -0.640212363194E+03    0.60273E-03   -0.49458E-04  9138   0.694E-02    0.465E-02
RMM:  10    -0.640212413410E+03   -0.50216E-04   -0.19532E-04  7773   0.373E-02    0.105E-01
RMM:  11    -0.640212361607E+03    0.51803E-04   -0.77305E-05  5870   0.258E-02    0.301E-02
RMM:  12    -0.640212375017E+03   -0.13410E-04   -0.43993E-05  5594   0.205E-02    0.585E-02
RMM:  13    -0.640212361773E+03    0.13244E-04   -0.25521E-05  5282   0.184E-02    0.121E-02
RMM:  14    -0.640212362723E+03   -0.95040E-06   -0.15283E-05  5175   0.111E-02
  30 F= -.64021236E+03 E0= -.64013785E+03  d E =-.528208E-02
       N       E                     dE             d eps       ncg     rms          rms(c)
DAV:   1    -0.639911726793E+03    0.30063E+00   -0.14595E+01  8792   0.240E+01    0.979E-01
RMM:   2    -0.640241874704E+03   -0.33015E+00   -0.27823E+00 11773   0.437E+00    0.354E+00
RMM:   3    -0.640217016843E+03    0.24858E-01   -0.41384E-01 10781   0.173E+00    0.146E+00
RMM:   4    -0.640224353789E+03   -0.73369E-02   -0.75519E-02 10921   0.752E-01    0.151E+00
RMM:   5    -0.640212421241E+03    0.11933E-01   -0.16497E-02 10107   0.438E-01    0.548E-01
RMM:   6    -0.640212333757E+03    0.87485E-04   -0.93873E-03 10744   0.211E-01    0.423E-01
RMM:   7    -0.640212245720E+03    0.88037E-04   -0.43053E-03 10757   0.147E-01    0.510E-01
RMM:   8    -0.640211825432E+03    0.42029E-03   -0.27865E-03  9995   0.142E-01    0.399E-01
RMM:   9    -0.640211052889E+03    0.77254E-03   -0.23697E-03 10759   0.122E-01    0.158E-01
RMM:  10    -0.640211108799E+03   -0.55911E-04   -0.79188E-04  9301   0.702E-02    0.168E-01
RMM:  11    -0.640211014474E+03    0.94325E-04   -0.34252E-04  8756   0.468E-02    0.104E-01
RMM:  12    -0.640210996017E+03    0.18457E-04   -0.16315E-04  6952   0.339E-02    0.722E-02
RMM:  13    -0.640210978966E+03    0.17051E-04   -0.10165E-04  7069   0.248E-02    0.185E-02
RMM:  14    -0.640210981067E+03   -0.21011E-05   -0.43654E-05  5654   0.170E-02
  31 F= -.64021098E+03 E0= -.64013787E+03  d E =-.390043E-02
       N       E                     dE             d eps       ncg     rms          rms(c)
DAV:   1    -0.640040222416E+03    0.17076E+00   -0.63087E+00  7896   0.162E+01    0.666E-01
RMM:   2    -0.640203080196E+03   -0.16286E+00   -0.15142E+00 12194   0.317E+00    0.183E+00
RMM:   3    -0.640217344355E+03   -0.14264E-01   -0.27022E-01 10824   0.121E+00    0.113E+00
RMM:   4    -0.640220650056E+03   -0.33057E-02   -0.31476E-02 10802   0.503E-01    0.114E+00
RMM:   5    -0.640214459816E+03    0.61902E-02   -0.78360E-03  9768   0.304E-01    0.506E-01
RMM:   6    -0.640213800763E+03    0.65905E-03   -0.39822E-03 10438   0.147E-01    0.256E-01
RMM:   7    -0.640213576802E+03    0.22396E-03   -0.16449E-03 10473   0.928E-02    0.217E-01
RMM:   8    -0.640213829710E+03   -0.25291E-03   -0.14370E-03  9911   0.101E-01    0.330E-01
RMM:   9    -0.640213344299E+03    0.48541E-03   -0.10201E-03 10285   0.912E-02    0.162E-01
RMM:  10    -0.640213304770E+03    0.39529E-04   -0.39187E-04  8970   0.552E-02    0.124E-01
RMM:  11    -0.640213241240E+03    0.63530E-04   -0.14507E-04  7473   0.359E-02    0.507E-02
RMM:  12    -0.640213253047E+03   -0.11807E-04   -0.75161E-05  5810   0.230E-02    0.692E-02
RMM:  13    -0.640213233389E+03    0.19658E-04   -0.41088E-05  5658   0.237E-02    0.145E-02
RMM:  14    -0.640213233428E+03   -0.39086E-07   -0.22373E-05  5357   0.122E-02
  32 F= -.64021323E+03 E0= -.64013916E+03  d E =-.615279E-02
       N       E                     dE             d eps       ncg     rms          rms(c)
DAV:   1    -0.640210828161E+03    0.24052E-02   -0.30283E-01  9212   0.309E+00    0.249E-01
RMM:   2    -0.640221865789E+03   -0.11038E-01   -0.51899E-02 11307   0.676E-01    0.103E+00
RMM:   3    -0.640215872625E+03    0.59932E-02   -0.95524E-03  9658   0.350E-01    0.397E-01
RMM:   4    -0.640215755918E+03    0.11671E-03   -0.29346E-03 10460   0.157E-01    0.288E-01
RMM:   5    -0.640215483424E+03    0.27249E-03   -0.79000E-04  9573   0.860E-02    0.191E-01
RMM:   6    -0.640215363806E+03    0.11962E-03   -0.29431E-04  8248   0.557E-02    0.902E-02
RMM:   7    -0.640215317823E+03    0.45983E-04   -0.16149E-04  8294   0.347E-02    0.459E-02
RMM:   8    -0.640215369393E+03   -0.51570E-04   -0.11173E-04  7300   0.377E-02    0.116E-01
RMM:   9    -0.640215303214E+03    0.66179E-04   -0.61428E-05  6350   0.280E-02    0.259E-02
RMM:  10    -0.640215315769E+03   -0.12555E-04   -0.29401E-05  5314   0.222E-02    0.541E-02
RMM:  11    -0.640215301795E+03    0.13974E-04   -0.13736E-05  4857   0.185E-02    0.840E-03
RMM:  12    -0.640215304082E+03   -0.22876E-05   -0.68417E-06  4741   0.103E-02
  33 F= -.64021530E+03 E0= -.64014140E+03  d E =-.207065E-02
       N       E                     dE             d eps       ncg     rms          rms(c)
DAV:   1    -0.640193242807E+03    0.22059E-01   -0.16533E+00  9072   0.723E+00    0.583E-01
RMM:   2    -0.640253870744E+03   -0.60628E-01   -0.28254E-01 11279   0.159E+00    0.242E+00
RMM:   3    -0.640220623142E+03    0.33248E-01   -0.52662E-02  9833   0.816E-01    0.938E-01
RMM:   4    -0.640219820335E+03    0.80281E-03   -0.15955E-02 10801   0.354E-01    0.660E-01
RMM:   5    -0.640218402789E+03    0.14175E-02   -0.43907E-03 10370   0.193E-01    0.442E-01
RMM:   6    -0.640217778042E+03    0.62475E-03   -0.17067E-03  9886   0.119E-01    0.213E-01
RMM:   7    -0.640217531661E+03    0.24638E-03   -0.86524E-04 10137   0.739E-02    0.117E-01
RMM:   8    -0.640217826877E+03   -0.29522E-03   -0.65854E-04  9559   0.780E-02    0.278E-01
RMM:   9    -0.640217444476E+03    0.38240E-03   -0.36593E-04  9237   0.614E-02    0.638E-02
RMM:  10    -0.640217501779E+03   -0.57303E-04   -0.17379E-04  7707   0.416E-02    0.119E-01
RMM:  11    -0.640217427368E+03    0.74411E-04   -0.63755E-05  5962   0.275E-02    0.175E-02
RMM:  12    -0.640217439331E+03   -0.11963E-04   -0.31942E-05  5473   0.181E-02    0.511E-02
RMM:  13    -0.640217430047E+03    0.92838E-05   -0.16218E-05  5111   0.160E-02
  34 F= -.64021743E+03 E0= -.64014397E+03  d E =-.419662E-02
       N       E                     dE             d eps       ncg     rms          rms(c)
DAV:   1    -0.640213465415E+03    0.39739E-02   -0.44653E-01  9352   0.366E+00    0.405E-01
RMM:   2    -0.640245703127E+03   -0.32238E-01   -0.86594E-02 10691   0.945E-01    0.205E+00
RMM:   3    -0.640221978151E+03    0.23725E-01   -0.19328E-02  9377   0.573E-01    0.797E-01
RMM:   4    -0.640219972698E+03    0.20055E-02   -0.69380E-03 10659   0.240E-01    0.301E-01
RMM:   5    -0.640219900319E+03    0.72379E-04   -0.17999E-03 10084   0.117E-01    0.287E-01
RMM:   6    -0.640219558004E+03    0.34231E-03   -0.54789E-04  8982   0.785E-02    0.120E-01
RMM:   7    -0.640219602305E+03   -0.44301E-04   -0.38213E-04  8860   0.541E-02    0.156E-01
RMM:   8    -0.640219485977E+03    0.11633E-03   -0.19404E-04  7881   0.454E-02    0.620E-02
RMM:   9    -0.640219467700E+03    0.18276E-04   -0.12371E-04  7751   0.315E-02    0.531E-02
RMM:  10    -0.640219471996E+03   -0.42961E-05   -0.47649E-05  5587   0.247E-02
  35 F= -.64021947E+03 E0= -.64014603E+03  d E =-.204195E-02
       N       E                     dE             d eps       ncg     rms          rms(c)
DAV:   1    -0.640197653580E+03    0.21814E-01   -0.16590E+00  8932   0.708E+00    0.787E-01
RMM:   2    -0.640318480483E+03   -0.12083E+00   -0.32650E-01 10726   0.183E+00    0.393E+00
RMM:   3    -0.640229692088E+03    0.88788E-01   -0.74574E-02  9548   0.111E+00    0.150E+00
RMM:   4    -0.640222666985E+03    0.70251E-02   -0.25610E-02 10938   0.449E-01    0.594E-01
RMM:   5    -0.640222340990E+03    0.32599E-03   -0.65074E-03 10472   0.215E-01    0.558E-01
RMM:   6    -0.640221075640E+03    0.12654E-02   -0.20477E-03  9727   0.143E-01    0.232E-01
RMM:   7    -0.640221226591E+03   -0.15095E-03   -0.13683E-03  9812   0.994E-02    0.295E-01
RMM:   8    -0.640220812731E+03    0.41386E-03   -0.70676E-04  9394   0.830E-02    0.120E-01
RMM:   9    -0.640220722515E+03    0.90216E-04   -0.42540E-04  9747   0.535E-02    0.725E-02
RMM:  10    -0.640220810908E+03   -0.88393E-04   -0.21750E-04  8341   0.437E-02    0.152E-01
RMM:  11    -0.640220705998E+03    0.10491E-03   -0.88001E-05  6396   0.299E-02    0.254E-02
RMM:  12    -0.640220714700E+03   -0.87018E-05   -0.38307E-05  5536   0.203E-02
  36 F= -.64022071E+03 E0= -.64014725E+03  d E =-.328465E-02
       N       E                     dE             d eps       ncg     rms          rms(c)
DAV:   1    -0.640210870882E+03    0.98351E-02   -0.81816E-01  8484   0.485E+00    0.192E-01
RMM:   2    -0.640222137989E+03   -0.11267E-01   -0.10656E-01 11358   0.952E-01    0.579E-01
RMM:   3    -0.640222680715E+03   -0.54273E-03   -0.16743E-02 11308   0.334E-01    0.270E-01
RMM:   4    -0.640222953122E+03   -0.27241E-03   -0.24730E-03 10495   0.149E-01    0.312E-01
RMM:   5    -0.640222504207E+03    0.44891E-03   -0.69087E-04  9252   0.904E-02    0.104E-01
RMM:   6    -0.640222561662E+03   -0.57455E-04   -0.43151E-04  8783   0.578E-02    0.143E-01
RMM:   7    -0.640222477892E+03    0.83770E-04   -0.24572E-04  8787   0.470E-02    0.777E-02
RMM:   8    -0.640222505857E+03   -0.27965E-04   -0.20681E-04  8642   0.422E-02    0.112E-01
RMM:   9    -0.640222443532E+03    0.62325E-04   -0.85316E-05  6991   0.328E-02    0.490E-02
RMM:  10    -0.640222435686E+03    0.78454E-05   -0.34509E-05  5452   0.201E-02
  37 F= -.64022244E+03 E0= -.64014909E+03  d E =-.172099E-02
       N       E                     dE             d eps       ncg     rms          rms(c)
DAV:   1    -0.640193988024E+03    0.28456E-01   -0.19881E+00  8372   0.763E+00    0.302E-01
RMM:   2    -0.640222632769E+03   -0.28645E-01   -0.27224E-01 11482   0.149E+00    0.885E-01
RMM:   3    -0.640224064167E+03   -0.14314E-02   -0.40360E-02 11424   0.535E-01    0.443E-01
RMM:   4    -0.640224769093E+03   -0.70493E-03   -0.60207E-03 10772   0.224E-01    0.514E-01
RMM:   5    -0.640223564869E+03    0.12042E-02   -0.17337E-03  9569   0.142E-01    0.172E-01
RMM:   6    -0.640223633468E+03   -0.68599E-04   -0.10540E-03  9668   0.862E-02    0.190E-01
RMM:   7    -0.640223525871E+03    0.10760E-03   -0.61080E-04  9477   0.700E-02    0.150E-01
RMM:   8    -0.640223539748E+03   -0.13877E-04   -0.46553E-04  9083   0.645E-02    0.167E-01
RMM:   9    -0.640223432631E+03    0.10712E-03   -0.26189E-04  9036   0.493E-02    0.104E-01
RMM:  10    -0.640223382064E+03    0.50567E-04   -0.87156E-05  6264   0.304E-02    0.293E-02
RMM:  11    -0.640223385864E+03   -0.38009E-05   -0.37272E-05  5509   0.204E-02
  38 F= -.64022339E+03 E0= -.64015018E+03  d E =-.267116E-02
       N       E                     dE             d eps       ncg     rms          rms(c)
DAV:   1    -0.640221887410E+03    0.14947E-02   -0.28981E-01 10948   0.320E+00    0.410E-01
RMM:   2    -0.640249148203E+03   -0.27261E-01   -0.57838E-02 10092   0.857E-01    0.193E+00
RMM:   3    -0.640226411532E+03    0.22737E-01   -0.17207E-02  9251   0.545E-01    0.659E-01
RMM:   4    -0.640225262941E+03    0.11486E-02   -0.57676E-03 10612   0.224E-01    0.331E-01
RMM:   5    -0.640225094900E+03    0.16804E-03   -0.16586E-03 10157   0.118E-01    0.313E-01
RMM:   6    -0.640224733104E+03    0.36180E-03   -0.49770E-04  8860   0.748E-02    0.116E-01
RMM:   7    -0.640224729176E+03    0.39280E-05   -0.33301E-04  9000   0.486E-02    0.121E-01
RMM:   8    -0.640224679666E+03    0.49511E-04   -0.16357E-04  7476   0.459E-02    0.803E-02
RMM:   9    -0.640224655100E+03    0.24566E-04   -0.10354E-04  7668   0.297E-02    0.575E-02
RMM:  10    -0.640224653384E+03    0.17152E-05   -0.37161E-05  5421   0.249E-02
  39 F= -.64022465E+03 E0= -.64015170E+03  d E =-.126752E-02
       N       E                     dE             d eps       ncg     rms          rms(c)
DAV:   1    -0.640223362213E+03    0.12929E-02   -0.15356E-01 10920   0.233E+00    0.299E-01
RMM:   2    -0.640237700416E+03   -0.14338E-01   -0.30784E-02 10118   0.621E-01    0.139E+00
RMM:   3    -0.640225734172E+03    0.11966E-01   -0.89399E-03  9144   0.396E-01    0.473E-01
RMM:   4    -0.640225172069E+03    0.56210E-03   -0.30455E-03 10424   0.165E-01    0.245E-01
RMM:   5    -0.640225065867E+03    0.10620E-03   -0.87913E-04  9864   0.877E-02    0.220E-01
RMM:   6    -0.640224889138E+03    0.17673E-03   -0.27032E-04  8311   0.545E-02    0.844E-02
RMM:   7    -0.640224880206E+03    0.89323E-05   -0.16536E-04  7981   0.359E-02    0.801E-02
RMM:   8    -0.640224863870E+03    0.16335E-04   -0.81323E-05  6445   0.338E-02    0.612E-02
RMM:   9    -0.640224848923E+03    0.14947E-04   -0.52196E-05  6356   0.233E-02    0.400E-02
RMM:  10    -0.640224850373E+03   -0.14497E-05   -0.21391E-05  5084   0.203E-02
  40 F= -.64022485E+03 E0= -.64015211E+03  d E =-.146451E-02
       N       E                     dE             d eps       ncg     rms          rms(c)
DAV:   1    -0.640221471315E+03    0.33776E-02   -0.36388E-01 11088   0.371E+00    0.417E-01
RMM:   2    -0.640252707544E+03   -0.31236E-01   -0.69789E-02 10260   0.913E-01    0.207E+00
RMM:   3    -0.640228060249E+03    0.24647E-01   -0.19560E-02  9339   0.573E-01    0.766E-01
RMM:   4    -0.640226302006E+03    0.17582E-02   -0.69492E-03 10736   0.247E-01    0.330E-01
RMM:   5    -0.640226378995E+03   -0.76989E-04   -0.19559E-03  9969   0.127E-01    0.362E-01
RMM:   6    -0.640225810673E+03    0.56832E-03   -0.56501E-04  8827   0.893E-02    0.117E-01
RMM:   7    -0.640225864535E+03   -0.53862E-04   -0.44715E-04  9003   0.576E-02    0.162E-01
RMM:   8    -0.640225747688E+03    0.11685E-03   -0.20490E-04  8054   0.468E-02    0.717E-02
RMM:   9    -0.640225775765E+03   -0.28077E-04   -0.13653E-04  7678   0.360E-02    0.114E-01
RMM:  10    -0.640225711620E+03    0.64145E-04   -0.59307E-05  6031   0.295E-02    0.276E-02
RMM:  11    -0.640225713393E+03   -0.17729E-05   -0.25991E-05  5307   0.195E-02
  41 F= -.64022571E+03 E0= -.64015309E+03  d E =-.863020E-03
       N       E                     dE             d eps       ncg     rms          rms(c)
DAV:   1    -0.640225565370E+03    0.14625E-03   -0.14239E-02 11144   0.735E-01    0.849E-02
RMM:   2    -0.640226862961E+03   -0.12976E-02   -0.27663E-03  9978   0.183E-01    0.426E-01
RMM:   3    -0.640225828405E+03    0.10346E-02   -0.78875E-04  8289   0.119E-01    0.161E-01
RMM:   4    -0.640225748197E+03    0.80208E-04   -0.29067E-04  8886   0.592E-02    0.650E-02
RMM:   5    -0.640225752330E+03   -0.41338E-05   -0.78387E-05  6396   0.296E-02
  42 F= -.64022575E+03 E0= -.64015314E+03  d E =-.901958E-03
       N       E                     dE             d eps       ncg     rms          rms(c)
DAV:   1    -0.640225675147E+03    0.73049E-04   -0.56852E-02 11788   0.144E+00    0.237E-01
RMM:   2    -0.640234613743E+03   -0.89386E-02   -0.13602E-02  9815   0.460E-01    0.116E+00
RMM:   3    -0.640226764368E+03    0.78494E-02   -0.46743E-03  8930   0.304E-01    0.421E-01
RMM:   4    -0.640226129872E+03    0.63450E-03   -0.14424E-03 10224   0.127E-01    0.158E-01
RMM:   5    -0.640226204030E+03   -0.74158E-04   -0.54097E-04  9372   0.690E-02    0.221E-01
RMM:   6    -0.640225999124E+03    0.20491E-03   -0.16083E-04  7257   0.476E-02    0.645E-02
RMM:   7    -0.640226010242E+03   -0.11118E-04   -0.13103E-04  7636   0.343E-02    0.843E-02
RMM:   8    -0.640225976586E+03    0.33657E-04   -0.56442E-05  5857   0.283E-02    0.395E-02
RMM:   9    -0.640225966721E+03    0.98647E-05   -0.25952E-05  5143   0.203E-02
  43 F= -.64022597E+03 E0= -.64015328E+03  d E =-.214391E-03
       N       E                     dE             d eps       ncg     rms          rms(c)
DAV:   1    -0.640225960217E+03    0.16369E-04   -0.39019E-03 12320   0.377E-01    0.681E-02
RMM:   2    -0.640226857414E+03   -0.89720E-03   -0.10364E-03  9006   0.122E-01    0.385E-01
RMM:   3    -0.640226038286E+03    0.81913E-03   -0.37778E-04  7756   0.920E-02    0.119E-01
RMM:   4    -0.640225980396E+03    0.57889E-04   -0.10784E-04  7628   0.398E-02    0.452E-02
RMM:   5    -0.640225995219E+03   -0.14822E-04   -0.42283E-05  5612   0.241E-02    0.754E-02
RMM:   6    -0.640225970871E+03    0.24348E-04   -0.17302E-05  4950   0.218E-02    0.171E-02
RMM:   7    -0.640225973187E+03   -0.23161E-05   -0.92017E-06  4776   0.120E-02
  44 F= -.64022597E+03 E0= -.64015328E+03  d E =-.220857E-03
       N       E                     dE             d eps       ncg     rms          rms(c)
DAV:   1    -0.640225696078E+03    0.27479E-03   -0.30296E-02 10976   0.112E+00    0.108E-01
RMM:   2    -0.640227543350E+03   -0.18473E-02   -0.63682E-03 10757   0.260E-01    0.459E-01
RMM:   3    -0.640226247026E+03    0.12963E-02   -0.14189E-03  8820   0.155E-01    0.154E-01
RMM:   4    -0.640226244096E+03    0.29304E-05   -0.55397E-04  9504   0.746E-02    0.127E-01
RMM:   5    -0.640226205472E+03    0.38624E-04   -0.13742E-04  7528   0.399E-02    0.925E-02
RMM:   6    -0.640226172081E+03    0.33391E-04   -0.46946E-05  5537   0.283E-02    0.396E-02
RMM:   7    -0.640226164869E+03    0.72126E-05   -0.28629E-05  5232   0.213E-02
  45 F= -.64022616E+03 E0= -.64015348E+03  d E =-.191682E-03
       N       E                     dE             d eps       ncg     rms          rms(c)
DAV:   1    -0.640225512192E+03    0.65989E-03   -0.49219E-02 10976   0.143E+00    0.155E-01
RMM:   2    -0.640229894518E+03   -0.43823E-02   -0.10785E-02 10393   0.353E-01    0.796E-01
RMM:   3    -0.640226522143E+03    0.33724E-02   -0.27920E-03  8991   0.222E-01    0.256E-01
RMM:   4    -0.640226312842E+03    0.20930E-03   -0.98918E-04 10037   0.101E-01    0.112E-01
RMM:   5    -0.640226276554E+03    0.36289E-04   -0.25952E-04  8648   0.482E-02    0.975E-02
RMM:   6    -0.640226251923E+03    0.24631E-04   -0.75204E-05  6083   0.313E-02    0.595E-02
RMM:   7    -0.640226239272E+03    0.12651E-04   -0.50059E-05  6069   0.243E-02    0.367E-02
RMM:   8    -0.640226249964E+03   -0.10692E-04   -0.27897E-05  5269   0.222E-02    0.622E-02
RMM:   9    -0.640226233177E+03    0.16787E-04   -0.17676E-05  4892   0.198E-02    0.173E-02
RMM:  10    -0.640226235397E+03   -0.22205E-05   -0.93420E-06  4731   0.138E-02
  46 F= -.64022624E+03 E0= -.64015353E+03  d E =-.262210E-03
       N       E                     dE             d eps       ncg     rms          rms(c)
DAV:   1    -0.640226058372E+03    0.17481E-03   -0.21433E-02 11480   0.983E-01    0.855E-02
RMM:   2    -0.640227326162E+03   -0.12678E-02   -0.41385E-03 10391   0.208E-01    0.389E-01
RMM:   3    -0.640226455201E+03    0.87096E-03   -0.10067E-03  8605   0.127E-01    0.145E-01
RMM:   4    -0.640226414830E+03    0.40372E-04   -0.35538E-04  8962   0.593E-02    0.767E-02
RMM:   5    -0.640226406036E+03    0.87943E-05   -0.77357E-05  6200   0.311E-02
  47 F= -.64022641E+03 E0= -.64015374E+03  d E =-.170638E-03
       N       E                     dE             d eps       ncg     rms          rms(c)
DAV:   1    -0.640224662882E+03    0.17519E-02   -0.12093E-01 11312   0.233E+00    0.211E-01
RMM:   2    -0.640232093756E+03   -0.74309E-02   -0.23732E-02 10510   0.503E-01    0.959E-01
RMM:   3    -0.640226906133E+03    0.51876E-02   -0.58446E-03  9213   0.302E-01    0.350E-01
RMM:   4    -0.640226646627E+03    0.25951E-03   -0.20739E-03 10396   0.136E-01    0.185E-01
RMM:   5    -0.640226612144E+03    0.34483E-04   -0.54316E-04  9349   0.709E-02    0.193E-01
RMM:   6    -0.640226468032E+03    0.14411E-03   -0.15687E-04  7273   0.493E-02    0.696E-02
RMM:   7    -0.640226465086E+03    0.29458E-05   -0.14329E-04  7999   0.332E-02    0.753E-02
RMM:   8    -0.640226458032E+03    0.70544E-05   -0.61732E-05  6014   0.303E-02
  48 F= -.64022646E+03 E0= -.64015388E+03  d E =-.222635E-03
       N       E                     dE             d eps       ncg     rms          rms(c)
DAV:   1    -0.640226364261E+03    0.10083E-03   -0.75601E-03 11592   0.580E-01    0.582E-02
RMM:   2    -0.640227086950E+03   -0.72269E-03   -0.15400E-03  9794   0.132E-01    0.329E-01
RMM:   3    -0.640226489666E+03    0.59728E-03   -0.39954E-04  7933   0.876E-02    0.802E-02
RMM:   4    -0.640226475154E+03    0.14511E-04   -0.14103E-04  7742   0.413E-02    0.486E-02
RMM:   5    -0.640226479764E+03   -0.46097E-05   -0.31683E-05  5325   0.225E-02
  49 F= -.64022648E+03 E0= -.64015394E+03  d E =-.244367E-03
       N       E                     dE             d eps       ncg     rms          rms(c)
DAV:   1    -0.640226213783E+03    0.26137E-03   -0.17325E-02 11144   0.878E-01    0.812E-02
RMM:   2    -0.640227265107E+03   -0.10513E-02   -0.33806E-03 10375   0.189E-01    0.361E-01
RMM:   3    -0.640226507690E+03    0.75742E-03   -0.83631E-04  8616   0.117E-01    0.117E-01
RMM:   4    -0.640226484640E+03    0.23050E-04   -0.28580E-04  8684   0.546E-02    0.681E-02
RMM:   5    -0.640226456595E+03    0.28045E-04   -0.58639E-05  5934   0.276E-02    0.262E-02
RMM:   6    -0.640226466247E+03   -0.96512E-05   -0.25700E-05  5157   0.230E-02
  50 F= -.64022647E+03 E0= -.64015390E+03  d E =-.230850E-03
       N       E                     dE             d eps       ncg     rms          rms(c)
DAV:   1    -0.640226357711E+03    0.98884E-04   -0.11943E-02 11508   0.770E-01    0.707E-02
RMM:   2    -0.640227286231E+03   -0.92852E-03   -0.25034E-03  9902   0.164E-01    0.355E-01
RMM:   3    -0.640226601460E+03    0.68477E-03   -0.65790E-04  8259   0.107E-01    0.128E-01
RMM:   4    -0.640226554740E+03    0.46721E-04   -0.22299E-04  8397   0.499E-02    0.538E-02
RMM:   5    -0.640226560882E+03   -0.61419E-05   -0.51256E-05  5672   0.268E-02
  51 F= -.64022656E+03 E0= -.64015391E+03  d E =-.946349E-04
       N       E                     dE             d eps       ncg     rms          rms(c)
DAV:   1    -0.640226486018E+03    0.68722E-04   -0.70563E-03 11844   0.585E-01    0.598E-02
RMM:   2    -0.640227199945E+03   -0.71393E-03   -0.14777E-03  9559   0.129E-01    0.334E-01
RMM:   3    -0.640226634472E+03    0.56547E-03   -0.42047E-04  7809   0.870E-02    0.108E-01
RMM:   4    -0.640226595947E+03    0.38525E-04   -0.14769E-04  7581   0.434E-02    0.469E-02
RMM:   5    -0.640226602922E+03   -0.69753E-05   -0.39685E-05  5579   0.234E-02
  52 F= -.64022660E+03 E0= -.64015401E+03  d E =-.136675E-03
       N       E                     dE             d eps       ncg     rms          rms(c)
DAV:   1    -0.640226177038E+03    0.41891E-03   -0.27405E-02 11312   0.116E+00    0.105E-01
RMM:   2    -0.640228188013E+03   -0.20110E-02   -0.58030E-03 10376   0.247E-01    0.513E-01
RMM:   3    -0.640226738984E+03    0.14490E-02   -0.14714E-03  8700   0.152E-01    0.176E-01
RMM:   4    -0.640226661000E+03    0.77984E-04   -0.52621E-04  9184   0.729E-02    0.876E-02
RMM:   5    -0.640226659816E+03    0.11834E-05   -0.13223E-04  7315   0.370E-02    0.942E-02
RMM:   6    -0.640226625280E+03    0.34536E-04   -0.39838E-05  5425   0.261E-02    0.347E-02
RMM:   7    -0.640226625763E+03   -0.48298E-06   -0.26306E-05  5188   0.204E-02
  53 F= -.64022663E+03 E0= -.64015407E+03  d E =-.159517E-03
       N       E                     dE             d eps       ncg     rms          rms(c)
DAV:   1    -0.640226612771E+03    0.12509E-04   -0.47083E-04 12152   0.150E-01    0.248E-02
RMM:   2    -0.640226811029E+03   -0.19826E-03   -0.15193E-04  7232   0.434E-02    0.197E-01
RMM:   3    -0.640226620578E+03    0.19045E-03   -0.58135E-05  5750   0.368E-02    0.260E-02
RMM:   4    -0.640226620614E+03   -0.36031E-07   -0.12890E-05  4908   0.160E-02
  54 F= -.64022662E+03 E0= -.64015407E+03  d E =-.154368E-03
       N       E                     dE             d eps       ncg     rms          rms(c)
DAV:   1    -0.640226614307E+03    0.62714E-05   -0.23557E-04 12152   0.111E-01    0.106E-02
RMM:   2    -0.640226645478E+03   -0.31171E-04   -0.40491E-05  5269   0.222E-02    0.801E-02
RMM:   3    -0.640226616710E+03    0.28769E-04   -0.16312E-05  5023   0.235E-02    0.134E-02
RMM:   4    -0.640226616545E+03    0.16516E-06   -0.39477E-06  4104   0.817E-03
  55 F= -.64022662E+03 E0= -.64015407E+03  d E =-.150298E-03
       N       E                     dE             d eps       ncg     rms          rms(c)
DAV:   1    -0.640226614666E+03    0.20442E-05   -0.51971E-05  7980   0.566E-02    0.878E-03
RMM:   2    -0.640226641198E+03   -0.26533E-04   -0.20212E-05  5125   0.194E-02    0.747E-02
RMM:   3    -0.640226616295E+03    0.24903E-04   -0.95389E-06  4607   0.171E-02    0.114E-02
RMM:   4    -0.640226615844E+03    0.45140E-06   -0.23740E-06  3732   0.578E-03
  56 F= -.64022662E+03 E0= -.64015406E+03  d E =-.149597E-03
       N       E                     dE             d eps       ncg     rms          rms(c)
DAV:   1    -0.640226616071E+03    0.22403E-06   -0.11044E-05  5488   0.299E-02    0.708E-03
RMM:   2    -0.640226628905E+03   -0.12833E-04   -0.94617E-06  4677   0.141E-02    0.484E-02
RMM:   3    -0.640226616717E+03    0.12187E-04   -0.47519E-06  3978   0.121E-02    0.125E-02
RMM:   4    -0.640226615977E+03    0.74062E-06   -0.90321E-07  3297   0.396E-03
  57 F= -.64022662E+03 E0= -.64015406E+03  d E =-.149730E-03
       N       E                     dE             d eps       ncg     rms          rms(c)
DAV:   1    -0.640226615664E+03    0.10536E-05   -0.27205E-06  5096   0.149E-02    0.355E-03
RMM:   2    -0.640226620856E+03   -0.51920E-05   -0.23881E-06  3800   0.705E-03
  58 F= -.64022662E+03 E0= -.64015409E+03  d E =-.154609E-03
       N       E                     dE             d eps       ncg     rms          rms(c)
DAV:   1    -0.640226616093E+03   -0.42895E-06   -0.16240E-05  5096   0.215E-02    0.366E-03
RMM:   2    -0.640226621307E+03   -0.52141E-05   -0.18607E-06  3553   0.594E-03
  59 F= -.64022662E+03 E0= -.64015407E+03  d E =-.155060E-03
       N       E                     dE             d eps       ncg     rms          rms(c)
DAV:   1    -0.640226615853E+03    0.23987E-06   -0.16675E-05  5096   0.190E-02    0.393E-03
RMM:   2    -0.640226622021E+03   -0.61682E-05   -0.18557E-06  3108   0.594E-03
  60 F= -.64022662E+03 E0= -.64015409E+03  d E =-.155775E-03
       N       E                     dE             d eps       ncg     rms          rms(c)
DAV:   1    -0.640226616147E+03   -0.29400E-06   -0.19453E-05  5096   0.189E-02    0.413E-03
RMM:   2    -0.640226622317E+03   -0.61698E-05   -0.20849E-06  3085   0.625E-03
  61 F= -.64022662E+03 E0= -.64015407E+03  d E =-.156070E-03
       N       E                     dE             d eps       ncg     rms          rms(c)
DAV:   1    -0.640226615957E+03    0.19040E-06   -0.19284E-05  5096   0.192E-02    0.525E-03
RMM:   2    -0.640226626491E+03   -0.10535E-04   -0.34607E-06  3133   0.773E-03    0.480E-02
RMM:   3    -0.640226616306E+03    0.10185E-04   -0.26348E-06  3056   0.807E-03    0.882E-03
RMM:   4    -0.640226615799E+03    0.50740E-06   -0.29020E-07  2683   0.232E-03
  62 F= -.64022662E+03 E0= -.64015406E+03  d E =-.149552E-03
       N       E                     dE             d eps       ncg     rms          rms(c)
DAV:   1    -0.640226516786E+03    0.99520E-04   -0.64187E-03  8708   0.561E-01    0.202E-02
RMM:   2    -0.640226649280E+03   -0.13249E-03   -0.13451E-03 10904   0.983E-02    0.324E-02
RMM:   3    -0.640226671907E+03   -0.22627E-04   -0.19885E-04  6926   0.419E-02    0.437E-02
RMM:   4    -0.640226672421E+03   -0.51418E-06   -0.25336E-05  5209   0.248E-02
  63 F= -.64022667E+03 E0= -.64015413E+03  d E =-.566219E-04
       N       E                     dE             d eps       ncg     rms          rms(c)
DAV:   1    -0.640226569415E+03    0.10249E-03   -0.60900E-03  8792   0.539E-01    0.223E-02
RMM:   2    -0.640226725237E+03   -0.15582E-03   -0.12518E-03 10829   0.974E-02    0.915E-02
RMM:   3    -0.640226707827E+03    0.17409E-04   -0.18837E-04  6790   0.438E-02    0.331E-02
RMM:   4    -0.640226711522E+03   -0.36948E-05   -0.37600E-05  5450   0.251E-02
  64 F= -.64022671E+03 E0= -.64015418E+03  d E =-.957233E-04
       N       E                     dE             d eps       ncg     rms          rms(c)
DAV:   1    -0.640226745159E+03   -0.37332E-04   -0.26323E-03 12264   0.317E-01    0.747E-02
RMM:   2    -0.640227627619E+03   -0.88246E-03   -0.98007E-04  8611   0.129E-01    0.367E-01
RMM:   3    -0.640226788427E+03    0.83919E-03   -0.40436E-04  7652   0.951E-02    0.108E-01
RMM:   4    -0.640226742237E+03    0.46190E-04   -0.93101E-05  7721   0.359E-02    0.436E-02
RMM:   5    -0.640226733224E+03    0.90133E-05   -0.29665E-05  5347   0.199E-02
  65 F= -.64022673E+03 E0= -.64015420E+03  d E =-.217016E-04
       N       E                     dE             d eps       ncg     rms          rms(c)
DAV:   1    -0.640226742748E+03   -0.51055E-06   -0.16616E-03 12012   0.265E-01    0.589E-02
RMM:   2    -0.640227281032E+03   -0.53828E-03   -0.58710E-04  8177   0.999E-02    0.296E-01
RMM:   3    -0.640226776240E+03    0.50479E-03   -0.24563E-04  7114   0.751E-02    0.897E-02
RMM:   4    -0.640226745594E+03    0.30646E-04   -0.58075E-05  6378   0.298E-02    0.419E-02
RMM:   5    -0.640226753020E+03   -0.74267E-05   -0.25403E-05  5320   0.210E-02
  66 F= -.64022675E+03 E0= -.64015426E+03  d E =-.414982E-04
       N       E                     dE             d eps       ncg     rms          rms(c)
DAV:   1    -0.640226738470E+03    0.71238E-05   -0.66764E-03 11984   0.520E-01    0.109E-01
RMM:   2    -0.640228542238E+03   -0.18038E-02   -0.20997E-03  9205   0.187E-01    0.536E-01
RMM:   3    -0.640226919042E+03    0.16232E-02   -0.84862E-04  8137   0.129E-01    0.212E-01
RMM:   4    -0.640226751563E+03    0.16748E-03   -0.23785E-04  8351   0.603E-02    0.782E-02
RMM:   5    -0.640226750845E+03    0.71746E-06   -0.91898E-05  7039   0.293E-02
  67 F= -.64022675E+03 E0= -.64015431E+03  d E =-.393233E-04
       N       E                     dE             d eps       ncg     rms          rms(c)
DAV:   1    -0.640226735131E+03    0.16432E-04   -0.10760E-03 11984   0.201E-01    0.442E-02
RMM:   2    -0.640227276667E+03   -0.54154E-03   -0.39045E-04  8015   0.786E-02    0.322E-01
RMM:   3    -0.640226762288E+03    0.51438E-03   -0.16425E-04  6875   0.617E-02    0.768E-02
RMM:   4    -0.640226733318E+03    0.28970E-04   -0.38846E-05  5800   0.256E-02    0.335E-02
RMM:   5    -0.640226740301E+03   -0.69824E-05   -0.18256E-05  5043   0.186E-02
  68 F= -.64022674E+03 E0= -.64015429E+03  d E =-.287786E-04
       N       E                     dE             d eps       ncg     rms          rms(c)
DAV:   1    -0.640226741142E+03   -0.78237E-05   -0.12640E-03 12068   0.221E-01    0.411E-02
RMM:   2    -0.640226962957E+03   -0.22182E-03   -0.32423E-04  7936   0.728E-02    0.177E-01
RMM:   3    -0.640226747342E+03    0.21561E-03   -0.12206E-04  6667   0.525E-02    0.454E-02
RMM:   4    -0.640226745593E+03    0.17493E-05   -0.34429E-05  5607   0.230E-02
  69 F= -.64022675E+03 E0= -.64015422E+03  d E =-.340709E-04
       N       E                     dE             d eps       ncg     rms          rms(c)
DAV:   1    -0.640226744117E+03    0.32254E-05   -0.98059E-05 10752   0.598E-02    0.308E-02
RMM:   2    -0.640227107191E+03   -0.36307E-03   -0.14292E-04  6789   0.484E-02    0.286E-01
RMM:   3    -0.640226750938E+03    0.35625E-03   -0.74593E-05  5996   0.419E-02    0.397E-02
RMM:   4    -0.640226739795E+03    0.11143E-04   -0.70096E-06  4067   0.132E-02    0.157E-02
RMM:   5    -0.640226740493E+03   -0.69815E-06   -0.33553E-06  3935   0.857E-03
  70 F= -.64022674E+03 E0= -.64015425E+03  d E =-.289708E-04
       N       E                     dE             d eps       ncg     rms          rms(c)
DAV:   1    -0.640226739035E+03    0.76027E-06   -0.30118E-05  7084   0.366E-02    0.838E-03
RMM:   2    -0.640226747575E+03   -0.85409E-05   -0.11484E-05  4666   0.147E-02
  71 F= -.64022675E+03 E0= -.64015426E+03  d E =-.360533E-04
       N       E                     dE             d eps       ncg     rms          rms(c)
DAV:   1    -0.640226738705E+03    0.32944E-06   -0.40490E-05  5488   0.418E-02    0.137E-02
RMM:   2    -0.640226805339E+03   -0.66634E-04   -0.29046E-05  5294   0.241E-02    0.119E-01
RMM:   3    -0.640226740147E+03    0.65191E-04   -0.16046E-05  4956   0.216E-02    0.154E-02
RMM:   4    -0.640226738244E+03    0.19037E-05   -0.20983E-06  3768   0.641E-03
  72 F= -.64022674E+03 E0= -.64015423E+03  d E =-.267214E-04
       N       E                     dE             d eps       ncg     rms          rms(c)
DAV:   1    -0.640226738366E+03    0.17808E-05   -0.31183E-06  4928   0.928E-03    0.841E-03
RMM:   2    -0.640226768598E+03   -0.30232E-04   -0.10502E-05  4220   0.129E-02    0.843E-02
RMM:   3    -0.640226738820E+03    0.29779E-04   -0.69451E-06  3618   0.138E-02    0.933E-03
RMM:   4    -0.640226738020E+03    0.79978E-06   -0.49442E-07  2860   0.310E-03
  73 F= -.64022674E+03 E0= -.64015424E+03  d E =-.264978E-04
       N       E                     dE             d eps       ncg     rms          rms(c)
DAV:   1    -0.640226723829E+03    0.14991E-04   -0.10459E-03  8568   0.214E-01    0.121E-02
RMM:   2    -0.640226760426E+03   -0.36597E-04   -0.23834E-04  8881   0.424E-02    0.511E-02
RMM:   3    -0.640226749850E+03    0.10575E-04   -0.40007E-05  5347   0.251E-02    0.174E-02
RMM:   4    -0.640226749865E+03   -0.14741E-07   -0.69887E-06  4661   0.127E-02
  74 F= -.64022675E+03 E0= -.64015426E+03  d E =-.118452E-04
