<?xml version="1.0" encoding="ISO-8859-1"?>
<modeling>
 <generator>
  <i name="program" type="string">vasp </i>
  <i name="version" type="string">6.4.3  </i>
  <i name="subversion" type="string">19Mar24 (build Sep 18 2024 11:30:23) complex                          parallel </i>
  <i name="platform" type="string">LinuxIFC </i>
  <i name="date" type="string">2026 07 06 </i>
  <i name="time" type="string">22:42:27 </i>
 </generator>
 <incar>
  <i type="string" name="SYSTEM">HECN</i>
  <i type="int" name="ISTART">     0</i>
  <i type="string" name="PREC">Normal</i>
  <i type="string" name="ALGO">Fast</i>
  <i type="int" name="ICHARG">     2</i>
  <i type="int" name="NELM">    60</i>
  <i type="int" name="IBRION">     2</i>
  <i name="EDIFF">      0.00001000</i>
  <i name="EDIFFG">     -0.01000000</i>
  <i type="int" name="NSW">   100</i>
  <i type="int" name="ISIF">     3</i>
  <i name="ENCUT">    400.00000000</i>
  <i name="POTIM">      0.50000000</i>
  <i type="logical" name="LREAL"> F  </i>
  <i type="int" name="ISMEAR">     0</i>
  <i name="SIGMA">      0.10000000</i>
  <i type="logical" name="LWAVE"> F  </i>
  <i type="logical" name="LCHARG"> F  </i>
 </incar>
 <primitive_cell>
  <structure name="primitive_cell" >
   <crystal>
    <varray name="basis" >
     <v>       8.87556428       0.04747304      -0.02089797 </v>
     <v>       0.05431843       8.82708738      -0.00006640 </v>
     <v>       0.01121056      -0.01479104       8.96850360 </v>
    </varray>
    <i name="volume">    702.61978525 </i>
    <varray name="rec_basis" >
     <v>       0.11267227      -0.00069334      -0.00014198 </v>
     <v>      -0.00060552       0.11329138       0.00018760 </v>
     <v>       0.00026254      -0.00000078       0.11150099 </v>
    </varray>
   </crystal>
   <varray name="positions" >
    <v>       0.00201857       0.98605513       0.00084700 </v>
    <v>       0.26802231       0.99671435       0.24448130 </v>
    <v>       0.25430415       0.49846794       0.24804504 </v>
    <v>       0.49861841       0.49273623       0.00183663 </v>
    <v>       0.49931226       0.24474696       0.75312146 </v>
    <v>       0.99685971       0.49764380       0.50804066 </v>
    <v>       0.49510599       0.75866943       0.74533812 </v>
    <v>       0.99538901       0.24434756       0.25014553 </v>
    <v>       0.74551607       0.75115223       0.01019679 </v>
    <v>       0.99963511       0.24574335       0.74927208 </v>
    <v>       0.74910422       0.23491606       0.50123949 </v>
    <v>       0.99742082       0.75808905       0.74825539 </v>
    <v>       0.24811539       0.49944550       0.75215153 </v>
    <v>       0.25934124       0.24562065       0.99244691 </v>
    <v>       0.50701763       0.25203961       0.24051481 </v>
    <v>       0.76193553       0.99329827       0.23815631 </v>
    <v>       0.75153212       0.26026343       0.00568377 </v>
    <v>       0.24419580       0.74533220       0.00088063 </v>
    <v>       0.24693885       0.24568117       0.50884714 </v>
    <v>       0.25707364       0.75114241       0.49328525 </v>
    <v>       0.25130830       0.24747895       0.24904312 </v>
    <v>       0.26052161       0.99870290       0.98936887 </v>
    <v>       0.00061262       0.25033924       0.00039763 </v>
    <v>       0.74761621       0.24231317       0.24899410 </v>
    <v>       0.73978002       0.00095321       0.00419607 </v>
    <v>       0.51169100       0.00661034       0.26588097 </v>
    <v>       0.99474451       0.49835500       0.24334778 </v>
    <v>       0.49493810       0.76365111       0.00806358 </v>
    <v>       0.99763164       0.00284016       0.74470677 </v>
    <v>       0.75452414       0.24385299       0.75244318 </v>
    <v>       0.76369395       0.99853166       0.49408537 </v>
    <v>       0.49947274       0.24334158       0.49179031 </v>
    <v>       0.51126860       0.00357752       0.74470767 </v>
    <v>       0.99970617       0.99999762       0.25092537 </v>
    <v>       0.50209955       0.23752429       0.00572573 </v>
    <v>       0.25447222       0.74868284       0.24948416 </v>
    <v>       0.23927279       0.50026429       0.99714625 </v>
    <v>       0.00164371       0.74089747       0.00432776 </v>
    <v>       0.74625495       0.74975395       0.25405831 </v>
    <v>       0.76154189       0.49434001       0.00636233 </v>
    <v>       0.49905318       0.50091766       0.25274895 </v>
    <v>       0.24757861       0.24401717       0.74992071 </v>
    <v>       0.25603346       0.99997026       0.51089561 </v>
    <v>       0.00254671       0.24541491       0.49849775 </v>
    <v>       0.24613517       0.75787680       0.75162800 </v>
    <v>       0.25575241       0.49984928       0.50162499 </v>
    <v>       0.99829591       0.75667727       0.49516199 </v>
    <v>       0.99603848       0.50146864       0.75693641 </v>
    <v>       0.75042963       0.75659346       0.74568365 </v>
    <v>       0.74274307       0.49568820       0.50545972 </v>
    <v>       0.49935325       0.76737965       0.48329262 </v>
    <v>       0.50437293       0.50146297       0.74331611 </v>
    <v>       0.51328695       0.01751329       0.96894241 </v>
    <v>       0.00124869       0.51964560       0.97838112 </v>
    <v>       0.47398248       0.72771840       0.26127597 </v>
    <v>       0.24944763       0.00337721       0.75555171 </v>
    <v>       0.45955156       0.99014865       0.51672025 </v>
    <v>       0.72764952       0.97460951       0.78165858 </v>
    <v>       0.01982266       0.76758216       0.25480549 </v>
    <v>       0.72818055       0.51106831       0.24982332 </v>
    <v>       0.02706732       0.00203193       0.48412064 </v>
    <v>       0.50333410       0.52776223       0.49344037 </v>
    <v>       0.75154710       0.52129020       0.76782114 </v>
    <v>       0.73629745       0.73582237       0.49445146 </v>
   </varray>
  </structure>
  <varray name="primitive_index" >
   <v type="int" >        1 </v>
   <v type="int" >        2 </v>
   <v type="int" >        3 </v>
   <v type="int" >        4 </v>
   <v type="int" >        5 </v>
   <v type="int" >        6 </v>
   <v type="int" >        7 </v>
   <v type="int" >        8 </v>
   <v type="int" >        9 </v>
   <v type="int" >       10 </v>
   <v type="int" >       11 </v>
   <v type="int" >       12 </v>
   <v type="int" >       13 </v>
   <v type="int" >       14 </v>
   <v type="int" >       15 </v>
   <v type="int" >       16 </v>
   <v type="int" >       17 </v>
   <v type="int" >       18 </v>
   <v type="int" >       19 </v>
   <v type="int" >       20 </v>
   <v type="int" >       21 </v>
   <v type="int" >       22 </v>
   <v type="int" >       23 </v>
   <v type="int" >       24 </v>
   <v type="int" >       25 </v>
   <v type="int" >       26 </v>
   <v type="int" >       27 </v>
   <v type="int" >       28 </v>
   <v type="int" >       29 </v>
   <v type="int" >       30 </v>
   <v type="int" >       31 </v>
   <v type="int" >       32 </v>
   <v type="int" >       33 </v>
   <v type="int" >       34 </v>
   <v type="int" >       35 </v>
   <v type="int" >       36 </v>
   <v type="int" >       37 </v>
   <v type="int" >       38 </v>
   <v type="int" >       39 </v>
   <v type="int" >       40 </v>
   <v type="int" >       41 </v>
   <v type="int" >       42 </v>
   <v type="int" >       43 </v>
   <v type="int" >       44 </v>
   <v type="int" >       45 </v>
   <v type="int" >       46 </v>
   <v type="int" >       47 </v>
   <v type="int" >       48 </v>
   <v type="int" >       49 </v>
   <v type="int" >       50 </v>
   <v type="int" >       51 </v>
   <v type="int" >       52 </v>
   <v type="int" >       53 </v>
   <v type="int" >       54 </v>
   <v type="int" >       55 </v>
   <v type="int" >       56 </v>
   <v type="int" >       57 </v>
   <v type="int" >       58 </v>
   <v type="int" >       59 </v>
   <v type="int" >       60 </v>
   <v type="int" >       61 </v>
   <v type="int" >       62 </v>
   <v type="int" >       63 </v>
   <v type="int" >       64 </v>
  </varray>
 </primitive_cell>
 <kpoints>
  <generation param="Gamma">
   <v type="int" name="divisions">       3        3        3 </v>
   <v name="usershift">      0.00000000       0.00000000       0.00000000 </v>
   <v name="genvec1">      0.33333333      -0.00000000       0.00000000 </v>
   <v name="genvec2">     -0.00000000       0.33333333       0.00000000 </v>
   <v name="genvec3">     -0.00000000      -0.00000000       0.33333333 </v>
   <v name="shift">      0.00000000       0.00000000       0.00000000 </v>
  </generation>
  <varray name="kpointlist" >
   <v>       0.00000000       0.00000000       0.00000000 </v>
   <v>       0.33333333       0.00000000      -0.00000000 </v>
   <v>      -0.00000000       0.33333333      -0.00000000 </v>
   <v>       0.33333333       0.33333333       0.00000000 </v>
   <v>      -0.33333333       0.33333333       0.00000000 </v>
   <v>       0.00000000      -0.00000000       0.33333333 </v>
   <v>       0.33333333       0.00000000       0.33333333 </v>
   <v>      -0.33333333       0.00000000       0.33333333 </v>
   <v>      -0.00000000       0.33333333       0.33333333 </v>
   <v>       0.33333333       0.33333333       0.33333333 </v>
   <v>      -0.33333333       0.33333333       0.33333333 </v>
   <v>       0.00000000      -0.33333333       0.33333333 </v>
   <v>       0.33333333      -0.33333333       0.33333333 </v>
   <v>      -0.33333333      -0.33333333       0.33333333 </v>
  </varray>
  <varray name="weights" >
   <v>       0.03703704 </v>
   <v>       0.07407407 </v>
   <v>       0.07407407 </v>
   <v>       0.07407407 </v>
   <v>       0.07407407 </v>
   <v>       0.07407407 </v>
   <v>       0.07407407 </v>
   <v>       0.07407407 </v>
   <v>       0.07407407 </v>
   <v>       0.07407407 </v>
   <v>       0.07407407 </v>
   <v>       0.07407407 </v>
   <v>       0.07407407 </v>
   <v>       0.07407407 </v>
  </varray>
 </kpoints>
 <parameters>
  <separator name="general" >
   <i type="string" name="SYSTEM">HECN</i>
   <i type="logical" name="LCOMPAT"> F  </i>
  </separator>
  <separator name="electronic" >
   <i type="string" name="PREC">normal</i>
   <i name="ENMAX">    400.00000000</i>
   <i name="ENAUG">    644.87300000</i>
   <i name="EDIFF">      0.00001000</i>
   <i type="int" name="IALGO">    68</i>
   <i type="int" name="IWAVPR">    11</i>
   <i type="int" name="NBANDS">   280</i>
   <i type="int" name="NBANDSLOW">    -1</i>
   <i type="int" name="NBANDSHIGH">    -1</i>
   <i name="NELECT">    443.00000000</i>
   <i type="int" name="TURBO">     0</i>
   <i type="int" name="IRESTART">     0</i>
   <i type="int" name="NREBOOT">     0</i>
   <i type="int" name="NMIN">     0</i>
   <i name="EREF">      0.00000000</i>
   <separator name="electronic smearing" >
    <i type="int" name="ISMEAR">     0</i>
    <i name="SIGMA">      0.10000000</i>
    <i name="KSPACING">      0.50000000</i>
    <i type="logical" name="KGAMMA"> T  </i>
    <i type="logical" name="KBLOWUP"> T  </i>
   </separator>
   <separator name="electronic projectors" >
    <i type="logical" name="LREAL"> F  </i>
    <v name="ROPT">      0.00000000      0.00000000      0.00000000      0.00000000      0.00000000      0.00000000      0.00000000</v>
    <i type="int" name="LMAXPAW">  -100</i>
    <i type="int" name="LMAXMIX">     2</i>
    <i type="logical" name="NLSPLINE"> F  </i>
   </separator>
   <separator name="electronic startup" >
    <i type="int" name="ISTART">     0</i>
    <i type="int" name="ICHARG">     2</i>
    <i type="int" name="INIWAV">     1</i>
   </separator>
   <separator name="electronic spin" >
    <i type="int" name="ISPIN">     1</i>
    <i type="logical" name="LNONCOLLINEAR"> F  </i>
    <v name="MAGMOM">      1.00000000      1.00000000      1.00000000      1.00000000      1.00000000      1.00000000      1.00000000      1.00000000      1.00000000      1.00000000      1.00000000      1.00000000      1.00000000      1.00000000      1.00000000      1.00000000      1.00000000      1.00000000      1.00000000      1.00000000
      1.00000000      1.00000000      1.00000000      1.00000000      1.00000000      1.00000000      1.00000000      1.00000000      1.00000000      1.00000000      1.00000000      1.00000000      1.00000000      1.00000000      1.00000000      1.00000000      1.00000000      1.00000000      1.00000000      1.00000000
      1.00000000      1.00000000      1.00000000      1.00000000      1.00000000      1.00000000      1.00000000      1.00000000      1.00000000      1.00000000      1.00000000      1.00000000      1.00000000      1.00000000      1.00000000      1.00000000      1.00000000      1.00000000      1.00000000      1.00000000
      1.00000000      1.00000000      1.00000000      1.00000000</v>
    <i name="NUPDOWN">     -1.00000000</i>
    <i type="logical" name="LSORBIT"> F  </i>
    <v name="SAXIS">      0.00000000      0.00000000      1.00000000</v>
    <i type="logical" name="LSPIRAL"> F  </i>
    <v name="QSPIRAL">      0.00000000      0.00000000      0.00000000</v>
    <i type="logical" name="LZEROZ"> F  </i>
   </separator>
   <separator name="electronic exchange-correlation" >
    <i type="logical" name="LASPH"> F  </i>
   </separator>
   <separator name="electronic convergence" >
    <i type="int" name="NELM">    60</i>
    <i type="int" name="NELMDL">    -5</i>
    <i type="int" name="NELMIN">     2</i>
    <i name="ENINI">    400.00000000</i>
    <separator name="electronic convergence detail" >
     <i type="logical" name="LDIAG"> T  </i>
     <i type="logical" name="LSUBROT"> F  </i>
     <i name="WEIMIN">      0.00100000</i>
     <i name="EBREAK">      0.00000001</i>
     <i name="DEPER">      0.30000000</i>
     <i type="int" name="NRMM">     4</i>
     <i name="TIME">      0.40000000</i>
    </separator>
   </separator>
   <separator name="electronic mixer" >
    <i name="AMIX">      0.40000000</i>
    <i name="BMIX">      1.00000000</i>
    <i name="AMIN">      0.10000000</i>
    <i name="AMIX_MAG">      1.60000000</i>
    <i name="BMIX_MAG">      1.00000000</i>
    <separator name="electronic mixer details" >
     <i type="int" name="IMIX">     4</i>
     <i type="logical" name="MIXFIRST"> F  </i>
     <i type="int" name="MAXMIX">   -45</i>
     <i name="WC">    100.00000000</i>
     <i type="int" name="INIMIX">     1</i>
     <i type="int" name="MIXPRE">     1</i>
     <i type="int" name="MREMOVE">     5</i>
    </separator>
   </separator>
   <separator name="electronic dipolcorrection" >
    <i type="logical" name="LDIPOL"> F  </i>
    <i type="logical" name="LMONO"> F  </i>
    <i type="int" name="IDIPOL">     0</i>
    <i name="EPSILON">      1.00000000</i>
    <v name="DIPOL">   -100.00000000   -100.00000000   -100.00000000</v>
    <i name="EFIELD">      0.00000000</i>
    <i type="logical" name="LVACPOTAV"> F  </i>
   </separator>
  </separator>
  <separator name="grids" >
   <i type="int" name="NGX">    48</i>
   <i type="int" name="NGY">    48</i>
   <i type="int" name="NGZ">    48</i>
   <i type="int" name="NGXF">    96</i>
   <i type="int" name="NGYF">    96</i>
   <i type="int" name="NGZF">    96</i>
   <i type="logical" name="ADDGRID"> F  </i>
  </separator>
  <separator name="ionic" >
   <i type="int" name="NSW">   100</i>
   <i type="int" name="IBRION">     2</i>
   <i type="int" name="MDALGO">     0</i>
   <i type="int" name="ISIF">     3</i>
   <i name="PSTRESS">      0.00000000</i>
   <i name="EDIFFG">     -0.01000000</i>
   <i type="int" name="NFREE">     1</i>
   <i name="POTIM">      0.50000000</i>
   <i name="SMASS">     -3.00000000</i>
   <i name="SCALEE">      1.00000000</i>
  </separator>
  <separator name="ionic md" >
   <i name="TEBEG">      0.00010000</i>
   <i name="TEEND">      0.00010000</i>
   <i type="int" name="NBLOCK">     1</i>
   <i type="int" name="KBLOCK">   100</i>
   <i type="int" name="NPACO">   256</i>
   <i name="APACO">     10.00000000</i>
  </separator>
  <separator name="symmetry" >
   <i type="int" name="ISYM">     2</i>
   <i name="SYMPREC">      0.00001000</i>
  </separator>
  <separator name="dos" >
   <i type="int" name="LORBIT">     0</i>
   <v name="RWIGS">     -1.00000000     -1.00000000     -1.00000000     -1.00000000     -1.00000000     -1.00000000     -1.00000000</v>
   <i type="int" name="NEDOS">   301</i>
   <i name="EMIN">     10.00000000</i>
   <i name="EMAX">    -10.00000000</i>
   <i name="EFERMI">      0.00000000</i>
  </separator>
  <separator name="writing" >
   <i type="int" name="NWRITE">     2</i>
   <i type="logical" name="LWAVE"> F  </i>
   <i type="logical" name="LDOWNSAMPLE"> F  </i>
   <i type="logical" name="LCHARG"> F  </i>
   <i type="logical" name="LPARD"> F  </i>
   <i type="logical" name="LVTOT"> F  </i>
   <i type="logical" name="LVHAR"> F  </i>
   <i type="logical" name="LELF"> F  </i>
   <i type="logical" name="LOPTICS"> F  </i>
   <v name="STM">      0.00000000      0.00000000      0.00000000      0.00000000      0.00000000      0.00000000      0.00000000</v>
  </separator>
  <separator name="performance" >
   <i type="int" name="NPAR">    28</i>
   <i type="int" name="NSIM">     4</i>
   <i type="int" name="NBLK">    -1</i>
   <i type="logical" name="LPLANE"> T  </i>
   <i type="logical" name="LSCALAPACK"> T  </i>
   <i type="logical" name="LSCAAWARE"> F  </i>
   <i type="logical" name="LSCALU"> F  </i>
   <i type="logical" name="LASYNC"> F  </i>
   <i type="logical" name="LORBITALREAL"> F  </i>
  </separator>
  <separator name="miscellaneous" >
   <i type="int" name="IDIOT">     3</i>
   <i type="int" name="PHON_NSTRUCT">    -1</i>
   <i type="logical" name="LMUSIC"> F  </i>
   <v name="POMASS">     91.22400000    178.49000000     47.88000000     14.00100000     12.01100000     51.99600000    183.85000000</v>
   <v name="DARWINR">      0.00000000      0.00000000      0.00000000      0.00000000      0.00000000      0.00000000      0.00000000</v>
   <v name="DARWINV">      1.00000000      1.00000000      1.00000000      1.00000000      1.00000000      1.00000000      1.00000000</v>
   <i type="logical" name="LCORR"> T  </i>
  </separator>
  <i type="logical" name="GGA_COMPAT"> T  </i>
  <i type="logical" name="LBERRY"> F  </i>
  <i type="int" name="ICORELEVEL">     0</i>
  <i type="logical" name="LDAU"> F  </i>
  <i type="int" name="I_CONSTRAINED_M">     0</i>
  <separator name="electronic exchange-correlation" >
   <i type="string" name="GGA    ">PE</i>
   <i type="string" name="XC_C">1</i>
   <i type="int" name="VOSKOWN">     0</i>
   <i type="logical" name="LHFCALC"> F  </i>
   <i type="string" name="PRECFOCK"></i>
   <i type="logical" name="LSYMGRAD"> F  </i>
   <i type="logical" name="LHFONE"> F  </i>
   <i type="logical" name="LRHFCALC"> F  </i>
   <i type="logical" name="LTHOMAS"> F  </i>
   <i type="logical" name="LMODELHF"> F  </i>
   <i type="logical" name="LFOCKACE"> F  </i>
   <i name="ENCUT4O">     -1.00000000</i>
   <i type="int" name="EXXOEP">     0</i>
   <i type="int" name="FOURORBIT">     0</i>
   <i name="AEXX">      0.00000000</i>
   <i name="HFALPHA">      0.00000000</i>
   <i name="MCALPHA">      0.00000000</i>
   <i name="ALDAX">      1.00000000</i>
   <i name="AGGAX">      1.00000000</i>
   <i name="AMGGAX">      1.00000000</i>
   <i name="ALDAC">      1.00000000</i>
   <i name="AGGAC">      1.00000000</i>
   <i name="AMGGAC">      1.00000000</i>
   <i type="int" name="NKREDX">     1</i>
   <i type="int" name="NKREDY">     1</i>
   <i type="int" name="NKREDZ">     1</i>
   <i type="logical" name="SHIFTRED"> F  </i>
   <i type="logical" name="ODDONLY"> F  </i>
   <i type="logical" name="EVENONLY"> F  </i>
   <i type="int" name="LMAXFOCK">     0</i>
   <i type="int" name="NMAXFOCKAE">     0</i>
   <i type="logical" name="LFOCKAEDFT"> F  </i>
   <i name="HFSCREEN">      0.00000000</i>
   <i name="HFSCREENC">      0.00000000</i>
   <i type="int" name="NBANDSGWLOW">     0</i>
  </separator>
  <separator name="vdW DFT" >
   <i type="logical" name="LUSE_VDW"> F  </i>
   <i type="int" name="IVDW_NL">    -1</i>
   <i type="logical" name="LSPIN_VDW"> F  </i>
   <i name="ZAB_VDW">     -0.84910000</i>
   <i name="GAMMA_VDW">      1.39626340</i>
   <i name="ALPHA_VDW">      0.00000000</i>
   <i name="PARAM1">      0.12340000</i>
   <i name="PARAM2">      1.00000000</i>
   <i name="BPARAM">      6.30000000</i>
   <i name="CPARAM">      0.00930000</i>
  </separator>
  <separator name="model GW" >
   <i type="int" name="MODEL_GW">     0</i>
   <i name="MODEL_EPS0">      6.58706049</i>
   <i name="MODEL_ALPHA">      1.00000000</i>
  </separator>
  <separator name="linear response parameters" >
   <i type="logical" name="LEPSILON"> F  </i>
   <i type="logical" name="LRPA"> F  </i>
   <i type="logical" name="LNABLA"> F  </i>
   <i type="logical" name="LVEL"> F  </i>
   <i name="CSHIFT">      0.10000000</i>
   <i name="OMEGAMAX">     -1.00000000</i>
   <i name="DEG_THRESHOLD">      0.00200000</i>
   <i name="RTIME">     -0.10000000</i>
   <i name="WPLASMAI">      0.00000000</i>
   <v name="DFIELD">      0.00000000      0.00000000      0.00000000</v>
   <v name="WPLASMA">      0.00000000      0.00000000      0.00000000      0.00000000      0.00000000      0.00000000      0.00000000      0.00000000      0.00000000</v>
  </separator>
  <separator name="orbital magnetization" >
   <i type="logical" name="NUCIND"> F  </i>
   <v name="MAGPOS">      0.00000000      0.00000000      0.00000000</v>
   <i type="logical" name="LNICSALL"> T  </i>
   <i type="logical" name="ORBITALMAG"> F  </i>
   <i type="logical" name="LMAGBLOCH"> F  </i>
   <i type="logical" name="LCHIMAG"> F  </i>
   <i type="logical" name="LGAUGE"> T  </i>
   <i type="int" name="MAGATOM">     0</i>
   <v name="MAGDIPOL">      0.00000000      0.00000000      0.00000000</v>
   <v name="AVECCONST">      0.00000000      0.00000000      0.00000000</v>
  </separator>
  <separator name="response functions" >
   <i type="logical" name="LALL_IN_ONE"> F  </i>
   <i type="int" name="IALL_IN_ONE">    -1</i>
   <i type="int" name="NBANDS_WAVE">    -1</i>
   <i type="logical" name="LFINITE_TEMPERATURE"> F  </i>
   <i type="logical" name="LADDER"> F  </i>
   <i type="logical" name="LRPAFORCE"> F  </i>
   <i type="logical" name="LFXC"> F  </i>
   <i type="logical" name="LHARTREE"> T  </i>
   <i type="int" name="IBSE">     0</i>
   <v type="int" name="KPOINT">    -1     0     0     0</v>
   <i type="logical" name="LTCTC"> F  </i>
   <i type="logical" name="LTCTE"> F  </i>
   <i type="logical" name="LTETE"> F  </i>
   <i type="logical" name="LTRIPLET"> F  </i>
   <i type="logical" name="LFXCEPS"> F  </i>
   <i type="logical" name="LFXHEG"> F  </i>
   <i type="int" name="NATURALO">     2</i>
   <i type="logical" name="LHOLEGF"> F  </i>
   <i type="logical" name="L2ORDER"> F  </i>
   <i type="logical" name="LDMP1"> F  </i>
   <i type="logical" name="LMP2LT"> F  </i>
   <i type="logical" name="LSMP2LT"> F  </i>
   <i type="logical" name="LGWLF"> F  </i>
   <i name="ENCUTGW">     -1.60000002</i>
   <i name="ENCUTGWSOFT">     -1.60000002</i>
   <i name="ENCUTLF">     -1.00000000</i>
   <i type="logical" name="ESF_SPLINES"> F  </i>
   <i name="ESF_CONV">      0.01000000</i>
   <i type="int" name="ESF_NINTER">    15</i>
   <i type="int" name="LMAXMP2">    -1</i>
   <i name="SCISSOR">      0.00000000</i>
   <i type="int" name="NOMEGA">     0</i>
   <i type="int" name="NOMEGAR">     0</i>
   <i type="int" name="NBANDSGW">    -1</i>
   <i type="int" name="NBANDSO">    -1</i>
   <i type="int" name="NBANDSV">    -1</i>
   <i type="int" name="NELMGW">     1</i>
   <i type="int" name="NELMHF">     1</i>
   <i type="int" name="DIM">     3</i>
   <i type="int" name="IESPILON">     4</i>
   <i type="int" name="ANTIRES">     0</i>
   <i name="OMEGAMAX">    -30.00000000</i>
   <i name="OMEGAMIN">    -30.00000000</i>
   <i name="OMEGATL">   -200.00000000</i>
   <i type="int" name="OMEGAGRID">     0</i>
   <i name="CSHIFT">     -0.10000000</i>
   <i type="logical" name="LSELFENERGY"> F  </i>
   <i type="logical" name="LSPECTRAL"> F  </i>
   <i type="logical" name="LSPECTRALGW"> F  </i>
   <i type="logical" name="LSINGLES"> F  </i>
   <i type="logical" name="LFERMIGW"> F  </i>
   <i type="logical" name="ODDONLYGW"> F  </i>
   <i type="logical" name="EVENONLYGW"> F  </i>
   <i type="int" name="NKREDLFX">     1</i>
   <i type="int" name="NKREDLFY">     1</i>
   <i type="int" name="NKREDLFZ">     1</i>
   <i type="int" name="MAXMEM">  2800</i>
   <i type="int" name="TELESCOPE">     0</i>
   <i type="int" name="NTAUPAR">    -1</i>
   <i type="int" name="NOMEGAPAR">    -1</i>
   <i name="DAMP_NEWTON">      0.80000001</i>
   <i name="LAMBDA">      1.00000000</i>
  </separator>
  <separator name="External order field" >
   <i name="OFIELD_KAPPA">      0.00000000</i>
   <v name="OFIELD_K">      0.00000000      0.00000000      0.00000000</v>
   <i name="OFIELD_Q6_NEAR">      0.00000000</i>
   <i name="OFIELD_Q6_FAR">      0.00000000</i>
   <i name="OFIELD_A">      0.00000000</i>
  </separator>
  <separator name="optional k-points parameters" >
   <i type="int" name="KPOINTS_OPT_MODE">     1</i>
   <i type="logical" name="LKPOINTS_OPT"> F  </i>
  </separator>
  <separator name="solvation model" >
   <i type="logical" name="LSOL"> F  </i>
  </separator>
 </parameters>
 <atominfo>
  <atoms>      64 </atoms>
  <types>       7 </types>
  <array name="atoms" >
   <dimension dim="1">ion</dimension>
   <field type="string">element</field>
   <field type="int">atomtype</field>
   <set>
    <rc><c>Zr</c><c>   1</c></rc>
    <rc><c>Zr</c><c>   1</c></rc>
    <rc><c>Zr</c><c>   1</c></rc>
    <rc><c>Zr</c><c>   1</c></rc>
    <rc><c>Zr</c><c>   1</c></rc>
    <rc><c>Zr</c><c>   1</c></rc>
    <rc><c>Zr</c><c>   1</c></rc>
    <rc><c>Hf</c><c>   2</c></rc>
    <rc><c>Hf</c><c>   2</c></rc>
    <rc><c>Hf</c><c>   2</c></rc>
    <rc><c>Hf</c><c>   2</c></rc>
    <rc><c>Hf</c><c>   2</c></rc>
    <rc><c>Hf</c><c>   2</c></rc>
    <rc><c>Ti</c><c>   3</c></rc>
    <rc><c>Ti</c><c>   3</c></rc>
    <rc><c>Ti</c><c>   3</c></rc>
    <rc><c>Ti</c><c>   3</c></rc>
    <rc><c>Ti</c><c>   3</c></rc>
    <rc><c>Ti</c><c>   3</c></rc>
    <rc><c>Ti</c><c>   3</c></rc>
    <rc><c>N </c><c>   4</c></rc>
    <rc><c>N </c><c>   4</c></rc>
    <rc><c>N </c><c>   4</c></rc>
    <rc><c>N </c><c>   4</c></rc>
    <rc><c>N </c><c>   4</c></rc>
    <rc><c>N </c><c>   4</c></rc>
    <rc><c>N </c><c>   4</c></rc>
    <rc><c>N </c><c>   4</c></rc>
    <rc><c>N </c><c>   4</c></rc>
    <rc><c>N </c><c>   4</c></rc>
    <rc><c>N </c><c>   4</c></rc>
    <rc><c>N </c><c>   4</c></rc>
    <rc><c>N </c><c>   4</c></rc>
    <rc><c>C </c><c>   5</c></rc>
    <rc><c>C </c><c>   5</c></rc>
    <rc><c>C </c><c>   5</c></rc>
    <rc><c>C </c><c>   5</c></rc>
    <rc><c>C </c><c>   5</c></rc>
    <rc><c>C </c><c>   5</c></rc>
    <rc><c>C </c><c>   5</c></rc>
    <rc><c>C </c><c>   5</c></rc>
    <rc><c>C </c><c>   5</c></rc>
    <rc><c>C </c><c>   5</c></rc>
    <rc><c>C </c><c>   5</c></rc>
    <rc><c>C </c><c>   5</c></rc>
    <rc><c>C </c><c>   5</c></rc>
    <rc><c>C </c><c>   5</c></rc>
    <rc><c>C </c><c>   5</c></rc>
    <rc><c>C </c><c>   5</c></rc>
    <rc><c>C </c><c>   5</c></rc>
    <rc><c>C </c><c>   5</c></rc>
    <rc><c>C </c><c>   5</c></rc>
    <rc><c>Cr</c><c>   6</c></rc>
    <rc><c>Cr</c><c>   6</c></rc>
    <rc><c>Cr</c><c>   6</c></rc>
    <rc><c>Cr</c><c>   6</c></rc>
    <rc><c>Cr</c><c>   6</c></rc>
    <rc><c>Cr</c><c>   6</c></rc>
    <rc><c>W </c><c>   7</c></rc>
    <rc><c>W </c><c>   7</c></rc>
    <rc><c>W </c><c>   7</c></rc>
    <rc><c>W </c><c>   7</c></rc>
    <rc><c>W </c><c>   7</c></rc>
    <rc><c>W </c><c>   7</c></rc>
   </set>
  </array>
  <array name="atomtypes" >
   <dimension dim="1">type</dimension>
   <field type="int">atomspertype</field>
   <field type="string">element</field>
   <field>mass</field>
   <field>valence</field>
   <field type="string">pseudopotential</field>
   <set>
    <rc><c>   7</c><c>Zr</c><c>     91.22400000</c><c>      4.00000000</c><c> PAW_PBE Zr 08Apr2002                   </c></rc>
    <rc><c>   6</c><c>Hf</c><c>    178.49000000</c><c>     10.00000000</c><c> PAW_PBE Hf_pv 06Sep2000                </c></rc>
    <rc><c>   7</c><c>Ti</c><c>     47.88000000</c><c>     10.00000000</c><c> PAW_PBE Ti_pv 07Sep2000                </c></rc>
    <rc><c>  13</c><c>N </c><c>     14.00100000</c><c>      5.00000000</c><c> PAW_PBE N 08Apr2002                    </c></rc>
    <rc><c>  19</c><c>C </c><c>     12.01100000</c><c>      4.00000000</c><c> PAW_PBE C 08Apr2002                    </c></rc>
    <rc><c>   6</c><c>Cr</c><c>     51.99600000</c><c>     12.00000000</c><c> PAW_PBE Cr_pv 07Sep2000                </c></rc>
    <rc><c>   6</c><c>W </c><c>    183.85000000</c><c>     12.00000000</c><c> PAW_PBE W_pv 06Sep2000                 </c></rc>
   </set>
  </array>
 </atominfo>
 <structure name="initialpos" >
  <crystal>
   <varray name="basis" >
    <v>       8.87556428       0.04747304      -0.02089797 </v>
    <v>       0.05431843       8.82708738      -0.00006640 </v>
    <v>       0.01121056      -0.01479104       8.96850360 </v>
   </varray>
   <i name="volume">    702.61978525 </i>
   <varray name="rec_basis" >
    <v>       0.11267227      -0.00069334      -0.00014198 </v>
    <v>      -0.00060552       0.11329138       0.00018760 </v>
    <v>       0.00026254      -0.00000078       0.11150099 </v>
   </varray>
  </crystal>
  <varray name="positions" >
   <v>       0.00201857       0.98605513       0.00084700 </v>
   <v>       0.26802231       0.99671435       0.24448130 </v>
   <v>       0.25430415       0.49846794       0.24804504 </v>
   <v>       0.49861841       0.49273623       0.00183663 </v>
   <v>       0.49931226       0.24474696       0.75312146 </v>
   <v>       0.99685971       0.49764380       0.50804066 </v>
   <v>       0.49510599       0.75866943       0.74533812 </v>
   <v>       0.99538901       0.24434756       0.25014553 </v>
   <v>       0.74551607       0.75115223       0.01019679 </v>
   <v>       0.99963511       0.24574335       0.74927208 </v>
   <v>       0.74910422       0.23491606       0.50123949 </v>
   <v>       0.99742082       0.75808905       0.74825539 </v>
   <v>       0.24811539       0.49944550       0.75215153 </v>
   <v>       0.25934124       0.24562065       0.99244691 </v>
   <v>       0.50701763       0.25203961       0.24051481 </v>
   <v>       0.76193553       0.99329827       0.23815631 </v>
   <v>       0.75153212       0.26026343       0.00568377 </v>
   <v>       0.24419580       0.74533220       0.00088063 </v>
   <v>       0.24693885       0.24568117       0.50884714 </v>
   <v>       0.25707364       0.75114241       0.49328525 </v>
   <v>       0.25130830       0.24747895       0.24904312 </v>
   <v>       0.26052161       0.99870290       0.98936887 </v>
   <v>       0.00061262       0.25033924       0.00039763 </v>
   <v>       0.74761621       0.24231317       0.24899410 </v>
   <v>       0.73978002       0.00095321       0.00419607 </v>
   <v>       0.51169100       0.00661034       0.26588097 </v>
   <v>       0.99474451       0.49835500       0.24334778 </v>
   <v>       0.49493810       0.76365111       0.00806358 </v>
   <v>       0.99763164       0.00284016       0.74470677 </v>
   <v>       0.75452414       0.24385299       0.75244318 </v>
   <v>       0.76369395       0.99853166       0.49408537 </v>
   <v>       0.49947274       0.24334158       0.49179031 </v>
   <v>       0.51126860       0.00357752       0.74470767 </v>
   <v>       0.99970617       0.99999762       0.25092537 </v>
   <v>       0.50209955       0.23752429       0.00572573 </v>
   <v>       0.25447222       0.74868284       0.24948416 </v>
   <v>       0.23927279       0.50026429       0.99714625 </v>
   <v>       0.00164371       0.74089747       0.00432776 </v>
   <v>       0.74625495       0.74975395       0.25405831 </v>
   <v>       0.76154189       0.49434001       0.00636233 </v>
   <v>       0.49905318       0.50091766       0.25274895 </v>
   <v>       0.24757861       0.24401717       0.74992071 </v>
   <v>       0.25603346       0.99997026       0.51089561 </v>
   <v>       0.00254671       0.24541491       0.49849775 </v>
   <v>       0.24613517       0.75787680       0.75162800 </v>
   <v>       0.25575241       0.49984928       0.50162499 </v>
   <v>       0.99829591       0.75667727       0.49516199 </v>
   <v>       0.99603848       0.50146864       0.75693641 </v>
   <v>       0.75042963       0.75659346       0.74568365 </v>
   <v>       0.74274307       0.49568820       0.50545972 </v>
   <v>       0.49935325       0.76737965       0.48329262 </v>
   <v>       0.50437293       0.50146297       0.74331611 </v>
   <v>       0.51328695       0.01751329       0.96894241 </v>
   <v>       0.00124869       0.51964560       0.97838112 </v>
   <v>       0.47398248       0.72771840       0.26127597 </v>
   <v>       0.24944763       0.00337721       0.75555171 </v>
   <v>       0.45955156       0.99014865       0.51672025 </v>
   <v>       0.72764952       0.97460951       0.78165858 </v>
   <v>       0.01982266       0.76758216       0.25480549 </v>
   <v>       0.72818055       0.51106831       0.24982332 </v>
   <v>       0.02706732       0.00203193       0.48412064 </v>
   <v>       0.50333410       0.52776223       0.49344037 </v>
   <v>       0.75154710       0.52129020       0.76782114 </v>
   <v>       0.73629745       0.73582237       0.49445146 </v>
  </varray>
 </structure>
 <calculation>
  <scstep>
   <time name="dav">   17.89   17.97</time>
   <time name="total">   17.93   18.02</time>
   <energy>
    <i name="alphaZ">   3305.62895101 </i>
    <i name="ewald"> -30911.58497908 </i>
    <i name="hartreedc">  -7480.88887139 </i>
    <i name="XCdc">    764.01799049 </i>
    <i name="pawpsdc">  23257.95117180 </i>
    <i name="pawaedc"> -22708.56266383 </i>
    <i name="eentropy">     -0.10413171 </i>
    <i name="bandstr">   2396.98482305 </i>
    <i name="atom">  36678.26093528 </i>
    <i name="e_fr_energy">   5301.70322562 </i>
    <i name="e_wo_entrp">   5301.80735733 </i>
    <i name="e_0_energy">   5301.75529148 </i>
   </energy>
  </scstep>
  <scstep>
   <time name="dav">   17.24   17.66</time>
   <time name="total">   17.24   17.66</time>
   <energy>
    <i name="e_fr_energy">    234.83554565 </i>
    <i name="e_wo_entrp">    234.96708459 </i>
    <i name="e_0_energy">    234.90131512 </i>
   </energy>
  </scstep>
  <scstep>
   <time name="dav">   24.10   24.18</time>
   <time name="total">   24.10   24.18</time>
   <energy>
    <i name="e_fr_energy">   -686.44638929 </i>
    <i name="e_wo_entrp">   -686.35418102 </i>
    <i name="e_0_energy">   -686.40028516 </i>
   </energy>
  </scstep>
  <scstep>
   <time name="dav">   25.43   25.58</time>
   <time name="total">   25.43   25.58</time>
   <energy>
    <i name="e_fr_energy">   -784.85511550 </i>
    <i name="e_wo_entrp">   -784.76508176 </i>
    <i name="e_0_energy">   -784.81009863 </i>
   </energy>
  </scstep>
  <scstep>
   <time name="dav">   24.52   24.65</time>
   <time name="total">   24.68   24.82</time>
   <energy>
    <i name="e_fr_energy">   -790.62486784 </i>
    <i name="e_wo_entrp">   -790.53820785 </i>
    <i name="e_0_energy">   -790.58153785 </i>
   </energy>
  </scstep>
  <scstep>
   <time name="diag">    1.22    1.22</time>
   <time name="diis">   14.94   15.07</time>
   <time name="orth">    0.29    0.29</time>
   <time name="total">   16.63   16.79</time>
   <energy>
    <i name="e_fr_energy">   -828.26518489 </i>
    <i name="e_wo_entrp">   -828.11671173 </i>
    <i name="e_0_energy">   -828.19094831 </i>
   </energy>
  </scstep>
  <scstep>
   <time name="diag">    1.18    1.18</time>
   <time name="diis">   14.77   14.83</time>
   <time name="orth">    0.28    0.29</time>
   <time name="total">   16.41   16.48</time>
   <energy>
    <i name="e_fr_energy">   -641.86855043 </i>
    <i name="e_wo_entrp">   -641.73509742 </i>
    <i name="e_0_energy">   -641.80182392 </i>
   </energy>
  </scstep>
  <scstep>
   <time name="diag">    1.18    1.18</time>
   <time name="diis">   16.67   16.82</time>
   <time name="orth">    0.32    0.32</time>
   <time name="total">   18.36   18.51</time>
   <energy>
    <i name="e_fr_energy">   -647.62476097 </i>
    <i name="e_wo_entrp">   -647.50290586 </i>
    <i name="e_0_energy">   -647.56383341 </i>
   </energy>
  </scstep>
  <scstep>
   <time name="diag">    1.18    1.18</time>
   <time name="diis">   16.09   16.18</time>
   <time name="orth">    0.29    0.29</time>
   <time name="total">   17.75   17.83</time>
   <energy>
    <i name="e_fr_energy">   -643.84191050 </i>
    <i name="e_wo_entrp">   -643.70927834 </i>
    <i name="e_0_energy">   -643.77559442 </i>
   </energy>
  </scstep>
  <scstep>
   <time name="diag">    1.22    1.23</time>
   <time name="diis">   15.63   15.70</time>
   <time name="orth">    0.33    0.33</time>
   <time name="total">   17.37   17.45</time>
   <energy>
    <i name="e_fr_energy">   -640.20901584 </i>
    <i name="e_wo_entrp">   -640.06630732 </i>
    <i name="e_0_energy">   -640.13766158 </i>
   </energy>
  </scstep>
  <scstep>
   <time name="diag">    1.19    1.19</time>
   <time name="diis">   15.05   15.25</time>
   <time name="orth">    0.29    0.29</time>
   <time name="total">   16.72   16.92</time>
   <energy>
    <i name="e_fr_energy">   -640.82904453 </i>
    <i name="e_wo_entrp">   -640.69408176 </i>
    <i name="e_0_energy">   -640.76156314 </i>
   </energy>
  </scstep>
  <scstep>
   <time name="diag">    1.20    1.21</time>
   <time name="diis">   15.19   15.32</time>
   <time name="orth">    0.29    0.29</time>
   <time name="total">   16.86   17.00</time>
   <energy>
    <i name="e_fr_energy">   -638.19974837 </i>
    <i name="e_wo_entrp">   -638.04131663 </i>
    <i name="e_0_energy">   -638.12053250 </i>
   </energy>
  </scstep>
  <scstep>
   <time name="diag">    1.22    1.23</time>
   <time name="diis">   15.67   15.82</time>
   <time name="orth">    0.30    0.30</time>
   <time name="total">   17.37   17.54</time>
   <energy>
    <i name="e_fr_energy">   -639.21723342 </i>
    <i name="e_wo_entrp">   -639.05352183 </i>
    <i name="e_0_energy">   -639.13537763 </i>
   </energy>
  </scstep>
  <scstep>
   <time name="diag">    1.19    1.19</time>
   <time name="diis">   15.09   15.22</time>
   <time name="orth">    0.29    0.29</time>
   <time name="total">   16.76   16.90</time>
   <energy>
    <i name="e_fr_energy">   -638.22661558 </i>
    <i name="e_wo_entrp">   -638.05931374 </i>
    <i name="e_0_energy">   -638.14296466 </i>
   </energy>
  </scstep>
  <scstep>
   <time name="diag">    1.23    1.23</time>
   <time name="diis">   14.84   15.05</time>
   <time name="orth">    0.30    0.30</time>
   <time name="total">   16.56   16.77</time>
   <energy>
    <i name="e_fr_energy">   -638.15281076 </i>
    <i name="e_wo_entrp">   -637.98457730 </i>
    <i name="e_0_energy">   -638.06869403 </i>
   </energy>
  </scstep>
  <scstep>
   <time name="diag">    1.26    1.26</time>
   <time name="diis">   15.50   15.62</time>
   <time name="orth">    0.29    0.29</time>
   <time name="total">   17.24   17.36</time>
   <energy>
    <i name="e_fr_energy">   -637.92473563 </i>
    <i name="e_wo_entrp">   -637.75040490 </i>
    <i name="e_0_energy">   -637.83757027 </i>
   </energy>
  </scstep>
  <scstep>
   <time name="diag">    1.20    1.20</time>
   <time name="diis">   15.76   15.87</time>
   <time name="orth">    0.31    0.31</time>
   <time name="total">   17.46   17.58</time>
   <energy>
    <i name="e_fr_energy">   -637.88902916 </i>
    <i name="e_wo_entrp">   -637.71729131 </i>
    <i name="e_0_energy">   -637.80316023 </i>
   </energy>
  </scstep>
  <scstep>
   <time name="diag">    1.19    1.20</time>
   <time name="diis">   16.30   16.40</time>
   <time name="orth">    0.29    0.29</time>
   <time name="total">   17.97   18.07</time>
   <energy>
    <i name="e_fr_energy">   -637.88959776 </i>
    <i name="e_wo_entrp">   -637.71646632 </i>
    <i name="e_0_energy">   -637.80303204 </i>
   </energy>
  </scstep>
  <scstep>
   <time name="diag">    1.20    1.23</time>
   <time name="diis">   15.78   15.91</time>
   <time name="orth">    0.29    0.29</time>
   <time name="total">   17.45   17.62</time>
   <energy>
    <i name="e_fr_energy">   -637.88641652 </i>
    <i name="e_wo_entrp">   -637.71386566 </i>
    <i name="e_0_energy">   -637.80014109 </i>
   </energy>
  </scstep>
  <scstep>
   <time name="diag">    1.18    1.18</time>
   <time name="diis">   15.80   15.93</time>
   <time name="orth">    0.33    0.33</time>
   <time name="total">   17.49   17.62</time>
   <energy>
    <i name="e_fr_energy">   -637.88386562 </i>
    <i name="e_wo_entrp">   -637.71079466 </i>
    <i name="e_0_energy">   -637.79733014 </i>
   </energy>
  </scstep>
  <scstep>
   <time name="diag">    1.18    1.19</time>
   <time name="diis">   16.05   16.22</time>
   <time name="orth">    0.39    0.39</time>
   <time name="total">   17.81   17.98</time>
   <energy>
    <i name="e_fr_energy">   -637.88377753 </i>
    <i name="e_wo_entrp">   -637.71047651 </i>
    <i name="e_0_energy">   -637.79712702 </i>
   </energy>
  </scstep>
  <scstep>
   <time name="diag">    1.19    1.19</time>
   <time name="diis">   16.12   16.24</time>
   <time name="orth">    0.29    0.29</time>
   <time name="total">   17.78   17.90</time>
   <energy>
    <i name="e_fr_energy">   -637.88427454 </i>
    <i name="e_wo_entrp">   -637.71106287 </i>
    <i name="e_0_energy">   -637.79766870 </i>
   </energy>
  </scstep>
  <scstep>
   <time name="diag">    1.21    1.21</time>
   <time name="diis">   14.27   14.33</time>
   <time name="orth">    0.30    0.30</time>
   <time name="total">   15.97   16.03</time>
   <energy>
    <i name="e_fr_energy">   -637.88450464 </i>
    <i name="e_wo_entrp">   -637.71127813 </i>
    <i name="e_0_energy">   -637.79789139 </i>
   </energy>
  </scstep>
  <scstep>
   <time name="diag">    1.18    1.18</time>
   <time name="diis">   11.28   11.40</time>
   <time name="orth">    0.29    0.29</time>
   <time name="total">   12.93   13.06</time>
   <energy>
    <i name="e_fr_energy">   -637.88461143 </i>
    <i name="e_wo_entrp">   -637.71135878 </i>
    <i name="e_0_energy">   -637.79798511 </i>
   </energy>
  </scstep>
  <scstep>
   <time name="diag">    1.27    1.28</time>
   <time name="diis">    9.41    9.49</time>
   <time name="orth">    0.33    0.34</time>
   <time name="total">   11.21   11.30</time>
   <energy>
    <i name="e_fr_energy">   -637.88467376 </i>
    <i name="e_wo_entrp">   -637.71141751 </i>
    <i name="e_0_energy">   -637.79804563 </i>
   </energy>
  </scstep>
  <scstep>
   <time name="diag">    1.18    1.19</time>
   <time name="diis">    8.64    8.74</time>
   <time name="orth">    0.36    0.36</time>
   <time name="total">   10.41   10.52</time>
   <energy>
    <i name="e_fr_energy">   -637.88470631 </i>
    <i name="e_wo_entrp">   -637.71144753 </i>
    <i name="e_0_energy">   -637.79807692 </i>
   </energy>
  </scstep>
  <scstep>
   <time name="diag">    1.18    1.18</time>
   <time name="diis">    8.19    8.25</time>
   <time name="orth">    0.39    0.39</time>
   <time name="total">    9.95   10.02</time>
   <energy>
    <i name="e_fr_energy">   -637.88472542 </i>
    <i name="e_wo_entrp">   -637.71145407 </i>
    <i name="e_0_energy">   -637.79808974 </i>
   </energy>
  </scstep>
  <scstep>
   <time name="diag">    1.17    1.18</time>
   <time name="diis">    7.98    8.02</time>
   <time name="orth">    0.32    0.32</time>
   <time name="total">    9.67    9.73</time>
   <energy>
    <i name="e_fr_energy">   -637.88473584 </i>
    <i name="e_wo_entrp">   -637.71145769 </i>
    <i name="e_0_energy">   -637.79809676 </i>
   </energy>
  </scstep>
  <scstep>
   <time name="diag">    1.21    1.22</time>
   <time name="diis">    7.83    7.88</time>
   <time name="orth">    0.29    0.29</time>
   <time name="total">    9.35    9.41</time>
   <energy>
    <i name="alphaZ">   3305.62895101 </i>
    <i name="ewald"> -30911.58497908 </i>
    <i name="hartreedc">  -7097.78699004 </i>
    <i name="XCdc">    764.83948091 </i>
    <i name="pawpsdc">  25169.71479812 </i>
    <i name="pawaedc"> -24695.25204174 </i>
    <i name="eentropy">     -0.17328177 </i>
    <i name="bandstr">  -3851.53161438 </i>
    <i name="atom">  36678.26093528 </i>
    <i name="e_fr_energy">   -637.88474170 </i>
    <i name="e_wo_entrp">   -637.71145992 </i>
    <i name="e_0_energy">   -637.79810081 </i>
   </energy>
  </scstep>
  <structure>
   <crystal>
    <varray name="basis" >
     <v>       8.87556428       0.04747304      -0.02089797 </v>
     <v>       0.05431843       8.82708738      -0.00006640 </v>
     <v>       0.01121056      -0.01479104       8.96850360 </v>
    </varray>
    <i name="volume">    702.61978525 </i>
    <varray name="rec_basis" >
     <v>       0.11267227      -0.00069334      -0.00014198 </v>
     <v>      -0.00060552       0.11329138       0.00018760 </v>
     <v>       0.00026254      -0.00000078       0.11150099 </v>
    </varray>
   </crystal>
   <varray name="positions" >
    <v>       0.00201857       0.98605513       0.00084700 </v>
    <v>       0.26802231       0.99671435       0.24448130 </v>
    <v>       0.25430415       0.49846794       0.24804504 </v>
    <v>       0.49861841       0.49273623       0.00183663 </v>
    <v>       0.49931226       0.24474696       0.75312146 </v>
    <v>       0.99685971       0.49764380       0.50804066 </v>
    <v>       0.49510599       0.75866943       0.74533812 </v>
    <v>       0.99538901       0.24434756       0.25014553 </v>
    <v>       0.74551607       0.75115223       0.01019679 </v>
    <v>       0.99963511       0.24574335       0.74927208 </v>
    <v>       0.74910422       0.23491606       0.50123949 </v>
    <v>       0.99742082       0.75808905       0.74825539 </v>
    <v>       0.24811539       0.49944550       0.75215153 </v>
    <v>       0.25934124       0.24562065       0.99244691 </v>
    <v>       0.50701763       0.25203961       0.24051481 </v>
    <v>       0.76193553       0.99329827       0.23815631 </v>
    <v>       0.75153212       0.26026343       0.00568377 </v>
    <v>       0.24419580       0.74533220       0.00088063 </v>
    <v>       0.24693885       0.24568117       0.50884714 </v>
    <v>       0.25707364       0.75114241       0.49328525 </v>
    <v>       0.25130830       0.24747895       0.24904312 </v>
    <v>       0.26052161       0.99870290       0.98936887 </v>
    <v>       0.00061262       0.25033924       0.00039763 </v>
    <v>       0.74761621       0.24231317       0.24899410 </v>
    <v>       0.73978002       0.00095321       0.00419607 </v>
    <v>       0.51169100       0.00661034       0.26588097 </v>
    <v>       0.99474451       0.49835500       0.24334778 </v>
    <v>       0.49493810       0.76365111       0.00806358 </v>
    <v>       0.99763164       0.00284016       0.74470677 </v>
    <v>       0.75452414       0.24385299       0.75244318 </v>
    <v>       0.76369395       0.99853166       0.49408537 </v>
    <v>       0.49947274       0.24334158       0.49179031 </v>
    <v>       0.51126860       0.00357752       0.74470767 </v>
    <v>       0.99970617       0.99999762       0.25092537 </v>
    <v>       0.50209955       0.23752429       0.00572573 </v>
    <v>       0.25447222       0.74868284       0.24948416 </v>
    <v>       0.23927279       0.50026429       0.99714625 </v>
    <v>       0.00164371       0.74089747       0.00432776 </v>
    <v>       0.74625495       0.74975395       0.25405831 </v>
    <v>       0.76154189       0.49434001       0.00636233 </v>
    <v>       0.49905318       0.50091766       0.25274895 </v>
    <v>       0.24757861       0.24401717       0.74992071 </v>
    <v>       0.25603346       0.99997026       0.51089561 </v>
    <v>       0.00254671       0.24541491       0.49849775 </v>
    <v>       0.24613517       0.75787680       0.75162800 </v>
    <v>       0.25575241       0.49984928       0.50162499 </v>
    <v>       0.99829591       0.75667727       0.49516199 </v>
    <v>       0.99603848       0.50146864       0.75693641 </v>
    <v>       0.75042963       0.75659346       0.74568365 </v>
    <v>       0.74274307       0.49568820       0.50545972 </v>
    <v>       0.49935325       0.76737965       0.48329262 </v>
    <v>       0.50437293       0.50146297       0.74331611 </v>
    <v>       0.51328695       0.01751329       0.96894241 </v>
    <v>       0.00124869       0.51964560       0.97838112 </v>
    <v>       0.47398248       0.72771840       0.26127597 </v>
    <v>       0.24944763       0.00337721       0.75555171 </v>
    <v>       0.45955156       0.99014865       0.51672025 </v>
    <v>       0.72764952       0.97460951       0.78165858 </v>
    <v>       0.01982266       0.76758216       0.25480549 </v>
    <v>       0.72818055       0.51106831       0.24982332 </v>
    <v>       0.02706732       0.00203193       0.48412064 </v>
    <v>       0.50333410       0.52776223       0.49344037 </v>
    <v>       0.75154710       0.52129020       0.76782114 </v>
    <v>       0.73629745       0.73582237       0.49445146 </v>
   </varray>
  </structure>
  <varray name="forces" >
   <v>       0.34495578       2.24170835      -0.65795465 </v>
   <v>       0.50819077       1.50615629      -0.53331581 </v>
   <v>      -1.82534749      -1.26899664       0.36610531 </v>
   <v>      -0.21253399       1.34743153      -0.54110422 </v>
   <v>       1.08636242       0.27928172      -1.50247839 </v>
   <v>      -0.06435334       0.82298046      -1.41239391 </v>
   <v>      -0.14523689      -0.02730452       0.77380764 </v>
   <v>       0.90307215       1.39531190      -1.23178344 </v>
   <v>      -0.72219131      -0.31936935      -0.22889529 </v>
   <v>      -0.65659614      -0.86890321       1.54192203 </v>
   <v>      -1.28715390      -0.42050135       0.12481016 </v>
   <v>       0.65859493       0.48590102      -0.83340300 </v>
   <v>       0.38806424       0.36899448      -0.44588325 </v>
   <v>      -0.92644943      -0.41356905       0.19185636 </v>
   <v>      -0.32090288      -1.07610426       1.29558780 </v>
   <v>      -2.53383731      -0.25840102       1.87087132 </v>
   <v>      -0.05182816      -1.43225993      -0.57309281 </v>
   <v>       0.99739899       0.06827904      -0.69371002 </v>
   <v>       1.24984845       0.14586964      -0.36821550 </v>
   <v>      -0.87477566      -0.25914003       0.96120604 </v>
   <v>       0.37059686      -0.00340755      -0.17006809 </v>
   <v>       0.20387423       0.13118470       0.11643082 </v>
   <v>      -0.16763859       0.08280495      -0.26500510 </v>
   <v>      -0.03373251       0.48368978      -0.30157945 </v>
   <v>       0.16590715       0.30578562      -0.35865800 </v>
   <v>       0.09690678       0.02315735       0.03612662 </v>
   <v>      -0.30043342       0.47180846       0.26314858 </v>
   <v>      -0.22217432      -0.15265743      -0.16549010 </v>
   <v>       0.24615008      -0.04832510      -0.27048319 </v>
   <v>      -0.09975801       0.21387341       0.16990995 </v>
   <v>       0.41869463      -0.67299957      -0.31943701 </v>
   <v>      -0.17282994       0.00880265       0.33566112 </v>
   <v>      -0.12600588      -0.42545826      -0.33260726 </v>
   <v>       0.51165757      -0.02277928      -0.08144228 </v>
   <v>       0.27409547       0.25376859      -0.07507161 </v>
   <v>      -0.17956638      -0.12464799      -0.11483619 </v>
   <v>      -0.22846055      -0.02938943       0.15286296 </v>
   <v>       0.17859532      -0.62966339       0.01605286 </v>
   <v>       0.08543725      -0.04178844       0.66713484 </v>
   <v>       0.10926004       0.71312776       0.04640458 </v>
   <v>       0.33494824      -0.45958725       0.52456074 </v>
   <v>       0.09609523      -0.20205887      -0.03624810 </v>
   <v>      -0.82188001      -0.18475945      -0.41893282 </v>
   <v>       0.26484173      -0.38225288       0.25462331 </v>
   <v>      -0.15063242       0.31701744       0.02309813 </v>
   <v>       0.28526565       0.07678154      -0.16174825 </v>
   <v>       0.03338595       0.41038501      -0.27630506 </v>
   <v>      -0.38593709       0.25013559       0.62365170 </v>
   <v>      -0.50725436       0.04676934       0.38245192 </v>
   <v>      -0.23762706       0.44478927      -0.22719383 </v>
   <v>      -0.40555347       0.51820878       0.56803860 </v>
   <v>       0.36637874       0.33402090      -0.19603549 </v>
   <v>      -0.21969731      -0.82393549       0.66261229 </v>
   <v>       0.06674633      -0.86372765       0.46534665 </v>
   <v>       1.00173239       1.21063922      -0.64711364 </v>
   <v>       0.06686660      -0.18002011       0.22599234 </v>
   <v>       1.65224725       0.84076163       0.22532351 </v>
   <v>       0.36438227       0.63825167      -0.13681494 </v>
   <v>      -0.63067428      -2.18660375       0.57912076 </v>
   <v>       1.78378497      -0.35720065       0.61670552 </v>
   <v>      -1.40275884      -0.55020859       1.38736636 </v>
   <v>      -0.27812599      -2.08965226       0.07511325 </v>
   <v>       0.10201061      -1.06300948      -0.97432974 </v>
   <v>       0.97559782       1.40100413      -0.99227364 </v>
  </varray>
  <varray name="stress" >
   <v>      -1.55473977      -5.34750731       1.21939870 </v>
   <v>      -5.34750803      42.86492793       2.37452286 </v>
   <v>       1.21940126       2.37452171     -55.44442219 </v>
  </varray>
  <energy>
   <i name="e_fr_energy">   -637.88474170 </i>
   <i name="e_wo_entrp">   -637.71145992 </i>
   <i name="e_0_energy">   -637.79810081 </i>
  </energy>
  <time name="totalsc">  514.62  518.67</time>
 </calculation>
 <calculation>
  <scstep>
   <time name="dav">   18.70   18.90</time>
   <time name="total">   18.89   19.09</time>
   <energy>
    <i name="alphaZ">   3322.01850217 </i>
    <i name="ewald"> -30979.45333528 </i>
    <i name="hartreedc">  -7100.31908978 </i>
    <i name="XCdc">    766.96993693 </i>
    <i name="pawpsdc">  25169.68861629 </i>
    <i name="pawaedc"> -24695.22619279 </i>
    <i name="eentropy">     -0.16155665 </i>
    <i name="bandstr">  -3787.31761103 </i>
    <i name="atom">  36678.26093528 </i>
    <i name="e_fr_energy">   -625.53979485 </i>
    <i name="e_wo_entrp">   -625.37823820 </i>
    <i name="e_0_energy">   -625.45901652 </i>
   </energy>
  </scstep>
  <scstep>
   <time name="diag">    1.26    1.27</time>
   <time name="diis">   17.69   17.84</time>
   <time name="orth">    0.28    0.29</time>
   <time name="total">   19.44   19.92</time>
   <energy>
    <i name="e_fr_energy">   -644.98591623 </i>
    <i name="e_wo_entrp">   -644.83433610 </i>
    <i name="e_0_energy">   -644.91012617 </i>
   </energy>
  </scstep>
  <scstep>
   <time name="diag">    1.21    1.22</time>
   <time name="diis">   15.11   15.29</time>
   <time name="orth">    0.29    0.29</time>
   <time name="total">   16.80   16.99</time>
   <energy>
    <i name="e_fr_energy">   -639.93932940 </i>
    <i name="e_wo_entrp">   -639.78619041 </i>
    <i name="e_0_energy">   -639.86275991 </i>
   </energy>
  </scstep>
  <scstep>
   <time name="diag">    1.23    1.24</time>
   <time name="diis">   16.24   16.37</time>
   <time name="orth">    0.29    0.29</time>
   <time name="total">   17.94   18.08</time>
   <energy>
    <i name="e_fr_energy">   -641.85545437 </i>
    <i name="e_wo_entrp">   -641.70283162 </i>
    <i name="e_0_energy">   -641.77914299 </i>
   </energy>
  </scstep>
  <scstep>
   <time name="diag">    1.18    1.19</time>
   <time name="diis">   15.47   15.58</time>
   <time name="orth">    0.30    0.31</time>
   <time name="total">   17.14   17.29</time>
   <energy>
    <i name="e_fr_energy">   -639.79530677 </i>
    <i name="e_wo_entrp">   -639.63660339 </i>
    <i name="e_0_energy">   -639.71595508 </i>
   </energy>
  </scstep>
  <scstep>
   <time name="diag">    1.21    1.22</time>
   <time name="diis">   15.83   15.99</time>
   <time name="orth">    0.28    0.29</time>
   <time name="total">   17.52   17.68</time>
   <energy>
    <i name="e_fr_energy">   -639.94988889 </i>
    <i name="e_wo_entrp">   -639.78788174 </i>
    <i name="e_0_energy">   -639.86888531 </i>
   </energy>
  </scstep>
  <scstep>
   <time name="diag">    1.44    1.46</time>
   <time name="diis">   15.71   15.84</time>
   <time name="orth">    0.29    0.29</time>
   <time name="total">   17.62   17.78</time>
   <energy>
    <i name="e_fr_energy">   -639.55074768 </i>
    <i name="e_wo_entrp">   -639.39635608 </i>
    <i name="e_0_energy">   -639.47355188 </i>
   </energy>
  </scstep>
  <scstep>
   <time name="diag">    1.29    1.30</time>
   <time name="diis">   15.86   15.98</time>
   <time name="orth">    0.29    0.29</time>
   <time name="total">   17.63   17.77</time>
   <energy>
    <i name="e_fr_energy">   -639.62889565 </i>
    <i name="e_wo_entrp">   -639.47430830 </i>
    <i name="e_0_energy">   -639.55160197 </i>
   </energy>
  </scstep>
  <scstep>
   <time name="diag">    1.19    1.20</time>
   <time name="diis">   15.59   15.77</time>
   <time name="orth">    0.29    0.32</time>
   <time name="total">   17.25   17.47</time>
   <energy>
    <i name="e_fr_energy">   -639.44061520 </i>
    <i name="e_wo_entrp">   -639.27934278 </i>
    <i name="e_0_energy">   -639.35997899 </i>
   </energy>
  </scstep>
  <scstep>
   <time name="diag">    1.27    1.28</time>
   <time name="diis">   15.72   15.86</time>
   <time name="orth">    0.30    0.31</time>
   <time name="total">   17.48   17.64</time>
   <energy>
    <i name="e_fr_energy">   -639.46217276 </i>
    <i name="e_wo_entrp">   -639.30182929 </i>
    <i name="e_0_energy">   -639.38200102 </i>
   </energy>
  </scstep>
  <scstep>
   <time name="diag">    1.18    1.18</time>
   <time name="diis">   14.99   15.09</time>
   <time name="orth">    0.29    0.29</time>
   <time name="total">   16.64   16.75</time>
   <energy>
    <i name="e_fr_energy">   -639.42865093 </i>
    <i name="e_wo_entrp">   -639.26710196 </i>
    <i name="e_0_energy">   -639.34787645 </i>
   </energy>
  </scstep>
  <scstep>
   <time name="diag">    1.23    1.23</time>
   <time name="diis">   16.26   16.41</time>
   <time name="orth">    0.33    0.33</time>
   <time name="total">   18.00   18.15</time>
   <energy>
    <i name="e_fr_energy">   -639.42949520 </i>
    <i name="e_wo_entrp">   -639.26769498 </i>
    <i name="e_0_energy">   -639.34859509 </i>
   </energy>
  </scstep>
  <scstep>
   <time name="diag">    1.18    1.18</time>
   <time name="diis">   15.53   15.69</time>
   <time name="orth">    0.30    0.30</time>
   <time name="total">   17.20   17.36</time>
   <energy>
    <i name="e_fr_energy">   -639.43097640 </i>
    <i name="e_wo_entrp">   -639.26902597 </i>
    <i name="e_0_energy">   -639.35000119 </i>
   </energy>
  </scstep>
  <scstep>
   <time name="diag">    1.20    1.21</time>
   <time name="diis">   14.77   14.90</time>
   <time name="orth">    0.31    0.31</time>
   <time name="total">   16.47   16.61</time>
   <energy>
    <i name="e_fr_energy">   -639.43128884 </i>
    <i name="e_wo_entrp">   -639.26977833 </i>
    <i name="e_0_energy">   -639.35053358 </i>
   </energy>
  </scstep>
  <scstep>
   <time name="diag">    1.22    1.23</time>
   <time name="diis">   15.12   15.21</time>
   <time name="orth">    0.33    0.34</time>
   <time name="total">   16.86   16.97</time>
   <energy>
    <i name="e_fr_energy">   -639.43117738 </i>
    <i name="e_wo_entrp">   -639.26944452 </i>
    <i name="e_0_energy">   -639.35031095 </i>
   </energy>
  </scstep>
  <scstep>
   <time name="diag">    1.27    1.30</time>
   <time name="diis">   14.63   14.74</time>
   <time name="orth">    0.34    0.34</time>
   <time name="total">   16.42   16.57</time>
   <energy>
    <i name="e_fr_energy">   -639.43144732 </i>
    <i name="e_wo_entrp">   -639.26976703 </i>
    <i name="e_0_energy">   -639.35060718 </i>
   </energy>
  </scstep>
  <scstep>
   <time name="diag">    1.18    1.19</time>
   <time name="diis">   12.56   12.68</time>
   <time name="orth">    0.29    0.29</time>
   <time name="total">   14.26   14.39</time>
   <energy>
    <i name="e_fr_energy">   -639.43152987 </i>
    <i name="e_wo_entrp">   -639.26986430 </i>
    <i name="e_0_energy">   -639.35069709 </i>
   </energy>
  </scstep>
  <scstep>
   <time name="diag">    1.23    1.24</time>
   <time name="diis">   11.37   11.45</time>
   <time name="orth">    0.29    0.29</time>
   <time name="total">   13.08   13.17</time>
   <energy>
    <i name="e_fr_energy">   -639.43158229 </i>
    <i name="e_wo_entrp">   -639.26991799 </i>
    <i name="e_0_energy">   -639.35075014 </i>
   </energy>
  </scstep>
  <scstep>
   <time name="diag">    1.19    1.20</time>
   <time name="diis">   10.20   10.25</time>
   <time name="orth">    0.34    0.34</time>
   <time name="total">   11.91   11.98</time>
   <energy>
    <i name="e_fr_energy">   -639.43162225 </i>
    <i name="e_wo_entrp">   -639.26994768 </i>
    <i name="e_0_energy">   -639.35078496 </i>
   </energy>
  </scstep>
  <scstep>
   <time name="diag">    1.23    1.25</time>
   <time name="diis">    9.44    9.51</time>
   <time name="orth">    0.29    0.29</time>
   <time name="total">   11.15   11.24</time>
   <energy>
    <i name="e_fr_energy">   -639.43164694 </i>
    <i name="e_wo_entrp">   -639.26996194 </i>
    <i name="e_0_energy">   -639.35080444 </i>
   </energy>
  </scstep>
  <scstep>
   <time name="diag">    1.17    1.18</time>
   <time name="diis">    8.25    8.36</time>
   <time name="orth">    0.29    0.29</time>
   <time name="total">    9.90   10.01</time>
   <energy>
    <i name="e_fr_energy">   -639.43165718 </i>
    <i name="e_wo_entrp">   -639.26997119 </i>
    <i name="e_0_energy">   -639.35081419 </i>
   </energy>
  </scstep>
  <scstep>
   <time name="diag">    1.17    1.19</time>
   <time name="diis">    7.85    8.02</time>
   <time name="orth">    0.33    0.33</time>
   <time name="total">    9.39    9.57</time>
   <energy>
    <i name="alphaZ">   3322.01850217 </i>
    <i name="ewald"> -30979.45333528 </i>
    <i name="hartreedc">  -7080.73471317 </i>
    <i name="XCdc">    765.42506774 </i>
    <i name="pawpsdc">  25131.47518270 </i>
    <i name="pawaedc"> -24656.28560907 </i>
    <i name="eentropy">     -0.16168085 </i>
    <i name="bandstr">  -3819.97601426 </i>
    <i name="atom">  36678.26093528 </i>
    <i name="e_fr_energy">   -639.43166475 </i>
    <i name="e_wo_entrp">   -639.26998390 </i>
    <i name="e_0_energy">   -639.35082432 </i>
   </energy>
  </scstep>
  <structure>
   <crystal>
    <varray name="basis" >
     <v>       8.87091036       0.03243985      -0.01689999 </v>
     <v>       0.03868671       8.95206920       0.00688546 </v>
     <v>       0.01484610      -0.00798070       8.80412034 </v>
    </varray>
    <i name="volume">    699.15333167 </i>
    <varray name="rec_basis" >
     <v>       0.11272942      -0.00048702      -0.00019053 </v>
     <v>      -0.00040831       0.11170770       0.00010195 </v>
     <v>       0.00021671      -0.00008830       0.11358274 </v>
    </varray>
   </crystal>
   <varray name="positions" >
    <v>       0.00382314       0.99829110       0.99731208 </v>
    <v>       0.27073791       0.00492654       0.24161892 </v>
    <v>       0.24442221       0.49158890       0.24999128 </v>
    <v>       0.49742180       0.50010190       0.99892323 </v>
    <v>       0.50521825       0.24622803       0.74505322 </v>
    <v>       0.99649206       0.50213088       0.50044240 </v>
    <v>       0.49431215       0.75853144       0.74949868 </v>
    <v>       0.00025953       0.25193608       0.24353103 </v>
    <v>       0.74160277       0.74942575       0.00895641 </v>
    <v>       0.99608461       0.24102752       0.75755795 </v>
    <v>       0.74212096       0.23265655       0.50189457 </v>
    <v>       0.00099014       0.76071795       0.74378075 </v>
    <v>       0.25021547       0.50144686       0.74975798 </v>
    <v>       0.25431794       0.24338910       0.99346721 </v>
    <v>       0.50530044       0.24617929       0.24747988 </v>
    <v>       0.74815841       0.99197693       0.24818783 </v>
    <v>       0.75130224       0.25243177       0.00260044 </v>
    <v>       0.24961974       0.74566996       0.99716172 </v>
    <v>       0.25373018       0.24643858       0.50688230 </v>
    <v>       0.25232079       0.74976034       0.49844460 </v>
    <v>       0.25332400       0.24744797       0.24813300 </v>
    <v>       0.26162460       0.99941499       0.98999774 </v>
    <v>       0.99970045       0.25079430       0.99897001 </v>
    <v>       0.74741874       0.24495502       0.24737143 </v>
    <v>       0.74067406       0.00261638       0.00226890 </v>
    <v>       0.51221673       0.00673440       0.26607652 </v>
    <v>       0.99309389       0.50094481       0.24475946 </v>
    <v>       0.49373668       0.76282175       0.00717059 </v>
    <v>       0.99897308       0.00256640       0.74325494 </v>
    <v>       0.75397358       0.24502636       0.75335587 </v>
    <v>       0.76599451       0.99483827       0.49237241 </v>
    <v>       0.49853071       0.24339777       0.49359368 </v>
    <v>       0.51060019       0.00125286       0.74291696 </v>
    <v>       0.00248866       0.99985743       0.25049377 </v>
    <v>       0.50358145       0.23890257       0.00532537 </v>
    <v>       0.25350112       0.74800578       0.24886417 </v>
    <v>       0.23803090       0.50011172       0.99796563 </v>
    <v>       0.00263544       0.73745098       0.00441639 </v>
    <v>       0.74671619       0.74952910       0.25764798 </v>
    <v>       0.76211161       0.49823482       0.00661330 </v>
    <v>       0.50088561       0.49840076       0.25557488 </v>
    <v>       0.24810796       0.24290969       0.74972695 </v>
    <v>       0.25157509       0.99898067       0.50863173 </v>
    <v>       0.00399732       0.24332028       0.49987076 </v>
    <v>       0.24530563       0.75961406       0.75175033 </v>
    <v>       0.25730154       0.50025913       0.50075854 </v>
    <v>       0.99846554       0.75891675       0.49367612 </v>
    <v>       0.99392804       0.50285267       0.76028620 </v>
    <v>       0.74766821       0.75686735       0.74773447 </v>
    <v>       0.74143810       0.49812407       0.50423460 </v>
    <v>       0.49712759       0.77022889       0.48634301 </v>
    <v>       0.50635460       0.50327608       0.74226625 </v>
    <v>       0.51211578       0.01302251       0.97250391 </v>
    <v>       0.00163720       0.51492717       0.98088514 </v>
    <v>       0.47939144       0.73430000       0.25780772 </v>
    <v>       0.24981556       0.00239340       0.75676820 </v>
    <v>       0.46850286       0.99469759       0.51795318 </v>
    <v>       0.72960975       0.97808597       0.78092723 </v>
    <v>       0.01646373       0.75565500       0.25791274 </v>
    <v>       0.73788424       0.50906951       0.25316325 </v>
    <v>       0.01945137       0.99907831       0.49156568 </v>
    <v>       0.50189170       0.51635009       0.49384097 </v>
    <v>       0.75214382       0.51546855       0.76258146 </v>
    <v>       0.74156036       0.74344205       0.48912622 </v>
   </varray>
  </structure>
  <varray name="forces" >
   <v>      -0.20833492      -1.28173736       0.39510043 </v>
   <v>      -0.62182103      -1.02668329       0.08276921 </v>
   <v>       1.11896481       0.95303534      -0.43058796 </v>
   <v>      -0.02471391      -0.55425513       0.73176006 </v>
   <v>      -0.59662876      -0.12541821       0.79475109 </v>
   <v>      -0.42732744      -0.43659545       0.81333693 </v>
   <v>       0.25297716       0.21202783      -0.27371430 </v>
   <v>      -0.56976382      -0.65155173       0.47853871 </v>
   <v>       0.59392805       0.47007890       0.10581240 </v>
   <v>       0.37694366       0.57421539      -1.15755353 </v>
   <v>       1.07459035       0.26840019      -0.47051674 </v>
   <v>      -0.56375142      -0.10566816       0.36374462 </v>
   <v>      -0.27111645      -0.38265515      -0.00440850 </v>
   <v>       0.61355257       0.10928234      -0.48392175 </v>
   <v>       0.22912824       0.21194348      -0.05333286 </v>
   <v>      -0.74866613      -0.29164060       0.54321364 </v>
   <v>      -1.02289881      -0.25179716      -0.05789563 </v>
   <v>      -0.15012777       0.05549548       0.20230770 </v>
   <v>      -0.19087705      -0.39379348       0.24253894 </v>
   <v>       0.16688849       0.43618273       0.05480974 </v>
   <v>       0.08059784       0.04010148      -0.00187537 </v>
   <v>       0.19617739       0.08963519      -0.06321789 </v>
   <v>       0.01881585       0.03186235       0.08315261 </v>
   <v>       0.06158375       0.06793888       0.05784765 </v>
   <v>       0.10828536      -0.00722340       0.01395621 </v>
   <v>       0.49335206       0.09047950      -0.01185416 </v>
   <v>      -0.21481942       0.09833443      -0.19363586 </v>
   <v>      -0.08791771      -0.10414109       0.10889638 </v>
   <v>      -0.05971526      -0.03835318      -0.20379803 </v>
   <v>      -0.07092881       0.08231073      -0.00738650 </v>
   <v>      -0.14895395       0.04714700      -0.07114150 </v>
   <v>      -0.05045831       0.21762951      -0.26460820 </v>
   <v>       0.12127208       0.22012658      -0.03637583 </v>
   <v>      -0.10909016      -0.24818888       0.38873166 </v>
   <v>      -0.02219115       0.07954844      -0.05447945 </v>
   <v>       0.03413745       0.11012841       0.02673571 </v>
   <v>      -0.04602233      -0.03003233      -0.08513020 </v>
   <v>       0.03643768       0.43199218      -0.03287316 </v>
   <v>      -0.11747308       0.16623701      -0.51989558 </v>
   <v>      -0.02987719      -0.31287152      -0.12222079 </v>
   <v>       0.10725953      -0.01177141      -0.16054456 </v>
   <v>       0.20781055       0.10267802      -0.07504328 </v>
   <v>       0.46683151       0.06444769       0.04587901 </v>
   <v>      -0.18492797       0.01057313       0.01609098 </v>
   <v>       0.14950008      -0.15962135      -0.06697623 </v>
   <v>      -0.11036318      -0.12305418      -0.01442783 </v>
   <v>      -0.08850285      -0.19514653       0.34814436 </v>
   <v>       0.12163751      -0.12910986      -0.01673162 </v>
   <v>       0.32236531      -0.06122157      -0.00352265 </v>
   <v>       0.18135356       0.01651046      -0.07353819 </v>
   <v>       0.19293073      -0.48599768      -0.10646697 </v>
   <v>      -0.10479633      -0.19275406      -0.04116523 </v>
   <v>       0.00874372       0.28475428       0.01943138 </v>
   <v>       0.03716456       0.23355635       0.16311625 </v>
   <v>      -0.14950643      -0.56077453       0.07724122 </v>
   <v>       0.06250137       0.27367842      -0.12982777 </v>
   <v>      -0.86723584      -0.11175825       0.25517493 </v>
   <v>      -0.07570449      -0.27543752      -0.05169451 </v>
   <v>       0.20393428       0.83152021      -0.89563591 </v>
   <v>      -0.25762907      -0.04152219       0.13370498 </v>
   <v>       0.47777414       0.53804185      -0.36329899 </v>
   <v>       0.24060959       0.94760144      -0.01966963 </v>
   <v>       0.05001972       0.57494979      -0.43303447 </v>
   <v>      -0.21592791      -0.35166976       0.50521484 </v>
  </varray>
  <varray name="stress" >
   <v>     -13.53186550      -2.91604425       0.54225167 </v>
   <v>      -2.91604199     -51.94426805       0.86285101 </v>
   <v>       0.54225020       0.86285212      29.11084177 </v>
  </varray>
  <energy>
   <i name="e_fr_energy">   -639.43166475 </i>
   <i name="e_wo_entrp">   -639.26998390 </i>
   <i name="e_0_energy">   -639.35082432 </i>
  </energy>
  <time name="totalsc">  380.65  384.56</time>
 </calculation>
 <calculation>
  <scstep>
   <time name="dav">   19.03   19.29</time>
   <time name="total">   19.22   19.48</time>
   <energy>
    <i name="alphaZ">   3316.89214647 </i>
    <i name="ewald"> -30973.53837849 </i>
    <i name="hartreedc">  -7068.24038110 </i>
    <i name="XCdc">    764.74298555 </i>
    <i name="pawpsdc">  25131.46774570 </i>
    <i name="pawaedc"> -24656.27870864 </i>
    <i name="eentropy">     -0.16214061 </i>
    <i name="bandstr">  -3831.37262542 </i>
    <i name="atom">  36678.26093528 </i>
    <i name="e_fr_energy">   -638.22842128 </i>
    <i name="e_wo_entrp">   -638.06628066 </i>
    <i name="e_0_energy">   -638.14735097 </i>
   </energy>
  </scstep>
  <scstep>
   <time name="diag">    1.21    1.22</time>
   <time name="diis">   17.84   18.05</time>
   <time name="orth">    0.29    0.29</time>
   <time name="total">   19.52   19.76</time>
   <energy>
    <i name="e_fr_energy">   -639.54967776 </i>
    <i name="e_wo_entrp">   -639.38965869 </i>
    <i name="e_0_energy">   -639.46966823 </i>
   </energy>
  </scstep>
  <scstep>
   <time name="diag">    1.21    1.22</time>
   <time name="diis">   16.00   16.15</time>
   <time name="orth">    0.29    0.29</time>
   <time name="total">   17.68   17.85</time>
   <energy>
    <i name="e_fr_energy">   -640.04477946 </i>
    <i name="e_wo_entrp">   -639.87389179 </i>
    <i name="e_0_energy">   -639.95933563 </i>
   </energy>
  </scstep>
  <scstep>
   <time name="diag">    1.19    1.22</time>
   <time name="diis">   15.47   15.64</time>
   <time name="orth">    0.29    0.29</time>
   <time name="total">   17.14   17.34</time>
   <energy>
    <i name="e_fr_energy">   -639.80862122 </i>
    <i name="e_wo_entrp">   -639.65138173 </i>
    <i name="e_0_energy">   -639.73000148 </i>
   </energy>
  </scstep>
  <scstep>
   <time name="diag">    1.25    1.26</time>
   <time name="diis">   15.64   15.96</time>
   <time name="orth">    0.31    0.31</time>
   <time name="total">   17.39   17.72</time>
   <energy>
    <i name="e_fr_energy">   -639.78915042 </i>
    <i name="e_wo_entrp">   -639.62138687 </i>
    <i name="e_0_energy">   -639.70526865 </i>
   </energy>
  </scstep>
  <scstep>
   <time name="diag">    1.22    1.24</time>
   <time name="diis">   15.71   15.86</time>
   <time name="orth">    0.30    0.30</time>
   <time name="total">   17.42   17.59</time>
   <energy>
    <i name="e_fr_energy">   -639.78276584 </i>
    <i name="e_wo_entrp">   -639.62168368 </i>
    <i name="e_0_energy">   -639.70222476 </i>
   </energy>
  </scstep>
  <scstep>
   <time name="diag">    1.26    1.28</time>
   <time name="diis">   15.22   15.40</time>
   <time name="orth">    0.29    0.29</time>
   <time name="total">   16.96   17.16</time>
   <energy>
    <i name="e_fr_energy">   -639.77212835 </i>
    <i name="e_wo_entrp">   -639.60828501 </i>
    <i name="e_0_energy">   -639.69020668 </i>
   </energy>
  </scstep>
  <scstep>
   <time name="diag">    1.17    1.18</time>
   <time name="diis">   15.83   15.99</time>
   <time name="orth">    0.29    0.29</time>
   <time name="total">   17.48   17.65</time>
   <energy>
    <i name="e_fr_energy">   -639.77812484 </i>
    <i name="e_wo_entrp">   -639.61395809 </i>
    <i name="e_0_energy">   -639.69604146 </i>
   </energy>
  </scstep>
  <scstep>
   <time name="diag">    1.49    1.52</time>
   <time name="diis">   15.48   15.60</time>
   <time name="orth">    0.29    0.29</time>
   <time name="total">   17.46   17.60</time>
   <energy>
    <i name="e_fr_energy">   -639.75680816 </i>
    <i name="e_wo_entrp">   -639.59387493 </i>
    <i name="e_0_energy">   -639.67534155 </i>
   </energy>
  </scstep>
  <scstep>
   <time name="diag">    1.21    1.22</time>
   <time name="diis">   15.28   15.41</time>
   <time name="orth">    0.30    0.31</time>
   <time name="total">   16.98   17.12</time>
   <energy>
    <i name="e_fr_energy">   -639.75663927 </i>
    <i name="e_wo_entrp">   -639.59241892 </i>
    <i name="e_0_energy">   -639.67452909 </i>
   </energy>
  </scstep>
  <scstep>
   <time name="diag">    1.17    1.18</time>
   <time name="diis">   15.52   15.64</time>
   <time name="orth">    0.29    0.29</time>
   <time name="total">   17.16   17.30</time>
   <energy>
    <i name="e_fr_energy">   -639.75343757 </i>
    <i name="e_wo_entrp">   -639.58973940 </i>
    <i name="e_0_energy">   -639.67158849 </i>
   </energy>
  </scstep>
  <scstep>
   <time name="diag">    1.31    1.32</time>
   <time name="diis">   15.58   15.78</time>
   <time name="orth">    0.32    0.32</time>
   <time name="total">   17.39   17.61</time>
   <energy>
    <i name="e_fr_energy">   -639.75492226 </i>
    <i name="e_wo_entrp">   -639.59077031 </i>
    <i name="e_0_energy">   -639.67284629 </i>
   </energy>
  </scstep>
  <scstep>
   <time name="diag">    1.20    1.20</time>
   <time name="diis">   14.53   14.70</time>
   <time name="orth">    0.29    0.29</time>
   <time name="total">   16.20   16.38</time>
   <energy>
    <i name="e_fr_energy">   -639.75371936 </i>
    <i name="e_wo_entrp">   -639.59005459 </i>
    <i name="e_0_energy">   -639.67188697 </i>
   </energy>
  </scstep>
  <scstep>
   <time name="diag">    1.17    1.18</time>
   <time name="diis">   13.63   13.77</time>
   <time name="orth">    0.29    0.29</time>
   <time name="total">   15.27   15.42</time>
   <energy>
    <i name="e_fr_energy">   -639.75346286 </i>
    <i name="e_wo_entrp">   -639.58962913 </i>
    <i name="e_0_energy">   -639.67154599 </i>
   </energy>
  </scstep>
  <scstep>
   <time name="diag">    1.19    1.20</time>
   <time name="diis">   13.66   13.77</time>
   <time name="orth">    0.29    0.29</time>
   <time name="total">   15.32   15.45</time>
   <energy>
    <i name="e_fr_energy">   -639.75344095 </i>
    <i name="e_wo_entrp">   -639.58959860 </i>
    <i name="e_0_energy">   -639.67151978 </i>
   </energy>
  </scstep>
  <scstep>
   <time name="diag">    1.18    1.18</time>
   <time name="diis">   11.91   12.03</time>
   <time name="orth">    0.29    0.29</time>
   <time name="total">   13.56   13.69</time>
   <energy>
    <i name="e_fr_energy">   -639.75346829 </i>
    <i name="e_wo_entrp">   -639.58964335 </i>
    <i name="e_0_energy">   -639.67155582 </i>
   </energy>
  </scstep>
  <scstep>
   <time name="diag">    1.18    1.19</time>
   <time name="diis">    9.98   10.12</time>
   <time name="orth">    0.29    0.29</time>
   <time name="total">   11.63   11.80</time>
   <energy>
    <i name="e_fr_energy">   -639.75346921 </i>
    <i name="e_wo_entrp">   -639.58963357 </i>
    <i name="e_0_energy">   -639.67155139 </i>
   </energy>
  </scstep>
  <scstep>
   <time name="diag">    1.17    1.18</time>
   <time name="diis">    8.63    8.70</time>
   <time name="orth">    0.29    0.29</time>
   <time name="total">   10.11   10.19</time>
   <energy>
    <i name="alphaZ">   3316.89214647 </i>
    <i name="ewald"> -30973.53837849 </i>
    <i name="hartreedc">  -7073.19794573 </i>
    <i name="XCdc">    765.10980966 </i>
    <i name="pawpsdc">  25124.59074303 </i>
    <i name="pawaedc"> -24649.48870886 </i>
    <i name="eentropy">     -0.16383719 </i>
    <i name="bandstr">  -3828.21823429 </i>
    <i name="atom">  36678.26093528 </i>
    <i name="e_fr_energy">   -639.75347013 </i>
    <i name="e_wo_entrp">   -639.58963294 </i>
    <i name="e_0_energy">   -639.67155154 </i>
   </energy>
  </scstep>
  <structure>
   <crystal>
    <varray name="basis" >
     <v>       8.87230929       0.03695869      -0.01810175 </v>
     <v>       0.04338547       8.91450075       0.00479579 </v>
     <v>       0.01375329      -0.01002783       8.85353252 </v>
    </varray>
    <i name="volume">    700.23389399 </i>
    <varray name="rec_basis" >
     <v>       0.11271215      -0.00054846      -0.00017571 </v>
     <v>      -0.00046703       0.11217899       0.00012778 </v>
     <v>       0.00023070      -0.00006189       0.11294884 </v>
    </varray>
   </crystal>
[...]
      </set>
     </set>
    </set>
   </array>
  </eigenvalues>
  <separator name="orbital magnetization" >
   <v name="MAGDIPOLOUT">      0.00000000      0.00000000      0.00000000</v>
  </separator>
  <dos>
   <i name="efermi">      7.64124813 </i>
   <total>
    <array>
     <dimension dim="1">gridpoints</dimension>
     <dimension dim="2">spin</dimension>
     <field>energy</field>
     <field>total</field>
     <field>integrated</field>
     <set>
      <set comment="spin 1">
       <r>   -38.4155     0.0000     0.0000 </r>
       <r>   -38.2445     0.0000     0.0000 </r>
       <r>   -38.0735     0.0000     0.0000 </r>
       <r>   -37.9025     0.0000     0.0000 </r>
       <r>   -37.7315     0.0000     0.0000 </r>
       <r>   -37.5605     0.0000     0.0000 </r>
       <r>   -37.3895     0.0000     0.0000 </r>
       <r>   -37.2185     0.0000     0.0000 </r>
       <r>   -37.0475     0.0000     0.0000 </r>
       <r>   -36.8765     0.0000     0.0000 </r>
       <r>   -36.7055     0.0000     0.0000 </r>
       <r>   -36.5345     0.0000     0.0000 </r>
       <r>   -36.3635     0.0005     0.0001 </r>
       <r>   -36.1925     1.0187     0.1743 </r>
       <r>   -36.0214    31.8867     5.6271 </r>
       <r>   -35.8504   103.4302    23.3141 </r>
       <r>   -35.6794    70.4816    35.3668 </r>
       <r>   -35.5084     3.6991    35.9994 </r>
       <r>   -35.3374     0.0036    36.0000 </r>
       <r>   -35.1664     0.0000    36.0000 </r>
       <r>   -34.9954     0.0000    36.0000 </r>
       <r>   -34.8244     0.0000    36.0000 </r>
       <r>   -34.6534     0.0000    36.0000 </r>
       <r>   -34.4824     0.0000    36.0000 </r>
       <r>   -34.3114     0.0000    36.0000 </r>
       <r>   -34.1404     0.0000    36.0000 </r>
       <r>   -33.9694     0.0000    36.0000 </r>
       <r>   -33.7984     0.0000    36.0000 </r>
       <r>   -33.6274     0.0000    36.0000 </r>
       <r>   -33.4564     0.0000    36.0000 </r>
       <r>   -33.2854     0.0000    36.0000 </r>
       <r>   -33.1144     0.0000    36.0000 </r>
       <r>   -32.9434     0.0000    36.0000 </r>
       <r>   -32.7724     0.0000    36.0000 </r>
       <r>   -32.6013     0.0000    36.0000 </r>
       <r>   -32.4303     0.0000    36.0000 </r>
       <r>   -32.2593     0.0000    36.0000 </r>
       <r>   -32.0883     0.0000    36.0000 </r>
       <r>   -31.9173     0.0346    36.0059 </r>
       <r>   -31.7463     6.9284    37.1907 </r>
       <r>   -31.5753    48.5717    45.4967 </r>
       <r>   -31.4043    85.8526    60.1779 </r>
       <r>   -31.2333    54.7553    69.5414 </r>
       <r>   -31.0623    14.1313    71.9579 </r>
       <r>   -30.8913     0.2462    72.0000 </r>
       <r>   -30.7203     0.0000    72.0000 </r>
       <r>   -30.5493     0.0000    72.0000 </r>
       <r>   -30.3783     0.0000    72.0000 </r>
       <r>   -30.2073     0.0000    72.0000 </r>
       <r>   -30.0363     0.0000    72.0000 </r>
       <r>   -29.8653     0.0000    72.0000 </r>
       <r>   -29.6943     0.0000    72.0000 </r>
       <r>   -29.5233     0.0000    72.0000 </r>
       <r>   -29.3523     0.0000    72.0000 </r>
       <r>   -29.1812     0.0000    72.0000 </r>
       <r>   -29.0102     0.0000    72.0000 </r>
       <r>   -28.8392     0.0000    72.0000 </r>
       <r>   -28.6682     0.0000    72.0000 </r>
       <r>   -28.4972     0.0000    72.0000 </r>
       <r>   -28.3262     0.0000    72.0000 </r>
       <r>   -28.1552     0.0000    72.0000 </r>
       <r>   -27.9842     0.0000    72.0000 </r>
       <r>   -27.8132     0.0000    72.0000 </r>
       <r>   -27.6422     0.0000    72.0000 </r>
       <r>   -27.4712     0.0000    72.0000 </r>
       <r>   -27.3002     0.0000    72.0000 </r>
       <r>   -27.1292     0.0000    72.0000 </r>
       <r>   -26.9582     0.0000    72.0000 </r>
       <r>   -26.7872     0.0019    72.0003 </r>
       <r>   -26.6162     1.6061    72.2750 </r>
       <r>   -26.4452    22.7087    76.1583 </r>
       <r>   -26.2742    49.8725    84.6867 </r>
       <r>   -26.1032    48.5046    92.9812 </r>
       <r>   -25.9322    97.6651   109.6825 </r>
       <r>   -25.7612    24.9897   113.9558 </r>
       <r>   -25.5901     0.2583   114.0000 </r>
       <r>   -25.4191     0.0000   114.0000 </r>
       <r>   -25.2481     0.0000   114.0000 </r>
       <r>   -25.0771     0.0000   114.0000 </r>
       <r>   -24.9061     0.0000   114.0000 </r>
       <r>   -24.7351     0.0000   114.0000 </r>
       <r>   -24.5641     0.0000   114.0000 </r>
       <r>   -24.3931     0.0000   114.0000 </r>
       <r>   -24.2221     0.0000   114.0000 </r>
       <r>   -24.0511     0.0000   114.0000 </r>
       <r>   -23.8801     0.0000   114.0000 </r>
       <r>   -23.7091     0.0000   114.0000 </r>
       <r>   -23.5381     0.2016   114.0345 </r>
       <r>   -23.3671    10.1849   115.7762 </r>
       <r>   -23.1961    35.8777   121.9114 </r>
       <r>   -23.0251    25.8053   126.3242 </r>
       <r>   -22.8541    33.0213   131.9710 </r>
       <r>   -22.6831    32.2320   137.4829 </r>
       <r>   -22.5121    32.3333   143.0120 </r>
       <r>   -22.3411    18.3615   146.1519 </r>
       <r>   -22.1700    21.5332   149.8342 </r>
       <r>   -21.9990     0.9691   149.9999 </r>
       <r>   -21.8280     0.0004   150.0000 </r>
       <r>   -21.6570     0.0000   150.0000 </r>
       <r>   -21.4860     0.0000   150.0000 </r>
       <r>   -21.3150     0.0000   150.0000 </r>
       <r>   -21.1440     0.0000   150.0000 </r>
       <r>   -20.9730     0.0000   150.0000 </r>
       <r>   -20.8020     0.0000   150.0000 </r>
       <r>   -20.6310     0.0000   150.0000 </r>
       <r>   -20.4600     0.0000   150.0000 </r>
       <r>   -20.2890     0.0000   150.0000 </r>
       <r>   -20.1180     0.0000   150.0000 </r>
       <r>   -19.9470     0.0000   150.0000 </r>
       <r>   -19.7760     0.0000   150.0000 </r>
       <r>   -19.6050     0.0000   150.0000 </r>
       <r>   -19.4340     0.0000   150.0000 </r>
       <r>   -19.2630     0.0000   150.0000 </r>
       <r>   -19.0920     0.0000   150.0000 </r>
       <r>   -18.9210     0.0000   150.0000 </r>
       <r>   -18.7499     0.0000   150.0000 </r>
       <r>   -18.5789     0.0000   150.0000 </r>
       <r>   -18.4079     0.0000   150.0000 </r>
       <r>   -18.2369     0.0000   150.0000 </r>
       <r>   -18.0659     0.0000   150.0000 </r>
       <r>   -17.8949     0.0000   150.0000 </r>
       <r>   -17.7239     0.0000   150.0000 </r>
       <r>   -17.5529     0.0000   150.0000 </r>
       <r>   -17.3819     0.0000   150.0000 </r>
       <r>   -17.2109     0.0000   150.0000 </r>
       <r>   -17.0399     0.0000   150.0000 </r>
       <r>   -16.8689     0.0000   150.0000 </r>
       <r>   -16.6979     0.0000   150.0000 </r>
       <r>   -16.5269     0.0000   150.0000 </r>
       <r>   -16.3559     0.0000   150.0000 </r>
       <r>   -16.1849     0.0000   150.0000 </r>
       <r>   -16.0139     0.0000   150.0000 </r>
       <r>   -15.8429     0.0000   150.0000 </r>
       <r>   -15.6719     0.0000   150.0000 </r>
       <r>   -15.5009     0.0000   150.0000 </r>
       <r>   -15.3298     0.0000   150.0000 </r>
       <r>   -15.1588     0.0000   150.0000 </r>
       <r>   -14.9878     0.0000   150.0000 </r>
       <r>   -14.8168     0.0000   150.0000 </r>
       <r>   -14.6458     0.0000   150.0000 </r>
       <r>   -14.4748     0.0000   150.0000 </r>
       <r>   -14.3038     0.0000   150.0000 </r>
       <r>   -14.1328     0.0000   150.0000 </r>
       <r>   -13.9618     0.0000   150.0000 </r>
       <r>   -13.7908     0.0000   150.0000 </r>
       <r>   -13.6198     0.0000   150.0000 </r>
       <r>   -13.4488     0.0000   150.0000 </r>
       <r>   -13.2778     0.0000   150.0000 </r>
       <r>   -13.1068     0.0000   150.0000 </r>
       <r>   -12.9358     0.0000   150.0000 </r>
       <r>   -12.7648     0.0000   150.0000 </r>
       <r>   -12.5938     0.0000   150.0000 </r>
       <r>   -12.4228     0.0000   150.0000 </r>
       <r>   -12.2518     0.0000   150.0000 </r>
       <r>   -12.0808     0.0000   150.0000 </r>
       <r>   -11.9098     0.0000   150.0000 </r>
       <r>   -11.7387     0.0000   150.0000 </r>
       <r>   -11.5677     0.0000   150.0000 </r>
       <r>   -11.3967     0.0000   150.0000 </r>
       <r>   -11.2257     0.0000   150.0000 </r>
       <r>   -11.0547     0.0000   150.0000 </r>
       <r>   -10.8837     0.0000   150.0000 </r>
       <r>   -10.7127     0.0000   150.0000 </r>
       <r>   -10.5417     0.0000   150.0000 </r>
       <r>   -10.3707     0.0000   150.0000 </r>
       <r>   -10.1997     0.0000   150.0000 </r>
       <r>   -10.0287     0.0000   150.0000 </r>
       <r>    -9.8577     0.0000   150.0000 </r>
       <r>    -9.6867     0.0000   150.0000 </r>
       <r>    -9.5157     0.0000   150.0000 </r>
       <r>    -9.3447     0.0000   150.0000 </r>
       <r>    -9.1737     0.0000   150.0000 </r>
       <r>    -9.0027     0.0000   150.0000 </r>
       <r>    -8.8317     0.0000   150.0000 </r>
       <r>    -8.6607     0.0000   150.0000 </r>
       <r>    -8.4897     0.0206   150.0035 </r>
       <r>    -8.3186     1.9712   150.3406 </r>
       <r>    -8.1476     8.2204   151.7463 </r>
       <r>    -7.9766     3.7641   152.3900 </r>
       <r>    -7.8056     9.4719   154.0098 </r>
       <r>    -7.6346    13.9257   156.3911 </r>
       <r>    -7.4636    19.3341   159.6973 </r>
       <r>    -7.2926    20.2277   163.1564 </r>
       <r>    -7.1216    13.9823   165.5474 </r>
       <r>    -6.9506    25.4449   169.8986 </r>
       <r>    -6.7796    22.8065   173.7986 </r>
       <r>    -6.6086     9.6757   175.4532 </r>
       <r>    -6.4376     3.1826   175.9975 </r>
       <r>    -6.2666     0.0148   176.0000 </r>
       <r>    -6.0956     0.0000   176.0000 </r>
       <r>    -5.9246     0.0000   176.0000 </r>
       <r>    -5.7536     0.0000   176.0000 </r>
       <r>    -5.5826     0.0000   176.0000 </r>
       <r>    -5.4116     0.0200   176.0034 </r>
       <r>    -5.2406     1.2947   176.2248 </r>
       <r>    -5.0696     6.0299   177.2560 </r>
       <r>    -4.8985     4.1217   177.9608 </r>
       <r>    -4.7275     1.3971   178.1997 </r>
       <r>    -4.5565     7.9605   179.5610 </r>
       <r>    -4.3855     7.1143   180.7775 </r>
       <r>    -4.2145     8.7881   182.2804 </r>
       <r>    -4.0435    14.1553   184.7010 </r>
       <r>    -3.8725    17.5307   187.6988 </r>
       <r>    -3.7015    20.0634   191.1297 </r>
       <r>    -3.5305    20.2009   194.5842 </r>
       <r>    -3.3595    20.3515   198.0644 </r>
       <r>    -3.1885    18.4008   201.2110 </r>
       <r>    -3.0175    20.6157   204.7364 </r>
       <r>    -2.8465    21.1902   208.3600 </r>
       <r>    -2.6755    11.2332   210.2810 </r>
       <r>    -2.5045    11.2377   212.2027 </r>
       <r>    -2.3335     7.0871   213.4146 </r>
       <r>    -2.1625     3.1227   213.9486 </r>
       <r>    -1.9915     0.2996   213.9998 </r>
       <r>    -1.8205     0.0010   214.0000 </r>
       <r>    -1.6495     0.0000   214.0000 </r>
       <r>    -1.4784     0.0000   214.0000 </r>
       <r>    -1.3074     0.0000   214.0000 </r>
       <r>    -1.1364     0.0000   214.0000 </r>
       <r>    -0.9654     0.0000   214.0000 </r>
       <r>    -0.7944     0.0000   214.0000 </r>
       <r>    -0.6234     0.0000   214.0000 </r>
       <r>    -0.4524     0.0000   214.0000 </r>
       <r>    -0.2814     0.0066   214.0011 </r>
       <r>    -0.1104     0.2757   214.0483 </r>
       <r>     0.0606     1.1434   214.2438 </r>
       <r>     0.2316     3.2666   214.8024 </r>
       <r>     0.4026    10.0406   216.5194 </r>
       <r>     0.5736     9.3945   218.1259 </r>
       <r>     0.7446    12.4487   220.2547 </r>
       <r>     0.9156    14.8769   222.7987 </r>
       <r>     1.0866    17.5921   225.8070 </r>
       <r>     1.2576    23.6012   229.8430 </r>
       <r>     1.4286    31.3866   235.2102 </r>
       <r>     1.5996    28.2685   240.0443 </r>
       <r>     1.7706    27.1426   244.6858 </r>
       <r>     1.9416    30.5399   249.9083 </r>
       <r>     2.1127    36.5941   256.1660 </r>
       <r>     2.2837    34.4513   262.0574 </r>
       <r>     2.4547    35.4265   268.1155 </r>
       <r>     2.6257    42.1587   275.3248 </r>
       <r>     2.7967    53.5972   284.4902 </r>
       <r>     2.9677    63.6427   295.3734 </r>
       <r>     3.1387    62.0289   305.9807 </r>
       <r>     3.3097    58.8406   316.0427 </r>
       <r>     3.4807    56.1810   325.6499 </r>
       <r>     3.6517    53.7185   334.8361 </r>
       <r>     3.8227    50.8683   343.5348 </r>
       <r>     3.9937    48.8972   351.8965 </r>
       <r>     4.1647    51.0016   360.6180 </r>
       <r>     4.3357    49.7933   369.1329 </r>
       <r>     4.5067    42.8474   376.4600 </r>
       <r>     4.6777    34.8432   382.4184 </r>
       <r>     4.8487    26.9084   387.0198 </r>
       <r>     5.0197    28.9068   391.9630 </r>
       <r>     5.1907    28.3063   396.8036 </r>
       <r>     5.3617    19.5805   400.1519 </r>
       <r>     5.5328    16.1183   402.9082 </r>
       <r>     5.7038    11.7892   404.9242 </r>
       <r>     5.8748     7.5511   406.2155 </r>
       <r>     6.0458    13.5165   408.5269 </r>
       <r>     6.2168    16.1718   411.2924 </r>
       <r>     6.3878    15.3102   413.9105 </r>
       <r>     6.5588    14.9780   416.4718 </r>
       <r>     6.7298    21.4285   420.1362 </r>
       <r>     6.9008    23.5943   424.1709 </r>
       <r>     7.0718    21.9122   427.9180 </r>
       <r>     7.2428    20.1844   431.3697 </r>
       <r>     7.4138    26.5157   435.9040 </r>
       <r>     7.5848    31.6407   441.3147 </r>
       <r>     7.7558    28.7026   446.2230 </r>
       <r>     7.9268    26.1180   450.6893 </r>
       <r>     8.0978    30.4371   455.8942 </r>
       <r>     8.2688    34.4346   461.7827 </r>
       <r>     8.4398    41.1619   468.8216 </r>
       <r>     8.6108    46.7011   476.8077 </r>
       <r>     8.7818    47.5038   484.9311 </r>
       <r>     8.9529    44.0028   492.4558 </r>
       <r>     9.1239    46.1805   500.3529 </r>
       <r>     9.2949    46.1969   508.2528 </r>
       <r>     9.4659    48.1130   516.4803 </r>
       <r>     9.6369    46.3457   524.4057 </r>
       <r>     9.8079    41.4886   531.5004 </r>
       <r>     9.9789    42.7959   538.8187 </r>
       <r>    10.1499    47.4958   546.9407 </r>
       <r>    10.3209    41.7350   554.0776 </r>
       <r>    10.4919    29.1767   559.0670 </r>
       <r>    10.6629     5.3458   559.9811 </r>
       <r>    10.8339     0.1103   560.0000 </r>
       <r>    11.0049     0.0000   560.0000 </r>
       <r>    11.1759     0.0000   560.0000 </r>
       <r>    11.3469     0.0000   560.0000 </r>
       <r>    11.5179     0.0000   560.0000 </r>
       <r>    11.6889     0.0000   560.0000 </r>
       <r>    11.8599     0.0000   560.0000 </r>
       <r>    12.0309     0.0000   560.0000 </r>
       <r>    12.2019     0.0000   560.0000 </r>
       <r>    12.3729     0.0000   560.0000 </r>
       <r>    12.5440     0.0000   560.0000 </r>
       <r>    12.7150     0.0000   560.0000 </r>
       <r>    12.8860     0.0000   560.0000 </r>
      </set>
     </set>
    </array>
   </total>
  </dos>
 </calculation>
 <structure name="finalpos" >
  <crystal>
   <varray name="basis" >
    <v>       8.86890915       0.02018322      -0.01356398 </v>
    <v>       0.02669943       8.87472660       0.00509982 </v>
    <v>       0.01829502      -0.00973853       8.85439018 </v>
   </varray>
   <i name="volume">    696.91934836 </i>
   <varray name="rec_basis" >
    <v>       0.11275385      -0.00033908      -0.00023335 </v>
    <v>      -0.00025624       0.11268023       0.00012446 </v>
    <v>       0.00017287      -0.00006542       0.11293790 </v>
   </varray>
  </crystal>
  <varray name="positions" >
   <v>       0.00009940       0.99359843       0.00026572 </v>
   <v>       0.26957379       0.00168967       0.24195154 </v>
   <v>       0.24827051       0.49534766       0.24709302 </v>
   <v>       0.49842818       0.49849732       0.00056150 </v>
   <v>       0.50299302       0.24767093       0.74379650 </v>
   <v>       0.99712423       0.49994064       0.50233436 </v>
   <v>       0.49730158       0.75939437       0.74694593 </v>
   <v>       0.99625519       0.24717337       0.24257569 </v>
   <v>       0.74344306       0.75352599       0.00987686 </v>
   <v>       0.99739946       0.24491687       0.75638873 </v>
   <v>       0.74786136       0.23899551       0.50135120 </v>
   <v>       0.00025195       0.75941443       0.74580619 </v>
   <v>       0.24941595       0.49986015       0.74985627 </v>
   <v>       0.26141467       0.23972438       0.99015268 </v>
   <v>       0.50531314       0.25354800       0.25218453 </v>
   <v>       0.73150217       0.98653701       0.26551705 </v>
   <v>       0.73841575       0.24005679       0.99974845 </v>
   <v>       0.25131820       0.74972557       0.99537836 </v>
   <v>       0.25307654       0.24512461       0.50680511 </v>
   <v>       0.25278988       0.75229565       0.50099780 </v>
   <v>       0.25288288       0.24779874       0.24685332 </v>
   <v>       0.26256659       0.99985651       0.98954314 </v>
   <v>       0.99722191       0.24942801       0.99898216 </v>
   <v>       0.74613909       0.24384546       0.24755611 </v>
   <v>       0.73888615       0.00245317       0.00162831 </v>
   <v>       0.51178801       0.00545295       0.28312786 </v>
   <v>       0.99211608       0.50266269       0.24263823 </v>
   <v>       0.49407669       0.76419972       0.00630841 </v>
   <v>       0.99773597       0.00329561       0.74163642 </v>
   <v>       0.75319111       0.24628052       0.75319609 </v>
   <v>       0.76645485       0.99559901       0.49498659 </v>
   <v>       0.49904805       0.24630066       0.49166981 </v>
   <v>       0.52018460       0.00290473       0.73863235 </v>
   <v>       0.00019479       0.99725504       0.25411197 </v>
   <v>       0.50102985       0.23770266       0.00427556 </v>
   <v>       0.25466729       0.74928573       0.24866037 </v>
   <v>       0.23811340       0.49997815       0.99676910 </v>
   <v>       0.00306520       0.74075811       0.00461557 </v>
   <v>       0.74521245       0.74876386       0.25675378 </v>
   <v>       0.76159030       0.49469883       0.00449462 </v>
   <v>       0.50191852       0.49973844       0.25462240 </v>
   <v>       0.24859449       0.24327449       0.74857851 </v>
   <v>       0.25443729       0.00000018       0.50911771 </v>
   <v>       0.00395594       0.24409368       0.49946823 </v>
   <v>       0.24689507       0.75973929       0.75069790 </v>
   <v>       0.25749590       0.50023136       0.49993342 </v>
   <v>       0.99842618       0.75867667       0.49458831 </v>
   <v>       0.99512657       0.50267455       0.76094745 </v>
   <v>       0.75061439       0.75508639       0.74848720 </v>
   <v>       0.74382135       0.49736070       0.50352434 </v>
   <v>       0.49883497       0.76649380       0.48636345 </v>
   <v>       0.50644467       0.50337406       0.74176579 </v>
   <v>       0.51013239       0.01213352       0.96018447 </v>
   <v>       0.00112692       0.51892640       0.98515948 </v>
   <v>       0.47761887       0.73135878       0.25814797 </v>
   <v>       0.24182128       0.00501504       0.75530275 </v>
   <v>       0.46489323       0.99628074       0.51969365 </v>
   <v>       0.73714609       0.97598500       0.77293960 </v>
   <v>       0.02036040       0.75943962       0.25469622 </v>
   <v>       0.73832245       0.50604497       0.25167155 </v>
   <v>       0.02374987       0.00210421       0.49209629 </v>
   <v>       0.50333722       0.51932044       0.49312800 </v>
   <v>       0.75340772       0.51815747       0.76194801 </v>
   <v>       0.74310531       0.73893249       0.49091015 </v>
  </varray>
 </structure>
</modeling>
