HECN                                    
           1
     8.875564    0.047473   -0.020898
     0.054318    8.827087   -0.000066
     0.011211   -0.014791    8.968504
   Zr   Hf   Ti   N    C    Cr   W 
     7     6     7    13    19     6     6
Direct configuration=     1
   0.00201857  0.98605513  0.00084700
   0.26802231  0.99671435  0.24448130
   0.25430415  0.49846794  0.24804504
   0.49861841  0.49273623  0.00183663
   0.49931226  0.24474696  0.75312146
   0.99685971  0.49764380  0.50804066
   0.49510599  0.75866943  0.74533812
   0.99538901  0.24434756  0.25014553
   0.74551607  0.75115223  0.01019679
   0.99963511  0.24574335  0.74927208
   0.74910422  0.23491606  0.50123949
   0.99742082  0.75808905  0.74825539
   0.24811539  0.49944550  0.75215153
   0.25934124  0.24562065  0.99244691
   0.50701763  0.25203961  0.24051481
   0.76193553  0.99329827  0.23815631
   0.75153212  0.26026343  0.00568377
   0.24419580  0.74533220  0.00088063
   0.24693885  0.24568117  0.50884714
   0.25707364  0.75114241  0.49328525
   0.25130830  0.24747895  0.24904312
   0.26052161  0.99870290  0.98936887
   0.00061262  0.25033924  0.00039763
   0.74761621  0.24231317  0.24899410
   0.73978002  0.00095321  0.00419607
   0.51169100  0.00661034  0.26588097
   0.99474451  0.49835500  0.24334778
   0.49493810  0.76365111  0.00806358
   0.99763164  0.00284016  0.74470677
   0.75452414  0.24385299  0.75244318
   0.76369395  0.99853166  0.49408537
   0.49947274  0.24334158  0.49179031
   0.51126860  0.00357752  0.74470767
   0.99970617  0.99999762  0.25092537
   0.50209955  0.23752429  0.00572573
   0.25447222  0.74868284  0.24948416
   0.23927279  0.50026429  0.99714625
   0.00164371  0.74089747  0.00432776
   0.74625495  0.74975395  0.25405831
   0.76154189  0.49434001  0.00636233
   0.49905318  0.50091766  0.25274895
   0.24757861  0.24401717  0.74992071
   0.25603346  0.99997026  0.51089561
   0.00254671  0.24541491  0.49849775
   0.24613517  0.75787680  0.75162800
   0.25575241  0.49984928  0.50162499
   0.99829591  0.75667727  0.49516199
   0.99603848  0.50146864  0.75693641
   0.75042963  0.75659346  0.74568365
   0.74274307  0.49568820  0.50545972
   0.49935325  0.76737965  0.48329262
   0.50437293  0.50146297  0.74331611
   0.51328695  0.01751329  0.96894241
   0.00124869  0.51964560  0.97838112
   0.47398248  0.72771840  0.26127597
   0.24944763  0.00337721  0.75555171
   0.45955156  0.99014865  0.51672025
   0.72764952  0.97460951  0.78165858
   0.01982266  0.76758216  0.25480549
   0.72818055  0.51106831  0.24982332
   0.02706732  0.00203193  0.48412064
   0.50333410  0.52776223  0.49344037
   0.75154710  0.52129020  0.76782114
   0.73629745  0.73582237  0.49445146
HECN                                    
           1
     8.870910    0.032440   -0.016900
     0.038687    8.952069    0.006885
     0.014846   -0.007981    8.804120
   Zr   Hf   Ti   N    C    Cr   W 
     7     6     7    13    19     6     6
Direct configuration=     2
   0.00382314  0.99829110  0.99731208
   0.27073791  0.00492654  0.24161892
   0.24442221  0.49158890  0.24999128
   0.49742180  0.50010190  0.99892323
   0.50521825  0.24622803  0.74505322
   0.99649206  0.50213088  0.50044240
   0.49431215  0.75853144  0.74949868
   0.00025953  0.25193608  0.24353103
   0.74160277  0.74942575  0.00895641
   0.99608461  0.24102752  0.75755795
   0.74212096  0.23265655  0.50189457
   0.00099014  0.76071795  0.74378075
   0.25021547  0.50144686  0.74975798
   0.25431794  0.24338910  0.99346721
   0.50530044  0.24617929  0.24747988
   0.74815841  0.99197693  0.24818783
   0.75130224  0.25243177  0.00260044
   0.24961974  0.74566996  0.99716172
   0.25373018  0.24643858  0.50688230
   0.25232079  0.74976034  0.49844460
   0.25332400  0.24744797  0.24813300
   0.26162460  0.99941499  0.98999774
   0.99970045  0.25079430  0.99897001
   0.74741874  0.24495502  0.24737143
   0.74067406  0.00261638  0.00226890
   0.51221673  0.00673440  0.26607652
   0.99309389  0.50094481  0.24475946
   0.49373668  0.76282175  0.00717059
   0.99897308  0.00256640  0.74325494
   0.75397358  0.24502636  0.75335587
   0.76599451  0.99483827  0.49237241
   0.49853071  0.24339777  0.49359368
   0.51060019  0.00125286  0.74291696
   0.00248866  0.99985743  0.25049377
   0.50358145  0.23890257  0.00532537
   0.25350112  0.74800578  0.24886417
   0.23803090  0.50011172  0.99796563
   0.00263544  0.73745098  0.00441639
   0.74671619  0.74952910  0.25764798
   0.76211161  0.49823482  0.00661330
   0.50088561  0.49840076  0.25557488
   0.24810796  0.24290969  0.74972695
   0.25157509  0.99898067  0.50863173
   0.00399732  0.24332028  0.49987076
   0.24530563  0.75961406  0.75175033
   0.25730154  0.50025913  0.50075854
   0.99846554  0.75891675  0.49367612
   0.99392804  0.50285267  0.76028620
   0.74766821  0.75686735  0.74773447
   0.74143810  0.49812407  0.50423460
   0.49712759  0.77022889  0.48634301
   0.50635460  0.50327608  0.74226625
   0.51211578  0.01302251  0.97250391
   0.00163720  0.51492717  0.98088514
   0.47939144  0.73430000  0.25780772
   0.24981556  0.00239340  0.75676820
   0.46850286  0.99469759  0.51795318
   0.72960975  0.97808597  0.78092723
   0.01646373  0.75565500  0.25791274
   0.73788424  0.50906951  0.25316325
   0.01945137  0.99907831  0.49156568
   0.50189170  0.51635009  0.49384097
   0.75214382  0.51546855  0.76258146
   0.74156036  0.74344205  0.48912622
HECN                                    
           1
     8.872309    0.036959   -0.018102
     0.043385    8.914501    0.004796
     0.013753   -0.010028    8.853533
   Zr   Hf   Ti   N    C    Cr   W 
     7     6     7    13    19     6     6
Direct configuration=     3
   0.00327325  0.99466275  0.99839758
   0.26991632  0.00249050  0.24249767
   0.24739820  0.49363321  0.24939238
   0.49777725  0.49791872  0.99981687
   0.50344017  0.24578428  0.74752489
   0.99659917  0.50079943  0.50277001
   0.49455151  0.75857367  0.74822456
   0.99878970  0.24968297  0.24555885
   0.74278046  0.74993916  0.00933528
   0.99715609  0.24242890  0.75501920
   0.74422248  0.23332991  0.50169250
   0.99991465  0.75993597  0.74515200
   0.24958246  0.50085208  0.75049164
   0.25583004  0.24405328  0.99315358
   0.50582101  0.24791867  0.24534555
   0.75230388  0.99237775  0.24511395
   0.75137526  0.25475244  0.00354271
   0.24798784  0.74556629  0.99830128
   0.25168704  0.24621022  0.50748504
   0.25375163  0.75017352  0.49686382
   0.25271768  0.24745593  0.24841195
   0.26129257  0.99920352  0.98980550
   0.99997434  0.25065957  0.99940713
   0.74747646  0.24417173  0.24786889
   0.74040401  0.00212255  0.00285952
   0.51205857  0.00669741  0.26601674
   0.99358907  0.50017836  0.24432758
   0.49409834  0.76306797  0.00744367
   0.99856961  0.00264654  0.74369961
   0.75413864  0.24467906  0.75307660
   0.76530442  0.99593142  0.49289638
   0.49881423  0.24338199  0.49304136
   0.51080225  0.00194181  0.74346465
   0.00165185  0.99989748  0.25062627
   0.50313497  0.23849322  0.00544849
   0.25379347  0.74820681  0.24905372
   0.23840459  0.50015775  0.99771453
   0.00233908  0.73847201  0.00438859
   0.74657807  0.74959632  0.25654882
   0.76193816  0.49708020  0.00653744
   0.50033627  0.49914646  0.25470923
   0.24794934  0.24323763  0.74978610
   0.25291618  0.99927572  0.50932410
   0.00356238  0.24394069  0.49945005
   0.24555417  0.75909960  0.75171316
   0.25683531  0.50013668  0.50102416
   0.99841310  0.75825257  0.49413164
   0.99456243  0.50244427  0.75926052
   0.74849882  0.75678802  0.74710619
   0.74182907  0.49740248  0.50461012
   0.49779579  0.76938620  0.48540933
   0.50575749  0.50273745  0.74258841
   0.51247094  0.01435493  0.97141216
   0.00152328  0.51632604  0.98011735
   0.47776064  0.73234577  0.25887198
   0.24970561  0.00268508  0.75639552
   0.46580845  0.99334508  0.51757794
   0.72901821  0.97705442  0.78115225
   0.01748087  0.75919250  0.25695805
   0.73496742  0.50965779  0.25214141
   0.02174444  0.99995924  0.48928426
   0.50233180  0.51973338  0.49371545
   0.75196686  0.51719257  0.76418459
   0.73997267  0.74117979  0.49075932
HECN                                    
           1
     8.833559    0.025611   -0.016661
     0.032093    8.845215    0.008892
     0.015087   -0.005895    8.834461
   Zr   Hf   Ti   N    C    Cr   W 
     7     6     7    13    19     6     6
Direct configuration=     4
   0.00309411  0.99384028  0.99853463
   0.26848972  0.00139853  0.24159817
   0.24817891  0.49474827  0.24871027
   0.49738436  0.49842374  0.00127287
   0.50351867  0.24577112  0.74695842
   0.99490407  0.50056847  0.50255788
   0.49521336  0.75921012  0.74896992
   0.99855668  0.24959037  0.24463133
   0.74353031  0.75106670  0.00915018
   0.99729774  0.24284229  0.75446632
   0.74542210  0.23353226  0.50033186
   0.99920636  0.76046479  0.74454052
   0.24940733  0.50015469  0.74945348
   0.25628960  0.24357310  0.99178650
   0.50603686  0.24668030  0.24773721
   0.74490822  0.99080883  0.25109809
   0.74746409  0.25129420  0.00207319
   0.24947113  0.74592899  0.99748321
   0.25342217  0.24500037  0.50771718
   0.25268493  0.75130746  0.49913417
   0.25369564  0.24759021  0.24807833
   0.26240527  0.99979501  0.98995068
   0.99975366  0.25085686  0.99894238
   0.74769277  0.24535992  0.24747401
   0.74110208  0.00267775  0.00211248
   0.51417423  0.00710548  0.26613940
   0.99223979  0.50146512  0.24449036
   0.49331103  0.76238444  0.00741538
   0.99883822  0.00251150  0.74232222
   0.75362983  0.24538586  0.75339985
   0.76568125  0.99489260  0.49186656
   0.49841821  0.24419002  0.49302398
   0.51093011  0.00198563  0.74250312
   0.00217757  0.99874279  0.25187060
   0.50353690  0.23937057  0.00511253
   0.25366969  0.74844244  0.24892409
   0.23771438  0.49995013  0.99777324
   0.00281642  0.73928573  0.00434861
   0.74636618  0.75008339  0.25640842
   0.76207376  0.49712464  0.00622168
   0.50123293  0.49824964  0.25530248
   0.24892288  0.24325264  0.74940645
   0.25335084  0.99914937  0.50861570
   0.00338804  0.24341898  0.50006344
   0.24577187  0.75910693  0.75152195
   0.25690535  0.49978638  0.50060747
   0.99808461  0.75829371  0.49479749
   0.99425125  0.50241028  0.76042109
   0.74869972  0.75659328  0.74793413
   0.74203379  0.49831839  0.50391884
   0.49777405  0.76828370  0.48622805
   0.50611442  0.50264650  0.74201490
   0.51202611  0.01395814  0.97283449
   0.00172747  0.51569847  0.98148750
   0.47910422  0.73219664  0.25788446
   0.25019143  0.00342914  0.75647425
   0.46536919  0.99453315  0.51903661
   0.72951772  0.97708389  0.78078439
   0.01695823  0.75887766  0.25506209
   0.73711953  0.50889806  0.25397707
   0.02061440  0.00083202  0.49073715
   0.50283945  0.51981698  0.49373737
   0.75242285  0.51743640  0.76061822
   0.74087231  0.74232445  0.48995123
HECN                                    
           1
     8.835410    0.026154   -0.016730
     0.032632    8.848526    0.008696
     0.015024   -0.006093    8.835372
   Zr   Hf   Ti   N    C    Cr   W 
     7     6     7    13    19     6     6
Direct configuration=     5
   0.00310275  0.99387990  0.99852805
   0.26855824  0.00145118  0.24164121
   0.24814137  0.49469450  0.24874297
   0.49740319  0.49839948  0.00120315
   0.50351490  0.24577174  0.74698555
   0.99498544  0.50057969  0.50256802
   0.49518156  0.75917945  0.74893425
   0.99856786  0.24959482  0.24467574
   0.74349425  0.75101235  0.00915908
   0.99729092  0.24282236  0.75449281
   0.74536450  0.23352241  0.50039703
   0.99924032  0.76043935  0.74456981
   0.24941577  0.50018827  0.74950318
   0.25626756  0.24359617  0.99185196
   0.50602659  0.24673998  0.24762266
   0.74526331  0.99088496  0.25081143
   0.74765200  0.25146095  0.00214346
   0.24939991  0.74591141  0.99752241
   0.25333897  0.24505854  0.50770605
   0.25273608  0.75125297  0.49902546
   0.25364869  0.24758367  0.24809432
   0.26235184  0.99976646  0.98994375
   0.99976424  0.25084736  0.99896464
   0.74768232  0.24530268  0.24749295
   0.74106853  0.00265095  0.00214827
   0.51407267  0.00708570  0.26613355
   0.99230448  0.50140324  0.24448258
   0.49334886  0.76241741  0.00741671
   0.99882533  0.00251795  0.74238818
   0.75365421  0.24535186  0.75338438
   0.76566322  0.99494259  0.49191586
   0.49843717  0.24415113  0.49302483
   0.51092396  0.00198349  0.74254917
   0.00215242  0.99879840  0.25181099
   0.50351756  0.23932828  0.00512864
   0.25367561  0.74843110  0.24893031
   0.23774752  0.49996017  0.99777042
   0.00279346  0.73924651  0.00435054
   0.74637632  0.75005994  0.25641516
   0.76206725  0.49712248  0.00623681
   0.50118995  0.49829279  0.25527406
   0.24887615  0.24325185  0.74942463
   0.25332998  0.99915541  0.50864962
   0.00339644  0.24344413  0.50003405
   0.24576142  0.75910656  0.75153111
   0.25690200  0.49980324  0.50062741
   0.99810038  0.75829176  0.49476560
   0.99426620  0.50241196  0.76036551
   0.74869010  0.75660267  0.74789448
   0.74202391  0.49827426  0.50395196
   0.49777517  0.76833681  0.48618882
   0.50609729  0.50265085  0.74204237
   0.51204749  0.01397730  0.97276637
   0.00171772  0.51572871  0.98142187
   0.47903974  0.73220372  0.25793176
   0.25016807  0.00339328  0.75647050
   0.46539021  0.99447599  0.51896678
   0.72949374  0.97708243  0.78080201
   0.01698332  0.75889281  0.25515287
   0.73701630  0.50893456  0.25388916
   0.02066859  0.00079009  0.49066758
   0.50281508  0.51981292  0.49373633
   0.75240092  0.51742455  0.76078901
   0.74082906  0.74226925  0.48998996
HECN                                    
           1
     8.872067    0.018951   -0.015576
     0.025489    8.871754    0.010254
     0.016340   -0.004622    8.887841
   Zr   Hf   Ti   N    C    Cr   W 
     7     6     7    13    19     6     6
Direct configuration=     6
   0.00236478  0.99286083  0.99942809
   0.26727480  0.99989569  0.24117631
   0.24940404  0.49614035  0.24856192
   0.49774668  0.49816226  0.00241433
   0.50338989  0.24608034  0.74705196
   0.99447423  0.49987148  0.50322298
   0.49588687  0.75930910  0.74927692
   0.99803325  0.24847159  0.24389892
   0.74472843  0.75237044  0.00920132
   0.99763279  0.24382080  0.75373422
   0.74713658  0.23489235  0.49937111
   0.99862805  0.76023564  0.74499567
   0.24912435  0.49935356  0.74887132
   0.25757649  0.24326670  0.99048105
   0.50606530  0.24660916  0.24975465
   0.73771386  0.98900830  0.25688530
   0.74299988  0.24745072  0.00059652
   0.25031519  0.74664406  0.99679012
   0.25445081  0.24382176  0.50763355
   0.25188824  0.75256145  0.50103904
   0.25455718  0.24745220  0.24770362
   0.26379778  0.00017975  0.98988130
   0.99961590  0.25129562  0.99844352
   0.74787488  0.24616276  0.24722703
   0.74162481  0.00357973  0.00172000
   0.51576787  0.00703184  0.26610326
   0.99095433  0.50276272  0.24403462
   0.49287723  0.76204574  0.00768035
   0.99875951  0.00272960  0.74109735
   0.75334059  0.24585608  0.75341214
   0.76553584  0.99414007  0.49101466
   0.49834149  0.24481423  0.49264750
   0.51119146  0.00254015  0.74167978
   0.00162205  0.99780220  0.25291532
   0.50338846  0.24010318  0.00498390
   0.25388825  0.74875667  0.24885926
   0.23721085  0.49953943  0.99737942
   0.00327322  0.74015608  0.00396473
   0.74580837  0.75073620  0.25534172
   0.76218053  0.49627633  0.00541315
   0.50223237  0.49739462  0.25576530
   0.24960443  0.24324572  0.74891229
   0.25362204  0.99923495  0.50823548
   0.00306326  0.24343131  0.50011061
   0.24600181  0.75910367  0.75117237
   0.25668421  0.49948436  0.50007985
   0.99768644  0.75815120  0.49498693
   0.99437613  0.50219914  0.76099757
   0.74924327  0.75667995  0.74846462
   0.74241767  0.49835427  0.50363780
   0.49766843  0.76734368  0.48696137
   0.50609423  0.50253256  0.74187101
   0.51175636  0.01379329  0.97409367
   0.00160075  0.51506624  0.98290351
   0.48016984  0.73186752  0.25717242
   0.25074065  0.00433298  0.75624934
   0.46474131  0.99535373  0.52060819
   0.73015610  0.97731643  0.78021065
   0.01700461  0.75892430  0.25350642
   0.73844441  0.50792917  0.25556337
   0.02115800  0.00185256  0.49115730
   0.50316291  0.52061970  0.49376748
   0.75209661  0.51780528  0.75752088
   0.74182945  0.74319596  0.49016377
HECN                                    
           1
     8.860779    0.021169   -0.015932
     0.027689    8.864601    0.009774
     0.015934   -0.005075    8.871684
   Zr   Hf   Ti   N    C    Cr   W 
     7     6     7    13    19     6     6
Direct configuration=     7
   0.00259138  0.99317405  0.99915249
   0.26766875  0.00037372  0.24131848
   0.24901646  0.49569597  0.24861747
   0.49764146  0.49823509  0.00204357
   0.50342815  0.24598559  0.74703164
   0.99463120  0.50008915  0.50302243
   0.49567056  0.75926912  0.74917206
   0.99819744  0.24881665  0.24413663
   0.74434962  0.75195303  0.00918851
   0.99752767  0.24351403  0.75396650
   0.74659277  0.23447111  0.49968530
   0.99881588  0.76029838  0.74486527
   0.24921390  0.49960996  0.74906469
   0.25717512  0.24336749  0.99090074
   0.50605355  0.24664944  0.24910201
   0.74002969  0.98958689  0.25502559
   0.74442743  0.24868345  0.00106965
   0.25003430  0.74641878  0.99701436
   0.25411016  0.24420132  0.50765572
   0.25214799  0.75215990  0.50042269
   0.25427860  0.24749233  0.24782325
   0.26335426  0.00005245  0.98990050
   0.99966125  0.25115796  0.99860306
   0.74781560  0.24589854  0.24730849
   0.74145398  0.00329431  0.00185117
   0.51524803  0.00704796  0.26611260
   0.99136800  0.50234551  0.24417176
   0.49302196  0.76216002  0.00759961
   0.99877959  0.00266455  0.74149250
   0.75343664  0.24570131  0.75340365
   0.76557506  0.99438653  0.49129048
   0.49837065  0.24461058  0.49276304
   0.51110925  0.00236907  0.74194595
   0.00178499  0.99810835  0.25257720
   0.50342785  0.23986522  0.00502824
   0.25382296  0.74865662  0.24888104
   0.23737552  0.49966877  0.99749906
   0.00312585  0.73987659  0.00408290
   0.74598232  0.75052860  0.25567033
   0.76214597  0.49653613  0.00566524
   0.50191295  0.49767023  0.25561492
   0.24938107  0.24324739  0.74906916
   0.25353244  0.99921043  0.50836227
   0.00316544  0.24343534  0.50008716
   0.24592808  0.75910448  0.75128220
   0.25675106  0.49958232  0.50024744
   0.99781342  0.75819448  0.49491915
   0.99434249  0.50226451  0.76080408
   0.74907364  0.75665610  0.74829012
   0.74229688  0.49832958  0.50373399
   0.49770144  0.76764877  0.48672483
   0.50609519  0.50256888  0.74192346
   0.51184574  0.01384995  0.97368735
   0.00163685  0.51526981  0.98244992
   0.47982334  0.73197045  0.25740489
   0.25056482  0.00404422  0.75631712
   0.46494015  0.99508440  0.52010575
   0.72995290  0.97724436  0.78039171
   0.01699800  0.75891454  0.25401042
   0.73800679  0.50823768  0.25505088
   0.02100767  0.00152615  0.49100747
   0.50305605  0.52037184  0.49375800
   0.75218970  0.51768825  0.75852131
   0.74152244  0.74291110  0.49011065
HECN                                    
           1
     8.858901    0.023338   -0.016016
     0.029816    8.878370    0.007381
     0.015825   -0.007457    8.856724
   Zr   Hf   Ti   N    C    Cr   W 
     7     6     7    13    19     6     6
Direct configuration=     8
   0.00209700  0.99375260  0.99973175
   0.26800348  0.00042252  0.24144984
   0.24911248  0.49564428  0.24895878
   0.49844637  0.49790329  0.00179916
   0.50359538  0.24625002  0.74691750
   0.99572621  0.49993431  0.50331000
   0.49589233  0.75911345  0.74912519
   0.99814005  0.24804646  0.24354370
   0.74461706  0.75205592  0.00919276
   0.99752529  0.24362522  0.75448441
   0.74687626  0.23553309  0.49996251
   0.99918604  0.75994979  0.74555923
   0.24936765  0.49950063  0.74925948
   0.25819160  0.24317485  0.99068991
   0.50570281  0.24766997  0.24967251
   0.73758622  0.98858358  0.25714546
   0.74277633  0.24689868  0.00055075
   0.24996169  0.74681595  0.99667343
   0.25404846  0.24394205  0.50727471
   0.25200036  0.75247436  0.50082345
   0.25431698  0.24720575  0.24758802
   0.26373700  0.00004318  0.98986128
   0.99962798  0.25108586  0.99835728
   0.74784421  0.24579255  0.24741570
   0.74140080  0.00361436  0.00179111
   0.51433898  0.00678583  0.26588086
   0.99124648  0.50260546  0.24384694
   0.49351327  0.76215772  0.00763337
   0.99859370  0.00301759  0.74147079
   0.75352373  0.24570575  0.75300572
   0.76535338  0.99481549  0.49099863
   0.49889585  0.24451966  0.49266663
   0.51155429  0.00264580  0.74192246
   0.00092857  0.99790101  0.25277840
   0.50277878  0.23994213  0.00508522
   0.25398306  0.74870697  0.24887866
   0.23760420  0.49943726  0.99725129
   0.00323748  0.73997079  0.00380573
   0.74559713  0.75035064  0.25553636
   0.76196020  0.49585329  0.00497242
   0.50245438  0.49759150  0.25589996
   0.24930631  0.24324271  0.74882328
   0.25326428  0.99943415  0.50841296
   0.00310095  0.24371123  0.49950419
   0.24602704  0.75908012  0.75109200
   0.25670196  0.49968900  0.50007479
   0.99766805  0.75827960  0.49439603
   0.99441364  0.50219989  0.76065019
   0.74921724  0.75687065  0.74819580
   0.74242121  0.49798518  0.50386192
   0.49769507  0.76765361  0.48701580
   0.50581766  0.50272931  0.74225435
   0.51210897  0.01411277  0.97351075
   0.00130867  0.51531776  0.98253512
   0.47970720  0.73161005  0.25768458
   0.25075505  0.00437035  0.75608376
   0.46462352  0.99485842  0.52089258
   0.72989941  0.97724746  0.78027308
   0.01789993  0.75897046  0.25430916
   0.73774357  0.50836735  0.25541762
   0.02241659  0.00153940  0.49034906
   0.50316422  0.52115387  0.49372752
   0.75147318  0.51811775  0.75795713
   0.74192311  0.74241905  0.49020712
HECN                                    
           1
     8.858063    0.024306   -0.016053
     0.030765    8.884518    0.006312
     0.015776   -0.008521    8.850046
   Zr   Hf   Ti   N    C    Cr   W 
     7     6     7    13    19     6     6
Direct configuration=     9
   0.00187618  0.99401061  0.99999085
   0.26815295  0.00044425  0.24150859
   0.24915536  0.49562127  0.24911141
   0.49880583  0.49775527  0.00168982
   0.50367003  0.24636785  0.74686649
   0.99621519  0.49986521  0.50343859
   0.49599138  0.75904404  0.74910421
   0.99811450  0.24770309  0.24327845
   0.74473646  0.75210175  0.00919468
   0.99752421  0.24367485  0.75471604
   0.74700274  0.23600647  0.50008661
   0.99935137  0.75979445  0.74586953
   0.24943632  0.49945191  0.74934657
   0.25864551  0.24308885  0.99059561
   0.50554608  0.24812497  0.24992775
   0.73649524  0.98813687  0.25809332
   0.74203924  0.24610325  0.00031847
   0.24992923  0.74699295  0.99652101
   0.25402094  0.24382644  0.50710429
   0.25193441  0.75261459  0.50100271
   0.25433415  0.24707797  0.24748279
   0.26390791  0.00003900  0.98984375
   0.99961313  0.25105370  0.99824736
   0.74785699  0.24574531  0.24746362
   0.74137703  0.00375701  0.00176428
   0.51393308  0.00666905  0.26577719
   0.99119219  0.50272131  0.24370171
   0.49373266  0.76215665  0.00764847
   0.99851066  0.00317497  0.74146113
   0.75356261  0.24570768  0.75282777
   0.76525435  0.99500668  0.49086817
   0.49913038  0.24447906  0.49262350
   0.51175298  0.00276910  0.74191198
   0.00054618  0.99780871  0.25286835
   0.50248893  0.23997650  0.00511070
   0.25405454  0.74872939  0.24887761
   0.23770635  0.49933401  0.99714047
   0.00328731  0.74001274  0.00368179
   0.74542514  0.75027134  0.25547642
   0.76187732  0.49554885  0.00466251
   0.50269615  0.49755638  0.25602742
   0.24927293  0.24324061  0.74871333
   0.25314452  0.99953391  0.50843566
   0.00307212  0.24383415  0.49924352
   0.24607124  0.75906923  0.75100694
   0.25668003  0.49973654  0.49999759
   0.99760312  0.75831749  0.49416210
   0.99444542  0.50217106  0.76058137
   0.74928134  0.75696626  0.74815364
   0.74247676  0.49783166  0.50391909
   0.49769223  0.76765581  0.48714592
   0.50569372  0.50280090  0.74240234
   0.51222649  0.01422988  0.97343181
   0.00116212  0.51533919  0.98257323
   0.47965537  0.73144945  0.25780961
   0.25083996  0.00451568  0.75597945
   0.46448216  0.99475782  0.52124442
   0.72987553  0.97724883  0.78022003
   0.01830267  0.75899533  0.25444276
   0.73762602  0.50842523  0.25558163
   0.02304571  0.00154507  0.49005463
   0.50321244  0.52150244  0.49371398
   0.75115319  0.51830921  0.75770488
   0.74210208  0.74219968  0.49025020
HECN                                    
           1
     8.862291    0.025485   -0.015384
     0.031984    8.876126    0.005439
     0.016458   -0.009386    8.852809
   Zr   Hf   Ti   N    C    Cr   W 
     7     6     7    13    19     6     6
Direct configuration=    10
   0.00147612  0.99412883  0.99990263
   0.26858486  0.00068393  0.24133094
   0.24899581  0.49518470  0.24854741
   0.49911848  0.49775109  0.00143031
   0.50352160  0.24649612  0.74631414
   0.99669108  0.49986827  0.50307881
   0.49603287  0.75931338  0.74933973
   0.99793936  0.24774266  0.24296677
   0.74472776  0.75190596  0.00900552
   0.99761899  0.24355852  0.75497886
   0.74710329  0.23646413  0.50039998
   0.99954233  0.76014686  0.74593454
   0.24980676  0.49933421  0.74952035
   0.25949528  0.24272792  0.99080507
   0.50516130  0.24926072  0.25027696
   0.73521788  0.98739435  0.25943241
   0.74128536  0.24487631  0.00023616
   0.25002607  0.74706789  0.99637740
   0.25388655  0.24385977  0.50672605
   0.25196490  0.75263877  0.50107716
   0.25421293  0.24713208  0.24733813
   0.26392581  0.99996505  0.98963198
   0.99950299  0.25076314  0.99822302
   0.74757081  0.24542861  0.24745196
   0.74110575  0.00347055  0.00205441
   0.51272676  0.00646896  0.26546568
   0.99149498  0.50262768  0.24336507
   0.49424739  0.76212760  0.00774492
   0.99846089  0.00313368  0.74170008
   0.75354997  0.24561862  0.75264230
   0.76495761  0.99569759  0.49082355
   0.49938954  0.24427995  0.49249471
   0.51220142  0.00263483  0.74207404
   0.00002476  0.99765475  0.25292400
   0.50191131  0.23996173  0.00524730
   0.25437342  0.74857647  0.24886579
   0.23798846  0.49924656  0.99737051
   0.00334437  0.74020450  0.00389899
   0.74516395  0.74980256  0.25583112
   0.76178289  0.49520352  0.00429433
   0.50238760  0.49766612  0.25591293
   0.24923577  0.24333806  0.74855649
   0.25351985  0.99959404  0.50868209
   0.00351427  0.24384557  0.49879533
   0.24624581  0.75899437  0.75103938
   0.25701154  0.49996388  0.50029435
   0.99766442  0.75848760  0.49428225
   0.99433927  0.50221872  0.76060232
   0.74943035  0.75724136  0.74788201
   0.74305196  0.49767401  0.50400320
   0.49776670  0.76806737  0.48710966
   0.50541860  0.50301183  0.74258343
   0.51248064  0.01469544  0.97299750
   0.00101333  0.51582023  0.98249096
   0.47907375  0.73109384  0.25809481
   0.25079071  0.00476603  0.75584369
   0.46474883  0.99446506  0.52170989
   0.72985204  0.97700210  0.77958765
   0.01908864  0.75918813  0.25430305
   0.73789755  0.50877096  0.25555509
   0.02283549  0.00171579  0.49012635
   0.50326352  0.52210585  0.49438116
   0.75104127  0.51873073  0.75734306
   0.74219579  0.74113980  0.49070039
HECN                                    
           1
     8.863526    0.025830   -0.015189
     0.032340    8.873674    0.005183
     0.016657   -0.009638    8.853616
   Zr   Hf   Ti   N    C    Cr   W 
     7     6     7    13    19     6     6
Direct configuration=    11
   0.00135930  0.99416342  0.99987687
   0.26871098  0.00075400  0.24127905
   0.24894925  0.49505703  0.24838268
   0.49920978  0.49774984  0.00135451
   0.50347827  0.24653362  0.74615282
   0.99683005  0.49986914  0.50297372
   0.49604498  0.75939214  0.74940852
   0.99788822  0.24775422  0.24287575
   0.74472523  0.75184870  0.00895027
   0.99764667  0.24352451  0.75505562
   0.74713263  0.23659797  0.50049152
   0.99959807  0.76024991  0.74595353
   0.24991493  0.49929979  0.74957109
   0.25974344  0.24262235  0.99086621
   0.50504888  0.24959287  0.25037900
   0.73484488  0.98717731  0.25982351
   0.74106527  0.24451756  0.00021210
   0.25005435  0.74708979  0.99633546
   0.25384732  0.24386951  0.50661559
   0.25197381  0.75264585  0.50109890
   0.25417753  0.24714790  0.24729588
   0.26393104  0.99994342  0.98957013
   0.99947085  0.25067818  0.99821590
   0.74748725  0.24533601  0.24744854
   0.74102654  0.00338681  0.00213914
   0.51237452  0.00641049  0.26537472
   0.99158340  0.50260028  0.24326674
   0.49439769  0.76211909  0.00777308
   0.99844636  0.00312161  0.74176987
   0.75354628  0.24559258  0.75258813
   0.76487094  0.99589963  0.49081054
   0.49946523  0.24422172  0.49245709
   0.51233237  0.00259556  0.74212136
   0.99987251  0.99760975  0.25294026
   0.50174264  0.23995743  0.00528721
   0.25446654  0.74853174  0.24886233
   0.23807084  0.49922098  0.99743769
   0.00336102  0.74026058  0.00396243
   0.74508769  0.74966550  0.25593471
   0.76175533  0.49510253  0.00418679
   0.50229749  0.49769823  0.25587950
   0.24922492  0.24336656  0.74851069
   0.25362944  0.99961161  0.50875406
   0.00364339  0.24384888  0.49866442
   0.24629679  0.75897247  0.75104885
   0.25710833  0.50003035  0.50038102
   0.99768231  0.75853735  0.49431735
   0.99430827  0.50223266  0.76060844
   0.74947385  0.75732179  0.74780269
   0.74321993  0.49762789  0.50402775
   0.49778842  0.76818772  0.48709908
   0.50533825  0.50307353  0.74263633
   0.51255484  0.01483155  0.97287067
   0.00096986  0.51596090  0.98246695
   0.47890391  0.73098988  0.25817811
   0.25077632  0.00483924  0.75580405
   0.46482670  0.99437946  0.52184582
   0.72984521  0.97692993  0.77940295
   0.01931814  0.75924447  0.25426223
   0.73797682  0.50887205  0.25554734
   0.02277410  0.00176572  0.49014730
   0.50327840  0.52228232  0.49457604
   0.75100858  0.51885398  0.75723740
   0.74222319  0.74082987  0.49083184
HECN                                    
           1
     8.864400    0.024957   -0.015319
     0.031442    8.883175    0.005171
     0.016533   -0.009663    8.855979
   Zr   Hf   Ti   N    C    Cr   W 