    2    2  100    1
  0.1797830E+02  0.3300600E-09  0.3300600E-09  0.3300600E-09  0.5000000E-15
  1.000000000000000E-004
  CAR 
 HECN                                    
     22      4     28
 
  0.0000000E+00  0.0000000E+00  0.0000000E+00  0.3703704E-01
      1        -26.098685   1.000000
      2        -26.098685   1.000000
      3        -26.098685   1.000000
      4        -25.294517   1.000000
      5        -25.294517   1.000000
      6        -25.294517   1.000000
      7         -1.224672   1.000000
      8          1.129938   1.000000
      9          1.129938   1.000000
     10          4.947821   0.332555
     11          4.947821   0.332555
     12          4.947821   0.332555
     13          7.703966   0.000000
     14          7.703966   0.000000
     15          9.851783   0.000000
     16          9.851783   0.000000
     17          9.851783   0.000000
     18         13.564008   0.000000
     19         13.564008   0.000000
     20         13.564008   0.000000
     21         19.928710   0.000000
     22         19.928710   0.000000
     23         19.928710   0.000000
     24         22.368238   0.000000
     25         24.567533   0.000000
     26         24.567533   0.000000
     27         29.294766   0.000000
     28         29.294770   0.000000
 
  0.3333333E+00  0.0000000E+00  0.0000000E+00  0.2222222E+00
      1        -26.065305   1.000000
      2        -25.892238   1.000000
      3        -25.892238   1.000000
      4        -25.671187   1.000000
      5        -25.489438   1.000000
      6        -25.489438   1.000000
      7          0.677538   1.000000
      8          2.307558   1.000000
      9          2.337587   1.000000
     10          5.001170   0.117548
     11          5.001170   0.117548
     12          5.388440   0.000000
     13          5.924520   0.000000
     14          6.717696   0.000000
     15          6.717696   0.000000
     16          8.305043   0.000000
     17          8.554022   0.000000
     18         10.094782   0.000000
     19         19.005127   0.000000
     20         19.005127   0.000000
     21         20.597892   0.000000
     22         21.331413   0.000000
     23         21.569803   0.000000
     24         22.901016   0.000000
     25         22.901016   0.000000
     26         23.649143   0.000000
     27         29.081159   0.000000
     28         29.081166   0.000000
 
  0.3333333E+00  0.3333333E+00  0.0000000E+00  0.4444444E+00
      1        -26.372500   1.000000
      2        -26.185874   1.000000
      3        -25.777561   1.000000
      4        -25.575500   1.000000
      5        -25.511869   1.000000
      6        -25.301340   1.000000
      7          1.143110   1.000000
      8          1.781751   1.000000
      9          3.452356   1.000000
     10          4.135646   1.000000
     11          4.199960   1.000000
     12          4.954433   0.299313
     13          6.414049   0.000000
     14          7.509265   0.000000
     15          8.056038   0.000000
     16          8.599976   0.000000
     17         10.373713   0.000000
     18         10.976871   0.000000
     19         15.588629   0.000000
     20         18.328892   0.000000
     21         18.576129   0.000000
     22         19.524094   0.000000
     23         19.806617   0.000000
     24         24.673505   0.000000
     25         24.964572   0.000000
     26         25.784734   0.000000
     27         28.002565   0.000000
     28         28.468838   0.000000
 
  0.3333333E+00  0.3333333E+00  0.3333333E+00  0.2962963E+00
      1        -26.218311   1.000000
      2        -26.103781   1.000000
      3        -26.103781   1.000000
      4        -25.567412   1.000000
      5        -25.567412   1.000000
      6        -25.442746   1.000000
      7          2.556062   1.000000
      8          2.966690   1.000000
      9          3.211058   1.000000
     10          3.211058   1.000000
     11          3.758258   1.000000
     12          3.758258   1.000000
     13          8.099087   0.000000
     14          8.099087   0.000000
     15          8.141391   0.000000
     16          8.141391   0.000000
     17         11.560656   0.000000
     18         14.508514   0.000000
     19         15.155933   0.000000
     20         15.155933   0.000000
     21         17.538059   0.000000
     22         18.511596   0.000000
     23         18.511596   0.000000
     24         21.473332   0.000000
     25         24.353472   0.000000
     26         25.623737   0.000000
     27         25.623737   0.000000
     28         30.504312   0.000000
