HECN                                    
           1
     3.300600    0.000000    0.000000
     0.000000    3.300600    0.000000
     0.000000    0.000000    3.300600
   Nb
     2
Direct configuration=     1
   0.00000000  0.00000000  0.00000000
   0.50000000  0.50000000  0.50000000
HECN                                    
           1
     3.441481    0.000000   -0.000000
    -0.000000    3.441481   -0.000000
    -0.000000    0.000000    3.441481
   Nb
     2
Direct configuration=     2
   1.00000000  1.00000000  1.00000000
   0.50000000  0.50000000  0.50000000
HECN                                    
           1
     3.354341    0.000000   -0.000000
    -0.000000    3.354341   -0.000000
    -0.000000    0.000000    3.354341
   Nb
     2
Direct configuration=     3
   0.00000000  0.00000000  0.00000000
   0.50000000  0.50000000  0.50000000
HECN                                    
           1
     3.353181    0.000000   -0.000000
    -0.000000    3.353181   -0.000000
    -0.000000    0.000000    3.353181
   Nb
     2
Direct configuration=     4
   0.00000000  0.00000000  0.00000000
   0.50000000  0.50000000  0.50000000
