  64  64   0   0
  0.1129557E+02  0.8932500E-09  0.9055600E-09  0.8937200E-09  0.5000000E-15
  1.000000000000000E-004
  CAR 
 HECN                                    
     15.78917019    -59.48785037  301      8.91803427      1.00000000
    -59.488  0.0000E+00  0.0000E+00
    -59.237  0.0000E+00  0.0000E+00
    -58.986  0.0000E+00  0.0000E+00
    -58.735  0.0000E+00  0.0000E+00
    -58.484  0.0000E+00  0.0000E+00
    -58.233  0.0000E+00  0.0000E+00
    -57.982  0.0000E+00  0.0000E+00
    -57.731  0.0000E+00  0.0000E+00
    -57.480  0.0000E+00  0.0000E+00
    -57.230  0.0000E+00  0.0000E+00
    -56.979  0.0000E+00  0.0000E+00
    -56.728  0.0000E+00  0.0000E+00
    -56.477  0.2538E-09  0.6368E-10
    -56.226  0.1004E-02  0.2520E-03
    -55.975  0.2065E+00  0.5206E-01
    -55.724  0.3406E+00  0.1375E+00
    -55.473  0.9866E-02  0.1400E+00
    -55.222  0.5554E-07  0.1400E+00
    -54.971  0.0000E+00  0.1400E+00
    -54.720  0.0000E+00  0.1400E+00
    -54.469  0.0000E+00  0.1400E+00
    -54.218  0.0000E+00  0.1400E+00
    -53.968  0.0000E+00  0.1400E+00
    -53.717  0.0000E+00  0.1400E+00
    -53.466  0.0000E+00  0.1400E+00
    -53.215  0.0000E+00  0.1400E+00
    -52.964  0.0000E+00  0.1400E+00
    -52.713  0.0000E+00  0.1400E+00
    -52.462  0.0000E+00  0.1400E+00
    -52.211  0.0000E+00  0.1400E+00
    -51.960  0.0000E+00  0.1400E+00
    -51.709  0.0000E+00  0.1400E+00
    -51.458  0.0000E+00  0.1400E+00
    -51.207  0.0000E+00  0.1400E+00
    -50.956  0.0000E+00  0.1400E+00
    -50.706  0.0000E+00  0.1400E+00
    -50.455  0.0000E+00  0.1400E+00
    -50.204  0.0000E+00  0.1400E+00
    -49.953  0.0000E+00  0.1400E+00
    -49.702  0.0000E+00  0.1400E+00
    -49.451  0.0000E+00  0.1400E+00
    -49.200  0.0000E+00  0.1400E+00
    -48.949  0.0000E+00  0.1400E+00
    -48.698  0.0000E+00  0.1400E+00
    -48.447  0.0000E+00  0.1400E+00
    -48.196  0.0000E+00  0.1400E+00
    -47.945  0.0000E+00  0.1400E+00
    -47.694  0.1479E-09  0.1400E+00
    -47.444  0.7760E-03  0.1402E+00
    -47.193  0.1134E+00  0.1686E+00
    -46.942  0.9565E-01  0.1926E+00
    -46.691  0.2073E+00  0.2447E+00
    -46.440  0.6091E-01  0.2600E+00
    -46.189  0.1704E-03  0.2600E+00
    -45.938  0.5970E-11  0.2600E+00
    -45.687  0.0000E+00  0.2600E+00
    -45.436  0.0000E+00  0.2600E+00
    -45.185  0.0000E+00  0.2600E+00
    -44.934  0.0000E+00  0.2600E+00
    -44.683  0.0000E+00  0.2600E+00
    -44.432  0.0000E+00  0.2600E+00
    -44.182  0.0000E+00  0.2600E+00
    -43.931  0.0000E+00  0.2600E+00
    -43.680  0.0000E+00  0.2600E+00
    -43.429  0.0000E+00  0.2600E+00
    -43.178  0.0000E+00  0.2600E+00
    -42.927  0.0000E+00  0.2600E+00
    -42.676  0.0000E+00  0.2600E+00
    -42.425  0.0000E+00  0.2600E+00
    -42.174  0.0000E+00  0.2600E+00
    -41.923  0.0000E+00  0.2600E+00
    -41.672  0.0000E+00  0.2600E+00
    -41.421  0.0000E+00  0.2600E+00
    -41.170  0.0000E+00  0.2600E+00
    -40.920  0.0000E+00  0.2600E+00
    -40.669  0.0000E+00  0.2600E+00
    -40.418  0.0000E+00  0.2600E+00
    -40.167  0.0000E+00  0.2600E+00
    -39.916  0.0000E+00  0.2600E+00
    -39.665  0.0000E+00  0.2600E+00
    -39.414  0.0000E+00  0.2600E+00
    -39.163  0.0000E+00  0.2600E+00
    -38.912  0.0000E+00  0.2600E+00
    -38.661  0.0000E+00  0.2600E+00
    -38.410  0.0000E+00  0.2600E+00
    -38.159  0.0000E+00  0.2600E+00
    -37.908  0.0000E+00  0.2600E+00
    -37.658  0.0000E+00  0.2600E+00
    -37.407  0.0000E+00  0.2600E+00
    -37.156  0.0000E+00  0.2600E+00
    -36.905  0.0000E+00  0.2600E+00
    -36.654  0.0000E+00  0.2600E+00
    -36.403  0.0000E+00  0.2600E+00
    -36.152  0.0000E+00  0.2600E+00
    -35.901  0.0000E+00  0.2600E+00
    -35.650  0.0000E+00  0.2600E+00
    -35.399  0.3956E-13  0.2600E+00
    -35.148  0.1382E-04  0.2600E+00
    -34.897  0.6167E-01  0.2755E+00
    -34.646  0.7913E+00  0.4740E+00
    -34.396  0.5576E+00  0.6140E+00
    -34.145  0.2411E-01  0.6200E+00
    -33.894  0.1177E-05  0.6200E+00
    -33.643  0.4425E-15  0.6200E+00
    -33.392  0.0000E+00  0.6200E+00
    -33.141  0.0000E+00  0.6200E+00
    -32.890  0.0000E+00  0.6200E+00
    -32.639  0.0000E+00  0.6200E+00
    -32.388  0.0000E+00  0.6200E+00
    -32.137  0.0000E+00  0.6200E+00
    -31.886  0.0000E+00  0.6200E+00
    -31.635  0.0000E+00  0.6200E+00
    -31.384  0.0000E+00  0.6200E+00
    -31.134  0.0000E+00  0.6200E+00
    -30.883  0.3508E-07  0.6200E+00
    -30.632  0.1047E-01  0.6226E+00
    -30.381  0.5390E+00  0.7579E+00
    -30.130  0.8253E+00  0.9650E+00
    -29.879  0.1019E+01  0.1221E+01
    -29.628  0.6861E+00  0.1393E+01
    -29.377  0.2878E-01  0.1400E+01
    -29.126  0.4847E-06  0.1400E+01
    -28.875  0.0000E+00  0.1400E+01
    -28.624  0.0000E+00  0.1400E+01
    -28.373  0.0000E+00  0.1400E+01
    -28.122  0.0000E+00  0.1400E+01
    -27.872  0.0000E+00  0.1400E+01
    -27.621  0.0000E+00  0.1400E+01
    -27.370  0.0000E+00  0.1400E+01
    -27.119  0.0000E+00  0.1400E+01
    -26.868  0.0000E+00  0.1400E+01
    -26.617  0.0000E+00  0.1400E+01
    -26.366  0.0000E+00  0.1400E+01
    -26.115  0.0000E+00  0.1400E+01
    -25.864  0.0000E+00  0.1400E+01
    -25.613  0.0000E+00  0.1400E+01
    -25.362  0.0000E+00  0.1400E+01
    -25.111  0.0000E+00  0.1400E+01
    -24.860  0.0000E+00  0.1400E+01
    -24.609  0.0000E+00  0.1400E+01
    -24.359  0.0000E+00  0.1400E+01
    -24.108  0.1327E-15  0.1400E+01
    -23.857  0.6002E-06  0.1400E+01
    -23.606  0.2196E-01  0.1406E+01
    -23.355  0.3226E+00  0.1486E+01
    -23.104  0.4320E+00  0.1595E+01
    -22.853  0.4480E+00  0.1707E+01
    -22.602  0.2088E+00  0.1760E+01
    -22.351  0.4387E-01  0.1771E+01
    -22.100  0.2280E+00  0.1828E+01
    -21.849  0.3436E+00  0.1914E+01
    -21.598  0.1749E+00  0.1958E+01
    -21.347  0.5103E+00  0.2086E+01
    -21.097  0.2990E+00  0.2161E+01
    -20.846  0.7557E-01  0.2180E+01
    -20.595  0.1163E-04  0.2180E+01
    -20.344  0.1992E-13  0.2180E+01
    -20.093  0.0000E+00  0.2180E+01
    -19.842  0.0000E+00  0.2180E+01
    -19.591  0.0000E+00  0.2180E+01
    -19.340  0.0000E+00  0.2180E+01
    -19.089  0.0000E+00  0.2180E+01
    -18.838  0.0000E+00  0.2180E+01
    -18.587  0.0000E+00  0.2180E+01
    -18.336  0.0000E+00  0.2180E+01
    -18.085  0.0000E+00  0.2180E+01
    -17.835  0.0000E+00  0.2180E+01
    -17.584  0.0000E+00  0.2180E+01
    -17.333  0.0000E+00  0.2180E+01
    -17.082  0.0000E+00  0.2180E+01
    -16.831  0.0000E+00  0.2180E+01
    -16.580  0.0000E+00  0.2180E+01
    -16.329  0.0000E+00  0.2180E+01
    -16.078  0.0000E+00  0.2180E+01
    -15.827  0.0000E+00  0.2180E+01
    -15.576  0.0000E+00  0.2180E+01
    -15.325  0.0000E+00  0.2180E+01
    -15.074  0.0000E+00  0.2180E+01
    -14.823  0.0000E+00  0.2180E+01
    -14.573  0.0000E+00  0.2180E+01
    -14.322  0.0000E+00  0.2180E+01
    -14.071  0.0000E+00  0.2180E+01
    -13.820  0.0000E+00  0.2180E+01
    -13.569  0.0000E+00  0.2180E+01
    -13.318  0.0000E+00  0.2180E+01
    -13.067  0.0000E+00  0.2180E+01
    -12.816  0.0000E+00  0.2180E+01
    -12.565  0.0000E+00  0.2180E+01
    -12.314  0.0000E+00  0.2180E+01
    -12.063  0.0000E+00  0.2180E+01
    -11.812  0.0000E+00  0.2180E+01
    -11.561  0.0000E+00  0.2180E+01
    -11.311  0.0000E+00  0.2180E+01
    -11.060  0.0000E+00  0.2180E+01
    -10.809  0.0000E+00  0.2180E+01
    -10.558  0.0000E+00  0.2180E+01
    -10.307  0.0000E+00  0.2180E+01
    -10.056  0.0000E+00  0.2180E+01
     -9.805  0.0000E+00  0.2180E+01
     -9.554  0.0000E+00  0.2180E+01
     -9.303  0.0000E+00  0.2180E+01
     -9.052  0.0000E+00  0.2180E+01
     -8.801  0.0000E+00  0.2180E+01
     -8.550  0.0000E+00  0.2180E+01
     -8.299  0.0000E+00  0.2180E+01
     -8.049  0.1524E-16  0.2180E+01
     -7.798  0.4461E-07  0.2180E+01
     -7.547  0.1585E-02  0.2180E+01
     -7.296  0.5194E-01  0.2193E+01
     -7.045  0.6635E-01  0.2210E+01
     -6.794  0.8805E-01  0.2232E+01
     -6.543  0.8187E-01  0.2253E+01
     -6.292  0.1681E+00  0.2295E+01
     -6.041  0.2000E+00  0.2345E+01
     -5.790  0.1850E+00  0.2391E+01
     -5.539  0.1195E+00  0.2421E+01
     -5.288  0.7306E-01  0.2440E+01
     -5.037  0.7443E-03  0.2440E+01
     -4.787  0.1649E-09  0.2440E+01
     -4.536  0.2676E-04  0.2440E+01
     -4.285  0.1838E-01  0.2445E+01
     -4.034  0.5762E-01  0.2459E+01
     -3.783  0.2070E-01  0.2464E+01
     -3.532  0.7888E-01  0.2484E+01
     -3.281  0.1134E+00  0.2513E+01
     -3.030  0.1734E+00  0.2556E+01
     -2.779  0.2209E+00  0.2611E+01
     -2.528  0.2246E+00  0.2668E+01
     -2.277  0.2140E+00  0.2722E+01
     -2.026  0.1780E+00  0.2766E+01
     -1.775  0.1113E+00  0.2794E+01
     -1.525  0.9185E-01  0.2817E+01
     -1.274  0.1130E-01  0.2820E+01
     -1.023  0.2315E-04  0.2820E+01
     -0.772  0.2010E-11  0.2820E+01
     -0.521  0.0000E+00  0.2820E+01
     -0.270  0.0000E+00  0.2820E+01
     -0.019  0.0000E+00  0.2820E+01
      0.232  0.3524E-10  0.2820E+01
      0.483  0.6651E-04  0.2820E+01
      0.734  0.5222E-02  0.2821E+01
      0.985  0.2432E-01  0.2827E+01
      1.236  0.8066E-01  0.2848E+01
      1.487  0.9521E-01  0.2872E+01
      1.737  0.1452E+00  0.2908E+01
      1.988  0.2239E+00  0.2964E+01
      2.239  0.2747E+00  0.3033E+01
      2.490  0.2701E+00  0.3101E+01
      2.741  0.2735E+00  0.3169E+01
      2.992  0.3385E+00  0.3254E+01
      3.243  0.3254E+00  0.3336E+01
      3.494  0.4500E+00  0.3449E+01
      3.745  0.5250E+00  0.3581E+01
      3.996  0.6135E+00  0.3735E+01
      4.247  0.5867E+00  0.3882E+01
      4.498  0.5807E+00  0.4028E+01
      4.749  0.5903E+00  0.4176E+01
      4.999  0.5330E+00  0.4309E+01
      5.250  0.4015E+00  0.4410E+01
      5.501  0.3474E+00  0.4497E+01
      5.752  0.3176E+00  0.4577E+01
      6.003  0.2784E+00  0.4647E+01
      6.254  0.1890E+00  0.4694E+01
      6.505  0.1337E+00  0.4728E+01
      6.756  0.7751E-01  0.4747E+01
      7.007  0.1360E+00  0.4781E+01
      7.258  0.2143E+00  0.4835E+01
      7.509  0.1883E+00  0.4883E+01
      7.760  0.1944E+00  0.4931E+01
      8.011  0.2108E+00  0.4984E+01
      8.261  0.2632E+00  0.5050E+01
      8.512  0.3014E+00  0.5126E+01
      8.763  0.2777E+00  0.5196E+01
      9.014  0.2914E+00  0.5269E+01
      9.265  0.3590E+00  0.5359E+01
      9.516  0.4749E+00  0.5478E+01
      9.767  0.5747E+00  0.5622E+01
     10.018  0.5222E+00  0.5753E+01
     10.269  0.5189E+00  0.5883E+01
     10.520  0.4894E+00  0.6006E+01
     10.771  0.4717E+00  0.6124E+01
     11.022  0.4660E+00  0.6241E+01
     11.273  0.4506E+00  0.6354E+01
     11.523  0.4424E+00  0.6466E+01
     11.774  0.4116E+00  0.6569E+01
     12.025  0.3034E+00  0.6645E+01
     12.276  0.2462E+00  0.6707E+01
     12.527  0.5297E-01  0.6720E+01
     12.778  0.1351E-03  0.6720E+01
     13.029  0.2246E-10  0.6720E+01
     13.280  0.0000E+00  0.6720E+01
     13.531  0.0000E+00  0.6720E+01
     13.782  0.0000E+00  0.6720E+01
     14.033  0.0000E+00  0.6720E+01
     14.284  0.0000E+00  0.6720E+01
     14.535  0.0000E+00  0.6720E+01
     14.785  0.0000E+00  0.6720E+01
     15.036  0.0000E+00  0.6720E+01
     15.287  0.0000E+00  0.6720E+01
     15.538  0.0000E+00  0.6720E+01
     15.789  0.0000E+00  0.6720E+01
