HECN                                    
           1
     8.932500    0.000000    0.000000
     0.005753    9.055598    0.000000
     0.032102   -0.015743    8.937128
   V    Nb   Hf   N    C    Cr   W 
   7   6   7  13  19   6   6
Direct configuration=     1
   0.99688001  0.99204997  0.99924002
   0.25398003  0.99714995  0.24912000
   0.24803003  0.50165000  0.24955001
   0.50501006  0.49745998  0.99834003
   0.50479003  0.24631001  0.74710002
   0.99427992  0.50449999  0.49779000
   0.49950005  0.75481999  0.74817004
   0.99437004  0.23617001  0.26379999
   0.75718000  0.74102998  0.01100000
   0.00201000  0.25541000  0.73894001
   0.75307001  0.26163001  0.50533002
   0.99514004  0.74492004  0.74511997
   0.25679999  0.49462002  0.74545002
   0.24788999  0.24839000  0.99657997
   0.50833000  0.25676999  0.25376001
   0.74879004  0.98787999  0.26967001
   0.75719000  0.25603001  0.99591997
   0.24762001  0.74973999  0.99974006
   0.25272001  0.24823001  0.50015003
   0.24457999  0.75048999  0.49983999
   0.24982001  0.24942998  0.24825000
   0.26146999  0.99984002  0.99295996
   0.00281000  0.25024000  0.00130000
   0.75313998  0.24617000  0.25492002
   0.74767001  0.99748000  0.01202000
   0.50714994  0.99977000  0.24673000
   0.99051999  0.48088002  0.24100998
   0.50519005  0.76130999  0.00855000
   0.98896989  0.00202000  0.73708999
   0.75744996  0.24437997  0.74896999
   0.73632001  0.00417000  0.51063000
   0.50563996  0.23264999  0.49544997
   0.50008998  0.00061000  0.73471998
   0.99720000  0.99771992  0.25899999
   0.50427997  0.24673000  0.00262000
   0.25133999  0.74958002  0.24910999
   0.24328000  0.50072997  0.99510994
   0.99837005  0.74313996  0.00460000
   0.75633000  0.73891003  0.25767000
   0.75839004  0.50315998  0.00288000
   0.50700002  0.50333002  0.25878999
   0.24900999  0.25315000  0.74854000
   0.24446000  0.99823996  0.50287998
   0.99804009  0.24229999  0.50128003
   0.24177002  0.75340997  0.75018002
   0.25841001  0.50062002  0.50129001
   0.99000004  0.76215003  0.49746000
   0.99203996  0.50055999  0.75138002
   0.75036005  0.74888000  0.74756004
   0.74036002  0.50197000  0.50067003
   0.50575006  0.74958002  0.49720000
   0.50501003  0.50217998  0.73912003
   0.51588997  0.01358000  0.98075008
   0.99841994  0.50976998  0.98613004
   0.50379003  0.73926997  0.25905001
   0.23780002  0.01082000  0.74607998
   0.47957999  0.98308000  0.49717999
   0.74279003  0.97869994  0.76450995
   0.99864998  0.77573999  0.26102000
   0.73551001  0.51468004  0.26666001
   0.02362000  0.99783001  0.49557002
   0.50539000  0.52833005  0.49917999
   0.73876003  0.52828003  0.73814999
   0.75400003  0.72937999  0.49116997
HECN                                    
           1
     8.377629    0.009148   -0.004510
     0.014670    8.465814    0.003188
     0.025579   -0.011536    8.407604
   V    Nb   Hf   N    C    Cr   W 
   7   6   7  13  19   6   6
Direct configuration=     2
   0.99695360  0.98900664  0.99888395
   0.25188180  0.99279909  0.24929170
   0.25161298  0.50587535  0.24843540
   0.50349960  0.49387058  0.99718335
   0.50105887  0.24351468  0.75142021
   0.99471052  0.50166849  0.50133085
   0.49932563  0.75827581  0.74821073
   0.99979878  0.23731588  0.26125562
   0.75287521  0.74500411  0.00868329
   0.00327252  0.25363203  0.73959727
   0.75164788  0.25861836  0.50974606
   0.99972782  0.74772510  0.74832066
   0.25724959  0.49663222  0.74960621
   0.24884719  0.24538021  0.99950223
   0.50236760  0.25108360  0.25173047
   0.73998115  0.99133735  0.26560953
   0.75616628  0.25270267  0.99201770
   0.25486132  0.75392075  0.00053947
   0.25707530  0.24880263  0.49790167
   0.24934874  0.74958218  0.49892602
   0.25103036  0.25015004  0.24896666
   0.25884254  0.00062341  0.99462126
   0.00209342  0.24775495  0.00163140
   0.75163125  0.24641688  0.25341722
   0.74909443  0.99745250  0.00660404
   0.50128838  0.99962047  0.24891419
   0.99263934  0.48241247  0.24457265
   0.50457267  0.75868219  0.00544786
   0.98848950  0.00231339  0.74103072
   0.75211714  0.24480981  0.75018483
   0.73796857  0.00254825  0.51013715
   0.50393711  0.23334197  0.49978747
   0.50365588  0.00014120  0.73786048
   0.00246106  0.99967394  0.25083782
   0.50436322  0.24837769 -0.00397644
   0.25133122  0.74881731  0.24978286
   0.24598926  0.50006135  0.00006131
   0.99828835  0.74515694  0.00554731
   0.75262242  0.74299693  0.25293139
   0.75529273  0.50326356  0.00265677
   0.49830901  0.50655771  0.25140936
   0.25355011  0.24937885  0.74841671
   0.25284060  0.99792576  0.50224376
   0.99886947  0.24747959  0.50108663
   0.24667882  0.75397316  0.75005971
   0.25426073  0.50037058  0.49538272
   0.99360864  0.75548125  0.49952766
   0.99246133  0.50102269  0.74989591
   0.74301832  0.75704166  0.74923678
   0.75050896  0.49761408  0.50317200
   0.50299056  0.75633081  0.49899932
   0.50357269  0.50108983  0.74612128
   0.51673410  0.01639947  0.97558586
   0.00021722  0.51418888  0.98205030
   0.50380440  0.73709493  0.25690927
   0.23711145  0.01100135  0.74865440
   0.47582579  0.98142355  0.49980692
   0.73810276  0.97393107  0.76729148
   0.00500410  0.77374549  0.25416928
   0.74014430  0.51108830  0.25937459
   0.02220897  0.00169034  0.50128616
   0.49699669  0.52600674  0.50008288
   0.73906356  0.52109712  0.74445924
   0.75414655  0.73670360  0.49556855
HECN                                    
           1
     8.671926    0.004296   -0.002118
     0.009940    8.778629    0.001497
     0.029039   -0.013768    8.688457
   V    Nb   Hf   N    C    Cr   W 
   7   6   7  13  19   6   6
Direct configuration=     3
   0.99691018  0.99073321  0.99908402
   0.25306560  0.99526626  0.24919459
   0.24958976  0.50348009  0.24906363
   0.50435190  0.49590581  0.99783516
   0.50316580  0.24509925  0.74898504
   0.99446413  0.50327595  0.49933380
   0.49942643  0.75631509  0.74818859
   0.99673024  0.23666854  0.26268872
   0.75531286  0.74274629  0.00999160
   0.00255722  0.25464166  0.73922595
   0.75244885  0.26032708  0.50725611
   0.99713412  0.74613718  0.74651534
   0.25699531  0.49549180  0.74726328
   0.24830308  0.24708900  0.99785374
   0.50573650  0.25430563  0.25287529
   0.74496617  0.98936959  0.26790222
   0.75674433  0.25458892  0.99421737
   0.25076861  0.75155344  0.00008747
   0.25461336  0.24847993  0.49916808
   0.24665164  0.75009993  0.49943967
   0.25034612  0.24974242  0.24856240
   0.26032838  0.00017772  0.99368560
   0.00249700  0.24916445  0.00144424
   0.75248509  0.24627556  0.25426500
   0.74829057  0.99746778  0.00965709
   0.50460242  0.99970220  0.24768451
   0.99144067  0.48154513  0.24256373
   0.50492112  0.76017199  0.00719645
   0.98876012  0.00214751  0.73880917
   0.75513284  0.24456296  0.74950162
   0.73703542  0.00346923  0.51041417
   0.50489918  0.23294929  0.49734268
   0.50163803  0.00041003  0.73608870
  -0.00051039  0.99856678  0.25543842
   0.50431923  0.24744150 -0.00025708
   0.25133549  0.74925017  0.24940334
   0.24445517  0.50044342 -0.00273120
   0.99833553  0.74401279  0.00501368
   0.75472317  0.74067497  0.25560499
   0.75704445  0.50320285  0.00278359
   0.50322825  0.50471960  0.25557384
   0.25098026  0.25152112  0.74848403
   0.24810123  0.99810900  0.50259984
   0.99840375  0.24454147  0.50119653
   0.24390320  0.75365661  0.75012617
   0.25660890  0.50050827  0.49871441
   0.99156307  0.75926736  0.49835939
   0.99222379  0.50076012  0.75073261
   0.74717481  0.75240712  0.74829543
   0.74476604  0.50009211  0.50175739
   0.50455479  0.75249953  0.49798717
   0.50438267  0.50170897  0.74217422
   0.51626011  0.01479926  0.97849776
  -0.00079512  0.51168207  0.98435084
   0.50379557  0.73832845  0.25811573
   0.23750016  0.01089860  0.74720321
   0.47794700  0.98236160  0.49832666
   0.74074963  0.97663438  0.76572367
   0.00141161  0.77487943  0.25802931
   0.73752354  0.51312727  0.26347988
   0.02300758 -0.00049939  0.49806470
   0.50174151  0.52731992  0.49957588
   0.73888543  0.52517383  0.74090049
   0.75406693  0.73254968  0.49309019
HECN                                    
           1
     8.678171    0.008141   -0.005328
     0.013861    8.734720    0.003222
     0.025840   -0.011978    8.705131
   V    Nb   Hf   N    C    Cr   W 
   7   6   7  13  19   6   6
Direct configuration=     4
   0.99812402  0.98789822  0.99789557
   0.25082214  0.99098447  0.24906284
   0.25432029  0.50806740  0.24717470
   0.50191800  0.49197075  0.99681475
   0.49831715  0.24200777  0.75398511
   0.99659802  0.49947565  0.50326482
   0.49878093  0.76057007  0.74855959
   0.00279404  0.23889544  0.25750632
   0.74904171  0.74876756  0.00607597
   0.00479794  0.25175699  0.74256192
   0.75020775  0.25602219  0.51093161
   0.00083593  0.75045190  0.75125583
   0.25600288  0.49795748  0.75211008
   0.24924809  0.24407128  0.00063485
   0.49899195  0.24939878  0.24985618
   0.73885990  0.99368071  0.26207391
   0.75554391  0.25047968  0.99156482
   0.25924998  0.75595469  0.00072892
   0.25861913  0.24943276  0.49732714
   0.25068815  0.74952422  0.49888146
   0.25146878  0.25054160  0.24895203
   0.25793570  0.00067597  0.99556918
   0.00206084  0.24687019  0.00209637
   0.75094553  0.24693533  0.25244813
   0.75005632  0.99741611  0.00326237
   0.49594874  0.99839567  0.24896049
   0.99432424  0.48588428  0.24590200
   0.50411307  0.75773797  0.00374656
   0.98779350  0.00240264  0.74498459
   0.74854586  0.24520609  0.75024838
   0.73934247  0.00077516  0.51245750
   0.50366471  0.23429204  0.50302311
   0.50506814  0.00008773  0.73993483
   0.00455383  0.00139755  0.24630693
   0.50362560  0.24973807 -0.00766043
   0.25326607  0.74829591  0.24958292
   0.24728895  0.49987965  0.00356622
   0.99987562  0.74630015  0.00593458
   0.75000940  0.74594181  0.25133034
   0.75394048  0.50239142  0.00274796
   0.49248889  0.50805030  0.24671154
   0.25722900  0.24663790  0.74888227
   0.25806928  0.99799786  0.50236125
   0.99995896  0.25158035  0.50076769
   0.25070017  0.75552172  0.75041782
   0.25075354  0.50003711  0.49226257
   0.99620976  0.75134130  0.50027235
   0.99384862  0.50105462  0.74912258
   0.73989429  0.76073356  0.75003502
   0.75416866  0.49649149  0.50329917
   0.50168806  0.76151025  0.49989434
   0.50167169  0.49991522  0.75061706
   0.51593932  0.01700006  0.97261763
   0.00150060  0.51567841  0.98043977
   0.50298503  0.73655108  0.25498882
   0.23688910  0.00983393  0.75054991
   0.47560192  0.98158537  0.50096387
   0.73496071  0.97397041  0.76912187
   0.00762156  0.76831634  0.24940241
   0.74292286  0.50619465  0.25408193
   0.01831412  0.00388878  0.50303196
   0.49497242  0.52012094  0.49928250
   0.74106281  0.51577940  0.75048188
   0.75295928  0.74167536  0.49873352
HECN                                    
           1
     8.678677    0.008452   -0.005588
     0.014179    8.731164    0.003362
     0.025581   -0.011833    8.706482
   V    Nb   Hf   N    C    Cr   W 
   7   6   7  13  19   6   6
Direct configuration=     5
   0.99822233  0.98766743  0.99779959
   0.25064073  0.99063602  0.24905219
   0.25470291  0.50844066  0.24702207
   0.50172113  0.49165055  0.99673226
   0.49792500  0.24175622  0.75438919
   0.99677098  0.49916618  0.50358271
   0.49872855  0.76091643  0.74858949
   0.00328455  0.23907657  0.25708755
   0.74853383  0.74925797  0.00575916
   0.00497949  0.25152205  0.74283170
   0.75002664  0.25567180  0.51122873
   0.00113551  0.75080290  0.75163906
   0.25592261  0.49815813  0.75250180
   0.24932477  0.24382557  0.00085974
   0.49844619  0.24899967  0.24961201
   0.73836537  0.99403194  0.26160253
   0.75544683  0.25014528  0.99135043
   0.25993625  0.75631263  0.00078095
   0.25894323  0.24951021  0.49717843
   0.25101484  0.74947723  0.49883647
   0.25155963  0.25060660  0.24898355
   0.25774209  0.00071657  0.99572136
   0.00202565  0.24668344  0.00214911
   0.75082085  0.24698912  0.25230120
   0.75019903  0.99741194  0.00274551
   0.49524847  0.99828961  0.24906340
   0.99455755  0.48623732  0.24617186
   0.50404766  0.75753994  0.00346771
   0.98771545  0.00242334  0.74548374
   0.74801276  0.24525866  0.75030854
   0.73952934  0.00055575  0.51262278
   0.50356492  0.23440129  0.50348223
   0.50534588  0.00006130  0.74024584
   0.00496331  0.00162795  0.24556889
   0.50356916  0.24992516 -0.00825894
   0.25342236  0.74821817  0.24959750
   0.24751850  0.49983356  0.00407537
   0.00000020  0.74648626  0.00600902
   0.74962758  0.74637076  0.25098458
   0.75368930  0.50232548  0.00274501
   0.49161934  0.50832195  0.24599477
   0.25773492  0.24624019  0.74891473
   0.25887601  0.99798847  0.50234226
   0.00008455  0.25215325  0.50073296
   0.25125020  0.75567328  0.75044156
   0.25027947  0.49999907  0.49174086
   0.99658617  0.75069594  0.50042725
   0.99398006  0.50107857  0.74899248
   0.73930481  0.76141154  0.75017529
   0.75492981  0.49619805  0.50342414
   0.50145577  0.76224377  0.50004827
   0.50145261  0.49976917  0.75129949
   0.51591309  0.01717931  0.97214226
   0.00168613  0.51600368  0.98012362
   0.50291941  0.73640648  0.25473607
   0.23683978  0.00974723  0.75082044
   0.47541224  0.98152223  0.50117699
   0.73449240  0.97375372  0.76939643
   0.00812413  0.76778205  0.24870534
   0.74335981  0.50563031  0.25332252
   0.01793426  0.00424604  0.50343328
   0.49442484  0.51953521  0.49925870
   0.74123967  0.51501448  0.75125661
   0.75286946  0.74241811  0.49918951
HECN                                    
           1
     8.736671   -0.000794   -0.011072
     0.004927    8.775201    0.005307
     0.020287   -0.009987    8.746193
   V    Nb   Hf   N    C    Cr   W 
   7   6   7  13  19   6   6
Direct configuration=     6
   0.00072437  0.98542991  0.99683044
   0.24878466  0.98794152  0.25047210
   0.25954268  0.51241727  0.24475868
   0.50022864  0.48799225  0.99646912
   0.49344562  0.23978915  0.75712414
   0.00060355  0.49637141  0.50768618
   0.49855883  0.76310385  0.74653347
   0.00375359  0.24135845  0.25598807
   0.74563892  0.75008409  0.00356107
   0.00817026  0.24939050  0.74427559
   0.75026395  0.25392553  0.51183242
   0.00055263  0.75225621  0.75401136
   0.25413272  0.49840699  0.75426510
   0.24794136  0.24334753 -0.00022771
   0.49798430  0.24977531  0.24754820
   0.73929602  0.99507994  0.25875430
   0.75531339  0.24860206  0.99204935
   0.26266839  0.75709705  0.00050134
   0.25626828  0.24975493  0.49930877
   0.24883471  0.74993354  0.49956497
   0.25152738  0.25039198  0.24917378
   0.25656462  0.00089511  0.99705271
   0.00206634  0.24576302  0.00233003
   0.74972272  0.24727393  0.25166151
   0.75046574  0.99795326 -0.00079932
   0.49204844  0.99725650  0.24954278
   0.99501903  0.49149102  0.24818443
   0.50509290  0.75654353  0.00119998
   0.98771663  0.00269349  0.74893277
   0.74620058  0.24730088  0.74953290
   0.74344432 -0.00125250  0.51229975
   0.50468679  0.23831428  0.50426453
   0.50729773  0.00043320  0.74345361
   0.00515710 -0.00219689  0.24421943
   0.50247124  0.25079834 -0.00957952
   0.25601223  0.74819608  0.24910506
   0.24761879  0.50058528  0.00650485
   0.00179969  0.74696640  0.00548539
   0.74803310  0.74531672  0.25324756
   0.75329339  0.50209560  0.00302602
   0.49163942  0.50863992  0.24397081
   0.25980516  0.24441979  0.74986849
   0.25629031  0.99910330  0.50359556
   0.00133840  0.25542084  0.50000927
   0.25480759  0.75767952  0.75111355
   0.24738753  0.49980159  0.49124112
   0.99710833  0.74819770  0.49881609
   0.99584548  0.50147850  0.74920620
   0.73952480  0.75697386  0.74954672
   0.75462253  0.49981530  0.50243927
   0.50332861  0.76020698  0.49915024
   0.50191623  0.49910261  0.75252042
   0.51563529  0.01834949  0.96760566
   0.00304649  0.51973758  0.97674781
   0.50104532  0.73272003  0.25504597
   0.23468155  0.00692811  0.75156082
   0.47658800  0.98257234  0.50379446
   0.72879916  0.97648666  0.77230122
   0.00685563  0.76756746  0.24698858
   0.74008151  0.50651334  0.24943665
   0.01899704  0.00481515  0.50152470
   0.49815352  0.51884196  0.49739558
   0.74159759  0.51552139  0.75571404
   0.75195924  0.74022961  0.50026170
HECN                                    
           1
     8.745037   -0.002128   -0.011863
     0.003593    8.781554    0.005587
     0.019523   -0.009720    8.751921
   V    Nb   Hf   N    C    Cr   W 
   7   6   7  13  19   6   6
Direct configuration=     7
   0.00108250  0.98510915  0.99669156
   0.24851839  0.98755443  0.25067593
   0.26023665  0.51298887  0.24443394
   0.50001417  0.48746692  0.99643131
   0.49280365  0.23950603  0.75751656
   0.00115271  0.49597071  0.50827590
   0.49853466  0.76341787  0.74623813
   0.00382106  0.24168609  0.25583015
   0.74522399  0.75020229  0.00324512
   0.00862732  0.24908498  0.74448330
   0.75029775  0.25367488  0.51191919
   0.00046954  0.75246465  0.75435194
   0.25387642  0.49844238  0.75451816
   0.24774294  0.24327874 -0.00038399
   0.49791805  0.24988664  0.24725175
   0.73942929  0.99523060  0.25834532
   0.75529409  0.24838051  0.99214976
   0.26306002  0.75721006  0.00046141
   0.25588518  0.24978958  0.49961446
   0.24852242  0.74999868  0.49966938
   0.25152275  0.25036117  0.24920111
   0.25639603  0.00092052  0.99724379
   0.00207205  0.24563091  0.00235604
   0.74956534  0.24731467  0.25156953
   0.75050373  0.99803111 -0.00130838
   0.49158974  0.99710771  0.24961137
   0.99508614  0.49224514  0.24847333
   0.50524234  0.75640074  0.00087444
   0.98771715  0.00273216  0.74942807
   0.74594114  0.24759377  0.74942128
   0.74400504 -0.00151145  0.51225376
   0.50484823  0.23887609  0.50437685
   0.50757778  0.00048678  0.74391443
   0.00518417 -0.00274583  0.24402578
   0.50231391  0.25092354 -0.00976928
   0.25638333  0.74819332  0.24903457
   0.24763349  0.50069312  0.00685372
   0.00205759  0.74703561  0.00541033
   0.74780464  0.74516511  0.25357243
   0.75323664  0.50206253  0.00306635
   0.49164217  0.50868563  0.24368015
   0.26010164  0.24415877  0.75000570
   0.25592005  0.99926289  0.50377528
   0.00151852  0.25589007  0.49990535
   0.25531775  0.75796801  0.75121031
   0.24697303  0.49977282  0.49116911
   0.99718263  0.74783924  0.49858485
   0.99611288  0.50153618  0.74923705
   0.73955559  0.75633694  0.74945661
   0.75457897  0.50033450  0.50229769
   0.50359661  0.75991494  0.49902151
   0.50198267  0.49900697  0.75269582
   0.51559525  0.01851755  0.96695411
   0.00324171  0.52027385  0.97626302
   0.50077622  0.73219059  0.25509043
   0.23437190  0.00652310  0.75166704
   0.47675689  0.98272317  0.50417042
   0.72798398  0.97687798  0.77271778
   0.00667366  0.76753652  0.24674194
   0.73961150  0.50663971  0.24887829
   0.01914926  0.00489706  0.50125069
   0.49868758  0.51874307  0.49712837
   0.74164936  0.51559407  0.75635418
   0.75182856  0.73991530  0.50041566
HECN                                    
           1
     8.675694   -0.008034   -0.012757
    -0.002379    8.729799    0.006273
     0.018395   -0.008952    8.688954
   V    Nb   Hf   N    C    Cr   W 
   7   6   7  13  19   6   6
Direct configuration=     8
   0.00514041  0.98264362  0.99573571
   0.24687859  0.98456091  0.25286738
   0.26695881  0.51709595  0.24255093
   0.49876581  0.48354604  0.99568289
   0.48733177  0.23825993  0.75890497
   0.00477435  0.49358169  0.51427290
   0.49990437  0.76513197  0.74253556
   0.00321127  0.24284425  0.25562417
   0.74307102  0.75056255  0.00170864
   0.01135424  0.24652583  0.74500292
   0.75157178  0.25456633  0.51221968
  -0.00044275  0.75404772  0.75458492
   0.25334591  0.49987760  0.75516827
   0.24585937  0.24312174 -0.00004833
   0.49716404  0.25004123  0.24684594
   0.73992097  0.99432945  0.25665130
   0.75578480  0.24796365  0.99217275
   0.26542045  0.75780645  0.00015432
   0.25513234  0.25057317  0.50051889
   0.24820740  0.74994029  0.50045832
   0.25101912  0.25012844  0.24961357
   0.25485687  0.00078175  0.99895428
   0.00152231  0.24465762  0.00227042
   0.74853430  0.24725733  0.25093384
   0.75019914  0.99835761 -0.00367270
   0.49086105  0.99685420  0.25095657
   0.99420467  0.49693715  0.25077193
   0.50681971  0.75560960 -0.00165033
   0.98898445  0.00286260  0.75166106
   0.74553987  0.24938617  0.74869401
   0.74885553 -0.00201797  0.51018500
   0.50559911  0.24401627  0.50406714
   0.50921083  0.00078896  0.74582718
   0.00373069 -0.00305005  0.24474819
   0.50114210  0.25065477 -0.00952092
   0.25835918  0.74881000  0.24915526
   0.24687723  0.50172282  0.00796572
   0.00338095  0.74721989  0.00453070
   0.74670522  0.74412598  0.25505687
   0.75378533  0.50193911  0.00335050
   0.49377805  0.50711280  0.24262619
   0.26084020  0.24290487  0.75104011
   0.25369862  0.99983270  0.50531144
   0.00184765  0.25680434  0.49983349
   0.25769022  0.75981026  0.75142145
   0.24597979  0.50031156  0.49208029
   0.99591668  0.74728435  0.49693709
   0.99737655  0.50153447  0.74980541
   0.74106795  0.75387121  0.74886450
   0.75374992  0.50190088  0.50143044
   0.50418216  0.75769872  0.49712105
   0.50304238  0.49826152  0.75199362
   0.51545964  0.02069941  0.96377158
   0.00468393  0.52500728  0.97279199
   0.49867556  0.72900599  0.25719528
   0.23045941  0.00269851  0.75214829
   0.47658135  0.98375468  0.50770227
   0.72226675  0.97701848  0.77442269
   0.00490254  0.76558306  0.24663849
   0.73389759  0.50841956  0.24563216
   0.01871776  0.00568582  0.49804101
   0.50203039  0.51770436  0.49542170
   0.74137837  0.51631262  0.75889334
   0.75223430  0.73671967  0.50136583
HECN                                    
           1
     8.697545   -0.006173   -0.012475
    -0.000497    8.746108    0.006057
     0.018751   -0.009194    8.708796
   V    Nb   Hf   N    C    Cr   W 
   7   6   7  13  19   6   6
Direct configuration=     9
   0.00385205  0.98342426  0.99603888
   0.24740002  0.98551022  0.25217180
   0.26482280  0.51579258  0.24314846
   0.49916322  0.48478915  0.99592038
   0.48907005  0.23865614  0.75846445
   0.00362429  0.49433835  0.51236926
   0.49946906  0.76458824  0.74371075
   0.00340472  0.24247726  0.25568960
   0.74375485  0.75044878  0.00219641
   0.01048861  0.24733646  0.74483783
   0.75116690  0.25428349  0.51212428
  -0.00015333  0.75354612  0.75451105
   0.25351408  0.49942279  0.75496198
   0.24645768  0.24317192 -0.00015481
   0.49740352  0.24999238  0.24697477
   0.73976506  0.99461495  0.25718894
   0.75562902  0.24809568  0.99216542
   0.26467058  0.75761689  0.00025172
   0.25537127  0.25032497  0.50023187
   0.24830745  0.74995889  0.50020792
   0.25117913  0.25020233  0.24948267
   0.25534573  0.00082611  0.99841142
   0.00169714  0.24496626  0.00229759
   0.74886183  0.24727571  0.25113564
   0.75029590  0.99825412 -0.00292225
   0.49109251  0.99693475  0.25052962
   0.99448355  0.49545010  0.25004251
   0.50631895  0.75585997 -0.00084904
   0.98858180  0.00282103  0.75095227
   0.74566696  0.24881808  0.74892490
   0.74731504 -0.00185851  0.51084144
   0.50535950  0.24238675  0.50416554
   0.50869198  0.00069287  0.74522003
   0.00419240 -0.00295329  0.24451894
   0.50151436  0.25074022 -0.00959972
   0.25773144  0.74861410  0.24911690
   0.24711718  0.50139661  0.00761282
   0.00296060  0.74716117  0.00480985
   0.74705461  0.74445564  0.25458572
   0.75361106  0.50197812  0.00326029
   0.49310000  0.50761088  0.24296060
   0.26060584  0.24330220  0.75071173
   0.25440404  0.99965260  0.50482396
   0.00174291  0.25651446  0.49985631
   0.25693623  0.75922579  0.75135440
   0.24629512  0.50014103  0.49179113
   0.99631897  0.74746047  0.49746012
   0.99697514  0.50153476  0.74962497
   0.74058813  0.75465247  0.74905232
   0.75401294  0.50140452  0.50170578
   0.50399672  0.75840105  0.49772417
   0.50270597  0.49849757  0.75221644
   0.51550236  0.02000774  0.96478177
   0.00422493  0.52350646  0.97389376
   0.49934342  0.73001597  0.25652719
   0.23170297  0.00391170  0.75199558
   0.47663675  0.98342784  0.50658129
   0.72408264  0.97697522  0.77388176
   0.00546554  0.76620265  0.24667134
   0.73571226  0.50785653  0.24666273
   0.01885476  0.00543581  0.49905980
   0.50096889  0.51803285  0.49596325
   0.74146420  0.51608498  0.75808744
   0.75210609  0.73773257  0.50106415
HECN                                    
           1
     8.700529   -0.005017   -0.008343
     0.000677    8.760908    0.005118
     0.022909   -0.010150    8.719417
   V    Nb   Hf   N    C    Cr   W 
   7   6   7  13  19   6   6
Direct configuration=    10
   0.00759397  0.98215510  0.99585996
   0.24659945  0.98418275  0.25406763
   0.26940748  0.51712489  0.24297613
   0.49868662  0.48249045  0.99477539
   0.48552669  0.23909805  0.75758808
   0.00507648  0.49381512  0.51713828
   0.50170755  0.76470478  0.74007652
   0.00242403  0.24335643  0.25584053
   0.74319273  0.75073705  0.00173745
   0.01111397  0.24551046  0.74509968
   0.75214865  0.25665178  0.51183886
  -0.00060931  0.75489550  0.75250982
   0.25428496  0.50169069  0.75449321
   0.24513436  0.24351467  0.00180747
   0.49660088  0.24840054  0.24816993
   0.73930180  0.99303524  0.25709311
   0.75623450  0.24852385  0.99160801
   0.26612131  0.75785661  0.00011524
   0.25668448  0.25126390  0.49937620
   0.24926982  0.74966347  0.50046979
   0.25023753  0.25031231  0.24998408
   0.25404790  0.00052349  0.99999171
   0.00085330  0.24422658  0.00203089
   0.74843833  0.24717233  0.25080014
   0.74984730  0.99810312 -0.00322570
   0.49180139  0.99693019  0.25209541
   0.99326280  0.49794077  0.25144708
   0.50735997  0.75552180 -0.00254097
   0.99013562  0.00259605  0.75147467
   0.74623790  0.24938178  0.74853523
   0.75089222 -0.00094935  0.50873628
   0.50551025  0.24612944  0.50396014
   0.50824832  0.00096344  0.74403851
   0.00241653 -0.00043153  0.24560186
   0.50075868  0.24964591 -0.00862680
   0.25873183  0.74948526  0.24973804
   0.24616004  0.50213044  0.00752967
   0.00346385  0.74738546  0.00388756
   0.74625834  0.74436458  0.25398524
   0.75468747  0.50201114  0.00329706
   0.49463523  0.50497825  0.24207529
   0.25998128  0.24273353  0.75120547
   0.25470378  0.99953067  0.50596753
   0.00147642  0.25537560  0.50034789
   0.25757788  0.76021562  0.75090078
   0.24696235  0.50093249  0.49279955
   0.99524258  0.74822198  0.49697830
   0.99721848  0.50105667  0.74993070
   0.74198889  0.75613331  0.74868002
   0.75455512  0.49958322  0.50125730
   0.50331214  0.75864676  0.49586073
   0.50322554  0.49784096  0.75085378
   0.51483526  0.02193535  0.96562512
   0.00506900  0.52634259  0.97273827
   0.49825641  0.73007885  0.25946802
   0.22822873  0.00060779  0.75232706
   0.47579941  0.98436377  0.50946068
   0.72267879  0.97538641  0.77310961
   0.00449052  0.76263753  0.24795775
   0.73247533  0.50824800  0.24526061
   0.01574143  0.00610961  0.49645891
   0.50126222  0.51537259  0.49561071
   0.74139629  0.51494259  0.75783692
   0.75303728  0.73661108  0.50190777
HECN                                    
           1
     8.702007   -0.004445   -0.006297
     0.001258    8.768235    0.004653
     0.024967   -0.010623    8.724676
   V    Nb   Hf   N    C    Cr   W 
   7   6   7  13  19   6   6
Direct configuration=    11
   0.00944610  0.98152754  0.99577054
   0.24620287  0.98352678  0.25500523
   0.27167654  0.51778309  0.24288990
   0.49845116  0.48135425  0.99420918
   0.48377315  0.23931666  0.75715557
   0.00579414  0.49355666  0.51949618
   0.50281630  0.76476204  0.73827889
   0.00193856  0.24379105  0.25591544
   0.74291461  0.75087955  0.00151065
   0.01142354  0.24460790  0.74522892
   0.75263446  0.25782226  0.51169761
  -0.00083461  0.75556237  0.75152039
   0.25466646  0.50281156  0.75426135
   0.24447892  0.24368427  0.00277815
   0.49620346  0.24761386  0.24876104
   0.73907265  0.99225447  0.25704574
   0.75653428  0.24873541  0.99133226
   0.26683934  0.75797500  0.00004742
   0.25733456  0.25172785  0.49895282
   0.24974609  0.74951741  0.50059905
   0.24977137  0.25036676  0.25023225
   0.25340521  0.00037408  0.00077345
   0.00043577  0.24386102  0.00189916
   0.74822881  0.24712124  0.25063433
   0.74962535  0.99802850 -0.00337566
   0.49215187  0.99692798  0.25286952
   0.99265812  0.49917198  0.25214206
   0.50787563  0.75535450 -0.00337788
   0.99090455  0.00248477  0.75173262
   0.74652052  0.24966035  0.74834243
   0.75266312 -0.00050033  0.50769449
   0.50558467  0.24797930  0.50385873
   0.50802900  0.00109714  0.74345437
   0.00153717  0.00081506  0.24613792
   0.50038452  0.24910513 -0.00814558
   0.25922675  0.74991581  0.25004501
   0.24568629  0.50249321  0.00748881
   0.00371313  0.74749624  0.00343138
   0.74586438  0.74431959  0.25368849
   0.75522021  0.50202739  0.00331499
   0.49539544  0.50367689  0.24163700
   0.25967209  0.24245252  0.75144975
   0.25485188  0.99947045  0.50653295
   0.00134448  0.25481274  0.50059097
   0.25789550  0.76070479  0.75067636
   0.24729230  0.50132370  0.49329809
   0.99470990  0.74859842  0.49674033
   0.99733887  0.50082037  0.75008181
   0.74268215  0.75686512  0.74849567
   0.75482369  0.49868295  0.50103531
   0.50297374  0.75876814  0.49493943
   0.50348306  0.49751632  0.75017979
   0.51450476  0.02288819  0.96604241
   0.00548684  0.52774427  0.97216684
   0.49771772  0.73011016  0.26092251
   0.22650937 -0.00102498  0.75249161
   0.47538424  0.98482658  0.51088478
   0.72198427  0.97460117  0.77272802
   0.00400789  0.76087555  0.24859392
   0.73087358  0.50844163  0.24456804
   0.01420111  0.00644272  0.49517354
   0.50140766  0.51405767  0.49543616
   0.74136281  0.51437793  0.75771299
   0.75349804  0.73605675  0.50232466
HECN                                    
           1
     8.745987   -0.001242   -0.004682
     0.004492    8.766291    0.004102
     0.026717   -0.011167    8.737841
   V    Nb   Hf   N    C    Cr   W 
   7   6   7  13  19   6   6
Direct configuration=    12
   0.01125422  0.98083465  0.99714766
   0.24472100  0.98392689  0.25684332
   0.27286371  0.51680908  0.24389668