   2   2   0   0
  0.1801100E+02  0.3302600E-09  0.3302600E-09  0.3302600E-09  0.5000000E-15
  1.000000000000000E-004
  CAR 
 HECN                                    
     30.24469324    -31.73558684  301      5.16271246      1.00000000
    -31.736  0.0000E+00  0.0000E+00
    -31.529  0.0000E+00  0.0000E+00
    -31.322  0.0000E+00  0.0000E+00
    -31.116  0.0000E+00  0.0000E+00
    -30.909  0.0000E+00  0.0000E+00
    -30.703  0.0000E+00  0.0000E+00
    -30.496  0.0000E+00  0.0000E+00
    -30.289  0.0000E+00  0.0000E+00
    -30.083  0.0000E+00  0.0000E+00
    -29.876  0.0000E+00  0.0000E+00
    -29.670  0.0000E+00  0.0000E+00
    -29.463  0.2866E-15  0.5921E-16
    -29.256  0.3751E-07  0.7749E-08
    -29.050  0.1357E-02  0.2804E-03
    -28.843  0.4532E-01  0.9644E-02
    -28.637  0.1267E+00  0.3583E-01
    -28.430  0.7975E-01  0.5230E-01
    -28.223  0.1031E+00  0.7361E-01
    -28.017  0.1722E+00  0.1092E+00
    -27.810  0.5125E-01  0.1198E+00
    -27.604  0.1072E-02  0.1200E+00
    -27.397  0.1737E-07  0.1200E+00
    -27.190  0.7882E-16  0.1200E+00
    -26.984  0.0000E+00  0.1200E+00
    -26.777  0.0000E+00  0.1200E+00
    -26.571  0.0000E+00  0.1200E+00
    -26.364  0.0000E+00  0.1200E+00
    -26.157  0.0000E+00  0.1200E+00
    -25.951  0.0000E+00  0.1200E+00
    -25.744  0.0000E+00  0.1200E+00
    -25.538  0.0000E+00  0.1200E+00
    -25.331  0.0000E+00  0.1200E+00
    -25.124  0.0000E+00  0.1200E+00
    -24.918  0.0000E+00  0.1200E+00
    -24.711  0.0000E+00  0.1200E+00
    -24.505  0.0000E+00  0.1200E+00
    -24.298  0.0000E+00  0.1200E+00
    -24.091  0.0000E+00  0.1200E+00
    -23.885  0.0000E+00  0.1200E+00
    -23.678  0.0000E+00  0.1200E+00
    -23.472  0.0000E+00  0.1200E+00
    -23.265  0.0000E+00  0.1200E+00
    -23.058  0.0000E+00  0.1200E+00
    -22.852  0.0000E+00  0.1200E+00
    -22.645  0.0000E+00  0.1200E+00
    -22.439  0.0000E+00  0.1200E+00
    -22.232  0.0000E+00  0.1200E+00
    -22.025  0.0000E+00  0.1200E+00
    -21.819  0.0000E+00  0.1200E+00
    -21.612  0.0000E+00  0.1200E+00
    -21.406  0.0000E+00  0.1200E+00
    -21.199  0.0000E+00  0.1200E+00
    -20.992  0.0000E+00  0.1200E+00
    -20.786  0.0000E+00  0.1200E+00
    -20.579  0.0000E+00  0.1200E+00
    -20.373  0.0000E+00  0.1200E+00
    -20.166  0.0000E+00  0.1200E+00
    -19.959  0.0000E+00  0.1200E+00
    -19.753  0.0000E+00  0.1200E+00
    -19.546  0.0000E+00  0.1200E+00
    -19.340  0.0000E+00  0.1200E+00
    -19.133  0.0000E+00  0.1200E+00
    -18.926  0.0000E+00  0.1200E+00
    -18.720  0.0000E+00  0.1200E+00
    -18.513  0.0000E+00  0.1200E+00
    -18.307  0.0000E+00  0.1200E+00
    -18.100  0.0000E+00  0.1200E+00
    -17.893  0.0000E+00  0.1200E+00
    -17.687  0.0000E+00  0.1200E+00
    -17.480  0.0000E+00  0.1200E+00
    -17.274  0.0000E+00  0.1200E+00
    -17.067  0.0000E+00  0.1200E+00
    -16.860  0.0000E+00  0.1200E+00
    -16.654  0.0000E+00  0.1200E+00
    -16.447  0.0000E+00  0.1200E+00
    -16.241  0.0000E+00  0.1200E+00
    -16.034  0.0000E+00  0.1200E+00
    -15.827  0.0000E+00  0.1200E+00
    -15.621  0.0000E+00  0.1200E+00
    -15.414  0.0000E+00  0.1200E+00
    -15.208  0.0000E+00  0.1200E+00
    -15.001  0.0000E+00  0.1200E+00
    -14.794  0.0000E+00  0.1200E+00
    -14.588  0.0000E+00  0.1200E+00
    -14.381  0.0000E+00  0.1200E+00
    -14.175  0.0000E+00  0.1200E+00
    -13.968  0.0000E+00  0.1200E+00
    -13.761  0.0000E+00  0.1200E+00
    -13.555  0.0000E+00  0.1200E+00
    -13.348  0.0000E+00  0.1200E+00
    -13.142  0.0000E+00  0.1200E+00
    -12.935  0.0000E+00  0.1200E+00
    -12.728  0.0000E+00  0.1200E+00
    -12.522  0.0000E+00  0.1200E+00
    -12.315  0.0000E+00  0.1200E+00
    -12.108  0.0000E+00  0.1200E+00
    -11.902  0.0000E+00  0.1200E+00
    -11.695  0.0000E+00  0.1200E+00
    -11.489  0.0000E+00  0.1200E+00
    -11.282  0.0000E+00  0.1200E+00
    -11.075  0.0000E+00  0.1200E+00
    -10.869  0.0000E+00  0.1200E+00
    -10.662  0.0000E+00  0.1200E+00
    -10.456  0.0000E+00  0.1200E+00
    -10.249  0.0000E+00  0.1200E+00
    -10.042  0.0000E+00  0.1200E+00
     -9.836  0.0000E+00  0.1200E+00
     -9.629  0.0000E+00  0.1200E+00
     -9.423  0.0000E+00  0.1200E+00
     -9.216  0.0000E+00  0.1200E+00
     -9.009  0.0000E+00  0.1200E+00
     -8.803  0.0000E+00  0.1200E+00
     -8.596  0.0000E+00  0.1200E+00
     -8.390  0.0000E+00  0.1200E+00
     -8.183  0.0000E+00  0.1200E+00
     -7.976  0.0000E+00  0.1200E+00
     -7.770  0.0000E+00  0.1200E+00
     -7.563  0.0000E+00  0.1200E+00
     -7.357  0.0000E+00  0.1200E+00
     -7.150  0.0000E+00  0.1200E+00
     -6.943  0.0000E+00  0.1200E+00
     -6.737  0.0000E+00  0.1200E+00
     -6.530  0.0000E+00  0.1200E+00
     -6.324  0.0000E+00  0.1200E+00
     -6.117  0.0000E+00  0.1200E+00
     -5.910  0.0000E+00  0.1200E+00
     -5.704  0.0000E+00  0.1200E+00
     -5.497  0.0000E+00  0.1200E+00
     -5.291  0.0000E+00  0.1200E+00
     -5.084  0.0000E+00  0.1200E+00
     -4.877  0.0000E+00  0.1200E+00
     -4.671  0.0000E+00  0.1200E+00
     -4.464  0.0000E+00  0.1200E+00
     -4.258  0.0000E+00  0.1200E+00
     -4.051  0.0000E+00  0.1200E+00
     -3.844  0.0000E+00  0.1200E+00
     -3.638  0.0000E+00  0.1200E+00
     -3.431  0.0000E+00  0.1200E+00
     -3.225  0.0000E+00  0.1200E+00
     -3.018  0.6733E-14  0.1200E+00
     -2.811  0.1024E-06  0.1200E+00
     -2.605  0.4843E-03  0.1201E+00
     -2.398  0.2977E-02  0.1207E+00
     -2.192  0.1235E-03  0.1207E+00
     -1.985  0.3812E-08  0.1207E+00
     -1.778  0.3264E-16  0.1207E+00
     -1.572  0.0000E+00  0.1207E+00
     -1.365  0.0000E+00  0.1207E+00
     -1.159  0.0000E+00  0.1207E+00
     -0.952  0.1194E-16  0.1207E+00
     -0.745  0.3903E-08  0.1207E+00
     -0.539  0.3263E-03  0.1208E+00
     -0.332  0.1635E-01  0.1242E+00
     -0.126  0.4834E-02  0.1252E+00
      0.081  0.2530E-05  0.1252E+00
      0.288  0.1998E-06  0.1252E+00
      0.494  0.2812E-02  0.1258E+00
      0.701  0.3681E-01  0.1334E+00
      0.907  0.3407E-02  0.1341E+00
      1.114  0.3175E-06  0.1341E+00
      1.321  0.4271E-06  0.1341E+00
      1.527  0.1270E-02  0.1343E+00
      1.734  0.6055E-02  0.1356E+00
      1.940  0.2939E-01  0.1417E+00
      2.147  0.1347E-01  0.1444E+00
      2.354  0.1560E-02  0.1448E+00
      2.560  0.4040E-01  0.1531E+00
      2.767  0.1451E-01  0.1561E+00
      2.973  0.4201E-01  0.1648E+00
      3.180  0.1927E-02  0.1652E+00
      3.387  0.6884E-07  0.1652E+00
      3.593  0.1765E-03  0.1652E+00
      3.800  0.3266E-01  0.1720E+00
      4.006  0.2519E-01  0.1772E+00
      4.213  0.6740E-01  0.1911E+00
      4.420  0.3247E-01  0.1978E+00
      4.626  0.2577E-01  0.2031E+00
      4.833  0.2728E-01  0.2088E+00
      5.039  0.3403E-01  0.2158E+00
      5.246  0.3673E-01  0.2234E+00
      5.453  0.5139E-02  0.2244E+00
      5.659  0.1158E-03  0.2245E+00
      5.866  0.2743E-01  0.2301E+00
      6.072  0.2631E-01  0.2356E+00
      6.279  0.1483E-01  0.2386E+00
      6.486  0.6606E-02  0.2400E+00
      6.692  0.7021E-05  0.2400E+00
      6.899  0.2494E-02  0.2405E+00
      7.105  0.3080E-01  0.2469E+00
      7.312  0.3087E-01  0.2533E+00
      7.519  0.2194E-02  0.2537E+00
      7.725  0.3624E-01  0.2612E+00
      7.932  0.4962E-02  0.2622E+00
      8.138  0.8138E-06  0.2622E+00
      8.345  0.1227E-10  0.2622E+00
      8.552  0.2256E-04  0.2622E+00
      8.758  0.1552E-01  0.2654E+00
      8.965  0.2860E-01  0.2713E+00
      9.171  0.5906E-02  0.2726E+00
      9.378  0.8702E-02  0.2744E+00
      9.585  0.1214E+00  0.2994E+00
      9.791  0.4345E-01  0.3084E+00
      9.998  0.3903E-01  0.3165E+00
     10.204  0.5227E-01  0.3273E+00
     10.411  0.6175E-03  0.3274E+00
     10.618  0.5692E-08  0.3274E+00
     10.824  0.1433E-16  0.3274E+00
     11.031  0.0000E+00  0.3274E+00
     11.237  0.3510E-11  0.3274E+00
     11.444  0.6092E-05  0.3274E+00
     11.651  0.4260E-02  0.3283E+00
     11.857  0.3550E-01  0.3356E+00
     12.064  0.1400E-01  0.3385E+00
     12.270  0.7971E-02  0.3402E+00
     12.477  0.3414E-01  0.3472E+00
     12.684  0.9217E-03  0.3474E+00
     12.890  0.1233E-04  0.3474E+00
     13.097  0.9750E-02  0.3494E+00
     13.303  0.1877E-01  0.3533E+00
     13.510  0.1491E-01  0.3564E+00
     13.717  0.2449E-01  0.3614E+00
     13.923  0.1832E-03  0.3615E+00
     14.130  0.6579E-09  0.3615E+00
     14.336  0.0000E+00  0.3615E+00
     14.543  0.0000E+00  0.3615E+00
     14.750  0.0000E+00  0.3615E+00
     14.956  0.0000E+00  0.3615E+00
     15.163  0.0000E+00  0.3615E+00
     15.369  0.2388E-16  0.3615E+00
     15.576  0.7817E-08  0.3615E+00
     15.783  0.6530E-03  0.3616E+00
     15.989  0.3270E-01  0.3684E+00
     16.196  0.9663E-02  0.3704E+00
     16.402  0.7297E-04  0.3704E+00
     16.609  0.2261E-01  0.3751E+00
     16.816  0.6119E-01  0.3877E+00
     17.022  0.2180E-02  0.3881E+00
     17.229  0.7322E-07  0.3881E+00
     17.435  0.6942E-15  0.3881E+00
     17.642  0.0000E+00  0.3881E+00
     17.849  0.8795E-11  0.3881E+00
     18.055  0.3538E-04  0.3882E+00
     18.262  0.5013E-01  0.3985E+00
     18.468  0.1415E+00  0.4277E+00
     18.675  0.3018E-01  0.4340E+00
     18.882  0.1482E-01  0.4370E+00
     19.088  0.1397E-01  0.4399E+00
     19.295  0.2877E-01  0.4459E+00
     19.501  0.7172E-02  0.4473E+00
     19.708  0.4817E-01  0.4573E+00
     19.915  0.3470E-02  0.4580E+00
     20.121  0.6028E-01  0.4705E+00
     20.328  0.5605E-01  0.4820E+00
     20.534  0.2580E-01  0.4874E+00
     20.741  0.1360E-03  0.4874E+00
     20.948  0.1394E-02  0.4877E+00
     21.154  0.2435E-01  0.4927E+00
     21.361  0.1707E-01  0.4963E+00
     21.567  0.2139E-03  0.4963E+00
     21.774  0.1201E-06  0.4963E+00
     21.981  0.1784E-02  0.4967E+00
     22.187  0.2452E-01  0.5017E+00
     22.394  0.2380E-02  0.5022E+00
     22.600  0.1183E-05  0.5022E+00
     22.807  0.3413E-02  0.5029E+00
     23.014  0.1751E-01  0.5065E+00
     23.220  0.5875E-03  0.5067E+00
     23.427  0.6842E-03  0.5068E+00
     23.633  0.3291E-01  0.5136E+00
     23.840  0.9426E-02  0.5156E+00
     24.047  0.4699E-05  0.5156E+00
     24.253  0.5401E-04  0.5156E+00
     24.460  0.1457E-01  0.5186E+00
     24.666  0.1401E-01  0.5215E+00
     24.873  0.4610E-04  0.5215E+00
     25.080  0.3027E-03  0.5215E+00
     25.286  0.2893E-01  0.5275E+00
     25.493  0.1380E-01  0.5304E+00
     25.699  0.1705E-01  0.5339E+00
     25.906  0.2583E-01  0.5392E+00
     26.113  0.1106E-01  0.5415E+00
     26.319  0.2856E-01  0.5474E+00
     26.526  0.1087E-01  0.5497E+00
     26.732  0.2613E-01  0.5551E+00
     26.939  0.1671E-01  0.5585E+00
     27.146  0.2942E-04  0.5585E+00
     27.352  0.1032E-02  0.5587E+00
     27.559  0.5912E-02  0.5600E+00
     27.765  0.2258E-03  0.5600E+00
     27.972  0.6251E-08  0.5600E+00
     28.179  0.4777E-16  0.5600E+00
     28.385  0.0000E+00  0.5600E+00
     28.592  0.0000E+00  0.5600E+00
     28.798  0.0000E+00  0.5600E+00
     29.005  0.0000E+00  0.5600E+00
     29.212  0.0000E+00  0.5600E+00
     29.418  0.0000E+00  0.5600E+00
     29.625  0.0000E+00  0.5600E+00
     29.831  0.0000E+00  0.5600E+00
     30.038  0.0000E+00  0.5600E+00
     30.245  0.0000E+00  0.5600E+00
