HECN                                    
           1
     3.302600    0.000000    0.000000
     0.000000    3.302600    0.000000
     0.000000    0.000000    3.302600
   Ta
     2
Direct configuration=     1
   0.00000000  0.00000000  0.00000000
   0.50000000  0.50000000  0.50000000
HECN                                    
           1
     3.451036    0.000000    0.000000
    -0.000000    3.451036    0.000000
     0.000000    0.000000    3.451036
   Ta
     2
Direct configuration=     2
   1.00000000  1.00000000  1.00000000
   0.50000000  0.50000000  0.50000000
HECN                                    
           1
     3.346262    0.000000    0.000000
    -0.000000    3.346262    0.000000
     0.000000    0.000000    3.346262
   Ta
     2
Direct configuration=     3
   0.00000000  0.00000000  0.00000000
   0.50000000  0.50000000  0.50000000
HECN                                    
           1
     3.345142    0.000000    0.000000
    -0.000000    3.345142    0.000000
     0.000000    0.000000    3.345142
   Ta
     2
Direct configuration=     4
   0.00000000  0.00000000  0.00000000
   0.50000000  0.50000000  0.50000000
