  64  64   0   0
  0.9811389E+01  0.8537022E-09  0.8551311E-09  0.8601567E-09  0.5000000E-15
  1.000000000000000E-004
  CAR 
 HECN                                    
     14.94233663    -59.08124602  301      9.30905041      1.00000000
    -59.081  0.0000E+00  0.0000E+00
    -58.835  0.0000E+00  0.0000E+00
    -58.588  0.0000E+00  0.0000E+00
    -58.341  0.0000E+00  0.0000E+00
    -58.094  0.0000E+00  0.0000E+00
    -57.848  0.0000E+00  0.0000E+00
    -57.601  0.0000E+00  0.0000E+00
    -57.354  0.0000E+00  0.0000E+00
    -57.107  0.0000E+00  0.0000E+00
    -56.861  0.0000E+00  0.0000E+00
    -56.614  0.0000E+00  0.0000E+00
    -56.367  0.0000E+00  0.0000E+00
    -56.120  0.4567E-09  0.1127E-09
    -55.874  0.1100E-02  0.2714E-03
    -55.627  0.1854E+00  0.4601E-01
    -55.380  0.3766E+00  0.1389E+00
    -55.133  0.4270E-02  0.1400E+00
    -54.887  0.2473E-08  0.1400E+00
    -54.640  0.0000E+00  0.1400E+00
    -54.393  0.0000E+00  0.1400E+00
    -54.146  0.0000E+00  0.1400E+00
    -53.900  0.0000E+00  0.1400E+00
    -53.653  0.0000E+00  0.1400E+00
    -53.406  0.0000E+00  0.1400E+00
    -53.159  0.0000E+00  0.1400E+00
    -52.913  0.0000E+00  0.1400E+00
    -52.666  0.0000E+00  0.1400E+00
    -52.419  0.0000E+00  0.1400E+00
    -52.172  0.0000E+00  0.1400E+00
    -51.926  0.0000E+00  0.1400E+00
    -51.679  0.0000E+00  0.1400E+00
    -51.432  0.0000E+00  0.1400E+00
    -51.185  0.0000E+00  0.1400E+00
    -50.939  0.0000E+00  0.1400E+00
    -50.692  0.0000E+00  0.1400E+00
    -50.445  0.0000E+00  0.1400E+00
    -50.198  0.0000E+00  0.1400E+00
    -49.952  0.0000E+00  0.1400E+00
    -49.705  0.0000E+00  0.1400E+00
    -49.458  0.0000E+00  0.1400E+00
    -49.211  0.0000E+00  0.1400E+00
    -48.965  0.5001E-15  0.1400E+00
    -48.718  0.1037E-05  0.1400E+00
    -48.471  0.2660E-01  0.1466E+00
    -48.224  0.1946E+00  0.1946E+00
    -47.978  0.1656E+00  0.2355E+00
    -47.731  0.1137E+00  0.2635E+00
    -47.484  0.6647E-01  0.2799E+00
    -47.237  0.4197E-03  0.2800E+00
    -46.991  0.8536E-03  0.2802E+00
    -46.744  0.1306E+00  0.3124E+00
    -46.497  0.1114E+00  0.3399E+00
    -46.250  0.1610E+00  0.3796E+00
    -46.004  0.7894E-01  0.3991E+00
    -45.757  0.3603E-02  0.4000E+00
    -45.510  0.8491E-08  0.4000E+00
    -45.264  0.0000E+00  0.4000E+00
    -45.017  0.0000E+00  0.4000E+00
    -44.770  0.0000E+00  0.4000E+00
    -44.523  0.0000E+00  0.4000E+00
    -44.277  0.0000E+00  0.4000E+00
    -44.030  0.0000E+00  0.4000E+00
    -43.783  0.0000E+00  0.4000E+00
    -43.536  0.0000E+00  0.4000E+00
    -43.290  0.0000E+00  0.4000E+00
    -43.043  0.0000E+00  0.4000E+00
    -42.796  0.0000E+00  0.4000E+00
    -42.549  0.0000E+00  0.4000E+00
    -42.303  0.0000E+00  0.4000E+00
    -42.056  0.0000E+00  0.4000E+00
    -41.809  0.0000E+00  0.4000E+00
    -41.562  0.0000E+00  0.4000E+00
    -41.316  0.0000E+00  0.4000E+00
    -41.069  0.0000E+00  0.4000E+00
    -40.822  0.0000E+00  0.4000E+00
    -40.575  0.0000E+00  0.4000E+00
    -40.329  0.0000E+00  0.4000E+00
    -40.082  0.0000E+00  0.4000E+00
    -39.835  0.0000E+00  0.4000E+00
    -39.588  0.0000E+00  0.4000E+00
    -39.342  0.0000E+00  0.4000E+00
    -39.095  0.0000E+00  0.4000E+00
    -38.848  0.0000E+00  0.4000E+00
    -38.601  0.0000E+00  0.4000E+00
    -38.355  0.0000E+00  0.4000E+00
    -38.108  0.0000E+00  0.4000E+00
    -37.861  0.0000E+00  0.4000E+00
    -37.614  0.0000E+00  0.4000E+00
    -37.368  0.0000E+00  0.4000E+00
    -37.121  0.0000E+00  0.4000E+00
    -36.874  0.0000E+00  0.4000E+00
    -36.627  0.0000E+00  0.4000E+00
    -36.381  0.0000E+00  0.4000E+00
    -36.134  0.0000E+00  0.4000E+00
    -35.887  0.0000E+00  0.4000E+00
    -35.640  0.0000E+00  0.4000E+00
    -35.394  0.0000E+00  0.4000E+00
    -35.147  0.5849E-16  0.4000E+00
    -34.900  0.3003E-06  0.4000E+00
    -34.653  0.1835E-01  0.4045E+00
    -34.407  0.4740E+00  0.5215E+00
    -34.160  0.8940E+00  0.7421E+00
    -33.913  0.7262E-01  0.7600E+00
    -33.666  0.2393E-04  0.7600E+00
    -33.420  0.1711E-12  0.7600E+00
    -33.173  0.0000E+00  0.7600E+00
    -32.926  0.0000E+00  0.7600E+00
    -32.680  0.0000E+00  0.7600E+00
    -32.433  0.0000E+00  0.7600E+00
    -32.186  0.0000E+00  0.7600E+00
    -31.939  0.0000E+00  0.7600E+00
    -31.693  0.0000E+00  0.7600E+00
    -31.446  0.0000E+00  0.7600E+00
    -31.199  0.0000E+00  0.7600E+00
    -30.952  0.0000E+00  0.7600E+00
    -30.706  0.0000E+00  0.7600E+00
    -30.459  0.0000E+00  0.7600E+00
    -30.212  0.1078E-11  0.7600E+00
    -29.965  0.7687E-04  0.7600E+00
    -29.719  0.1475E+00  0.7964E+00
    -29.472  0.1179E+01  0.1087E+01
    -29.225  0.3740E+00  0.1180E+01
    -28.978  0.1043E-02  0.1180E+01
    -28.732  0.1706E-09  0.1180E+01
    -28.485  0.0000E+00  0.1180E+01
    -28.238  0.0000E+00  0.1180E+01
    -27.991  0.0000E+00  0.1180E+01
    -27.745  0.0000E+00  0.1180E+01
    -27.498  0.0000E+00  0.1180E+01
    -27.251  0.0000E+00  0.1180E+01
    -27.004  0.0000E+00  0.1180E+01
    -26.758  0.0000E+00  0.1180E+01
    -26.511  0.0000E+00  0.1180E+01
    -26.264  0.0000E+00  0.1180E+01
    -26.017  0.0000E+00  0.1180E+01
    -25.771  0.0000E+00  0.1180E+01
    -25.524  0.0000E+00  0.1180E+01
    -25.277  0.9942E-08  0.1180E+01
    -25.030  0.4220E-02  0.1181E+01
    -24.784  0.2901E+00  0.1253E+01
    -24.537  0.5060E+00  0.1377E+01
    -24.290  0.5621E+00  0.1516E+01
    -24.043  0.2789E+00  0.1585E+01
    -23.797  0.6074E-01  0.1600E+01
    -23.550  0.5485E-05  0.1600E+01
    -23.303  0.3318E-03  0.1600E+01
    -23.056  0.1562E+00  0.1639E+01
    -22.810  0.3715E+00  0.1730E+01
    -22.563  0.5363E+00  0.1863E+01
    -22.316  0.2321E+00  0.1920E+01
    -22.069  0.1622E+00  0.1960E+01
    -21.823  0.4321E-03  0.1960E+01
    -21.576  0.2669E-10  0.1960E+01
    -21.329  0.0000E+00  0.1960E+01
    -21.082  0.0000E+00  0.1960E+01
    -20.836  0.0000E+00  0.1960E+01
    -20.589  0.0000E+00  0.1960E+01
    -20.342  0.0000E+00  0.1960E+01
    -20.095  0.0000E+00  0.1960E+01
    -19.849  0.0000E+00  0.1960E+01
    -19.602  0.0000E+00  0.1960E+01
    -19.355  0.0000E+00  0.1960E+01
    -19.109  0.0000E+00  0.1960E+01
    -18.862  0.0000E+00  0.1960E+01
    -18.615  0.0000E+00  0.1960E+01
    -18.368  0.0000E+00  0.1960E+01
    -18.122  0.0000E+00  0.1960E+01
    -17.875  0.0000E+00  0.1960E+01
    -17.628  0.0000E+00  0.1960E+01
    -17.381  0.0000E+00  0.1960E+01
    -17.135  0.0000E+00  0.1960E+01
    -16.888  0.0000E+00  0.1960E+01
    -16.641  0.0000E+00  0.1960E+01
    -16.394  0.0000E+00  0.1960E+01
    -16.148  0.0000E+00  0.1960E+01
    -15.901  0.0000E+00  0.1960E+01
    -15.654  0.0000E+00  0.1960E+01
    -15.407  0.0000E+00  0.1960E+01
    -15.161  0.0000E+00  0.1960E+01
    -14.914  0.0000E+00  0.1960E+01
    -14.667  0.0000E+00  0.1960E+01
    -14.420  0.0000E+00  0.1960E+01
    -14.174  0.0000E+00  0.1960E+01
    -13.927  0.0000E+00  0.1960E+01
    -13.680  0.0000E+00  0.1960E+01
    -13.433  0.0000E+00  0.1960E+01
    -13.187  0.0000E+00  0.1960E+01
    -12.940  0.0000E+00  0.1960E+01
    -12.693  0.0000E+00  0.1960E+01
    -12.446  0.0000E+00  0.1960E+01
    -12.200  0.0000E+00  0.1960E+01
    -11.953  0.0000E+00  0.1960E+01
    -11.706  0.0000E+00  0.1960E+01
    -11.459  0.0000E+00  0.1960E+01
    -11.213  0.0000E+00  0.1960E+01
    -10.966  0.0000E+00  0.1960E+01
    -10.719  0.0000E+00  0.1960E+01
    -10.472  0.0000E+00  0.1960E+01
    -10.226  0.0000E+00  0.1960E+01
     -9.979  0.0000E+00  0.1960E+01
     -9.732  0.0000E+00  0.1960E+01
     -9.485  0.0000E+00  0.1960E+01
     -9.239  0.0000E+00  0.1960E+01
     -8.992  0.0000E+00  0.1960E+01
     -8.745  0.0000E+00  0.1960E+01
     -8.498  0.0000E+00  0.1960E+01
     -8.252  0.0000E+00  0.1960E+01
     -8.005  0.0000E+00  0.1960E+01
     -7.758  0.3866E-16  0.1960E+01
     -7.511  0.7181E-07  0.1960E+01
     -7.265  0.3111E-02  0.1961E+01
     -7.018  0.6965E-01  0.1978E+01
     -6.771  0.1831E-01  0.1982E+01
     -6.525  0.7338E-01  0.2001E+01
     -6.278  0.8859E-01  0.2022E+01
     -6.031  0.1384E+00  0.2057E+01
     -5.784  0.2255E+00  0.2112E+01
     -5.538  0.2276E+00  0.2168E+01
     -5.291  0.1567E+00  0.2207E+01
     -5.044  0.5236E-01  0.2220E+01
     -4.797  0.7064E-04  0.2220E+01
     -4.551  0.1576E-11  0.2220E+01
     -4.304  0.0000E+00  0.2220E+01
     -4.057  0.1558E-10  0.2220E+01
     -3.810  0.5890E-04  0.2220E+01
     -3.564  0.1717E-01  0.2224E+01
     -3.317  0.5869E-01  0.2239E+01
     -3.070  0.6256E-01  0.2254E+01
     -2.823  0.1119E+00  0.2282E+01
     -2.577  0.1841E+00  0.2327E+01
     -2.330  0.2366E+00  0.2386E+01
     -2.083  0.2283E+00  0.2442E+01
     -1.836  0.2404E+00  0.2501E+01
     -1.590  0.2092E+00  0.2553E+01
     -1.343  0.1279E+00  0.2584E+01
     -1.096  0.6097E-01  0.2599E+01
     -0.849  0.2166E-02  0.2600E+01
     -0.603  0.8212E-07  0.2600E+01
     -0.356  0.7299E-16  0.2600E+01
     -0.109  0.0000E+00  0.2600E+01
      0.138  0.0000E+00  0.2600E+01
      0.384  0.0000E+00  0.2600E+01
      0.631  0.1666E-18  0.2600E+01
      0.878  0.1989E-08  0.2600E+01
      1.125  0.3249E-03  0.2600E+01
      1.371  0.6896E-02  0.2602E+01
      1.618  0.3908E-01  0.2611E+01
      1.865  0.9425E-01  0.2635E+01
      2.112  0.1123E+00  0.2662E+01
      2.358  0.2072E+00  0.2713E+01
      2.605  0.2491E+00  0.2775E+01
      2.852  0.3121E+00  0.2852E+01
      3.099  0.3135E+00  0.2929E+01
      3.345  0.3384E+00  0.3013E+01
      3.592  0.3340E+00  0.3095E+01
      3.839  0.4277E+00  0.3201E+01
      4.086  0.5229E+00  0.3330E+01
      4.332  0.5872E+00  0.3475E+01
      4.579  0.6294E+00  0.3630E+01
      4.826  0.6303E+00  0.3786E+01
      5.073  0.6109E+00  0.3936E+01
      5.319  0.5549E+00  0.4073E+01
      5.566  0.4256E+00  0.4178E+01
      5.813  0.3360E+00  0.4261E+01
      6.060  0.3278E+00  0.4342E+01
      6.306  0.2727E+00  0.4409E+01
      6.553  0.2007E+00  0.4459E+01
      6.800  0.1512E+00  0.4496E+01
      7.046  0.7776E-01  0.4515E+01
      7.293  0.1009E+00  0.4540E+01
      7.540  0.1542E+00  0.4578E+01
      7.787  0.2255E+00  0.4634E+01
      8.033  0.2129E+00  0.4686E+01
      8.280  0.1909E+00  0.4733E+01
      8.527  0.2195E+00  0.4788E+01
      8.774  0.2959E+00  0.4861E+01
      9.020  0.3059E+00  0.4936E+01
      9.267  0.2899E+00  0.5008E+01
      9.514  0.3304E+00  0.5089E+01
      9.761  0.4538E+00  0.5201E+01
     10.007  0.5667E+00  0.5341E+01
     10.254  0.6056E+00  0.5490E+01
     10.501  0.6127E+00  0.5642E+01
     10.748  0.5802E+00  0.5785E+01
     10.994  0.6060E+00  0.5934E+01
     11.241  0.6021E+00  0.6083E+01
     11.488  0.5293E+00  0.6213E+01
     11.735  0.1073E+00  0.6240E+01
     11.981  0.2559E-03  0.6240E+01
     12.228  0.6027E-10  0.6240E+01
     12.475  0.0000E+00  0.6240E+01
     12.722  0.0000E+00  0.6240E+01
     12.968  0.0000E+00  0.6240E+01
     13.215  0.0000E+00  0.6240E+01
     13.462  0.0000E+00  0.6240E+01
     13.709  0.0000E+00  0.6240E+01
     13.955  0.0000E+00  0.6240E+01
     14.202  0.0000E+00  0.6240E+01
     14.449  0.0000E+00  0.6240E+01
     14.696  0.0000E+00  0.6240E+01
     14.942  0.0000E+00  0.6240E+01
