HECN                                    
           1
     8.537016   -0.009144    0.005210
    -0.003446    8.551296    0.015531
     0.035910    0.000437    8.601492
   V    Nb   Ti   N    C    Cr   Mo
   7   6   7  13  19   6   6
Direct configuration=     1
   0.01031743  0.98396667  0.01963155
   0.23912072  0.98501077  0.24809273
   0.26381713  0.51305797  0.24532202
   0.49793327  0.48063214  0.99551761
   0.48486120  0.24050258  0.75649843
   0.00543646  0.49623364  0.52113574
   0.50245086  0.75416613  0.73421393
   0.00071965  0.26012741  0.25081241
   0.74236063  0.75033694  0.00139848
   0.00827615  0.23974273  0.75014615
   0.74903715  0.25073310  0.50823331
   0.00193150  0.75814265  0.74883475
   0.25479014  0.50123762  0.75293562
   0.24904584  0.24513725  0.00162288
   0.49414331  0.24116418  0.24488475
   0.73909967  0.99385661  0.25238740
   0.74937841  0.24750006  0.99475207
   0.26516512  0.75537548  0.99972820
   0.25187597  0.25033219  0.49725190
   0.25092415  0.75108554  0.49718546
   0.25240119  0.24992878  0.24849712
   0.25316667  0.00051200  0.99855307
   0.00084029  0.24371928  0.00153047
   0.74312403  0.24258908  0.24780291
   0.75332380  0.00289096  0.00264514
   0.49764274  0.00156416  0.23237666
   0.00416912  0.49964263  0.24624847
   0.49989520  0.75392947  0.99250298
   0.00436586  0.00086359  0.75600848
   0.74493544  0.23750477  0.75341895
   0.74517115  0.00235483  0.49563911
   0.49697741  0.24445943  0.50009257
   0.50034226  0.99901043  0.75318191
   0.99692226  0.00226571  0.24564044
   0.49928027  0.24981474  0.99629670
   0.26344539  0.75184943  0.24848299
   0.24852566  0.50107677  0.00577529
   0.00746892  0.74937605  0.00095195
   0.74199128  0.74935904  0.24914822
   0.75723467  0.49580554  0.00305259
   0.48977045  0.50173338  0.24140402
   0.25640955  0.24339125  0.75043714
   0.25491088  0.00050356  0.49616228
   0.00447816  0.25619558  0.50065903
   0.25919756  0.75914843  0.74824734
   0.24642548  0.50132756  0.49235140
   0.00316544  0.74656328  0.49811406
   0.00024472  0.50045241  0.75242999
   0.74389067  0.76392083  0.74457472
   0.75902784  0.49712826  0.49865137
   0.49888535  0.76884579  0.49459524
   0.50366762  0.49794654  0.75182622
   0.50892958  0.02192579  0.99753100
   0.00543667  0.52287811  0.97658494
   0.49977323  0.73254724  0.27340253
   0.26068834  0.00312590  0.74109576
   0.47341705  0.99831673  0.53039462
   0.71914662  0.98648783  0.78360313
   0.00646739  0.75397357  0.24996670
   0.72677044  0.50325364  0.24656098
   0.01112610  0.00539132  0.48403520
   0.49979939  0.51042012  0.49673903
   0.74674950  0.51155642  0.75628646
   0.74971396  0.73610786  0.49591555
HECN                                    
           1
     8.537336   -0.009292    0.005209
    -0.003596    8.550557    0.015623
     0.035909    0.000527    8.602116
   V    Nb   Ti   N    C    Cr   Mo
   7   6   7  13  19   6   6
Direct configuration=     2
   0.01032357  0.98395245  0.01958241
   0.23911699  0.98502966  0.24811108
   0.26372665  0.51307745  0.24532132
   0.49793988  0.48064518  0.99553862
   0.48489705  0.24051224  0.75649017
   0.00544868  0.49623596  0.52111960
   0.50245971  0.75415427  0.73422091
   0.00071325  0.26008232  0.25081880
   0.74237622  0.75034642  0.00139260
   0.00826505  0.23976182  0.75015177
   0.74904266  0.25072581  0.50821068
   0.00192198  0.75816070  0.74882650
   0.25477565  0.50123021  0.75291627
   0.24905149  0.24513022  0.00161000
   0.49413873  0.24117330  0.24488995
   0.73910136  0.99382358  0.25237127
   0.74937008  0.24750804  0.99477021
   0.26515955  0.75538017  0.99972069
   0.25189018  0.25032000  0.49726091
   0.25092729  0.75109947  0.49719342
   0.25241086  0.24991565  0.24849959
   0.25316925  0.00051478  0.99853855
   0.00083157  0.24374636  0.00153258
   0.74310782  0.24257418  0.24779892
   0.75332772  0.00290429  0.00265355
   0.49762578  0.00154528  0.23239397
   0.00414908  0.49963339  0.24623845
   0.49987841  0.75391730  0.99252782
   0.00435353  0.00085707  0.75601185
   0.74492419  0.23751317  0.75342762
   0.74512204  0.00233794  0.49569043
   0.49696448  0.24447032  0.50009350
   0.50030166  0.99900111  0.75319589
   0.99689941  0.00226177  0.24569548
   0.49927211  0.24981879  0.99629900
   0.26344394  0.75184206  0.24848158
   0.24854005  0.50108008  0.00578802
   0.00748507  0.74939457  0.00096074
   0.74199996  0.74939521  0.24916324
   0.75722884  0.49578417  0.00305070
   0.48995487  0.50172652  0.24139733
   0.25640816  0.24338188  0.75043334
   0.25497233  0.00049625  0.49617839
   0.00448871  0.25620978  0.50066226
   0.25920908  0.75915832  0.74824546
   0.24641759  0.50132397  0.49234246
   0.00316048  0.74654967  0.49811667
   0.00025286  0.50044316  0.75240299
   0.74389076  0.76393813  0.74457323
   0.75903510  0.49717225  0.49866752
   0.49887457  0.76887197  0.49459506
   0.50367077  0.49793865  0.75182934
   0.50893322  0.02193300  0.99752790
   0.00547004  0.52286635  0.97661717
   0.49974331  0.73253394  0.27335484
   0.26072205  0.00313031  0.74107929
   0.47342385  0.99829924  0.53036133
   0.71917208  0.98648364  0.78360124
   0.00646458  0.75398417  0.24995246
   0.72665940  0.50323972  0.24656595
   0.01108006  0.00539260  0.48402758
   0.49982358  0.51042913  0.49670081
   0.74676885  0.51154290  0.75627662
   0.74972229  0.73609745  0.49593223
HECN                                    
           1
     8.537259   -0.009257    0.005209
    -0.003560    8.550734    0.015601
     0.035909    0.000506    8.601967
   V    Nb   Ti   N    C    Cr   Mo
   7   6   7  13  19   6   6
Direct configuration=     3
   0.01032210  0.98395585  0.01959418
   0.23911789  0.98502514  0.24810669
   0.26374832  0.51307278  0.24532149
   0.49793830  0.48064205  0.99553359
   0.48488847  0.24050993  0.75649215
   0.00544575  0.49623541  0.52112347
   0.50245759  0.75415711  0.73421924
   0.00071478  0.26009312  0.25081727
   0.74237249  0.75034415  0.00139401
   0.00826771  0.23975725  0.75015042
   0.74904134  0.25072756  0.50821610
   0.00192426  0.75815638  0.74882847
   0.25477912  0.50123198  0.75292090
   0.24905013  0.24513190  0.00161308
   0.49413982  0.24117111  0.24488870
   0.73910095  0.99383149  0.25237513
   0.74937207  0.24750613  0.99476587
   0.26516088  0.75537905  0.99972248
   0.25188678  0.25032292  0.49725875
   0.25092654  0.75109613  0.49719151
   0.25240855  0.24991880  0.24849900
   0.25316863  0.00051411  0.99854203
   0.00083366  0.24373987  0.00153207
   0.74311170  0.24257775  0.24779988
   0.75332678  0.00290110  0.00265153
   0.49762985  0.00154980  0.23238983
   0.00415388  0.49963560  0.24624085
   0.49988243  0.75392022  0.99252187
   0.00435649  0.00085863  0.75601104
   0.74492689  0.23751116  0.75342555
   0.74513381  0.00234199  0.49567814
   0.49696757  0.24446771  0.50009328
   0.50031138  0.99900334  0.75319254
   0.99690488  0.00226271  0.24568230
   0.49927407  0.24981782  0.99629845
   0.26344428  0.75184383  0.24848192
   0.24853660  0.50107929  0.00578497
   0.00748121  0.74939013  0.00095864
   0.74199788  0.74938654  0.24915964
   0.75723023  0.49578929  0.00305115
   0.48991071  0.50172816  0.24139894
   0.25640849  0.24338412  0.75043425
   0.25495761  0.00049800  0.49617453
   0.00448619  0.25620638  0.50066149
   0.25920632  0.75915595  0.74824591
   0.24641948  0.50132483  0.49234460
   0.00316167  0.74655293  0.49811605
   0.00025091  0.50044538  0.75240946
   0.74389074  0.76393398  0.74457359
   0.75903336  0.49716171  0.49866365
   0.49887715  0.76886570  0.49459511
   0.50367002  0.49794054  0.75182859
   0.50893235  0.02193128  0.99752864
   0.00546205  0.52286917  0.97660945
   0.49975048  0.73253713  0.27336626
   0.26071397  0.00312925  0.74108323
   0.47342222  0.99830343  0.53036931
   0.71916599  0.98648464  0.78360169
   0.00646526  0.75398163  0.24995587
   0.72668600  0.50324306  0.24656476
   0.01109109  0.00539230  0.48402941
   0.49981779  0.51042697  0.49670996
   0.74676422  0.51154614  0.75627898
   0.74972030  0.73609994  0.49592823
HECN                                    
           1
     8.536933   -0.009316    0.005217
    -0.003619    8.550640    0.015677
     0.035917    0.000583    8.601478
   V    Nb   Ti   N    C    Cr   Mo
   7   6   7  13  19   6   6
Direct configuration=     4
   0.01033236  0.98395463  0.01956954
   0.23910523  0.98505077  0.24813770
   0.26371781  0.51307847  0.24532202
   0.49793063  0.48066525  0.99554626
   0.48492387  0.24052770  0.75648885
   0.00545931  0.49623576  0.52109568
   0.50247002  0.75414519  0.73422276
   0.00070809  0.26002817  0.25082734
   0.74239052  0.75035586  0.00139079
   0.00824487  0.23978581  0.75015338
   0.74904438  0.25072067  0.50818058
   0.00190945  0.75817447  0.74881860
   0.25477105  0.50121968  0.75289636
   0.24905900  0.24511943  0.00159781
   0.49412688  0.24117367  0.24489554
   0.73909518  0.99380485  0.25235946
   0.74935674  0.24751638  0.99479441
   0.26515863  0.75538953  0.99971678
   0.25190020  0.25030470  0.49727249
   0.25092750  0.75111166  0.49719658
   0.25241569  0.24989948  0.24850250
   0.25316993  0.00051931  0.99852933
   0.00082550  0.24377673  0.00153453
   0.74309164  0.24256537  0.24779848
   0.75332871  0.00291655  0.00266963
   0.49760902  0.00153043  0.23240792
   0.00415142  0.49962748  0.24622587
   0.49987381  0.75390071  0.99255936
   0.00433346  0.00085931  0.75602681
   0.74491513  0.23753151  0.75343395
   0.74507895  0.00232903  0.49573012
   0.49696026  0.24448334  0.50009059
   0.50027373  0.99898691  0.75320751
   0.99687989  0.00224899  0.24569569
   0.49926732  0.24982288  0.99630540
   0.26343351  0.75184393  0.24848207
   0.24856072  0.50108180  0.00578950
   0.00749711  0.74940799  0.00095835
   0.74200262  0.74940072  0.24917035
   0.75721937  0.49577697  0.00305555
   0.48991850  0.50171450  0.24138674
   0.25641104  0.24337705  0.75042985
   0.25498025  0.00049541  0.49618317
   0.00449846  0.25621866  0.50066811
   0.25921449  0.75916172  0.74824382
   0.24641595  0.50132383  0.49233613
   0.00316134  0.74653909  0.49811629
   0.00026118  0.50044429  0.75238477
   0.74389232  0.76393849  0.74457409
   0.75904347  0.49718272  0.49866982
   0.49887037  0.76888287  0.49458184
   0.50367483  0.49793456  0.75182475
   0.50893850  0.02194191  0.99752823
   0.00552869  0.52284122  0.97666280
   0.49971320  0.73253962  0.27329193
   0.26077255  0.00314495  0.74104419
   0.47345833  0.99826111  0.53032565
   0.71919086  0.98647778  0.78360490
   0.00646235  0.75398859  0.24995038
   0.72668861  0.50323967  0.24658000
   0.01106183  0.00539586  0.48404997
   0.49982370  0.51043966  0.49668496
   0.74677896  0.51152449  0.75627573
   0.74972108  0.73611963  0.49594556
HECN                                    
           1
     8.536907   -0.009321    0.005218
    -0.003624    8.550632    0.015683
     0.035917    0.000589    8.601440
   V    Nb   Ti   N    C    Cr   Mo
   7   6   7  13  19   6   6
Direct configuration=     5
   0.01033317  0.98395453  0.01956760
   0.23910423  0.98505279  0.24814015
   0.26371541  0.51307892  0.24532206
   0.49793003  0.48066708  0.99554725
   0.48492666  0.24052910  0.75648859
   0.00546038  0.49623578  0.52109349
   0.50247100  0.75414425  0.73422304
   0.00070756  0.26002305  0.25082813
   0.74239194  0.75035678  0.00139053
   0.00824307  0.23978806  0.75015361
   0.74904462  0.25072012  0.50817778
   0.00190829  0.75817589  0.74881783
   0.25477042  0.50121871  0.75289443
   0.24905970  0.24511845  0.00159661
   0.49412586  0.24117387  0.24489608
   0.73909472  0.99380275  0.25235823
   0.74935553  0.24751718  0.99479666
   0.26515845  0.75539036  0.99971633
   0.25190125  0.25030326  0.49727357
   0.25092757  0.75111289  0.49719698
   0.25241625  0.24989796  0.24850278
   0.25317003  0.00051972  0.99852833
   0.00082486  0.24377964  0.00153473
   0.74309006  0.24256439  0.24779837
   0.75332886  0.00291777  0.00267106
   0.49760738  0.00152890  0.23240935
   0.00415123  0.49962684  0.24622469
   0.49987314  0.75389917  0.99256231
   0.00433165  0.00085936  0.75602805
   0.74491421  0.23753311  0.75343461
   0.74507463  0.00232801  0.49573422
   0.49695968  0.24448457  0.50009037
   0.50027077  0.99898561  0.75320869
   0.99687792  0.00224791  0.24569675
   0.49926679  0.24982328  0.99630594
   0.26343266  0.75184394  0.24848208
   0.24856262  0.50108199  0.00578986
   0.00749836  0.74940940  0.00095833
   0.74200300  0.74940184  0.24917119
   0.75721852  0.49577600  0.00305590
   0.48991912  0.50171342  0.24138578
   0.25641124  0.24337649  0.75042951
   0.25498204  0.00049521  0.49618385
   0.00449942  0.25621963  0.50066863
   0.25921513  0.75916218  0.74824365
   0.24641568  0.50132376  0.49233546
   0.00316132  0.74653799  0.49811631
   0.00026199  0.50044421  0.75238283
   0.74389245  0.76393885  0.74457413
   0.75904426  0.49718437  0.49867030
   0.49886984  0.76888423  0.49458079
   0.50367521  0.49793409  0.75182445
   0.50893898  0.02194274  0.99752820
   0.00553394  0.52283902  0.97666701
   0.49971027  0.73253982  0.27328608
   0.26077716  0.00314618  0.74104111
   0.47346117  0.99825778  0.53032221
   0.71919282  0.98647724  0.78360516
   0.00646212  0.75398914  0.24994994
   0.72668882  0.50323940  0.24658120
   0.01105953  0.00539614  0.48405159
   0.49982416  0.51044066  0.49668299
   0.74678012  0.51152278  0.75627547
   0.74972114  0.73612119  0.49594692
HECN                                    
           1
     8.536926   -0.009317    0.005217
    -0.003620    8.550638    0.015678
     0.035917    0.000584    8.601468
   V    Nb   Ti   N    C    Cr   Mo
   7   6   7  13  19   6   6
Direct configuration=     6
   0.01033257  0.98395460  0.01956904
   0.23910498  0.98505129  0.24813833
   0.26371720  0.51307859  0.24532203
   0.49793048  0.48066572  0.99554651
   0.48492459  0.24052806  0.75648879
   0.00545959  0.49623576  0.52109512
   0.50247027  0.75414495  0.73422283
   0.00070795  0.26002685  0.25082754
   0.74239088  0.75035610  0.00139072
   0.00824441  0.23978638  0.75015344
   0.74904444  0.25072053  0.50817986
   0.00190915  0.75817483  0.74881840
   0.25477089  0.50121943  0.75289587
   0.24905918  0.24511918  0.00159750
   0.49412662  0.24117372  0.24489568
   0.73909506  0.99380431  0.25235914
   0.74935643  0.24751658  0.99479499
   0.26515859  0.75538974  0.99971666
   0.25190047  0.25030433  0.49727276
   0.25092751  0.75111198  0.49719669
   0.25241583  0.24989909  0.24850257
   0.25316996  0.00051941  0.99852907
   0.00082533  0.24377748  0.00153458
   0.74309124  0.24256512  0.24779845
   0.75332875  0.00291687  0.00267000
   0.49760860  0.00153003  0.23240829
   0.00415137  0.49962731  0.24622557
   0.49987364  0.75390031  0.99256011
   0.00433300  0.00085932  0.75602713
   0.74491489  0.23753192  0.75343412
   0.74507784  0.00232877  0.49573117
   0.49696011  0.24448366  0.50009053
   0.50027297  0.99898658  0.75320782
   0.99687938  0.00224872  0.24569596
   0.49926718  0.24982299  0.99630554
   0.26343329  0.75184394  0.24848207
   0.24856120  0.50108185  0.00578959
   0.00749743  0.74940835  0.00095834
   0.74200272  0.74940101  0.24917057
   0.75721915  0.49577672  0.00305564
   0.48991866  0.50171422  0.24138649
   0.25641109  0.24337691  0.75042977
   0.25498071  0.00049536  0.49618335
   0.00449870  0.25621891  0.50066824
   0.25921465  0.75916184  0.74824377
   0.24641588  0.50132381  0.49233595
   0.00316134  0.74653881  0.49811630
   0.00026138  0.50044427  0.75238427
   0.74389236  0.76393858  0.74457410
   0.75904367  0.49718314  0.49866994
   0.49887024  0.76888322  0.49458157
   0.50367493  0.49793444  0.75182468
   0.50893862  0.02194212  0.99752822
   0.00553003  0.52284066  0.97666388
   0.49971245  0.73253967  0.27329043
   0.26077373  0.00314526  0.74104340
   0.47345906  0.99826026  0.53032476
   0.71919136  0.98647764  0.78360497
   0.00646229  0.75398873  0.24995026
   0.72668867  0.50323960  0.24658031
   0.01106124  0.00539593  0.48405039
   0.49982382  0.51043992  0.49668446
   0.74677926  0.51152405  0.75627566
   0.74972109  0.73612003  0.49594591
HECN                                    
           1
     8.536914   -0.009319    0.005218
    -0.003623    8.550634    0.015681
     0.035917    0.000587    8.601450
   V    Nb   Ti   N    C    Cr   Mo
   7   6   7  13  19   6   6
Direct configuration=     7
   0.01033295  0.98395456  0.01956813
   0.23910451  0.98505223  0.24813948
   0.26371607  0.51307880  0.24532205
   0.49793019  0.48066658  0.99554698
   0.48492590  0.24052872  0.75648866
   0.00546009  0.49623578  0.52109409
   0.50247073  0.75414451  0.73422296
   0.00070770  0.26002445  0.25082792
   0.74239155  0.75035653  0.00139060
   0.00824357  0.23978744  0.75015355
   0.74904455  0.25072027  0.50817855
   0.00190861  0.75817550  0.74881804
   0.25477059  0.50121897  0.75289496
   0.24905951  0.24511872  0.00159694
   0.49412614  0.24117382  0.24489593
   0.73909484  0.99380333  0.25235856
   0.74935587  0.24751696  0.99479604
   0.26515850  0.75539013  0.99971645
   0.25190096  0.25030366  0.49727327
   0.25092755  0.75111255  0.49719687
   0.25241610  0.24989838  0.24850270
   0.25317001  0.00051961  0.99852860
   0.00082503  0.24377884  0.00153468
   0.74309050  0.24256466  0.24779840
   0.75332882  0.00291744  0.00267067
   0.49760783  0.00152932  0.23240896
   0.00415128  0.49962701  0.24622501
   0.49987332  0.75389959  0.99256150
   0.00433215  0.00085934  0.75602771
   0.74491446  0.23753267  0.75343443
   0.74507581  0.00232829  0.49573309
   0.49695984  0.24448423  0.50009043
   0.50027158  0.99898597  0.75320837
   0.99687846  0.00224821  0.24569646
   0.49926693  0.24982317  0.99630579
   0.26343290  0.75184394  0.24848208
   0.24856209  0.50108194  0.00578976
   0.00749802  0.74940901  0.00095833
   0.74200289  0.74940153  0.24917096
   0.75721875  0.49577627  0.00305581
   0.48991895  0.50171371  0.24138604
   0.25641119  0.24337665  0.75042960
   0.25498155  0.00049526  0.49618366
   0.00449916  0.25621936  0.50066848
   0.25921495  0.75916205  0.74824370
   0.24641575  0.50132378  0.49233564
   0.00316132  0.74653829  0.49811631
   0.00026176  0.50044423  0.75238336
   0.74389241  0.76393875  0.74457412
   0.75904404  0.49718392  0.49867017
   0.49886999  0.76888385  0.49458108
   0.50367511  0.49793422  0.75182453
   0.50893885  0.02194251  0.99752820
   0.00553250  0.52283962  0.97666585
   0.49971107  0.73253977  0.27328768
   0.26077589  0.00314584  0.74104196
   0.47346039  0.99825869  0.53032315
   0.71919228  0.98647739  0.78360509
   0.00646219  0.75398899  0.24995006
   0.72668876  0.50323948  0.24658087
   0.01106016  0.00539606  0.48405115
   0.49982404  0.51044038  0.49668353
   0.74677980  0.51152325  0.75627554
   0.74972112  0.73612076  0.49594655
HECN                                    
           1
     8.536920   -0.009318    0.005218
    -0.003621    8.550636    0.015680
     0.035917    0.000586    8.601459
   V    Nb   Ti   N    C    Cr   Mo
   7   6   7  13  19   6   6
Direct configuration=     8
   0.01033276  0.98395458  0.01956859
   0.23910474  0.98505176  0.24813890
   0.26371663  0.51307870  0.24532204
   0.49793034  0.48066615  0.99554675
   0.48492524  0.24052839  0.75648872
   0.00545984  0.49623577  0.52109460
   0.50247050  0.75414473  0.73422290
   0.00070783  0.26002565  0.25082773
   0.74239121  0.75035631  0.00139066
   0.00824399  0.23978691  0.75015350
   0.74904449  0.25072040  0.50817921
   0.00190888  0.75817517  0.74881822
   0.25477074  0.50121920  0.75289541
   0.24905935  0.24511895  0.00159722
   0.49412638  0.24117377  0.24489581
   0.73909495  0.99380382  0.25235885
   0.74935615  0.24751677  0.99479551
   0.26515854  0.75538994  0.99971656
   0.25190072  0.25030399  0.49727302
   0.25092753  0.75111226  0.49719678
   0.25241597  0.24989874  0.24850264
   0.25316998  0.00051951  0.99852884
   0.00082518  0.24377816  0.00153463
   0.74309087  0.24256489  0.24779843
   0.75332878  0.00291715  0.00267033
   0.49760821  0.00152968  0.23240862
   0.00415133  0.49962716  0.24622529
   0.49987348  0.75389995  0.99256081
   0.00433257  0.00085933  0.75602742
   0.74491468  0.23753229  0.75343428
   0.74507682  0.00232853  0.49573213
   0.49695997  0.24448395  0.50009048
   0.50027227  0.99898627  0.75320809
   0.99687892  0.00224846  0.24569621
   0.49926706  0.24982308  0.99630567
   0.26343309  0.75184394  0.24848207
   0.24856165  0.50108189  0.00578968
   0.00749772  0.74940868  0.00095834
   0.74200281  0.74940127  0.24917076
   0.75721895  0.49577649  0.00305572
   0.48991881  0.50171397  0.24138627
   0.25641114  0.24337678  0.75042968
   0.25498113  0.00049531  0.49618351
   0.00449893  0.25621913  0.50066836
   0.25921480  0.75916195  0.74824374
   0.24641582  0.50132380  0.49233580
   0.00316133  0.74653855  0.49811630
   0.00026157  0.50044425  0.75238382
   0.74389239  0.76393867  0.74457411
   0.75904386  0.49718353  0.49867006
   0.49887011  0.76888354  0.49458132
   0.50367502  0.49793433  0.75182461
   0.50893873  0.02194232  0.99752821
   0.00553127  0.52284014  0.97666487
   0.49971176  0.73253972  0.27328906
   0.26077481  0.00314555  0.74104268
   0.47345972  0.99825948  0.53032396
   0.71919182  0.98647751  0.78360503
   0.00646224  0.75398886  0.24995016
   0.72668872  0.50323954  0.24658059
   0.01106070  0.00539600  0.48405077
   0.49982393  0.51044015  0.49668400
   0.74677953  0.51152365  0.75627560
   0.74972111  0.73612040  0.49594623
HECN                                    
           1
     8.536917   -0.009319    0.005218
    -0.003622    8.550635    0.015681
     0.035917    0.000586    8.601455
   V    Nb   Ti   N    C    Cr   Mo
   7   6   7  13  19   6   6
Direct configuration=     9
   0.01033286  0.98395457  0.01956836
   0.23910462  0.98505200  0.24813919
   0.26371635  0.51307875  0.24532204
   0.49793026  0.48066636  0.99554686
   0.48492557  0.24052855  0.75648869
   0.00545996  0.49623577  0.52109435
   0.50247061  0.75414462  0.73422293
   0.00070777  0.26002505  0.25082782
   0.74239138  0.75035642  0.00139063
   0.00824378  0.23978717  0.75015352
   0.74904452  0.25072034  0.50817888
   0.00190874  0.75817534  0.74881813
   0.25477067  0.50121909  0.75289519
   0.24905943  0.24511883  0.00159708
   0.49412626  0.24117379  0.24489587
   0.73909490  0.99380357  0.25235871
   0.74935601  0.24751687  0.99479578
   0.26515852  0.75539003  0.99971650
   0.25190084  0.25030382  0.49727314
   0.25092754  0.75111241  0.49719683
   0.25241603  0.24989856  0.24850267
   0.25316999  0.00051956  0.99852872
   0.00082511  0.24377850  0.00153465
   0.74309068  0.24256477  0.24779841
   0.75332880  0.00291729  0.00267050
   0.49760802  0.00152950  0.23240879
   0.00415130  0.49962709  0.24622515
   0.49987340  0.75389977  0.99256115
   0.00433236  0.00085934  0.75602757
   0.74491457  0.23753248  0.75343435
   0.74507632  0.00232841  0.49573261
   0.49695991  0.24448409  0.50009046
   0.50027193  0.99898612  0.75320823
   0.99687869  0.00224834  0.24569633
   0.49926700  0.24982313  0.99630573
   0.26343299  0.75184394  0.24848208
   0.24856187  0.50108192  0.00578972
   0.00749787  0.74940884  0.00095834
   0.74200285  0.74940140  0.24917086
   0.75721885  0.49577638  0.00305577
   0.48991888  0.50171384  0.24138615
   0.25641116  0.24337671  0.75042964
   0.25498134  0.00049529  0.49618358
   0.00449904  0.25621925  0.50066842
   0.25921488  0.75916200  0.74824372
   0.24641578  0.50132379  0.49233572
   0.00316133  0.74653842  0.49811631
   0.00026167  0.50044424  0.75238359
   0.74389240  0.76393871  0.74457412
   0.75904395  0.49718373  0.49867011
   0.49887005  0.76888370  0.49458120
   0.50367506  0.49793427  0.75182457
   0.50893879  0.02194242  0.99752821
   0.00553188  0.52283988  0.97666536
   0.49971142  0.73253974  0.27328837
   0.26077535  0.00314570  0.74104232
   0.47346006  0.99825909  0.53032355
   0.71919205  0.98647745  0.78360506
   0.00646221  0.75398893  0.24995011
   0.72668874  0.50323951  0.24658073
   0.01106043  0.00539603  0.48405096
   0.49982398  0.51044027  0.49668377
   0.74677966  0.51152345  0.75627557
   0.74972111  0.73612058  0.49594639
HECN                                    
           1
     8.537188   -0.009278    0.005271
    -0.003581    8.550947    0.015773
     0.035972    0.000680    8.601462
   V    Nb   Ti   N    C    Cr   Mo
   7   6   7  13  19   6   6
Direct configuration=    10
   0.01034264  0.98396813  0.01956627
   0.23909165  0.98507836  0.24817110
   0.26372185  0.51306615  0.24532272
   0.49790946  0.48068401  0.99554790
   0.48495996  0.24054789  0.75648805
   0.00547358  0.49622532  0.52105265
   0.50248347  0.75414411  0.73422756
   0.00070768  0.25997048  0.25083221
   0.74239862  0.75034748  0.00138633
   0.00821989  0.23980188  0.75015153
   0.74904557  0.25072027  0.50814762
   0.00190144  0.75816094  0.74883001
   0.25477822  0.50121027  0.75289489
   0.24906568  0.24510648  0.00158522
   0.49411412  0.24116785  0.24490225
   0.73907914  0.99379644  0.25234603
   0.74933899  0.24752837  0.99482416
   0.26515481  0.75540265  0.99971194
   0.25190553  0.25028599  0.49728662
   0.25093033  0.75112086  0.49719188
   0.25241229  0.24988056  0.24850333
   0.25317356  0.00052638  0.99851771
   0.00082361  0.24381676  0.00153575
   0.74307507  0.24255564  0.24780078
   0.75332962  0.00292233  0.00268185
   0.49758510  0.00151338  0.23242583
   0.00416599  0.49961559  0.24619806
   0.49988377  0.75387932  0.99260317
   0.00429719  0.00087484  0.75604897
   0.74490359  0.23755046  0.75343785
   0.74502854  0.00232628  0.49578620
   0.49696374  0.24450397  0.50008715
   0.50026967  0.99896094  0.75322328
   0.99685547  0.00222555  0.24567727
   0.49926310  0.24983296  0.99631231
   0.26340856  0.75185242  0.24848131
   0.24858582  0.50108205  0.00578073
   0.00751227  0.74940522  0.00094781
   0.74200127  0.74938894  0.24917324
   0.75721786  0.49578458  0.00306056
   0.48983236  0.50169849  0.24137504
   0.25641585  0.24337493  0.75042271
   0.25495660  0.00049373  0.49618162
   0.00450998  0.25621966  0.50067381
   0.25921677  0.75915923  0.74823987
   0.24642351  0.50132560  0.49232471
   0.00316625  0.74653452  0.49811029
   0.00027293  0.50045830  0.75239123
   0.74389402  0.76393155  0.74457930
   0.75904980  0.49718152  0.49866951
   0.49886736  0.76887179  0.49454171
   0.50368126  0.49793112  0.75180920
   0.50894713  0.02193978  0.99752757
   0.00557902  0.52283461  0.97668072
   0.49968785  0.73255270  0.27324082
   0.26082264  0.00316117  0.74100041
   0.47352323  0.99823273  0.53032130
   0.71917229  0.98649756  0.78360396
   0.00646736  0.75399094  0.24994746
   0.72676274  0.50324692  0.24659666
   0.01104695  0.00540631  0.48409929
   0.49981905  0.51046799  0.49666641
   0.74679270  0.51150043  0.75628435
   0.74971399  0.73615608  0.49596208
HECN                                    
           1
     8.537092   -0.009292    0.005252
    -0.003595    8.550836    0.015740
     0.035952    0.000647    8.601460
   V    Nb   Ti   N    C    Cr   Mo
   7   6   7  13  19   6   6
Direct configuration=    11
   0.01033917  0.98396332  0.01956701
   0.23909625  0.98506901  0.24815978
   0.26371990  0.51307062  0.24532248
   0.49791684  0.48067775  0.99554753
   0.48494776  0.24054103  0.75648828
   0.00546875  0.49622903  0.52106744
   0.50247891  0.75414429  0.73422592
   0.00070771  0.25998984  0.25083066
   0.74239605  0.75035065  0.00138786
   0.00822836  0.23979667  0.75015224
   0.74904520  0.25072029  0.50815871
   0.00190403  0.75816604  0.74882580
   0.25477554  0.50121340  0.75289500
   0.24906346  0.24511086  0.00158942
   0.49411843  0.24116996  0.24489999
   0.73908473  0.99379897  0.25235053
   0.74934503  0.24752429  0.99481409
   0.26515613  0.75539817  0.99971356
   0.25190387  0.25029232  0.49728184
   0.25092934  0.75111786  0.49719363
   0.25241362  0.24988694  0.24850309
   0.25317229  0.00052396  0.99852162
   0.00082414  0.24380318  0.00153536
   0.74308061  0.24255888  0.24779994
   0.75332933  0.00292055  0.00267782
   0.49759323  0.00151910  0.23241979
   0.00416078  0.49961967  0.24620767
   0.49988009  0.75388657  0.99258827
   0.00430966  0.00086934  0.75604138
   0.74490748  0.23754409  0.75343661
   0.74504549  0.00232704  0.49576719
   0.49696238  0.24449692  0.50008832
   0.50027047  0.99896987  0.75321794
   0.99686371  0.00223363  0.24568403
   0.49926448  0.24982947  0.99630998
   0.26341723  0.75184941  0.24848158
   0.24857732  0.50108200  0.00578392
   0.00750716  0.74940651  0.00095154
   0.74200183  0.74939336  0.24917240
   0.75721821  0.49578167  0.00305886
   0.48986305  0.50170393  0.24137898
   0.25641419  0.24337556  0.75042517
   0.25496537  0.00049428  0.49618231
   0.00450610  0.25621951  0.50067190
   0.25921610  0.75916021  0.74824123
   0.24642077  0.50132496  0.49232862
   0.00316450  0.74653590  0.49811243
   0.00026894  0.50045331  0.75238852
   0.74389344  0.76393409  0.74457746
   0.75904773  0.49718230  0.49866972
   0.49886831  0.76887601  0.49455572
   0.50367906  0.49793224  0.75181466
   0.50894417  0.02194072  0.99752779
   0.00556230  0.52283648  0.97667527
   0.49969621  0.73254811  0.27325769
   0.26080586  0.00315568  0.74101528
   0.47350082  0.99824208  0.53032210
   0.71917930  0.98649042  0.78360435
   0.00646553  0.75399023  0.24994840
   0.72673649  0.50324429  0.24659101
   0.01105173  0.00540267  0.48408214
   0.49982080  0.51045816  0.49667257
   0.74678808  0.51150860  0.75628123
   0.74971652  0.73614349  0.49595652
HECN                                    
           1
     8.537155   -0.009283    0.005264
    -0.003586    8.550909    0.015762
     0.035965    0.000668    8.601461
   V    Nb   Ti   N    C    Cr   Mo
   7   6   7  13  19   6   6
Direct configuration=    12
   0.01034145  0.98396649  0.01956652
   0.23909322  0.98507517  0.24816723
   0.26372118  0.51306768  0.24532264