  64  64   0   0
  0.1129557E+02  0.8932500E-09  0.9055600E-09  0.8937200E-09  0.5000000E-15
  1.000000000000000E-004
  CAR 
 HECN                                    
     13.11699082    -37.90235369  301      8.31208378      1.00000000
    -37.902  0.0000E+00  0.0000E+00
    -37.732  0.0000E+00  0.0000E+00
    -37.562  0.0000E+00  0.0000E+00
    -37.392  0.0000E+00  0.0000E+00
    -37.222  0.0000E+00  0.0000E+00
    -37.052  0.0000E+00  0.0000E+00
    -36.882  0.0000E+00  0.0000E+00
    -36.712  0.0000E+00  0.0000E+00
    -36.542  0.0000E+00  0.0000E+00
    -36.372  0.0000E+00  0.0000E+00
    -36.202  0.0000E+00  0.0000E+00
    -36.032  0.1342E-10  0.2282E-11
    -35.862  0.4872E-05  0.8285E-06
    -35.692  0.7427E-02  0.1264E-02
    -35.521  0.1233E+00  0.2222E-01
    -35.351  0.6234E+00  0.1282E+00
    -35.181  0.9808E+00  0.2950E+00
    -35.011  0.3636E+00  0.3569E+00
    -34.841  0.1834E-01  0.3600E+00
    -34.671  0.1306E-04  0.3600E+00
    -34.501  0.4510E-10  0.3600E+00
    -34.331  0.0000E+00  0.3600E+00
    -34.161  0.0000E+00  0.3600E+00
    -33.991  0.0000E+00  0.3600E+00
    -33.821  0.0000E+00  0.3600E+00
    -33.651  0.0000E+00  0.3600E+00
    -33.481  0.0000E+00  0.3600E+00
    -33.311  0.0000E+00  0.3600E+00
    -33.141  0.0000E+00  0.3600E+00
    -32.970  0.0000E+00  0.3600E+00
    -32.800  0.0000E+00  0.3600E+00
    -32.630  0.0000E+00  0.3600E+00
    -32.460  0.0000E+00  0.3600E+00
    -32.290  0.0000E+00  0.3600E+00
    -32.120  0.0000E+00  0.3600E+00
    -31.950  0.0000E+00  0.3600E+00
    -31.780  0.1306E-16  0.3600E+00
    -31.610  0.3575E-09  0.3600E+00
    -31.440  0.4293E-04  0.3600E+00
    -31.270  0.3063E-01  0.3652E+00
    -31.100  0.4440E+00  0.4407E+00
    -30.930  0.9455E+00  0.6015E+00
    -30.760  0.6282E+00  0.7083E+00
    -30.590  0.6838E-01  0.7200E+00
    -30.420  0.1725E-03  0.7200E+00
    -30.249  0.2540E-08  0.7200E+00
    -30.079  0.1436E-15  0.7200E+00
    -29.909  0.0000E+00  0.7200E+00
    -29.739  0.0000E+00  0.7200E+00
    -29.569  0.0000E+00  0.7200E+00
    -29.399  0.0000E+00  0.7200E+00
    -29.229  0.0000E+00  0.7200E+00
    -29.059  0.0000E+00  0.7200E+00
    -28.889  0.0000E+00  0.7200E+00
    -28.719  0.0000E+00  0.7200E+00
    -28.549  0.0000E+00  0.7200E+00
    -28.379  0.0000E+00  0.7200E+00
    -28.209  0.0000E+00  0.7200E+00
    -28.039  0.1277E-12  0.7200E+00
    -27.869  0.2295E-06  0.7200E+00
    -27.698  0.1707E-02  0.7203E+00
    -27.528  0.1111E+00  0.7392E+00
    -27.358  0.3031E+00  0.7907E+00
    -27.188  0.3457E+00  0.8495E+00
    -27.018  0.5430E+00  0.9419E+00
    -26.848  0.3396E+00  0.9996E+00
    -26.678  0.3510E+00  0.1059E+01
    -26.508  0.1201E+00  0.1080E+01
    -26.338  0.1466E-02  0.1080E+01
    -26.168  0.1762E-02  0.1080E+01
    -25.998  0.1387E+00  0.1104E+01
    -25.828  0.5186E+00  0.1192E+01
    -25.658  0.4965E+00  0.1277E+01
    -25.488  0.7121E+00  0.1398E+01
    -25.318  0.3733E+00  0.1461E+01
    -25.148  0.2213E+00  0.1499E+01
    -24.977  0.7412E-02  0.1500E+01
    -24.807  0.1845E-05  0.1500E+01
    -24.637  0.2039E-11  0.1500E+01
    -24.467  0.1624E-14  0.1500E+01
    -24.297  0.1253E-07  0.1500E+01
    -24.127  0.3951E-03  0.1500E+01
    -23.957  0.8434E-01  0.1514E+01
    -23.787  0.6377E+00  0.1623E+01
    -23.617  0.1205E+01  0.1828E+01
    -23.447  0.4745E+00  0.1908E+01
    -23.277  0.6741E-01  0.1920E+01
    -23.107  0.6885E-03  0.1920E+01
    -22.937  0.4786E-07  0.1920E+01
    -22.767  0.1283E-13  0.1920E+01
    -22.597  0.0000E+00  0.1920E+01
    -22.426  0.0000E+00  0.1920E+01
    -22.256  0.0000E+00  0.1920E+01
    -22.086  0.0000E+00  0.1920E+01
    -21.916  0.0000E+00  0.1920E+01
    -21.746  0.0000E+00  0.1920E+01
    -21.576  0.0000E+00  0.1920E+01
    -21.406  0.0000E+00  0.1920E+01
    -21.236  0.0000E+00  0.1920E+01
    -21.066  0.0000E+00  0.1920E+01
    -20.896  0.0000E+00  0.1920E+01
    -20.726  0.0000E+00  0.1920E+01
    -20.556  0.0000E+00  0.1920E+01
    -20.386  0.0000E+00  0.1920E+01
    -20.216  0.0000E+00  0.1920E+01
    -20.046  0.0000E+00  0.1920E+01
    -19.876  0.0000E+00  0.1920E+01
    -19.705  0.0000E+00  0.1920E+01
    -19.535  0.0000E+00  0.1920E+01
    -19.365  0.0000E+00  0.1920E+01
    -19.195  0.0000E+00  0.1920E+01
    -19.025  0.0000E+00  0.1920E+01
    -18.855  0.0000E+00  0.1920E+01
    -18.685  0.0000E+00  0.1920E+01
    -18.515  0.0000E+00  0.1920E+01
    -18.345  0.0000E+00  0.1920E+01
    -18.175  0.0000E+00  0.1920E+01
    -18.005  0.0000E+00  0.1920E+01
    -17.835  0.0000E+00  0.1920E+01
    -17.665  0.0000E+00  0.1920E+01
    -17.495  0.0000E+00  0.1920E+01
    -17.325  0.0000E+00  0.1920E+01
    -17.154  0.0000E+00  0.1920E+01
    -16.984  0.0000E+00  0.1920E+01
    -16.814  0.0000E+00  0.1920E+01
    -16.644  0.0000E+00  0.1920E+01
    -16.474  0.0000E+00  0.1920E+01
    -16.304  0.0000E+00  0.1920E+01
    -16.134  0.0000E+00  0.1920E+01
    -15.964  0.0000E+00  0.1920E+01
    -15.794  0.0000E+00  0.1920E+01
    -15.624  0.0000E+00  0.1920E+01
    -15.454  0.0000E+00  0.1920E+01
    -15.284  0.0000E+00  0.1920E+01
    -15.114  0.0000E+00  0.1920E+01
    -14.944  0.0000E+00  0.1920E+01
    -14.774  0.0000E+00  0.1920E+01
    -14.604  0.0000E+00  0.1920E+01
    -14.433  0.0000E+00  0.1920E+01
    -14.263  0.0000E+00  0.1920E+01
    -14.093  0.0000E+00  0.1920E+01
    -13.923  0.0000E+00  0.1920E+01
    -13.753  0.0000E+00  0.1920E+01
    -13.583  0.0000E+00  0.1920E+01
    -13.413  0.0000E+00  0.1920E+01
    -13.243  0.0000E+00  0.1920E+01
    -13.073  0.0000E+00  0.1920E+01
    -12.903  0.0000E+00  0.1920E+01
    -12.733  0.0000E+00  0.1920E+01
    -12.563  0.0000E+00  0.1920E+01
    -12.393  0.0000E+00  0.1920E+01
    -12.223  0.0000E+00  0.1920E+01
    -12.053  0.0000E+00  0.1920E+01
    -11.882  0.0000E+00  0.1920E+01
    -11.712  0.0000E+00  0.1920E+01
    -11.542  0.0000E+00  0.1920E+01
    -11.372  0.0000E+00  0.1920E+01
    -11.202  0.0000E+00  0.1920E+01
    -11.032  0.0000E+00  0.1920E+01
    -10.862  0.0000E+00  0.1920E+01
    -10.692  0.0000E+00  0.1920E+01
    -10.522  0.0000E+00  0.1920E+01
    -10.352  0.0000E+00  0.1920E+01
    -10.182  0.0000E+00  0.1920E+01
    -10.012  0.0000E+00  0.1920E+01
     -9.842  0.0000E+00  0.1920E+01
     -9.672  0.0000E+00  0.1920E+01
     -9.502  0.0000E+00  0.1920E+01
     -9.332  0.0000E+00  0.1920E+01
     -9.161  0.0000E+00  0.1920E+01
     -8.991  0.0000E+00  0.1920E+01
     -8.821  0.1620E-16  0.1920E+01
     -8.651  0.1704E-09  0.1920E+01
     -8.481  0.7048E-05  0.1920E+01
     -8.311  0.2213E-02  0.1920E+01
     -8.141  0.3251E-01  0.1926E+01
     -7.971  0.6881E-01  0.1938E+01
     -7.801  0.3747E-01  0.1944E+01
     -7.631  0.1126E+00  0.1963E+01
     -7.461  0.1420E+00  0.1987E+01
     -7.291  0.1648E+00  0.2015E+01
     -7.121  0.1832E+00  0.2046E+01
     -6.951  0.2275E+00  0.2085E+01
     -6.781  0.1935E+00  0.2118E+01
     -6.610  0.1807E+00  0.2149E+01
     -6.440  0.1506E+00  0.2174E+01
     -6.270  0.3279E-01  0.2180E+01
     -6.100  0.1570E-03  0.2180E+01
     -5.930  0.3850E-08  0.2180E+01
     -5.760  0.3777E-15  0.2180E+01
     -5.590  0.2792E-09  0.2180E+01
     -5.420  0.1190E-04  0.2180E+01
     -5.250  0.3278E-02  0.2181E+01
     -5.080  0.3667E-01  0.2187E+01
     -4.910  0.5984E-01  0.2197E+01
     -4.740  0.2029E-01  0.2200E+01
     -4.570  0.5734E-01  0.2210E+01
     -4.400  0.9229E-01  0.2226E+01
     -4.230  0.7854E-01  0.2239E+01
     -4.060  0.1214E+00  0.2260E+01
     -3.889  0.1652E+00  0.2288E+01
     -3.719  0.1896E+00  0.2320E+01
     -3.549  0.2366E+00  0.2360E+01
     -3.379  0.1892E+00  0.2393E+01
     -3.209  0.1863E+00  0.2424E+01
     -3.039  0.2374E+00  0.2465E+01
     -2.869  0.2314E+00  0.2504E+01
     -2.699  0.1101E+00  0.2523E+01
     -2.529  0.1195E+00  0.2543E+01
     -2.359  0.6867E-01  0.2555E+01
     -2.189  0.2879E-01  0.2560E+01
     -2.019  0.2024E-02  0.2560E+01
     -1.849  0.8166E-05  0.2560E+01
     -1.679  0.2344E-09  0.2560E+01
     -1.509  0.2563E-16  0.2560E+01
     -1.338  0.0000E+00  0.2560E+01
     -1.168  0.0000E+00  0.2560E+01
     -0.998  0.0000E+00  0.2560E+01
     -0.828  0.0000E+00  0.2560E+01
     -0.658  0.1946E-12  0.2560E+01
     -0.488  0.1046E-06  0.2560E+01
     -0.318  0.2590E-03  0.2560E+01
     -0.148  0.6406E-02  0.2561E+01
      0.022  0.1273E-01  0.2563E+01
      0.192  0.4408E-01  0.2571E+01
      0.362  0.1095E+00  0.2589E+01
      0.532  0.6832E-01  0.2601E+01
      0.702  0.1231E+00  0.2622E+01
      0.872  0.1415E+00  0.2646E+01
      1.042  0.1717E+00  0.2675E+01
      1.212  0.2277E+00  0.2714E+01
      1.383  0.3072E+00  0.2766E+01
      1.553  0.2766E+00  0.2813E+01
      1.723  0.2676E+00  0.2859E+01
      1.893  0.2874E+00  0.2908E+01
      2.063  0.3349E+00  0.2965E+01
      2.233  0.2823E+00  0.3013E+01
      2.403  0.3246E+00  0.3068E+01
      2.573  0.4225E+00  0.3140E+01
      2.743  0.4913E+00  0.3223E+01
      2.913  0.5798E+00  0.3322E+01
      3.083  0.6163E+00  0.3427E+01
      3.253  0.6370E+00  0.3535E+01
      3.423  0.6415E+00  0.3644E+01
      3.593  0.6161E+00  0.3749E+01
      3.763  0.5939E+00  0.3850E+01
      3.934  0.5689E+00  0.3947E+01
      4.104  0.5115E+00  0.4034E+01
      4.274  0.4339E+00  0.4107E+01
      4.444  0.3593E+00  0.4168E+01
      4.614  0.3155E+00  0.4222E+01
      4.784  0.3032E+00  0.4274E+01
      4.954  0.3260E+00  0.4329E+01
      5.124  0.2766E+00  0.4376E+01
      5.294  0.1847E+00  0.4408E+01
      5.464  0.1529E+00  0.4434E+01
      5.634  0.1436E+00  0.4458E+01
      5.804  0.8444E-01  0.4472E+01
      5.974  0.6477E-01  0.4483E+01
      6.144  0.1006E+00  0.4500E+01
      6.314  0.1554E+00  0.4527E+01
      6.484  0.2133E+00  0.4563E+01
      6.655  0.1673E+00  0.4592E+01
      6.825  0.1726E+00  0.4621E+01
      6.995  0.1909E+00  0.4653E+01
      7.165  0.1737E+00  0.4683E+01
      7.335  0.2115E+00  0.4719E+01
      7.505  0.2315E+00  0.4758E+01
      7.675  0.2744E+00  0.4805E+01
      7.845  0.2902E+00  0.4854E+01
      8.015  0.2868E+00  0.4903E+01
      8.185  0.2633E+00  0.4948E+01
      8.355  0.2618E+00  0.4992E+01
      8.525  0.3326E+00  0.5049E+01
      8.695  0.3746E+00  0.5113E+01
      8.865  0.4199E+00  0.5184E+01
      9.035  0.4650E+00  0.5263E+01
      9.206  0.4500E+00  0.5340E+01
      9.376  0.4697E+00  0.5420E+01
      9.546  0.5007E+00  0.5505E+01
      9.716  0.5481E+00  0.5598E+01
      9.886  0.5313E+00  0.5688E+01
     10.056  0.5614E+00  0.5784E+01
     10.226  0.5866E+00  0.5884E+01
     10.396  0.5765E+00  0.5982E+01
     10.566  0.5291E+00  0.6072E+01
     10.736  0.4130E+00  0.6142E+01
     10.906  0.1040E+00  0.6160E+01
     11.076  0.2662E-02  0.6160E+01
     11.246  0.1036E-05  0.6160E+01
     11.416  0.2154E-11  0.6160E+01
     11.586  0.0000E+00  0.6160E+01
     11.756  0.0000E+00  0.6160E+01
     11.927  0.0000E+00  0.6160E+01
     12.097  0.0000E+00  0.6160E+01
     12.267  0.0000E+00  0.6160E+01
     12.437  0.0000E+00  0.6160E+01
     12.607  0.0000E+00  0.6160E+01
     12.777  0.0000E+00  0.6160E+01
     12.947  0.0000E+00  0.6160E+01
     13.117  0.0000E+00  0.6160E+01
