<?xml version="1.0" encoding="ISO-8859-1"?>
<modeling>
 <generator>
  <i name="program" type="string">vasp </i>
  <i name="version" type="string">6.4.3  </i>
  <i name="subversion" type="string">19Mar24 (build Sep 18 2024 11:30:23) complex                          parallel </i>
  <i name="platform" type="string">LinuxIFC </i>
  <i name="date" type="string">2026 07 08 </i>
  <i name="time" type="string">00:16:12 </i>
 </generator>
 <incar>
  <i type="string" name="SYSTEM">HECN</i>
  <i type="int" name="ISTART">     0</i>
  <i type="string" name="PREC">Normal</i>
  <i type="string" name="ALGO">Fast</i>
  <i type="int" name="ICHARG">     2</i>
  <i type="int" name="NELM">    60</i>
  <i type="int" name="IBRION">     2</i>
  <i name="EDIFF">      0.00001000</i>
  <i name="EDIFFG">     -0.01000000</i>
  <i type="int" name="NSW">   100</i>
  <i type="int" name="ISIF">     3</i>
  <i name="ENCUT">    400.00000000</i>
  <i name="POTIM">      0.50000000</i>
  <i type="logical" name="LREAL"> F  </i>
  <i type="int" name="ISMEAR">     0</i>
  <i name="SIGMA">      0.10000000</i>
  <i type="logical" name="LWAVE"> F  </i>
  <i type="logical" name="LCHARG"> F  </i>
 </incar>
 <primitive_cell>
  <structure name="primitive_cell" >
   <crystal>
    <varray name="basis" >
     <v>       8.93249989       0.00000000       0.00000000 </v>
     <v>       0.00575300       9.05559834       0.00000000 </v>
     <v>       0.03210180      -0.01574346       8.93712807 </v>
    </varray>
    <i name="volume">    722.91652451 </i>
    <varray name="rec_basis" >
     <v>       0.11195074      -0.00007112      -0.00040225 </v>
     <v>       0.00000000       0.11042893       0.00019453 </v>
     <v>       0.00000000       0.00000000       0.11189277 </v>
    </varray>
   </crystal>
   <varray name="positions" >
    <v>       0.99688001       0.99204997       0.99924002 </v>
    <v>       0.25398003       0.99714995       0.24912000 </v>
    <v>       0.24803003       0.50165000       0.24955001 </v>
    <v>       0.50501006       0.49745998       0.99834003 </v>
    <v>       0.50479003       0.24631001       0.74710002 </v>
    <v>       0.99427992       0.50449999       0.49779000 </v>
    <v>       0.49950005       0.75481999       0.74817004 </v>
    <v>       0.99437004       0.23617001       0.26379999 </v>
    <v>       0.75718000       0.74102998       0.01100000 </v>
    <v>       0.00201000       0.25541000       0.73894001 </v>
    <v>       0.75307001       0.26163001       0.50533002 </v>
    <v>       0.99514004       0.74492004       0.74511997 </v>
    <v>       0.25679999       0.49462002       0.74545002 </v>
    <v>       0.24788999       0.24839000       0.99657997 </v>
    <v>       0.50833000       0.25676999       0.25376001 </v>
    <v>       0.74879004       0.98787999       0.26967001 </v>
    <v>       0.75719000       0.25603001       0.99591997 </v>
    <v>       0.24762001       0.74973999       0.99974006 </v>
    <v>       0.25272001       0.24823001       0.50015003 </v>
    <v>       0.24457999       0.75048999       0.49983999 </v>
    <v>       0.24982001       0.24942998       0.24825000 </v>
    <v>       0.26146999       0.99984002       0.99295996 </v>
    <v>       0.00281000       0.25024000       0.00130000 </v>
    <v>       0.75313998       0.24617000       0.25492002 </v>
    <v>       0.74767001       0.99748000       0.01202000 </v>
    <v>       0.50714994       0.99977000       0.24673000 </v>
    <v>       0.99051999       0.48088002       0.24100998 </v>
    <v>       0.50519005       0.76130999       0.00855000 </v>
    <v>       0.98896989       0.00202000       0.73708999 </v>
    <v>       0.75744996       0.24437997       0.74896999 </v>
    <v>       0.73632001       0.00417000       0.51063000 </v>
    <v>       0.50563996       0.23264999       0.49544997 </v>
    <v>       0.50008998       0.00061000       0.73471998 </v>
    <v>       0.99720000       0.99771992       0.25899999 </v>
    <v>       0.50427997       0.24673000       0.00262000 </v>
    <v>       0.25133999       0.74958002       0.24910999 </v>
    <v>       0.24328000       0.50072997       0.99510994 </v>
    <v>       0.99837005       0.74313996       0.00460000 </v>
    <v>       0.75633000       0.73891003       0.25767000 </v>
    <v>       0.75839004       0.50315998       0.00288000 </v>
    <v>       0.50700002       0.50333002       0.25878999 </v>
    <v>       0.24900999       0.25315000       0.74854000 </v>
    <v>       0.24446000       0.99823996       0.50287998 </v>
    <v>       0.99804009       0.24229999       0.50128003 </v>
    <v>       0.24177002       0.75340997       0.75018002 </v>
    <v>       0.25841001       0.50062002       0.50129001 </v>
    <v>       0.99000004       0.76215003       0.49746000 </v>
    <v>       0.99203996       0.50055999       0.75138002 </v>
    <v>       0.75036005       0.74888000       0.74756004 </v>
    <v>       0.74036002       0.50197000       0.50067003 </v>
    <v>       0.50575006       0.74958002       0.49720000 </v>
    <v>       0.50501003       0.50217998       0.73912003 </v>
    <v>       0.51588997       0.01358000       0.98075008 </v>
    <v>       0.99841994       0.50976998       0.98613004 </v>
    <v>       0.50379003       0.73926997       0.25905001 </v>
    <v>       0.23780002       0.01082000       0.74607998 </v>
    <v>       0.47957999       0.98308000       0.49717999 </v>
    <v>       0.74279003       0.97869994       0.76450995 </v>
    <v>       0.99864998       0.77573999       0.26102000 </v>
    <v>       0.73551001       0.51468004       0.26666001 </v>
    <v>       0.02362000       0.99783001       0.49557002 </v>
    <v>       0.50539000       0.52833005       0.49917999 </v>
    <v>       0.73876003       0.52828003       0.73814999 </v>
    <v>       0.75400003       0.72937999       0.49116997 </v>
   </varray>
  </structure>
  <varray name="primitive_index" >
   <v type="int" >        1 </v>
   <v type="int" >        2 </v>
   <v type="int" >        3 </v>
   <v type="int" >        4 </v>
   <v type="int" >        5 </v>
   <v type="int" >        6 </v>
   <v type="int" >        7 </v>
   <v type="int" >        8 </v>
   <v type="int" >        9 </v>
   <v type="int" >       10 </v>
   <v type="int" >       11 </v>
   <v type="int" >       12 </v>
   <v type="int" >       13 </v>
   <v type="int" >       14 </v>
   <v type="int" >       15 </v>
   <v type="int" >       16 </v>
   <v type="int" >       17 </v>
   <v type="int" >       18 </v>
   <v type="int" >       19 </v>
   <v type="int" >       20 </v>
   <v type="int" >       21 </v>
   <v type="int" >       22 </v>
   <v type="int" >       23 </v>
   <v type="int" >       24 </v>
   <v type="int" >       25 </v>
   <v type="int" >       26 </v>
   <v type="int" >       27 </v>
   <v type="int" >       28 </v>
   <v type="int" >       29 </v>
   <v type="int" >       30 </v>
   <v type="int" >       31 </v>
   <v type="int" >       32 </v>
   <v type="int" >       33 </v>
   <v type="int" >       34 </v>
   <v type="int" >       35 </v>
   <v type="int" >       36 </v>
   <v type="int" >       37 </v>
   <v type="int" >       38 </v>
   <v type="int" >       39 </v>
   <v type="int" >       40 </v>
   <v type="int" >       41 </v>
   <v type="int" >       42 </v>
   <v type="int" >       43 </v>
   <v type="int" >       44 </v>
   <v type="int" >       45 </v>
   <v type="int" >       46 </v>
   <v type="int" >       47 </v>
   <v type="int" >       48 </v>
   <v type="int" >       49 </v>
   <v type="int" >       50 </v>
   <v type="int" >       51 </v>
   <v type="int" >       52 </v>
   <v type="int" >       53 </v>
   <v type="int" >       54 </v>
   <v type="int" >       55 </v>
   <v type="int" >       56 </v>
   <v type="int" >       57 </v>
   <v type="int" >       58 </v>
   <v type="int" >       59 </v>
   <v type="int" >       60 </v>
   <v type="int" >       61 </v>
   <v type="int" >       62 </v>
   <v type="int" >       63 </v>
   <v type="int" >       64 </v>
  </varray>
 </primitive_cell>
 <kpoints>
  <generation param="Gamma">
   <v type="int" name="divisions">       3        3        3 </v>
   <v name="usershift">      0.00000000       0.00000000       0.00000000 </v>
   <v name="genvec1">      0.33333333      -0.00000000      -0.00000000 </v>
   <v name="genvec2">      0.00000000       0.33333333      -0.00000000 </v>
   <v name="genvec3">      0.00000000       0.00000000       0.33333333 </v>
   <v name="shift">      0.00000000       0.00000000       0.00000000 </v>
  </generation>
  <varray name="kpointlist" >
   <v>       0.00000000       0.00000000       0.00000000 </v>
   <v>       0.33333333      -0.00000000      -0.00000000 </v>
   <v>       0.00000000       0.33333333      -0.00000000 </v>
   <v>       0.33333333       0.33333333      -0.00000000 </v>
   <v>      -0.33333333       0.33333333      -0.00000000 </v>
   <v>       0.00000000       0.00000000       0.33333333 </v>
   <v>       0.33333333      -0.00000000       0.33333333 </v>
   <v>      -0.33333333       0.00000000       0.33333333 </v>
   <v>       0.00000000       0.33333333       0.33333333 </v>
   <v>       0.33333333       0.33333333       0.33333333 </v>
   <v>      -0.33333333       0.33333333       0.33333333 </v>
   <v>       0.00000000      -0.33333333       0.33333333 </v>
   <v>       0.33333333      -0.33333333       0.33333333 </v>
   <v>      -0.33333333      -0.33333333       0.33333333 </v>
  </varray>
  <varray name="weights" >
   <v>       0.03703704 </v>
   <v>       0.07407407 </v>
   <v>       0.07407407 </v>
   <v>       0.07407407 </v>
   <v>       0.07407407 </v>
   <v>       0.07407407 </v>
   <v>       0.07407407 </v>
   <v>       0.07407407 </v>
   <v>       0.07407407 </v>
   <v>       0.07407407 </v>
   <v>       0.07407407 </v>
   <v>       0.07407407 </v>
   <v>       0.07407407 </v>
   <v>       0.07407407 </v>
  </varray>
 </kpoints>
 <parameters>
  <separator name="general" >
   <i type="string" name="SYSTEM">HECN</i>
   <i type="logical" name="LCOMPAT"> F  </i>
  </separator>
  <separator name="electronic" >
   <i type="string" name="PREC">normal</i>
   <i name="ENMAX">    400.00000000</i>
   <i name="ENAUG">    644.87300000</i>
   <i name="EDIFF">      0.00001000</i>
   <i type="int" name="IALGO">    68</i>
   <i type="int" name="IWAVPR">    11</i>
   <i type="int" name="NBANDS">   308</i>
   <i type="int" name="NBANDSLOW">    -1</i>
   <i type="int" name="NBANDSHIGH">    -1</i>
   <i name="NELECT">    498.00000000</i>
   <i type="int" name="TURBO">     0</i>
   <i type="int" name="IRESTART">     0</i>
   <i type="int" name="NREBOOT">     0</i>
   <i type="int" name="NMIN">     0</i>
   <i name="EREF">      0.00000000</i>
   <separator name="electronic smearing" >
    <i type="int" name="ISMEAR">     0</i>
    <i name="SIGMA">      0.10000000</i>
    <i name="KSPACING">      0.50000000</i>
    <i type="logical" name="KGAMMA"> T  </i>
    <i type="logical" name="KBLOWUP"> T  </i>
   </separator>
   <separator name="electronic projectors" >
    <i type="logical" name="LREAL"> F  </i>
    <v name="ROPT">      0.00000000      0.00000000      0.00000000      0.00000000      0.00000000      0.00000000      0.00000000</v>
    <i type="int" name="LMAXPAW">  -100</i>
    <i type="int" name="LMAXMIX">     2</i>
    <i type="logical" name="NLSPLINE"> F  </i>
   </separator>
   <separator name="electronic startup" >
    <i type="int" name="ISTART">     0</i>
    <i type="int" name="ICHARG">     2</i>
    <i type="int" name="INIWAV">     1</i>
   </separator>
   <separator name="electronic spin" >
    <i type="int" name="ISPIN">     1</i>
    <i type="logical" name="LNONCOLLINEAR"> F  </i>
    <v name="MAGMOM">      1.00000000      1.00000000      1.00000000      1.00000000      1.00000000      1.00000000      1.00000000      1.00000000      1.00000000      1.00000000      1.00000000      1.00000000      1.00000000      1.00000000      1.00000000      1.00000000      1.00000000      1.00000000      1.00000000      1.00000000
      1.00000000      1.00000000      1.00000000      1.00000000      1.00000000      1.00000000      1.00000000      1.00000000      1.00000000      1.00000000      1.00000000      1.00000000      1.00000000      1.00000000      1.00000000      1.00000000      1.00000000      1.00000000      1.00000000      1.00000000
      1.00000000      1.00000000      1.00000000      1.00000000      1.00000000      1.00000000      1.00000000      1.00000000      1.00000000      1.00000000      1.00000000      1.00000000      1.00000000      1.00000000      1.00000000      1.00000000      1.00000000      1.00000000      1.00000000      1.00000000
      1.00000000      1.00000000      1.00000000      1.00000000</v>
    <i name="NUPDOWN">     -1.00000000</i>
    <i type="logical" name="LSORBIT"> F  </i>
    <v name="SAXIS">      0.00000000      0.00000000      1.00000000</v>
    <i type="logical" name="LSPIRAL"> F  </i>
    <v name="QSPIRAL">      0.00000000      0.00000000      0.00000000</v>
    <i type="logical" name="LZEROZ"> F  </i>
   </separator>
   <separator name="electronic exchange-correlation" >
    <i type="logical" name="LASPH"> F  </i>
   </separator>
   <separator name="electronic convergence" >
    <i type="int" name="NELM">    60</i>
    <i type="int" name="NELMDL">    -5</i>
    <i type="int" name="NELMIN">     2</i>
    <i name="ENINI">    400.00000000</i>
    <separator name="electronic convergence detail" >
     <i type="logical" name="LDIAG"> T  </i>
     <i type="logical" name="LSUBROT"> F  </i>
     <i name="WEIMIN">      0.00100000</i>
     <i name="EBREAK">      0.00000001</i>
     <i name="DEPER">      0.30000000</i>
     <i type="int" name="NRMM">     4</i>
     <i name="TIME">      0.40000000</i>
    </separator>
   </separator>
   <separator name="electronic mixer" >
    <i name="AMIX">      0.40000000</i>
    <i name="BMIX">      1.00000000</i>
    <i name="AMIN">      0.10000000</i>
    <i name="AMIX_MAG">      1.60000000</i>
    <i name="BMIX_MAG">      1.00000000</i>
    <separator name="electronic mixer details" >
     <i type="int" name="IMIX">     4</i>
     <i type="logical" name="MIXFIRST"> F  </i>
     <i type="int" name="MAXMIX">   -45</i>
     <i name="WC">    100.00000000</i>
     <i type="int" name="INIMIX">     1</i>
     <i type="int" name="MIXPRE">     1</i>
     <i type="int" name="MREMOVE">     5</i>
    </separator>
   </separator>
   <separator name="electronic dipolcorrection" >
    <i type="logical" name="LDIPOL"> F  </i>
    <i type="logical" name="LMONO"> F  </i>
    <i type="int" name="IDIPOL">     0</i>
    <i name="EPSILON">      1.00000000</i>
    <v name="DIPOL">   -100.00000000   -100.00000000   -100.00000000</v>
    <i name="EFIELD">      0.00000000</i>
    <i type="logical" name="LVACPOTAV"> F  </i>
   </separator>
  </separator>
  <separator name="grids" >
   <i type="int" name="NGX">    48</i>
   <i type="int" name="NGY">    48</i>
   <i type="int" name="NGZ">    48</i>
   <i type="int" name="NGXF">    96</i>
   <i type="int" name="NGYF">    96</i>
   <i type="int" name="NGZF">    96</i>
   <i type="logical" name="ADDGRID"> F  </i>
  </separator>
  <separator name="ionic" >
   <i type="int" name="NSW">   100</i>
   <i type="int" name="IBRION">     2</i>
   <i type="int" name="MDALGO">     0</i>
   <i type="int" name="ISIF">     3</i>
   <i name="PSTRESS">      0.00000000</i>
   <i name="EDIFFG">     -0.01000000</i>
   <i type="int" name="NFREE">     1</i>
   <i name="POTIM">      0.50000000</i>
   <i name="SMASS">     -3.00000000</i>
   <i name="SCALEE">      1.00000000</i>
  </separator>
  <separator name="ionic md" >
   <i name="TEBEG">      0.00010000</i>
   <i name="TEEND">      0.00010000</i>
   <i type="int" name="NBLOCK">     1</i>
   <i type="int" name="KBLOCK">   100</i>
   <i type="int" name="NPACO">   256</i>
   <i name="APACO">     10.00000000</i>
  </separator>
  <separator name="symmetry" >
   <i type="int" name="ISYM">     2</i>
   <i name="SYMPREC">      0.00001000</i>
  </separator>
  <separator name="dos" >
   <i type="int" name="LORBIT">     0</i>
   <v name="RWIGS">     -1.00000000     -1.00000000     -1.00000000     -1.00000000     -1.00000000     -1.00000000     -1.00000000</v>
   <i type="int" name="NEDOS">   301</i>
   <i name="EMIN">     10.00000000</i>
   <i name="EMAX">    -10.00000000</i>
   <i name="EFERMI">      0.00000000</i>
  </separator>
  <separator name="writing" >
   <i type="int" name="NWRITE">     2</i>
   <i type="logical" name="LWAVE"> F  </i>
   <i type="logical" name="LDOWNSAMPLE"> F  </i>
   <i type="logical" name="LCHARG"> F  </i>
   <i type="logical" name="LPARD"> F  </i>
   <i type="logical" name="LVTOT"> F  </i>
   <i type="logical" name="LVHAR"> F  </i>
   <i type="logical" name="LELF"> F  </i>
   <i type="logical" name="LOPTICS"> F  </i>
   <v name="STM">      0.00000000      0.00000000      0.00000000      0.00000000      0.00000000      0.00000000      0.00000000</v>
  </separator>
  <separator name="performance" >
   <i type="int" name="NPAR">    28</i>
   <i type="int" name="NSIM">     4</i>
   <i type="int" name="NBLK">    -1</i>
   <i type="logical" name="LPLANE"> T  </i>
   <i type="logical" name="LSCALAPACK"> T  </i>
   <i type="logical" name="LSCAAWARE"> F  </i>
   <i type="logical" name="LSCALU"> F  </i>
   <i type="logical" name="LASYNC"> F  </i>
   <i type="logical" name="LORBITALREAL"> F  </i>
  </separator>
  <separator name="miscellaneous" >
   <i type="int" name="IDIOT">     3</i>
   <i type="int" name="PHON_NSTRUCT">    -1</i>
   <i type="logical" name="LMUSIC"> F  </i>
   <v name="POMASS">     92.00000000    180.94800000     47.88000000     14.00100000     12.01100000     51.99600000    183.85000000</v>
   <v name="DARWINR">      0.00000000      0.00000000      0.00000000      0.00000000      0.00000000      0.00000000      0.00000000</v>
   <v name="DARWINV">      1.00000000      1.00000000      1.00000000      1.00000000      1.00000000      1.00000000      1.00000000</v>
   <i type="logical" name="LCORR"> T  </i>
  </separator>
  <i type="logical" name="GGA_COMPAT"> T  </i>
  <i type="logical" name="LBERRY"> F  </i>
  <i type="int" name="ICORELEVEL">     0</i>
  <i type="logical" name="LDAU"> F  </i>
  <i type="int" name="I_CONSTRAINED_M">     0</i>
  <separator name="electronic exchange-correlation" >
   <i type="string" name="GGA    ">PE</i>
   <i type="string" name="XC_C">1</i>
   <i type="int" name="VOSKOWN">     0</i>
   <i type="logical" name="LHFCALC"> F  </i>
   <i type="string" name="PRECFOCK"></i>
   <i type="logical" name="LSYMGRAD"> F  </i>
   <i type="logical" name="LHFONE"> F  </i>
   <i type="logical" name="LRHFCALC"> F  </i>
   <i type="logical" name="LTHOMAS"> F  </i>
   <i type="logical" name="LMODELHF"> F  </i>
   <i type="logical" name="LFOCKACE"> F  </i>
   <i name="ENCUT4O">     -1.00000000</i>
   <i type="int" name="EXXOEP">     0</i>
   <i type="int" name="FOURORBIT">     0</i>
   <i name="AEXX">      0.00000000</i>
   <i name="HFALPHA">      0.00000000</i>
   <i name="MCALPHA">      0.00000000</i>
   <i name="ALDAX">      1.00000000</i>
   <i name="AGGAX">      1.00000000</i>
   <i name="AMGGAX">      1.00000000</i>
   <i name="ALDAC">      1.00000000</i>
   <i name="AGGAC">      1.00000000</i>
   <i name="AMGGAC">      1.00000000</i>
   <i type="int" name="NKREDX">     1</i>
   <i type="int" name="NKREDY">     1</i>
   <i type="int" name="NKREDZ">     1</i>
   <i type="logical" name="SHIFTRED"> F  </i>
   <i type="logical" name="ODDONLY"> F  </i>
   <i type="logical" name="EVENONLY"> F  </i>
   <i type="int" name="LMAXFOCK">     0</i>
   <i type="int" name="NMAXFOCKAE">     0</i>
   <i type="logical" name="LFOCKAEDFT"> F  </i>
   <i name="HFSCREEN">      0.00000000</i>
   <i name="HFSCREENC">      0.00000000</i>
   <i type="int" name="NBANDSGWLOW">     0</i>
  </separator>
  <separator name="vdW DFT" >
   <i type="logical" name="LUSE_VDW"> F  </i>
   <i type="int" name="IVDW_NL">    -1</i>
   <i type="logical" name="LSPIN_VDW"> F  </i>
   <i name="ZAB_VDW">     -0.84910000</i>
   <i name="GAMMA_VDW">      1.39626340</i>
   <i name="ALPHA_VDW">      0.00000000</i>
   <i name="PARAM1">      0.12340000</i>
   <i name="PARAM2">      1.00000000</i>
   <i name="BPARAM">      6.30000000</i>
   <i name="CPARAM">      0.00930000</i>
  </separator>
  <separator name="model GW" >
   <i type="int" name="MODEL_GW">     0</i>
   <i name="MODEL_EPS0">      6.77734242</i>
   <i name="MODEL_ALPHA">      1.00000000</i>
  </separator>
  <separator name="linear response parameters" >
   <i type="logical" name="LEPSILON"> F  </i>
   <i type="logical" name="LRPA"> F  </i>
   <i type="logical" name="LNABLA"> F  </i>
   <i type="logical" name="LVEL"> F  </i>
   <i name="CSHIFT">      0.10000000</i>
   <i name="OMEGAMAX">     -1.00000000</i>
   <i name="DEG_THRESHOLD">      0.00200000</i>
   <i name="RTIME">     -0.10000000</i>
   <i name="WPLASMAI">      0.00000000</i>
   <v name="DFIELD">      0.00000000      0.00000000      0.00000000</v>
   <v name="WPLASMA">      0.00000000      0.00000000      0.00000000      0.00000000      0.00000000      0.00000000      0.00000000      0.00000000      0.00000000</v>
  </separator>
  <separator name="orbital magnetization" >
   <i type="logical" name="NUCIND"> F  </i>
   <v name="MAGPOS">      0.00000000      0.00000000      0.00000000</v>
   <i type="logical" name="LNICSALL"> T  </i>
   <i type="logical" name="ORBITALMAG"> F  </i>
   <i type="logical" name="LMAGBLOCH"> F  </i>
   <i type="logical" name="LCHIMAG"> F  </i>
   <i type="logical" name="LGAUGE"> T  </i>
   <i type="int" name="MAGATOM">     0</i>
   <v name="MAGDIPOL">      0.00000000      0.00000000      0.00000000</v>
   <v name="AVECCONST">      0.00000000      0.00000000      0.00000000</v>
  </separator>
  <separator name="response functions" >
   <i type="logical" name="LALL_IN_ONE"> F  </i>
   <i type="int" name="IALL_IN_ONE">    -1</i>
   <i type="int" name="NBANDS_WAVE">    -1</i>
   <i type="logical" name="LFINITE_TEMPERATURE"> F  </i>
   <i type="logical" name="LADDER"> F  </i>
   <i type="logical" name="LRPAFORCE"> F  </i>
   <i type="logical" name="LFXC"> F  </i>
   <i type="logical" name="LHARTREE"> T  </i>
   <i type="int" name="IBSE">     0</i>
   <v type="int" name="KPOINT">    -1     0     0     0</v>
   <i type="logical" name="LTCTC"> F  </i>
   <i type="logical" name="LTCTE"> F  </i>
   <i type="logical" name="LTETE"> F  </i>
   <i type="logical" name="LTRIPLET"> F  </i>
   <i type="logical" name="LFXCEPS"> F  </i>
   <i type="logical" name="LFXHEG"> F  </i>
   <i type="int" name="NATURALO">     2</i>
   <i type="logical" name="LHOLEGF"> F  </i>
   <i type="logical" name="L2ORDER"> F  </i>
   <i type="logical" name="LDMP1"> F  </i>
   <i type="logical" name="LMP2LT"> F  </i>
   <i type="logical" name="LSMP2LT"> F  </i>
   <i type="logical" name="LGWLF"> F  </i>
   <i name="ENCUTGW">     -1.60000002</i>
   <i name="ENCUTGWSOFT">     -1.60000002</i>
   <i name="ENCUTLF">     -1.00000000</i>
   <i type="logical" name="ESF_SPLINES"> F  </i>
   <i name="ESF_CONV">      0.01000000</i>
   <i type="int" name="ESF_NINTER">    15</i>
   <i type="int" name="LMAXMP2">    -1</i>
   <i name="SCISSOR">      0.00000000</i>
   <i type="int" name="NOMEGA">     0</i>
   <i type="int" name="NOMEGAR">     0</i>
   <i type="int" name="NBANDSGW">    -1</i>
   <i type="int" name="NBANDSO">    -1</i>
   <i type="int" name="NBANDSV">    -1</i>
   <i type="int" name="NELMGW">     1</i>
   <i type="int" name="NELMHF">     1</i>
   <i type="int" name="DIM">     3</i>
   <i type="int" name="IESPILON">     4</i>
   <i type="int" name="ANTIRES">     0</i>
   <i name="OMEGAMAX">    -30.00000000</i>
   <i name="OMEGAMIN">    -30.00000000</i>
   <i name="OMEGATL">   -200.00000000</i>
   <i type="int" name="OMEGAGRID">     0</i>
   <i name="CSHIFT">     -0.10000000</i>
   <i type="logical" name="LSELFENERGY"> F  </i>
   <i type="logical" name="LSPECTRAL"> F  </i>
   <i type="logical" name="LSPECTRALGW"> F  </i>
   <i type="logical" name="LSINGLES"> F  </i>
   <i type="logical" name="LFERMIGW"> F  </i>
   <i type="logical" name="ODDONLYGW"> F  </i>
   <i type="logical" name="EVENONLYGW"> F  </i>
   <i type="int" name="NKREDLFX">     1</i>
   <i type="int" name="NKREDLFY">     1</i>
   <i type="int" name="NKREDLFZ">     1</i>
   <i type="int" name="MAXMEM">  2800</i>
   <i type="int" name="TELESCOPE">     0</i>
   <i type="int" name="NTAUPAR">    -1</i>
   <i type="int" name="NOMEGAPAR">    -1</i>
   <i name="DAMP_NEWTON">      0.80000001</i>
   <i name="LAMBDA">      1.00000000</i>
  </separator>
  <separator name="External order field" >
   <i name="OFIELD_KAPPA">      0.00000000</i>
   <v name="OFIELD_K">      0.00000000      0.00000000      0.00000000</v>
   <i name="OFIELD_Q6_NEAR">      0.00000000</i>
   <i name="OFIELD_Q6_FAR">      0.00000000</i>
   <i name="OFIELD_A">      0.00000000</i>
  </separator>
  <separator name="optional k-points parameters" >
   <i type="int" name="KPOINTS_OPT_MODE">     1</i>
   <i type="logical" name="LKPOINTS_OPT"> F  </i>
  </separator>
  <separator name="solvation model" >
   <i type="logical" name="LSOL"> F  </i>
  </separator>
 </parameters>
 <atominfo>
  <atoms>      64 </atoms>
  <types>       7 </types>
  <array name="atoms" >
   <dimension dim="1">ion</dimension>
   <field type="string">element</field>
   <field type="int">atomtype</field>
   <set>
    <rc><c>Nb</c><c>   1</c></rc>
    <rc><c>Nb</c><c>   1</c></rc>
    <rc><c>Nb</c><c>   1</c></rc>
    <rc><c>Nb</c><c>   1</c></rc>
    <rc><c>Nb</c><c>   1</c></rc>
    <rc><c>Nb</c><c>   1</c></rc>
    <rc><c>Nb</c><c>   1</c></rc>
    <rc><c>Ta</c><c>   2</c></rc>
    <rc><c>Ta</c><c>   2</c></rc>
    <rc><c>Ta</c><c>   2</c></rc>
    <rc><c>Ta</c><c>   2</c></rc>
    <rc><c>Ta</c><c>   2</c></rc>
    <rc><c>Ta</c><c>   2</c></rc>
    <rc><c>Ti</c><c>   3</c></rc>
    <rc><c>Ti</c><c>   3</c></rc>
    <rc><c>Ti</c><c>   3</c></rc>
    <rc><c>Ti</c><c>   3</c></rc>
    <rc><c>Ti</c><c>   3</c></rc>
    <rc><c>Ti</c><c>   3</c></rc>
    <rc><c>Ti</c><c>   3</c></rc>
    <rc><c>N </c><c>   4</c></rc>
    <rc><c>N </c><c>   4</c></rc>
    <rc><c>N </c><c>   4</c></rc>
    <rc><c>N </c><c>   4</c></rc>
    <rc><c>N </c><c>   4</c></rc>
    <rc><c>N </c><c>   4</c></rc>
    <rc><c>N </c><c>   4</c></rc>
    <rc><c>N </c><c>   4</c></rc>
    <rc><c>N </c><c>   4</c></rc>
    <rc><c>N </c><c>   4</c></rc>
    <rc><c>N </c><c>   4</c></rc>
    <rc><c>N </c><c>   4</c></rc>
    <rc><c>N </c><c>   4</c></rc>
    <rc><c>C </c><c>   5</c></rc>
    <rc><c>C </c><c>   5</c></rc>
    <rc><c>C </c><c>   5</c></rc>
    <rc><c>C </c><c>   5</c></rc>
    <rc><c>C </c><c>   5</c></rc>
    <rc><c>C </c><c>   5</c></rc>
    <rc><c>C </c><c>   5</c></rc>
    <rc><c>C </c><c>   5</c></rc>
    <rc><c>C </c><c>   5</c></rc>
    <rc><c>C </c><c>   5</c></rc>
    <rc><c>C </c><c>   5</c></rc>
    <rc><c>C </c><c>   5</c></rc>
    <rc><c>C </c><c>   5</c></rc>
    <rc><c>C </c><c>   5</c></rc>
    <rc><c>C </c><c>   5</c></rc>
    <rc><c>C </c><c>   5</c></rc>
    <rc><c>C </c><c>   5</c></rc>
    <rc><c>C </c><c>   5</c></rc>
    <rc><c>C </c><c>   5</c></rc>
    <rc><c>Cr</c><c>   6</c></rc>
    <rc><c>Cr</c><c>   6</c></rc>
    <rc><c>Cr</c><c>   6</c></rc>
    <rc><c>Cr</c><c>   6</c></rc>
    <rc><c>Cr</c><c>   6</c></rc>
    <rc><c>Cr</c><c>   6</c></rc>
    <rc><c>W </c><c>   7</c></rc>
    <rc><c>W </c><c>   7</c></rc>
    <rc><c>W </c><c>   7</c></rc>
    <rc><c>W </c><c>   7</c></rc>
    <rc><c>W </c><c>   7</c></rc>
    <rc><c>W </c><c>   7</c></rc>
   </set>
  </array>
  <array name="atomtypes" >
   <dimension dim="1">type</dimension>
   <field type="int">atomspertype</field>
   <field type="string">element</field>
   <field>mass</field>
   <field>valence</field>
   <field type="string">pseudopotential</field>
   <set>
    <rc><c>   7</c><c>Nb</c><c>     92.00000000</c><c>     11.00000000</c><c> PAW_PBE Nb_pv 08Apr2002                </c></rc>
    <rc><c>   6</c><c>Ta</c><c>    180.94800000</c><c>     11.00000000</c><c> PAW_PBE Ta_pv 07Sep2000                </c></rc>
    <rc><c>   7</c><c>Ti</c><c>     47.88000000</c><c>     10.00000000</c><c> PAW_PBE Ti_pv 07Sep2000                </c></rc>
    <rc><c>  13</c><c>N </c><c>     14.00100000</c><c>      5.00000000</c><c> PAW_PBE N 08Apr2002                    </c></rc>
    <rc><c>  19</c><c>C </c><c>     12.01100000</c><c>      4.00000000</c><c> PAW_PBE C 08Apr2002                    </c></rc>
    <rc><c>   6</c><c>Cr</c><c>     51.99600000</c><c>     12.00000000</c><c> PAW_PBE Cr_pv 07Sep2000                </c></rc>
    <rc><c>   6</c><c>W </c><c>    183.85000000</c><c>     12.00000000</c><c> PAW_PBE W_pv 06Sep2000                 </c></rc>
   </set>
  </array>
 </atominfo>
 <structure name="initialpos" >
  <crystal>
   <varray name="basis" >
    <v>       8.93249989       0.00000000       0.00000000 </v>
    <v>       0.00575300       9.05559834       0.00000000 </v>
    <v>       0.03210180      -0.01574346       8.93712807 </v>
   </varray>
   <i name="volume">    722.91652451 </i>
   <varray name="rec_basis" >
    <v>       0.11195074      -0.00007112      -0.00040225 </v>
    <v>       0.00000000       0.11042893       0.00019453 </v>
    <v>       0.00000000       0.00000000       0.11189277 </v>
   </varray>
  </crystal>
  <varray name="positions" >
   <v>       0.99688001       0.99204997       0.99924002 </v>
   <v>       0.25398003       0.99714995       0.24912000 </v>
   <v>       0.24803003       0.50165000       0.24955001 </v>
   <v>       0.50501006       0.49745998       0.99834003 </v>
   <v>       0.50479003       0.24631001       0.74710002 </v>
   <v>       0.99427992       0.50449999       0.49779000 </v>
   <v>       0.49950005       0.75481999       0.74817004 </v>
   <v>       0.99437004       0.23617001       0.26379999 </v>
   <v>       0.75718000       0.74102998       0.01100000 </v>
   <v>       0.00201000       0.25541000       0.73894001 </v>
   <v>       0.75307001       0.26163001       0.50533002 </v>
   <v>       0.99514004       0.74492004       0.74511997 </v>
   <v>       0.25679999       0.49462002       0.74545002 </v>
   <v>       0.24788999       0.24839000       0.99657997 </v>
   <v>       0.50833000       0.25676999       0.25376001 </v>
   <v>       0.74879004       0.98787999       0.26967001 </v>
   <v>       0.75719000       0.25603001       0.99591997 </v>
   <v>       0.24762001       0.74973999       0.99974006 </v>
   <v>       0.25272001       0.24823001       0.50015003 </v>
   <v>       0.24457999       0.75048999       0.49983999 </v>
   <v>       0.24982001       0.24942998       0.24825000 </v>
   <v>       0.26146999       0.99984002       0.99295996 </v>
   <v>       0.00281000       0.25024000       0.00130000 </v>
   <v>       0.75313998       0.24617000       0.25492002 </v>
   <v>       0.74767001       0.99748000       0.01202000 </v>
   <v>       0.50714994       0.99977000       0.24673000 </v>
   <v>       0.99051999       0.48088002       0.24100998 </v>
   <v>       0.50519005       0.76130999       0.00855000 </v>
   <v>       0.98896989       0.00202000       0.73708999 </v>
   <v>       0.75744996       0.24437997       0.74896999 </v>
   <v>       0.73632001       0.00417000       0.51063000 </v>
   <v>       0.50563996       0.23264999       0.49544997 </v>
   <v>       0.50008998       0.00061000       0.73471998 </v>
   <v>       0.99720000       0.99771992       0.25899999 </v>
   <v>       0.50427997       0.24673000       0.00262000 </v>
   <v>       0.25133999       0.74958002       0.24910999 </v>
   <v>       0.24328000       0.50072997       0.99510994 </v>
   <v>       0.99837005       0.74313996       0.00460000 </v>
   <v>       0.75633000       0.73891003       0.25767000 </v>
   <v>       0.75839004       0.50315998       0.00288000 </v>
   <v>       0.50700002       0.50333002       0.25878999 </v>
   <v>       0.24900999       0.25315000       0.74854000 </v>
   <v>       0.24446000       0.99823996       0.50287998 </v>
   <v>       0.99804009       0.24229999       0.50128003 </v>
   <v>       0.24177002       0.75340997       0.75018002 </v>
   <v>       0.25841001       0.50062002       0.50129001 </v>
   <v>       0.99000004       0.76215003       0.49746000 </v>
   <v>       0.99203996       0.50055999       0.75138002 </v>
   <v>       0.75036005       0.74888000       0.74756004 </v>
   <v>       0.74036002       0.50197000       0.50067003 </v>
   <v>       0.50575006       0.74958002       0.49720000 </v>
   <v>       0.50501003       0.50217998       0.73912003 </v>
   <v>       0.51588997       0.01358000       0.98075008 </v>
   <v>       0.99841994       0.50976998       0.98613004 </v>
   <v>       0.50379003       0.73926997       0.25905001 </v>
   <v>       0.23780002       0.01082000       0.74607998 </v>
   <v>       0.47957999       0.98308000       0.49717999 </v>
   <v>       0.74279003       0.97869994       0.76450995 </v>
   <v>       0.99864998       0.77573999       0.26102000 </v>
   <v>       0.73551001       0.51468004       0.26666001 </v>
   <v>       0.02362000       0.99783001       0.49557002 </v>
   <v>       0.50539000       0.52833005       0.49917999 </v>
   <v>       0.73876003       0.52828003       0.73814999 </v>
   <v>       0.75400003       0.72937999       0.49116997 </v>
  </varray>
 </structure>
 <calculation>
  <scstep>
   <time name="dav">   19.84   19.93</time>
   <time name="total">   19.88   19.97</time>
   <energy>
    <i name="alphaZ">   4273.27710279 </i>
    <i name="ewald"> -39181.90268951 </i>
    <i name="hartreedc">  -7213.27226011 </i>
    <i name="XCdc">   1641.90093131 </i>
    <i name="pawpsdc">  27949.75231562 </i>
    <i name="pawaedc"> -27987.29429623 </i>
    <i name="eentropy">     -0.07224253 </i>
    <i name="bandstr">   2300.04998413 </i>
    <i name="atom">  44554.16172666 </i>
    <i name="e_fr_energy">   6336.60057212 </i>
    <i name="e_wo_entrp">   6336.67281465 </i>
    <i name="e_0_energy">   6336.63669338 </i>
   </energy>
  </scstep>
  <scstep>
   <time name="dav">   19.68   20.22</time>
   <time name="total">   19.68   20.22</time>
   <energy>
    <i name="e_fr_energy">    302.44342826 </i>
    <i name="e_wo_entrp">    302.60187637 </i>
    <i name="e_0_energy">    302.52265231 </i>
   </energy>
  </scstep>
  <scstep>
   <time name="dav">   28.35   28.58</time>
   <time name="total">   28.35   28.58</time>
   <energy>
    <i name="e_fr_energy">   -666.47032063 </i>
    <i name="e_wo_entrp">   -666.33320165 </i>
    <i name="e_0_energy">   -666.40176114 </i>
   </energy>
  </scstep>
  <scstep>
   <time name="dav">   29.74   30.01</time>
   <time name="total">   29.74   30.01</time>
   <energy>
    <i name="e_fr_energy">   -780.66644589 </i>
    <i name="e_wo_entrp">   -780.54941258 </i>
    <i name="e_0_energy">   -780.60792924 </i>
   </energy>
  </scstep>
  <scstep>
   <time name="dav">   29.96   30.26</time>
   <time name="total">   30.14   30.44</time>
   <energy>
    <i name="e_fr_energy">   -790.79762091 </i>
    <i name="e_wo_entrp">   -790.67514705 </i>
    <i name="e_0_energy">   -790.73638398 </i>
   </energy>
  </scstep>
  <scstep>
   <time name="diag">    1.33    1.34</time>
   <time name="diis">   16.44   16.55</time>
   <time name="orth">    0.34    0.34</time>
   <time name="total">   18.30   18.43</time>
   <energy>
    <i name="e_fr_energy">   -844.92450945 </i>
    <i name="e_wo_entrp">   -844.81237013 </i>
    <i name="e_0_energy">   -844.86843979 </i>
   </energy>
  </scstep>
  <scstep>
   <time name="diag">    1.32    1.33</time>
   <time name="diis">   17.25   17.42</time>
   <time name="orth">    0.33    0.35</time>
   <time name="total">   19.12   19.32</time>
   <energy>
    <i name="e_fr_energy">   -642.88557056 </i>
    <i name="e_wo_entrp">   -642.73301290 </i>
    <i name="e_0_energy">   -642.80929173 </i>
   </energy>
  </scstep>
  <scstep>
   <time name="diag">    1.39    1.42</time>
   <time name="diis">   17.94   18.14</time>
   <time name="orth">    0.33    0.33</time>
   <time name="total">   19.85   20.12</time>
   <energy>
    <i name="e_fr_energy">   -659.95185922 </i>
    <i name="e_wo_entrp">   -659.81762923 </i>
    <i name="e_0_energy">   -659.88474423 </i>
   </energy>
  </scstep>
  <scstep>
   <time name="diag">    1.38    1.39</time>
   <time name="diis">   17.95   18.18</time>
   <time name="orth">    0.35    0.35</time>
   <time name="total">   19.88   20.15</time>
   <energy>
    <i name="e_fr_energy">   -645.78129811 </i>
    <i name="e_wo_entrp">   -645.56905745 </i>
    <i name="e_0_energy">   -645.67517778 </i>
   </energy>
  </scstep>
  <scstep>
   <time name="diag">    1.37    1.38</time>
   <time name="diis">   18.53   18.83</time>
   <time name="orth">    0.34    0.34</time>
   <time name="total">   20.44   20.75</time>
   <energy>
    <i name="e_fr_energy">   -646.57061638 </i>
    <i name="e_wo_entrp">   -646.34817593 </i>
    <i name="e_0_energy">   -646.45939615 </i>
   </energy>
  </scstep>
  <scstep>
   <time name="diag">    1.37    1.38</time>
   <time name="diis">   16.20   16.40</time>
   <time name="orth">    0.35    0.35</time>
   <time name="total">   18.11   18.33</time>
   <energy>
    <i name="e_fr_energy">   -645.33038377 </i>
    <i name="e_wo_entrp">   -645.10298906 </i>
    <i name="e_0_energy">   -645.21668642 </i>
   </energy>
  </scstep>
  <scstep>
   <time name="diag">    1.33    1.37</time>
   <time name="diis">   17.68   18.02</time>
   <time name="orth">    0.33    0.33</time>
   <time name="total">   19.53   19.92</time>
   <energy>
    <i name="e_fr_energy">   -645.06105816 </i>
    <i name="e_wo_entrp">   -644.87607058 </i>
    <i name="e_0_energy">   -644.96856437 </i>
   </energy>
  </scstep>
  <scstep>
   <time name="diag">    1.34    1.35</time>
   <time name="diis">   18.07   18.44</time>
   <time name="orth">    0.34    0.35</time>
   <time name="total">   19.96   20.33</time>
   <energy>
    <i name="e_fr_energy">   -643.99155024 </i>
    <i name="e_wo_entrp">   -643.78716146 </i>
    <i name="e_0_energy">   -643.88935585 </i>
   </energy>
  </scstep>
  <scstep>
   <time name="diag">    1.38    1.38</time>
   <time name="diis">   17.63   17.86</time>
   <time name="orth">    0.33    0.34</time>
   <time name="total">   19.54   19.78</time>
   <energy>
    <i name="e_fr_energy">   -644.41094852 </i>
    <i name="e_wo_entrp">   -644.19745367 </i>
    <i name="e_0_energy">   -644.30420109 </i>
   </energy>
  </scstep>
  <scstep>
   <time name="diag">    1.34    1.35</time>
   <time name="diis">   16.42   16.50</time>
   <time name="orth">    0.33    0.33</time>
   <time name="total">   18.29   18.37</time>
   <energy>
    <i name="e_fr_energy">   -643.81512844 </i>
    <i name="e_wo_entrp">   -643.59745251 </i>
    <i name="e_0_energy">   -643.70629047 </i>
   </energy>
  </scstep>
  <scstep>
   <time name="diag">    1.35    1.39</time>
   <time name="diis">   17.60   17.81</time>
   <time name="orth">    0.34    0.34</time>
   <time name="total">   19.48   19.74</time>
   <energy>
    <i name="e_fr_energy">   -643.56709535 </i>
    <i name="e_wo_entrp">   -643.34194948 </i>
    <i name="e_0_energy">   -643.45452241 </i>
   </energy>
  </scstep>
  <scstep>
   <time name="diag">    1.32    1.32</time>
   <time name="diis">   18.11   18.41</time>
   <time name="orth">    0.33    0.33</time>
   <time name="total">   19.96   20.26</time>
   <energy>
    <i name="e_fr_energy">   -643.44969683 </i>
    <i name="e_wo_entrp">   -643.22268689 </i>
    <i name="e_0_energy">   -643.33619186 </i>
   </energy>
  </scstep>
  <scstep>
   <time name="diag">    1.32    1.32</time>
   <time name="diis">   18.67   18.85</time>
   <time name="orth">    0.34    0.34</time>
   <time name="total">   20.52   20.71</time>
   <energy>
    <i name="e_fr_energy">   -643.48044696 </i>
    <i name="e_wo_entrp">   -643.25389434 </i>
    <i name="e_0_energy">   -643.36717065 </i>
   </energy>
  </scstep>
  <scstep>
   <time name="diag">    1.35    1.36</time>
   <time name="diis">   18.16   18.36</time>
   <time name="orth">    0.35    0.35</time>
   <time name="total">   20.06   20.26</time>
   <energy>
    <i name="e_fr_energy">   -643.47761761 </i>
    <i name="e_wo_entrp">   -643.24840496 </i>
    <i name="e_0_energy">   -643.36301128 </i>
   </energy>
  </scstep>
  <scstep>
   <time name="diag">    1.34    1.35</time>
   <time name="diis">   16.63   16.72</time>
   <time name="orth">    0.33    0.33</time>
   <time name="total">   18.50   18.60</time>
   <energy>
    <i name="e_fr_energy">   -643.47768649 </i>
    <i name="e_wo_entrp">   -643.24783497 </i>
    <i name="e_0_energy">   -643.36276073 </i>
   </energy>
  </scstep>
  <scstep>
   <time name="diag">    1.38    1.38</time>
   <time name="diis">   17.45   17.56</time>
   <time name="orth">    0.37    0.38</time>
   <time name="total">   19.41   19.52</time>
   <energy>
    <i name="e_fr_energy">   -643.48055112 </i>
    <i name="e_wo_entrp">   -643.25025263 </i>
    <i name="e_0_energy">   -643.36540188 </i>
   </energy>
  </scstep>
  <scstep>
   <time name="diag">    1.38    1.38</time>
   <time name="diis">   18.36   18.56</time>
   <time name="orth">    0.38    0.38</time>
   <time name="total">   20.31   20.51</time>
   <energy>
    <i name="e_fr_energy">   -643.48293472 </i>
    <i name="e_wo_entrp">   -643.25271074 </i>
    <i name="e_0_energy">   -643.36782273 </i>
   </energy>
  </scstep>
  <scstep>
   <time name="diag">    1.37    1.38</time>
   <time name="diis">   16.91   17.03</time>
   <time name="orth">    0.34    0.34</time>
   <time name="total">   18.81   18.94</time>
   <energy>
    <i name="e_fr_energy">   -643.48536621 </i>
    <i name="e_wo_entrp">   -643.25509079 </i>
    <i name="e_0_energy">   -643.37022850 </i>
   </energy>
  </scstep>
  <scstep>
   <time name="diag">    1.39    1.40</time>
   <time name="diis">   15.45   15.53</time>
   <time name="orth">    0.33    0.33</time>
   <time name="total">   17.37   17.45</time>
   <energy>
    <i name="e_fr_energy">   -643.48687542 </i>
    <i name="e_wo_entrp">   -643.25642242 </i>
    <i name="e_0_energy">   -643.37164892 </i>
   </energy>
  </scstep>
  <scstep>
   <time name="diag">    1.35    1.36</time>
   <time name="diis">   13.67   13.76</time>
   <time name="orth">    0.33    0.33</time>
   <time name="total">   15.55   15.65</time>
   <energy>
    <i name="e_fr_energy">   -643.48808516 </i>
    <i name="e_wo_entrp">   -643.25752772 </i>
    <i name="e_0_energy">   -643.37280644 </i>
   </energy>
  </scstep>
  <scstep>
   <time name="diag">    1.32    1.33</time>
   <time name="diis">   10.80   11.01</time>
   <time name="orth">    0.34    0.34</time>
   <time name="total">   12.66   12.87</time>
   <energy>
    <i name="e_fr_energy">   -643.48880412 </i>
    <i name="e_wo_entrp">   -643.25819482 </i>
    <i name="e_0_energy">   -643.37349947 </i>
   </energy>
  </scstep>
  <scstep>
   <time name="diag">    1.42    1.43</time>
   <time name="diis">   14.92   15.09</time>
   <time name="orth">    0.37    0.37</time>
   <time name="total">   16.91   17.10</time>
   <energy>
    <i name="e_fr_energy">   -643.48936736 </i>
    <i name="e_wo_entrp">   -643.25871035 </i>
    <i name="e_0_energy">   -643.37403885 </i>
   </energy>
  </scstep>
  <scstep>
   <time name="diag">    1.35    1.35</time>
   <time name="diis">   11.53   11.60</time>
   <time name="orth">    0.33    0.34</time>
   <time name="total">   13.41   13.48</time>
   <energy>
    <i name="e_fr_energy">   -643.48972129 </i>
    <i name="e_wo_entrp">   -643.25902218 </i>
    <i name="e_0_energy">   -643.37437173 </i>
   </energy>
  </scstep>
  <scstep>
   <time name="diag">    1.37    1.38</time>
   <time name="diis">    9.57    9.61</time>
   <time name="orth">    0.39    0.40</time>
   <time name="total">   11.53   11.58</time>
   <energy>
    <i name="e_fr_energy">   -643.49001019 </i>
    <i name="e_wo_entrp">   -643.25926092 </i>
    <i name="e_0_energy">   -643.37463555 </i>
   </energy>
  </scstep>
  <scstep>
   <time name="diag">    1.41    1.44</time>
   <time name="diis">    9.33    9.42</time>
   <time name="orth">    0.37    0.38</time>
   <time name="total">   11.32   11.45</time>
   <energy>
    <i name="e_fr_energy">   -643.49018840 </i>
    <i name="e_wo_entrp">   -643.25939538 </i>
    <i name="e_0_energy">   -643.37479189 </i>
   </energy>
  </scstep>
  <scstep>
   <time name="diag">    1.35    1.36</time>
   <time name="diis">    8.98    9.02</time>
   <time name="orth">    0.33    0.33</time>
   <time name="total">   10.88   10.93</time>
   <energy>
    <i name="e_fr_energy">   -643.49033634 </i>
    <i name="e_wo_entrp">   -643.25950704 </i>
    <i name="e_0_energy">   -643.37492169 </i>
   </energy>
  </scstep>
  <scstep>
   <time name="diag">    1.34    1.34</time>
   <time name="diis">    8.84    8.88</time>
   <time name="orth">    0.33    0.33</time>
   <time name="total">   10.71   10.76</time>
   <energy>
    <i name="e_fr_energy">   -643.49042922 </i>
    <i name="e_wo_entrp">   -643.25957701 </i>
    <i name="e_0_energy">   -643.37500311 </i>
   </energy>
  </scstep>
  <scstep>
   <time name="diag">    1.33    1.33</time>
   <time name="diis">    8.60    8.64</time>
   <time name="orth">    0.33    0.33</time>
   <time name="total">   10.45   10.50</time>
   <energy>
    <i name="e_fr_energy">   -643.49050683 </i>
    <i name="e_wo_entrp">   -643.25963464 </i>
    <i name="e_0_energy">   -643.37507074 </i>
   </energy>
  </scstep>
  <scstep>
   <time name="diag">    1.33    1.33</time>
   <time name="diis">    8.48    8.54</time>
   <time name="orth">    0.33    0.34</time>
   <time name="total">   10.35   10.41</time>
   <energy>
    <i name="e_fr_energy">   -643.49055576 </i>
    <i name="e_wo_entrp">   -643.25966978 </i>
    <i name="e_0_energy">   -643.37511277 </i>
   </energy>
  </scstep>
  <scstep>
   <time name="diag">    1.33    1.33</time>
   <time name="diis">    8.33    8.39</time>
   <time name="orth">    0.34    0.34</time>
   <time name="total">   10.19   10.26</time>
   <energy>
    <i name="e_fr_energy">   -643.49059666 </i>
    <i name="e_wo_entrp">   -643.25969778 </i>
    <i name="e_0_energy">   -643.37514722 </i>
   </energy>
  </scstep>
  <scstep>
   <time name="diag">    1.34    1.34</time>
   <time name="diis">    8.14    8.24</time>
   <time name="orth">    0.33    0.33</time>
   <time name="total">   10.01   10.12</time>
   <energy>
    <i name="e_fr_energy">   -643.49062285 </i>
    <i name="e_wo_entrp">   -643.25971257 </i>
    <i name="e_0_energy">   -643.37516771 </i>
   </energy>
  </scstep>
  <scstep>
   <time name="diag">    1.35    1.35</time>
   <time name="diis">    7.88    7.91</time>
   <time name="orth">    0.33    0.33</time>
   <time name="total">    9.76    9.80</time>
   <energy>
    <i name="e_fr_energy">   -643.49064500 </i>
    <i name="e_wo_entrp">   -643.25972535 </i>
    <i name="e_0_energy">   -643.37518518 </i>
   </energy>
  </scstep>
  <scstep>
   <time name="diag">    1.32    1.32</time>
   <time name="diis">    7.65    7.72</time>
   <time name="orth">    0.33    0.34</time>
   <time name="total">    9.50    9.57</time>
   <energy>
    <i name="e_fr_energy">   -643.49065927 </i>
    <i name="e_wo_entrp">   -643.25973099 </i>
    <i name="e_0_energy">   -643.37519513 </i>
   </energy>
  </scstep>
  <scstep>
   <time name="diag">    1.33    1.34</time>
   <time name="diis">    7.51    7.55</time>
   <time name="orth">    0.33    0.33</time>
   <time name="total">    9.37    9.41</time>
   <energy>
    <i name="e_fr_energy">   -643.49067135 </i>
    <i name="e_wo_entrp">   -643.25973602 </i>
    <i name="e_0_energy">   -643.37520368 </i>
   </energy>
  </scstep>
  <scstep>
   <time name="diag">    1.33    1.33</time>
   <time name="diis">    7.05    7.11</time>
   <time name="orth">    0.35    0.35</time>
   <time name="total">    8.74    8.82</time>
   <energy>
    <i name="alphaZ">   4273.27710279 </i>
    <i name="ewald"> -39181.90268951 </i>
    <i name="hartreedc">  -6619.25299862 </i>
    <i name="XCdc">   1625.43053097 </i>
    <i name="pawpsdc">  29033.17559360 </i>
    <i name="pawaedc"> -29168.18526441 </i>
    <i name="eentropy">     -0.23094437 </i>
    <i name="bandstr">  -5159.96373665 </i>
    <i name="atom">  44554.16172666 </i>
    <i name="e_fr_energy">   -643.49067954 </i>
    <i name="e_wo_entrp">   -643.25973517 </i>
    <i name="e_0_energy">   -643.37520735 </i>
   </energy>
  </scstep>
  <structure>
   <crystal>
    <varray name="basis" >
     <v>       8.93249989       0.00000000       0.00000000 </v>
     <v>       0.00575300       9.05559834       0.00000000 </v>
     <v>       0.03210180      -0.01574346       8.93712807 </v>
    </varray>
    <i name="volume">    722.91652451 </i>
    <varray name="rec_basis" >
     <v>       0.11195074      -0.00007112      -0.00040225 </v>
     <v>       0.00000000       0.11042893       0.00019453 </v>
     <v>       0.00000000       0.00000000       0.11189277 </v>
    </varray>
   </crystal>
   <varray name="positions" >
    <v>       0.99688001       0.99204997       0.99924002 </v>
    <v>       0.25398003       0.99714995       0.24912000 </v>
    <v>       0.24803003       0.50165000       0.24955001 </v>
    <v>       0.50501006       0.49745998       0.99834003 </v>
    <v>       0.50479003       0.24631001       0.74710002 </v>
    <v>       0.99427992       0.50449999       0.49779000 </v>
    <v>       0.49950005       0.75481999       0.74817004 </v>
    <v>       0.99437004       0.23617001       0.26379999 </v>
    <v>       0.75718000       0.74102998       0.01100000 </v>
    <v>       0.00201000       0.25541000       0.73894001 </v>
    <v>       0.75307001       0.26163001       0.50533002 </v>
    <v>       0.99514004       0.74492004       0.74511997 </v>
    <v>       0.25679999       0.49462002       0.74545002 </v>
    <v>       0.24788999       0.24839000       0.99657997 </v>
    <v>       0.50833000       0.25676999       0.25376001 </v>
    <v>       0.74879004       0.98787999       0.26967001 </v>
    <v>       0.75719000       0.25603001       0.99591997 </v>
    <v>       0.24762001       0.74973999       0.99974006 </v>
    <v>       0.25272001       0.24823001       0.50015003 </v>
    <v>       0.24457999       0.75048999       0.49983999 </v>
    <v>       0.24982001       0.24942998       0.24825000 </v>
    <v>       0.26146999       0.99984002       0.99295996 </v>
    <v>       0.00281000       0.25024000       0.00130000 </v>
    <v>       0.75313998       0.24617000       0.25492002 </v>
    <v>       0.74767001       0.99748000       0.01202000 </v>
    <v>       0.50714994       0.99977000       0.24673000 </v>
    <v>       0.99051999       0.48088002       0.24100998 </v>
    <v>       0.50519005       0.76130999       0.00855000 </v>
    <v>       0.98896989       0.00202000       0.73708999 </v>
    <v>       0.75744996       0.24437997       0.74896999 </v>
    <v>       0.73632001       0.00417000       0.51063000 </v>
    <v>       0.50563996       0.23264999       0.49544997 </v>
    <v>       0.50008998       0.00061000       0.73471998 </v>
    <v>       0.99720000       0.99771992       0.25899999 </v>
    <v>       0.50427997       0.24673000       0.00262000 </v>
    <v>       0.25133999       0.74958002       0.24910999 </v>
    <v>       0.24328000       0.50072997       0.99510994 </v>
    <v>       0.99837005       0.74313996       0.00460000 </v>
    <v>       0.75633000       0.73891003       0.25767000 </v>
    <v>       0.75839004       0.50315998       0.00288000 </v>
    <v>       0.50700002       0.50333002       0.25878999 </v>
    <v>       0.24900999       0.25315000       0.74854000 </v>
    <v>       0.24446000       0.99823996       0.50287998 </v>
    <v>       0.99804009       0.24229999       0.50128003 </v>
    <v>       0.24177002       0.75340997       0.75018002 </v>
    <v>       0.25841001       0.50062002       0.50129001 </v>
    <v>       0.99000004       0.76215003       0.49746000 </v>
    <v>       0.99203996       0.50055999       0.75138002 </v>
    <v>       0.75036005       0.74888000       0.74756004 </v>
    <v>       0.74036002       0.50197000       0.50067003 </v>
    <v>       0.50575006       0.74958002       0.49720000 </v>
    <v>       0.50501003       0.50217998       0.73912003 </v>
    <v>       0.51588997       0.01358000       0.98075008 </v>
    <v>       0.99841994       0.50976998       0.98613004 </v>
    <v>       0.50379003       0.73926997       0.25905001 </v>
    <v>       0.23780002       0.01082000       0.74607998 </v>
    <v>       0.47957999       0.98308000       0.49717999 </v>
    <v>       0.74279003       0.97869994       0.76450995 </v>
    <v>       0.99864998       0.77573999       0.26102000 </v>
    <v>       0.73551001       0.51468004       0.26666001 </v>
    <v>       0.02362000       0.99783001       0.49557002 </v>
    <v>       0.50539000       0.52833005       0.49917999 </v>
    <v>       0.73876003       0.52828003       0.73814999 </v>
    <v>       0.75400003       0.72937999       0.49116997 </v>
   </varray>
  </structure>
  <varray name="forces" >
   <v>       0.16268357       0.04723761      -0.10598186 </v>
   <v>       0.65549009      -0.52909566      -0.43470678 </v>
   <v>       0.78089322       0.49456394      -0.45403419 </v>
   <v>      -0.46486390      -0.90784391       0.18725570 </v>
   <v>      -0.80702283      -0.81745050       0.88251501 </v>
   <v>       0.67038808      -0.46365434       0.62276096 </v>
   <v>      -0.72546712       1.22655495       0.29622733 </v>
   <v>       0.31634521      -0.08554054      -0.90997148 </v>
   <v>      -0.71450192       0.95407978      -0.08871982 </v>
   <v>       0.50458538      -0.40213102       0.76646453 </v>
   <v>      -0.96696768      -1.10983500      -0.06094556 </v>
   <v>       1.25154153       0.57304400       0.55925092 </v>
   <v>      -0.36839324       0.41386684       0.67625639 </v>
   <v>       0.46791584       0.04108043      -0.22884089 </v>
   <v>      -0.02803372      -0.70104700      -0.44476253 </v>
   <v>      -1.08698260       0.24105868      -0.16599306 </v>
   <v>      -0.74647985      -0.06737244      -0.29901166 </v>
   <v>       0.00325158      -0.03393394      -0.04101018 </v>
   <v>       0.29214019      -0.04355906       0.19853650 </v>
   <v>       0.37120528       0.01115442      -0.02992894 </v>
   <v>       0.06651669       0.06186509       0.09815457 </v>
   <v>      -0.34740034       0.10885813       0.02272344 </v>
   <v>      -0.05306083      -0.30212630       0.01756378 </v>
   <v>      -0.27012682      -0.00931434      -0.12656580 </v>
   <v>      -0.11682258      -0.01144052      -0.68356811 </v>
   <v>      -0.12902489       0.05905742       0.45305066 </v>
   <v>       0.36530507       0.01124612       0.38543901 </v>
   <v>      -0.16823745      -0.29866157      -0.34230989 </v>
   <v>      -0.05690056       0.07533035       0.68549056 </v>
   <v>      -0.19610198       0.03605130       0.37681256 </v>
   <v>       0.26641343      -0.01304612      -0.71587747 </v>
   <v>      -0.34494717       0.12256052      -0.24066488 </v>
   <v>       0.46953307       0.00414839       0.61474370 </v>
   <v>      -0.32221126       0.70279918      -1.06709185 </v>
   <v>       0.08768167      -0.03808062      -0.01013927 </v>
   <v>       0.09826727      -0.06049340       0.01439368 </v>
   <v>       0.27223282      -0.03461728       0.29890200 </v>
   <v>       0.74842000      -0.03940260      -0.02749256 </v>
   <v>      -0.53002592       1.39524678      -1.00920519 </v>
   <v>      -0.05974197      -0.74162593      -0.03236319 </v>
   <v>      -1.35549116      -0.17170034      -0.86499085 </v>
   <v>       0.21717357      -0.66735160       0.01319261 </v>
   <v>       1.72979766      -0.16971807       0.50525208 </v>
   <v>       0.57065074       0.57894119      -0.08311887 </v>
   <v>       0.47793097       0.04794788       0.05540705 </v>
   <v>      -0.49965760       0.03552925      -0.44821088 </v>
   <v>       1.24969306      -0.67405543       0.63650730 </v>
   <v>       0.32202360       0.00601380       0.14354542 </v>
   <v>      -0.36992003       1.68808362       0.40511328 </v>
   <v>       1.15083904      -1.14462141       0.44175858 </v>
   <v>      -0.90493436       1.44447566      -0.39705569 </v>
   <v>      -0.73749419      -0.39319512       0.93704408 </v>
   <v>       0.44882344       0.83685710      -0.48183404 </v>
   <v>       0.29659297       0.77891740      -0.63633061 </v>
   <v>      -0.04987822      -0.21659147      -0.05054561 </v>
   <v>      -0.02587999       0.21572873       0.47423653 </v>
   <v>      -0.49902407      -0.09647106      -0.14921235 </v>
   <v>      -0.73312406      -0.75815853       0.60127410 </v>
   <v>       0.72723055      -0.12282220      -0.96865066 </v>
   <v>       0.10396478      -1.02845191      -1.65749442 </v>
   <v>      -0.28765341       0.57513321       0.51537723 </v>
   <v>      -1.52048451      -0.69668043      -0.42088830 </v>
   <v>       0.49129899      -1.68840806       1.39289806 </v>
   <v>      -0.14997311       1.75106595       0.39936986 </v>
  </varray>
  <varray name="stress" >
   <v>    -197.43226872       5.90944380      -1.70637959 </v>
   <v>       5.90944406    -203.68612550       1.70018451 </v>
   <v>      -1.70637859       1.70018343    -191.60728171 </v>
  </varray>
  <energy>
   <i name="e_fr_energy">   -643.49067954 </i>
   <i name="e_wo_entrp">   -643.25973517 </i>
   <i name="e_0_energy">   -643.37520735 </i>
  </energy>
  <time name="totalsc">  711.73  718.80</time>
 </calculation>
 <calculation>
  <scstep>
   <time name="dav">   25.54   25.61</time>
   <time name="total">   25.74   25.80</time>
   <energy>
    <i name="alphaZ">   5264.99760427 </i>
    <i name="ewald"> -42099.48848060 </i>
    <i name="hartreedc">  -7010.81690493 </i>
    <i name="XCdc">   1758.80365664 </i>
    <i name="pawpsdc">  29033.18377717 </i>
    <i name="pawaedc"> -29168.19306944 </i>
    <i name="eentropy">     -0.10137671 </i>
    <i name="bandstr">  -3094.73600960 </i>
    <i name="atom">  44554.16172666 </i>
    <i name="e_fr_energy">   -762.18907654 </i>
    <i name="e_wo_entrp">   -762.08769983 </i>
    <i name="e_0_energy">   -762.13838819 </i>
   </energy>
  </scstep>
  <scstep>
   <time name="diag">    1.32    1.33</time>
   <time name="diis">   14.56   14.73</time>
   <time name="orth">    0.39    0.40</time>
   <time name="total">   16.53   17.08</time>
   <energy>
    <i name="e_fr_energy">   -825.85241508 </i>
    <i name="e_wo_entrp">   -825.75506881 </i>
    <i name="e_0_energy">   -825.80374194 </i>
   </energy>
  </scstep>
  <scstep>
   <time name="diag">    1.39    1.41</time>
   <time name="diis">   15.91   16.17</time>
   <time name="orth">    0.33    0.33</time>
   <time name="total">   17.85   18.13</time>
   <energy>
    <i name="e_fr_energy">   -652.06153757 </i>
    <i name="e_wo_entrp">   -651.93320619 </i>
    <i name="e_0_energy">   -651.99737188 </i>
   </energy>
  </scstep>
  <scstep>
   <time name="diag">    1.41    1.43</time>
   <time name="diis">   15.28   15.46</time>
   <time name="orth">    0.33    0.33</time>
   <time name="total">   17.22   17.42</time>
   <energy>
    <i name="e_fr_energy">   -655.36140804 </i>
    <i name="e_wo_entrp">   -655.25403227 </i>
    <i name="e_0_energy">   -655.30772015 </i>
   </energy>
  </scstep>
  <scstep>
   <time name="diag">    1.32    1.34</time>
   <time name="diis">   17.33   17.58</time>
   <time name="orth">    0.37    0.38</time>
   <time name="total">   19.22   19.49</time>
   <energy>
    <i name="e_fr_energy">   -648.61312514 </i>
    <i name="e_wo_entrp">   -648.47660120 </i>
    <i name="e_0_energy">   -648.54486317 </i>
   </energy>
  </scstep>
  <scstep>
   <time name="diag">    1.31    1.32</time>
   <time name="diis">   15.96   16.21</time>
   <time name="orth">    0.33    0.33</time>
   <time name="total">   17.80   18.07</time>
   <energy>
    <i name="e_fr_energy">   -638.43694977 </i>
    <i name="e_wo_entrp">   -638.29552279 </i>
    <i name="e_0_energy">   -638.36623628 </i>
   </energy>
  </scstep>
  <scstep>
   <time name="diag">    1.34    1.36</time>
   <time name="diis">   16.75   17.03</time>
   <time name="orth">    0.33    0.34</time>
   <time name="total">   18.65   18.96</time>
   <energy>
    <i name="e_fr_energy">   -640.54712073 </i>
    <i name="e_wo_entrp">   -640.40553368 </i>
    <i name="e_0_energy">   -640.47632721 </i>
   </energy>
  </scstep>
  <scstep>
   <time name="diag">    1.32    1.33</time>
   <time name="diis">   15.98   16.20</time>
   <time name="orth">    0.34    0.34</time>
   <time name="total">   17.85   18.10</time>
   <energy>
    <i name="e_fr_energy">   -638.00178826 </i>
    <i name="e_wo_entrp">   -637.85242637 </i>
    <i name="e_0_energy">   -637.92710731 </i>
   </energy>
  </scstep>
  <scstep>
   <time name="diag">    1.41    1.44</time>
   <time name="diis">   17.03   17.34</time>
   <time name="orth">    0.33    0.33</time>
   <time name="total">   18.97   19.31</time>
   <energy>
    <i name="e_fr_energy">   -638.84622168 </i>
    <i name="e_wo_entrp">   -638.71046286 </i>
    <i name="e_0_energy">   -638.77834227 </i>
   </energy>
  </scstep>
  <scstep>
   <time name="diag">    1.38    1.39</time>
   <time name="diis">   16.96   17.23</time>
   <time name="orth">    0.33    0.33</time>
   <time name="total">   18.86   19.16</time>
   <energy>
    <i name="e_fr_energy">   -637.99593844 </i>
    <i name="e_wo_entrp">   -637.84262607 </i>
    <i name="e_0_energy">   -637.91928226 </i>
   </energy>
  </scstep>
  <scstep>
   <time name="diag">    1.35    1.37</time>
   <time name="diis">   17.42   17.71</time>
   <time name="orth">    0.33    0.34</time>
   <time name="total">   19.31   19.62</time>
   <energy>
    <i name="e_fr_energy">   -638.00883930 </i>
    <i name="e_wo_entrp">   -637.85458585 </i>
    <i name="e_0_energy">   -637.93171258 </i>
   </energy>
  </scstep>
  <scstep>
   <time name="diag">    1.31    1.33</time>
   <time name="diis">   17.07   17.52</time>
   <time name="orth">    0.33    0.33</time>
   <time name="total">   18.91   19.38</time>
   <energy>
    <i name="e_fr_energy">   -637.91586439 </i>
    <i name="e_wo_entrp">   -637.76579460 </i>
    <i name="e_0_energy">   -637.84082950 </i>
   </energy>
  </scstep>
  <scstep>
   <time name="diag">    1.36    1.38</time>
   <time name="diis">   17.21   17.63</time>
   <time name="orth">    0.33    0.33</time>
   <time name="total">   19.11   19.54</time>
   <energy>
    <i name="e_fr_energy">   -637.92062797 </i>
    <i name="e_wo_entrp">   -637.76771308 </i>
    <i name="e_0_energy">   -637.84417052 </i>
   </energy>
  </scstep>
  <scstep>
   <time name="diag">    1.36    1.37</time>
   <time name="diis">   17.43   17.77</time>
   <time name="orth">    0.33    0.33</time>
   <time name="total">   19.31   19.67</time>
   <energy>
    <i name="e_fr_energy">   -637.91701190 </i>
    <i name="e_wo_entrp">   -637.76458061 </i>
    <i name="e_0_energy">   -637.84079625 </i>
   </energy>
  </scstep>
  <scstep>
   <time name="diag">    1.33    1.34</time>
   <time name="diis">   16.50   16.83</time>
   <time name="orth">    0.34    0.34</time>
   <time name="total">   18.38   18.71</time>
   <energy>
    <i name="e_fr_energy">   -637.91011670 </i>
    <i name="e_wo_entrp">   -637.75810890 </i>
    <i name="e_0_energy">   -637.83411280 </i>
   </energy>
  </scstep>
  <scstep>
   <time name="diag">    1.32    1.36</time>
   <time name="diis">   17.38   17.69</time>
   <time name="orth">    0.33    0.33</time>
   <time name="total">   19.22   19.58</time>
   <energy>
    <i name="e_fr_energy">   -637.91107299 </i>
    <i name="e_wo_entrp">   -637.75938674 </i>
    <i name="e_0_energy">   -637.83522987 </i>
   </energy>
  </scstep>
  <scstep>
   <time name="diag">    1.32    1.36</time>
   <time name="diis">   17.71   18.04</time>
   <time name="orth">    0.37    0.38</time>
   <time name="total">   19.60   19.98</time>
   <energy>
    <i name="e_fr_energy">   -637.91137998 </i>
    <i name="e_wo_entrp">   -637.75960078 </i>
    <i name="e_0_energy">   -637.83549038 </i>
   </energy>
  </scstep>
  <scstep>
   <time name="diag">    1.32    1.36</time>
   <time name="diis">   16.20   16.48</time>
   <time name="orth">    0.35    0.35</time>
   <time name="total">   18.06   18.39</time>
   <energy>
    <i name="e_fr_energy">   -637.91157146 </i>
    <i name="e_wo_entrp">   -637.75980572 </i>
    <i name="e_0_energy">   -637.83568859 </i>
   </energy>
  </scstep>
  <scstep>
   <time name="diag">    1.32    1.33</time>
   <time name="diis">   15.52   15.65</time>
   <time name="orth">    0.38    0.38</time>
   <time name="total">   17.45   17.60</time>
   <energy>
    <i name="e_fr_energy">   -637.91162699 </i>
    <i name="e_wo_entrp">   -637.75974640 </i>
    <i name="e_0_energy">   -637.83568669 </i>
   </energy>
  </scstep>
  <scstep>
   <time name="diag">    1.39    1.40</time>
   <time name="diis">   13.16   13.28</time>
   <time name="orth">    0.38    0.38</time>
   <time name="total">   15.13   15.27</time>
   <energy>
    <i name="e_fr_energy">   -637.91178080 </i>
    <i name="e_wo_entrp">   -637.75985135 </i>
    <i name="e_0_energy">   -637.83581607 </i>
   </energy>
  </scstep>
  <scstep>
   <time name="diag">    1.35    1.36</time>
   <time name="diis">   10.36   10.45</time>
   <time name="orth">    0.33    0.33</time>
   <time name="total">   12.24   12.33</time>
   <energy>
    <i name="e_fr_energy">   -637.91185097 </i>
    <i name="e_wo_entrp">   -637.75995501 </i>
    <i name="e_0_energy">   -637.83590299 </i>
   </energy>
  </scstep>
  <scstep>
   <time name="diag">    1.37    1.38</time>
   <time name="diis">    9.38    9.44</time>
   <time name="orth">    0.33    0.33</time>
   <time name="total">   11.28   11.35</time>
   <energy>
    <i name="e_fr_energy">   -637.91190102 </i>
    <i name="e_wo_entrp">   -637.75998609 </i>
    <i name="e_0_energy">   -637.83594355 </i>
   </energy>
  </scstep>
  <scstep>
   <time name="diag">    1.66    1.69</time>
   <time name="diis">    8.89    8.97</time>
   <time name="orth">    0.36    0.36</time>
   <time name="total">   11.12   11.23</time>
   <energy>
    <i name="e_fr_energy">   -637.91192958 </i>
    <i name="e_wo_entrp">   -637.76001226 </i>
    <i name="e_0_energy">   -637.83597092 </i>
   </energy>
  </scstep>
  <scstep>
   <time name="diag">    1.43    1.44</time>
   <time name="diis">    8.68    8.74</time>
   <time name="orth">    0.38    0.38</time>
   <time name="total">   10.70   10.77</time>
   <energy>
    <i name="e_fr_energy">   -637.91194862 </i>
    <i name="e_wo_entrp">   -637.76003662 </i>
    <i name="e_0_energy">   -637.83599262 </i>
   </energy>
  </scstep>
  <scstep>
   <time name="diag">    1.38    1.39</time>
   <time name="diis">    8.49    8.54</time>
   <time name="orth">    0.36    0.36</time>
   <time name="total">   10.44   10.51</time>
   <energy>
    <i name="e_fr_energy">   -637.91195938 </i>
    <i name="e_wo_entrp">   -637.76004538 </i>
    <i name="e_0_energy">   -637.83600238 </i>
   </energy>
  </scstep>
  <scstep>
   <time name="diag">    1.35    1.36</time>
   <time name="diis">    8.35    8.41</time>
   <time name="orth">    0.37    0.37</time>
   <time name="total">   10.09   10.16</time>
   <energy>
    <i name="alphaZ">   5264.99760427 </i>
    <i name="ewald"> -42099.48848060 </i>
    <i name="hartreedc">  -5662.29905998 </i>
    <i name="XCdc">   1680.78058270 </i>
    <i name="pawpsdc">  31656.21387480 </i>
    <i name="pawaedc"> -31820.26431833 </i>
    <i name="eentropy">     -0.15191858 </i>
    <i name="bandstr">  -4211.86197784 </i>
    <i name="atom">  44554.16172666 </i>
    <i name="e_fr_energy">   -637.91196690 </i>
    <i name="e_wo_entrp">   -637.76004832 </i>
    <i name="e_0_energy">   -637.83600761 </i>
   </energy>
  </scstep>
  <structure>
   <crystal>
    <varray name="basis" >
     <v>       8.33268126       0.01795347      -0.00518415 </v>
     <v>       0.02356757       8.42826354       0.00523317 </v>
     <v>       0.02472769      -0.00942028       8.35467698 </v>
    </varray>
    <i name="volume">    586.74720553 </i>
    <varray name="rec_basis" >
     <v>       0.12000989      -0.00033536      -0.00035558 </v>
     <v>      -0.00025556       0.11864903       0.00013454 </v>
     <v>       0.00007463      -0.00007453       0.11969313 </v>
    </varray>
   </crystal>
   <varray name="positions" >
    <v>       0.99776053       0.99230062       0.99866793 </v>
    <v>       0.25753045       0.99432718       0.24677345 </v>
    <v>       0.25225459       0.50428048       0.24709913 </v>
    <v>       0.50249891       0.49262530       0.99935084 </v>
    <v>       0.50041714       0.24196342       0.75186383 </v>
    <v>       0.99789006       0.50203577       0.50115166 </v>
    <v>       0.49557199       0.76135710       0.74976908 </v>
    <v>       0.99609651       0.23570577       0.25888796 </v>
    <v>       0.75331956       0.74611189       0.01052109 </v>
    <v>       0.00472167       0.25327489       0.74307739 </v>
    <v>       0.74785260       0.25571692       0.50500104 </v>
    <v>       0.00188655       0.74797811       0.74813881 </v>
    <v>       0.25479583       0.49683120       0.74910046 </v>
    <v>       0.25042141       0.24860670       0.99534468 </v>
    <v>       0.50818963       0.25303107       0.25135918 </v>
    <v>       0.74292185       0.98916265       0.26877398 </v>
    <v>       0.75316444       0.25566828       0.99430590 </v>
    <v>       0.24763848       0.74955883       0.99951868 </v>
    <v>       0.25429409       0.24799981       0.50122173 </v>
    <v>       0.24658534       0.75054913       0.49967843 </v>
    <v>       0.25017714       0.24976048       0.24877983 </v>
    <v>       0.25959293       0.00042016       0.99308262 </v>
    <v>       0.00252412       0.24863062       0.00139481 </v>
    <v>       0.75168357       0.24611919       0.25423681 </v>
    <v>       0.74705238       0.99741263       0.00833010 </v>
    <v>       0.50644411       0.00008887       0.24917557 </v>
    <v>       0.99248542       0.48094355       0.24309059 </v>
    <v>       0.50428910       0.75971569       0.00670221 </v>
    <v>       0.98864902       0.00242775       0.74079027 </v>
    <v>       0.75638341       0.24457557       0.75100402 </v>
    <v>       0.73777279       0.00409378       0.50676569 </v>
    <v>       0.50378122       0.23330065       0.49415086 </v>
    <v>       0.50261389       0.00063787       0.73803837 </v>
    <v>       0.99547810       0.00145399       0.25323983 </v>
    <v>       0.50475385       0.24652703       0.00256527 </v>
    <v>       0.25187064       0.74925788       0.24918769 </v>
    <v>       0.24474460       0.50054836       0.99672342 </v>
    <v>       0.00241278       0.74292979       0.00445160 </v>
    <v>       0.75348223       0.74633357       0.25222230 </v>
    <v>       0.75807056       0.49920875       0.00270530 </v>
    <v>       0.49969666       0.50240719       0.25412076 </v>
    <v>       0.25018493       0.24959489       0.74861122 </v>
    <v>       0.25379307       0.99734055       0.50560733 </v>
    <v>       0.00112168       0.24538346       0.50083135 </v>
    <v>       0.24434999       0.75366593       0.75047911 </v>
    <v>       0.25572003       0.50080509       0.49887056 </v>
    <v>       0.99673934       0.75856505       0.50089587 </v>
    <v>       0.99377634       0.50059338       0.75215488 </v>
    <v>       0.74834854       0.75787687       0.74974684 </v>
    <v>       0.74657082       0.49587631       0.50305464 </v>
    <v>       0.50086543       0.75727157       0.49505669 </v>
    <v>       0.50101014       0.50009408       0.74417820 </v>
    <v>       0.51832045       0.01803374       0.97814913 </v>
    <v>       0.00003146       0.51391360       0.98269512 </v>
    <v>       0.50352237       0.73811563       0.25877717 </v>
    <v>       0.23765030       0.01197372       0.74863991 </v>
    <v>       0.47688809       0.98256467       0.49637455 </v>
    <v>       0.73882150       0.97466658       0.76775563 </v>
    <v>       0.00259682       0.77507658       0.25579122 </v>
    <v>       0.73610720       0.50918552       0.25771285 </v>
    <v>       0.02205447       0.00089880       0.49835203 </v>
    <v>       0.49718872       0.52461462       0.49690804 </v>
    <v>       0.74139221       0.51929830       0.74566886 </v>
    <v>       0.75317630       0.73871234       0.49332577 </v>
   </varray>
  </structure>
  <varray name="forces" >
   <v>       0.80575445       0.69189710      -0.79234457 </v>
   <v>       0.46319595       0.45463047      -0.32197588 </v>
   <v>      -0.32335107      -0.21674775      -0.36538690 </v>
   <v>      -0.53960403       0.16186951       0.26751826 </v>
   <v>      -0.33418446      -0.21066063       0.01261596 </v>
   <v>       1.21532110      -0.46499169       0.08101518 </v>
   <v>      -0.61681652       0.01545409       0.34459895 </v>
   <v>       0.80341409       1.08594657      -1.77425995 </v>
   <v>      -0.69451414       0.78948847      -1.11073191 </v>
   <v>       0.13091951      -0.88976252       1.71296909 </v>
   <v>      -0.12276784      -1.63287840      -0.01227552 </v>
   <v>      -0.11650723       0.90314519       1.00868002 </v>
   <v>      -1.15130018       0.36804846       0.30832825 </v>
   <v>       0.43868226      -0.15362473       0.31513308 </v>
   <v>      -0.66117329      -0.80257117      -0.51202102 </v>
   <v>      -0.58800276       0.93360794      -1.11040329 </v>
   <v>      -0.34252001      -0.85816841       0.28101996 </v>
   <v>       0.84876293       0.16611656       0.14334006 </v>
   <v>       0.42200430      -0.00638177      -0.23699316 </v>
   <v>       0.44476151       0.01276444      -0.05270697 </v>
   <v>       0.71911638      -0.03006616      -0.02336813 </v>
   <v>       0.53806572       0.04385905      -0.52743972 </v>
   <v>      -0.04448786       0.75247040       0.11769763 </v>
   <v>      -1.10070718      -0.23008167      -1.16490826 </v>
   <v>      -0.51942378       0.89178119      -0.32932223 </v>
   <v>       0.25029206      -0.14175969      -0.22535821 </v>
   <v>       0.11670147       1.59193978      -0.52110680 </v>
   <v>      -1.12224163       0.43979363       0.27446912 </v>
   <v>      -0.39263217       0.01182109       0.66242874 </v>
   <v>      -0.45346817       0.00489427       0.88619012 </v>
   <v>       0.52434158      -0.65938497       0.53996725 </v>
   <v>      -1.22108365       0.52857565      -0.27565747 </v>
   <v>      -0.04866250       0.28214631       0.37369847 </v>
   <v>      -0.49523432       0.09851930      -0.54681809 </v>
   <v>      -0.27572863      -0.50827564       0.80694067 </v>
   <v>       1.17668594      -0.10484621      -0.12902378 </v>
   <v>      -0.52449161      -0.14796012       0.36007307 </v>
   <v>       0.76100967      -0.45229686       0.20674406 </v>
   <v>      -1.05038701       1.03968916       0.11142264 </v>
   <v>       0.71121463      -0.93137681       0.11003590 </v>
   <v>      -0.90321164      -0.36286898      -0.73252247 </v>
   <v>       0.46773287      -0.80460890       0.09000845 </v>
   <v>       1.28495954       0.16482111       0.86652059 </v>
   <v>       0.74814221       0.78404155      -0.06577134 </v>
   <v>       0.87941457       0.90068473       0.10265079 </v>
   <v>      -0.87610665      -0.24038194      -0.11632292 </v>
   <v>       1.20358848      -0.73529177      -0.02000036 </v>
   <v>       0.56311673      -0.00141045       0.52417167 </v>
   <v>       0.14748403      -0.08739912      -0.08499903 </v>
   <v>      -0.17864410       0.46050556      -0.33614526 </v>
   <v>      -0.98044105       1.27422787      -0.56243035 </v>
   <v>      -0.24447120      -0.20518066       0.30800650 </v>
   <v>      -0.34691214      -0.22783353       0.24155998 </v>
   <v>       0.38761647      -0.32945398       0.04918411 </v>
   <v>      -0.44838886       0.44213105      -0.62786102 </v>
   <v>      -0.02758447      -0.68124763       0.78509307 </v>
   <v>       0.78667717       0.84088261      -0.61143886 </v>
   <v>      -0.51494386       1.52025992       0.55261239 </v>
   <v>       0.44064396      -2.71001591      -1.03586597 </v>
   <v>       0.95975569      -1.47707653      -1.54345104 </v>
   <v>      -1.38416874       0.76716737       0.33217968 </v>
   <v>       0.07731442      -2.15191591      -0.12166024 </v>
   <v>       0.94409248      -1.42179956       2.22610181 </v>
   <v>      -0.61661939       1.45513965       0.88759518 </v>
  </varray>
  <varray name="stress" >
   <v>     551.38423792       0.06230603       3.46322656 </v>
   <v>       0.06230518     507.05301245       0.26960948 </v>
   <v>       3.46322772       0.26960662     535.05160741 </v>
  </varray>
  <energy>
   <i name="e_fr_energy">   -637.91196690 </i>
   <i name="e_wo_entrp">   -637.76004832 </i>
   <i name="e_0_energy">   -637.83600761 </i>
  </energy>
  <time name="totalsc">  473.93  480.95</time>
 </calculation>
 <calculation>
  <scstep>
   <time name="dav">   24.85   25.20</time>
   <time name="total">   25.08   25.43</time>
   <energy>
    <i name="alphaZ">   4658.07177801 </i>
    <i name="ewald"> -40374.42403120 </i>
    <i name="hartreedc">  -5469.83894552 </i>
    <i name="XCdc">   1605.42988491 </i>
    <i name="pawpsdc">  31656.24537610 </i>
    <i name="pawaedc"> -31820.29552245 </i>
    <i name="eentropy">     -0.14947733 </i>
    <i name="bandstr">  -5520.43341410 </i>
    <i name="atom">  44554.16172666 </i>
    <i name="e_fr_energy">   -711.23262492 </i>
    <i name="e_wo_entrp">   -711.08314759 </i>
    <i name="e_0_energy">   -711.15788625 </i>
   </energy>
  </scstep>
  <scstep>
   <time name="diag">    1.35    1.36</time>
   <time name="diis">   17.15   17.42</time>
   <time name="orth">    0.34    0.35</time>
   <time name="total">   19.04   19.33</time>
   <energy>
    <i name="e_fr_energy">   -997.99919178 </i>
    <i name="e_wo_entrp">   -997.84143232 </i>
    <i name="e_0_energy">   -997.92031205 </i>
   </energy>
  </scstep>
  <scstep>
   <time name="diag">    1.43    1.45</time>
   <time name="diis">   16.58   16.75</time>
   <time name="orth">    0.33    0.33</time>
   <time name="total">   18.53   18.73</time>
   <energy>
    <i name="e_fr_energy">   -710.07549342 </i>
    <i name="e_wo_entrp">   -709.93529346 </i>
    <i name="e_0_energy">   -710.00539344 </i>
   </energy>
  </scstep>
  <scstep>
   <time name="diag">    1.36    1.37</time>
   <time name="diis">   14.22   14.40</time>
   <time name="orth">    0.34    0.35</time>
   <time name="total">   16.12   16.32</time>
   <energy>
    <i name="e_fr_energy">   -663.85754318 </i>
    <i name="e_wo_entrp">   -663.71449126 </i>
    <i name="e_0_energy">   -663.78601722 </i>
   </energy>
  </scstep>
  <scstep>
   <time name="diag">    1.31    1.32</time>
   <time name="diis">   16.52   16.76</time>
   <time name="orth">    0.33    0.33</time>
   <time name="total">   18.36   18.61</time>
   <energy>
    <i name="e_fr_energy">   -656.96536852 </i>
    <i name="e_wo_entrp">   -656.81124868 </i>
    <i name="e_0_energy">   -656.88830860 </i>
   </energy>
  </scstep>
  <scstep>
   <time name="diag">    1.33    1.34</time>
   <time name="diis">   16.52   16.82</time>
   <time name="orth">    0.33    0.34</time>
   <time name="total">   18.37   18.69</time>
   <energy>
[...]
      </set>
     </set>
    </set>
   </array>
  </eigenvalues>
  <separator name="orbital magnetization" >
   <v name="MAGDIPOLOUT">      0.00000000      0.00000000      0.00000000</v>
  </separator>
  <dos>
   <i name="efermi">      8.31208378 </i>
   <total>
    <array>
     <dimension dim="1">gridpoints</dimension>
     <dimension dim="2">spin</dimension>
     <field>energy</field>
     <field>total</field>
     <field>integrated</field>
     <set>
      <set comment="spin 1">
       <r>   -37.9024     0.0000     0.0000 </r>
       <r>   -37.7323     0.0000     0.0000 </r>
       <r>   -37.5622     0.0000     0.0000 </r>
       <r>   -37.3922     0.0000     0.0000 </r>
       <r>   -37.2221     0.0000     0.0000 </r>
       <r>   -37.0520     0.0000     0.0000 </r>
       <r>   -36.8820     0.0000     0.0000 </r>
       <r>   -36.7119     0.0000     0.0000 </r>
       <r>   -36.5418     0.0000     0.0000 </r>
       <r>   -36.3718     0.0000     0.0000 </r>
       <r>   -36.2017     0.0000     0.0000 </r>
       <r>   -36.0316     0.0000     0.0000 </r>
       <r>   -35.8616     0.0005     0.0001 </r>
       <r>   -35.6915     0.7427     0.1264 </r>
       <r>   -35.5215    12.3252     2.2225 </r>
       <r>   -35.3514    62.3355    12.8235 </r>
       <r>   -35.1813    98.0802    29.5035 </r>
       <r>   -35.0113    36.3646    35.6878 </r>
       <r>   -34.8412     1.8345    35.9998 </r>
       <r>   -34.6711     0.0013    36.0000 </r>
       <r>   -34.5011     0.0000    36.0000 </r>
       <r>   -34.3310     0.0000    36.0000 </r>
       <r>   -34.1609     0.0000    36.0000 </r>
       <r>   -33.9909     0.0000    36.0000 </r>
       <r>   -33.8208     0.0000    36.0000 </r>
       <r>   -33.6507     0.0000    36.0000 </r>
       <r>   -33.4807     0.0000    36.0000 </r>
       <r>   -33.3106     0.0000    36.0000 </r>
       <r>   -33.1405     0.0000    36.0000 </r>
       <r>   -32.9705     0.0000    36.0000 </r>
       <r>   -32.8004     0.0000    36.0000 </r>
       <r>   -32.6304     0.0000    36.0000 </r>
       <r>   -32.4603     0.0000    36.0000 </r>
       <r>   -32.2902     0.0000    36.0000 </r>
       <r>   -32.1202     0.0000    36.0000 </r>
       <r>   -31.9501     0.0000    36.0000 </r>
       <r>   -31.7800     0.0000    36.0000 </r>
       <r>   -31.6100     0.0000    36.0000 </r>
       <r>   -31.4399     0.0043    36.0007 </r>
       <r>   -31.2698     3.0626    36.5216 </r>
       <r>   -31.0998    44.3972    44.0719 </r>
       <r>   -30.9297    94.5465    60.1509 </r>
       <r>   -30.7596    62.8186    70.8342 </r>
       <r>   -30.5896     6.8381    71.9971 </r>
       <r>   -30.4195     0.0173    72.0000 </r>
       <r>   -30.2495     0.0000    72.0000 </r>
       <r>   -30.0794     0.0000    72.0000 </r>
       <r>   -29.9093     0.0000    72.0000 </r>
       <r>   -29.7393     0.0000    72.0000 </r>
       <r>   -29.5692     0.0000    72.0000 </r>
       <r>   -29.3991     0.0000    72.0000 </r>
       <r>   -29.2291     0.0000    72.0000 </r>
       <r>   -29.0590     0.0000    72.0000 </r>
       <r>   -28.8889     0.0000    72.0000 </r>
       <r>   -28.7189     0.0000    72.0000 </r>
       <r>   -28.5488     0.0000    72.0000 </r>
       <r>   -28.3787     0.0000    72.0000 </r>
       <r>   -28.2087     0.0000    72.0000 </r>
       <r>   -28.0386     0.0000    72.0000 </r>
       <r>   -27.8685     0.0000    72.0000 </r>
       <r>   -27.6985     0.1707    72.0290 </r>
       <r>   -27.5284    11.1123    73.9188 </r>
       <r>   -27.3584    30.3093    79.0734 </r>
       <r>   -27.1883    34.5652    84.9517 </r>
       <r>   -27.0182    54.2999    94.1862 </r>
       <r>   -26.8482    33.9648    99.9624 </r>
       <r>   -26.6781    35.1029   105.9321 </r>
       <r>   -26.5080    12.0127   107.9751 </r>
       <r>   -26.3380     0.1466   108.0000 </r>
       <r>   -26.1679     0.1762   108.0300 </r>
       <r>   -25.9978    13.8683   110.3885 </r>
       <r>   -25.8278    51.8622   119.2084 </r>
       <r>   -25.6577    49.6459   127.6514 </r>
       <r>   -25.4876    71.2147   139.7625 </r>
       <r>   -25.3176    37.3313   146.1112 </r>
       <r>   -25.1475    22.1252   149.8739 </r>
       <r>   -24.9775     0.7412   150.0000 </r>
       <r>   -24.8074     0.0002   150.0000 </r>
       <r>   -24.6373     0.0000   150.0000 </r>
       <r>   -24.4673     0.0000   150.0000 </r>
       <r>   -24.2972     0.0000   150.0000 </r>
       <r>   -24.1271     0.0395   150.0067 </r>
       <r>   -23.9571     8.4345   151.4411 </r>
       <r>   -23.7870    63.7717   162.2864 </r>
       <r>   -23.6169   120.4573   182.7719 </r>
       <r>   -23.4469    47.4526   190.8419 </r>
       <r>   -23.2768     6.7407   191.9883 </r>
       <r>   -23.1067     0.0688   192.0000 </r>
       <r>   -22.9367     0.0000   192.0000 </r>
       <r>   -22.7666     0.0000   192.0000 </r>
       <r>   -22.5966     0.0000   192.0000 </r>
       <r>   -22.4265     0.0000   192.0000 </r>
       <r>   -22.2564     0.0000   192.0000 </r>
       <r>   -22.0864     0.0000   192.0000 </r>
       <r>   -21.9163     0.0000   192.0000 </r>
       <r>   -21.7462     0.0000   192.0000 </r>
       <r>   -21.5762     0.0000   192.0000 </r>
       <r>   -21.4061     0.0000   192.0000 </r>
       <r>   -21.2360     0.0000   192.0000 </r>
       <r>   -21.0660     0.0000   192.0000 </r>
       <r>   -20.8959     0.0000   192.0000 </r>
       <r>   -20.7258     0.0000   192.0000 </r>
       <r>   -20.5558     0.0000   192.0000 </r>
       <r>   -20.3857     0.0000   192.0000 </r>
       <r>   -20.2156     0.0000   192.0000 </r>
       <r>   -20.0456     0.0000   192.0000 </r>
       <r>   -19.8755     0.0000   192.0000 </r>
       <r>   -19.7055     0.0000   192.0000 </r>
       <r>   -19.5354     0.0000   192.0000 </r>
       <r>   -19.3653     0.0000   192.0000 </r>
       <r>   -19.1953     0.0000   192.0000 </r>
       <r>   -19.0252     0.0000   192.0000 </r>
       <r>   -18.8551     0.0000   192.0000 </r>
       <r>   -18.6851     0.0000   192.0000 </r>
       <r>   -18.5150     0.0000   192.0000 </r>
       <r>   -18.3449     0.0000   192.0000 </r>
       <r>   -18.1749     0.0000   192.0000 </r>
       <r>   -18.0048     0.0000   192.0000 </r>
       <r>   -17.8347     0.0000   192.0000 </r>
       <r>   -17.6647     0.0000   192.0000 </r>
       <r>   -17.4946     0.0000   192.0000 </r>
       <r>   -17.3246     0.0000   192.0000 </r>
       <r>   -17.1545     0.0000   192.0000 </r>
       <r>   -16.9844     0.0000   192.0000 </r>
       <r>   -16.8144     0.0000   192.0000 </r>
       <r>   -16.6443     0.0000   192.0000 </r>
       <r>   -16.4742     0.0000   192.0000 </r>
       <r>   -16.3042     0.0000   192.0000 </r>
       <r>   -16.1341     0.0000   192.0000 </r>
       <r>   -15.9640     0.0000   192.0000 </r>
       <r>   -15.7940     0.0000   192.0000 </r>
       <r>   -15.6239     0.0000   192.0000 </r>
       <r>   -15.4538     0.0000   192.0000 </r>
       <r>   -15.2838     0.0000   192.0000 </r>
       <r>   -15.1137     0.0000   192.0000 </r>
       <r>   -14.9436     0.0000   192.0000 </r>
       <r>   -14.7736     0.0000   192.0000 </r>
       <r>   -14.6035     0.0000   192.0000 </r>
       <r>   -14.4335     0.0000   192.0000 </r>
       <r>   -14.2634     0.0000   192.0000 </r>
       <r>   -14.0933     0.0000   192.0000 </r>
       <r>   -13.9233     0.0000   192.0000 </r>
       <r>   -13.7532     0.0000   192.0000 </r>
       <r>   -13.5831     0.0000   192.0000 </r>
       <r>   -13.4131     0.0000   192.0000 </r>
       <r>   -13.2430     0.0000   192.0000 </r>
       <r>   -13.0729     0.0000   192.0000 </r>
       <r>   -12.9029     0.0000   192.0000 </r>
       <r>   -12.7328     0.0000   192.0000 </r>
       <r>   -12.5627     0.0000   192.0000 </r>
       <r>   -12.3927     0.0000   192.0000 </r>
       <r>   -12.2226     0.0000   192.0000 </r>
       <r>   -12.0526     0.0000   192.0000 </r>
       <r>   -11.8825     0.0000   192.0000 </r>
       <r>   -11.7124     0.0000   192.0000 </r>
       <r>   -11.5424     0.0000   192.0000 </r>
       <r>   -11.3723     0.0000   192.0000 </r>
       <r>   -11.2022     0.0000   192.0000 </r>
       <r>   -11.0322     0.0000   192.0000 </r>
       <r>   -10.8621     0.0000   192.0000 </r>
       <r>   -10.6920     0.0000   192.0000 </r>
       <r>   -10.5220     0.0000   192.0000 </r>
       <r>   -10.3519     0.0000   192.0000 </r>
       <r>   -10.1818     0.0000   192.0000 </r>
       <r>   -10.0118     0.0000   192.0000 </r>
       <r>    -9.8417     0.0000   192.0000 </r>
       <r>    -9.6716     0.0000   192.0000 </r>
       <r>    -9.5016     0.0000   192.0000 </r>
       <r>    -9.3315     0.0000   192.0000 </r>
       <r>    -9.1615     0.0000   192.0000 </r>
       <r>    -8.9914     0.0000   192.0000 </r>
       <r>    -8.8213     0.0000   192.0000 </r>
       <r>    -8.6513     0.0000   192.0000 </r>
       <r>    -8.4812     0.0007   192.0001 </r>
       <r>    -8.3111     0.2213   192.0378 </r>
       <r>    -8.1411     3.2512   192.5907 </r>
       <r>    -7.9710     6.8810   193.7609 </r>
       <r>    -7.8009     3.7468   194.3981 </r>
       <r>    -7.6309    11.2586   196.3128 </r>
       <r>    -7.4608    14.2018   198.7280 </r>
       <r>    -7.2907    16.4785   201.5304 </r>
       <r>    -7.1207    18.3153   204.6452 </r>
       <r>    -6.9506    22.7506   208.5143 </r>
       <r>    -6.7806    19.3529   211.8055 </r>
       <r>    -6.6105    18.0721   214.8789 </r>
       <r>    -6.4404    15.0578   217.4397 </r>
       <r>    -6.2704     3.2788   217.9973 </r>
       <r>    -6.1003     0.0157   218.0000 </r>
       <r>    -5.9302     0.0000   218.0000 </r>
       <r>    -5.7602     0.0000   218.0000 </r>
       <r>    -5.5901     0.0000   218.0000 </r>
       <r>    -5.4200     0.0012   218.0002 </r>
       <r>    -5.2500     0.3278   218.0559 </r>
       <r>    -5.0799     3.6672   218.6796 </r>
       <r>    -4.9098     5.9836   219.6972 </r>
       <r>    -4.7398     2.0290   220.0423 </r>
       <r>    -4.5697     5.7339   221.0174 </r>
       <r>    -4.3997     9.2287   222.5869 </r>
       <r>    -4.2296     7.8543   223.9226 </r>
       <r>    -4.0595    12.1446   225.9880 </r>
       <r>    -3.8895    16.5221   228.7978 </r>
       <r>    -3.7194    18.9594   232.0221 </r>
       <r>    -3.5493    23.6601   236.0458 </r>
       <r>    -3.3793    18.9210   239.2636 </r>
       <r>    -3.2092    18.6300   242.4319 </r>
       <r>    -3.0391    23.7404   246.4693 </r>
       <r>    -2.8691    23.1389   250.4044 </r>
       <r>    -2.6990    11.0073   252.2764 </r>
       <r>    -2.5289    11.9464   254.3080 </r>
       <r>    -2.3589     6.8668   255.4758 </r>
       <r>    -2.1888     2.8790   255.9654 </r>
       <r>    -2.0187     0.2024   255.9999 </r>
       <r>    -1.8487     0.0008   256.0000 </r>
       <r>    -1.6786     0.0000   256.0000 </r>
       <r>    -1.5086     0.0000   256.0000 </r>
       <r>    -1.3385     0.0000   256.0000 </r>
       <r>    -1.1684     0.0000   256.0000 </r>
       <r>    -0.9984     0.0000   256.0000 </r>
       <r>    -0.8283     0.0000   256.0000 </r>
       <r>    -0.6582     0.0000   256.0000 </r>
       <r>    -0.4882     0.0000   256.0000 </r>
       <r>    -0.3181     0.0259   256.0044 </r>
       <r>    -0.1480     0.6406   256.1134 </r>
       <r>     0.0220     1.2732   256.3299 </r>
       <r>     0.1921     4.4082   257.0795 </r>
       <r>     0.3622    10.9494   258.9417 </r>
       <r>     0.5322     6.8324   260.1036 </r>
       <r>     0.7023    12.3130   262.1976 </r>
       <r>     0.8723    14.1454   264.6032 </r>
       <r>     1.0424    17.1681   267.5229 </r>
       <r>     1.2125    22.7708   271.3954 </r>
       <r>     1.3825    30.7207   276.6199 </r>
       <r>     1.5526    27.6641   281.3246 </r>
       <r>     1.7227    26.7561   285.8749 </r>
       <r>     1.8927    28.7362   290.7619 </r>
       <r>     2.0628    33.4885   296.4571 </r>
       <r>     2.2329    28.2303   301.2580 </r>
       <r>     2.4029    32.4640   306.7790 </r>
       <r>     2.5730    42.2477   313.9638 </r>
       <r>     2.7431    49.1269   322.3186 </r>
       <r>     2.9131    57.9808   332.1791 </r>
       <r>     3.0832    61.6329   342.6606 </r>
       <r>     3.2533    63.7022   353.4941 </r>
       <r>     3.4233    64.1489   364.4035 </r>
       <r>     3.5934    61.6129   374.8817 </r>
       <r>     3.7634    59.3903   384.9819 </r>
       <r>     3.9335    56.8934   394.6575 </r>
       <r>     4.1036    51.1524   403.3567 </r>
       <r>     4.2736    43.3923   410.7362 </r>
       <r>     4.4437    35.9266   416.8460 </r>
       <r>     4.6138    31.5510   422.2117 </r>
       <r>     4.7838    30.3197   427.3680 </r>
       <r>     4.9539    32.6035   432.9127 </r>
       <r>     5.1240    27.6631   437.6172 </r>
       <r>     5.2940    18.4738   440.7590 </r>
       <r>     5.4641    15.2884   443.3590 </r>
       <r>     5.6342    14.3552   445.8003 </r>
       <r>     5.8042     8.4439   447.2363 </r>
       <r>     5.9743     6.4773   448.3378 </r>
       <r>     6.1443    10.0604   450.0488 </r>
       <r>     6.3144    15.5394   452.6915 </r>
       <r>     6.4845    21.3347   456.3197 </r>
       <r>     6.6545    16.7325   459.1653 </r>
       <r>     6.8246    17.2644   462.1014 </r>
       <r>     6.9947    19.0860   465.3473 </r>
       <r>     7.1647    17.3654   468.3005 </r>
       <r>     7.3348    21.1483   471.8971 </r>
       <r>     7.5049    23.1541   475.8348 </r>
       <r>     7.6749    27.4417   480.5016 </r>
       <r>     7.8450    29.0229   485.4374 </r>
       <r>     8.0151    28.6821   490.3152 </r>
       <r>     8.1851    26.3297   494.7929 </r>
       <r>     8.3552    26.1831   499.2458 </r>
       <r>     8.5252    33.2617   504.9024 </r>
       <r>     8.6953    37.4638   511.2736 </r>
       <r>     8.8654    41.9909   518.4148 </r>
       <r>     9.0354    46.5019   526.3231 </r>
       <r>     9.2055    45.0024   533.9764 </r>
       <r>     9.3756    46.9720   541.9647 </r>
       <r>     9.5456    50.0678   550.4795 </r>
       <r>     9.7157    54.8054   559.7999 </r>
       <r>     9.8858    53.1314   568.8357 </r>
       <r>    10.0558    56.1385   578.3829 </r>
       <r>    10.2259    58.6603   588.3589 </r>
       <r>    10.3960    57.6481   598.1628 </r>
       <r>    10.5660    52.9143   607.1616 </r>
       <r>    10.7361    41.3029   614.1858 </r>
       <r>    10.9062    10.4015   615.9547 </r>
       <r>    11.0762     0.2662   616.0000 </r>
       <r>    11.2463     0.0001   616.0000 </r>
       <r>    11.4163     0.0000   616.0000 </r>
       <r>    11.5864     0.0000   616.0000 </r>
       <r>    11.7565     0.0000   616.0000 </r>
       <r>    11.9265     0.0000   616.0000 </r>
       <r>    12.0966     0.0000   616.0000 </r>
       <r>    12.2667     0.0000   616.0000 </r>
       <r>    12.4367     0.0000   616.0000 </r>
       <r>    12.6068     0.0000   616.0000 </r>
       <r>    12.7769     0.0000   616.0000 </r>
       <r>    12.9469     0.0000   616.0000 </r>
       <r>    13.1170     0.0000   616.0000 </r>
      </set>
     </set>
    </array>
   </total>
  </dos>
 </calculation>
 <structure name="finalpos" >
  <crystal>
   <varray name="basis" >
    <v>       8.71174660       0.01082058      -0.00592224 </v>
    <v>       0.01676771       8.73305156       0.01183645 </v>
    <v>       0.02533277      -0.00343403       8.73358870 </v>
   </varray>
   <i name="volume">    664.45266636 </i>
   <varray name="rec_basis" >
    <v>       0.11478759      -0.00021994      -0.00033304 </v>
    <v>      -0.00014220       0.11450772       0.00004544 </v>
    <v>       0.00007803      -0.00015534       0.11450018 </v>
   </varray>
  </crystal>
  <varray name="positions" >
   <v>       0.00982372       0.99192853       0.99533346 </v>
   <v>       0.25547985       0.99415163       0.25031728 </v>
   <v>       0.25438079       0.50503712       0.24792432 </v>
   <v>       0.50110168       0.49029995       0.99979897 </v>
   <v>       0.49779428       0.24165064       0.75351191 </v>
   <v>       0.00155388       0.49782568       0.50966636 </v>
   <v>       0.50163012       0.75887594       0.73747435 </v>
   <v>       0.00012764       0.24055143       0.24892119 </v>
   <v>       0.74846234       0.75113223       0.00183408 </v>
   <v>       0.00706751       0.24356755       0.75147091 </v>
   <v>       0.74993547       0.24806166       0.50517125 </v>
   <v>       0.00385444       0.75528057       0.75010091 </v>
   <v>       0.25250078       0.50138829       0.75103315 </v>
   <v>       0.25433281       0.24720062       0.99729790 </v>
   <v>       0.50003426       0.24399917       0.24842132 </v>
   <v>       0.73477212       0.99065110       0.25820331 </v>
   <v>       0.74574072       0.24416490       0.99528966 </v>
   <v>       0.25732988       0.75145814       0.00067523 </v>
   <v>       0.25284464       0.24863789       0.50361720 </v>
   <v>       0.25173719       0.75160431       0.49745162 </v>
   <v>       0.25167744       0.25029644       0.24995849 </v>
   <v>       0.26696849       0.00029145       0.99562437 </v>
   <v>       0.00098351       0.25234442       0.00226188 </v>
   <v>       0.74750926       0.24480940       0.25037473 </v>
   <v>       0.74734138       0.00007332       0.00393875 </v>
   <v>       0.50498833       0.00582861       0.24558968 </v>
   <v>       0.99334113       0.49488754       0.24893289 </v>
   <v>       0.50183391       0.75588463       0.99884367 </v>
   <v>       0.98782507       0.00120963       0.74110158 </v>
   <v>       0.75458692       0.23933050       0.75171436 </v>
   <v>       0.75310931       0.00335348       0.49466242 </v>
   <v>       0.50099633       0.24843135       0.49373131 </v>
   <v>       0.49873258       0.99935343       0.74680347 </v>
   <v>       0.99323230       0.00002962       0.24784237 </v>
   <v>       0.50111976       0.24520398       0.00419988 </v>
   <v>       0.26018093       0.75042832       0.24912030 </v>
   <v>       0.24274779       0.50006346       0.99869773 </v>
   <v>       0.00609855       0.74340880       0.00382824 </v>
   <v>       0.74600383       0.75022378       0.24920033 </v>
   <v>       0.76239343       0.49497168       0.00448243 </v>
   <v>       0.49791694       0.49756860       0.24919973 </v>
   <v>       0.25088718       0.24310896       0.75186049 </v>
   <v>       0.25488159       0.00019205       0.51410593 </v>
   <v>       0.00392579       0.24821636       0.49974489 </v>
   <v>       0.25032912       0.75828038       0.75073858 </v>
   <v>       0.25370091       0.49983586       0.50077041 </v>
   <v>       0.00125686       0.75459654       0.49777303 </v>
   <v>       0.99876841       0.50048307       0.75537429 </v>
   <v>       0.75261828       0.76114970       0.74477429 </v>
   <v>       0.74749206       0.49545787       0.50196502 </v>
   <v>       0.49915673       0.76601186       0.48674775 </v>
   <v>       0.50303006       0.49924718       0.74395959 </v>
   <v>       0.51376547       0.02138407       0.98362815 </v>
   <v>       0.00001717       0.52139669       0.97426988 </v>
   <v>       0.50028096       0.72830920       0.26980190 </v>
   <v>       0.22292787       0.00043836       0.77100480 </v>
   <v>       0.47140279       0.99712089       0.50053234 </v>
   <v>       0.72085349       0.98604534       0.78206732 </v>
   <v>       0.00543491       0.76644324       0.25145605 </v>
   <v>       0.73438185       0.50944683       0.24567976 </v>
   <v>       0.02017045       0.00466244       0.49195929 </v>
   <v>       0.49808220       0.51358095       0.49169509 </v>
   <v>       0.74711608       0.51202428       0.76079073 </v>
   <v>       0.74942882       0.73710782       0.49567755 </v>
  </varray>
 </structure>
</modeling>
