  64  64   0   0
  0.1106548E+02  0.8913453E-09  0.8956439E-09  0.8870960E-09  0.5000000E-15
  1.000000000000000E-004
  CAR 
 HECN                                    
     14.98203186    -51.93692884  301      8.84756169      1.00000000
    -51.937  0.0000E+00  0.0000E+00
    -51.714  0.0000E+00  0.0000E+00
    -51.491  0.0000E+00  0.0000E+00
    -51.268  0.0000E+00  0.0000E+00
    -51.045  0.0000E+00  0.0000E+00
    -50.822  0.0000E+00  0.0000E+00
    -50.599  0.0000E+00  0.0000E+00
    -50.375  0.0000E+00  0.0000E+00
    -50.152  0.0000E+00  0.0000E+00
    -49.929  0.0000E+00  0.0000E+00
    -49.706  0.0000E+00  0.0000E+00
    -49.483  0.4977E-17  0.1110E-17
    -49.260  0.1087E-07  0.2424E-08
    -49.037  0.2003E-02  0.4468E-03
    -48.814  0.1088E+00  0.2471E-01
    -48.591  0.3033E+00  0.9236E-01
    -48.368  0.1932E+00  0.1355E+00
    -48.145  0.2036E-01  0.1400E+00
    -47.922  0.4047E-05  0.1400E+00
    -47.699  0.1674E-12  0.1400E+00
    -47.476  0.4933E-05  0.1400E+00
    -47.253  0.2311E-01  0.1452E+00
    -47.030  0.2050E+00  0.1909E+00
    -46.806  0.1990E+00  0.2353E+00
    -46.583  0.1106E+00  0.2599E+00
    -46.360  0.2957E-03  0.2600E+00
    -46.137  0.1172E-09  0.2600E+00
    -45.914  0.0000E+00  0.2600E+00
    -45.691  0.0000E+00  0.2600E+00
    -45.468  0.0000E+00  0.2600E+00
    -45.245  0.0000E+00  0.2600E+00
    -45.022  0.0000E+00  0.2600E+00
    -44.799  0.0000E+00  0.2600E+00
    -44.576  0.0000E+00  0.2600E+00
    -44.353  0.0000E+00  0.2600E+00
    -44.130  0.0000E+00  0.2600E+00
    -43.907  0.0000E+00  0.2600E+00
    -43.684  0.0000E+00  0.2600E+00
    -43.461  0.0000E+00  0.2600E+00
    -43.237  0.0000E+00  0.2600E+00
    -43.014  0.0000E+00  0.2600E+00
    -42.791  0.0000E+00  0.2600E+00
    -42.568  0.0000E+00  0.2600E+00
    -42.345  0.0000E+00  0.2600E+00
    -42.122  0.0000E+00  0.2600E+00
    -41.899  0.0000E+00  0.2600E+00
    -41.676  0.0000E+00  0.2600E+00
    -41.453  0.0000E+00  0.2600E+00
    -41.230  0.0000E+00  0.2600E+00
    -41.007  0.4130E-14  0.2600E+00
    -40.784  0.7758E-06  0.2600E+00
    -40.561  0.1147E-01  0.2626E+00
    -40.338  0.1280E+00  0.2911E+00
    -40.115  0.1342E+00  0.3211E+00
    -39.892  0.2198E+00  0.3701E+00
    -39.668  0.4696E-01  0.3806E+00
    -39.445  0.7774E-01  0.3979E+00
    -39.222  0.9375E-02  0.4000E+00
    -38.999  0.4622E-06  0.4000E+00
    -38.776  0.1732E-14  0.4000E+00
    -38.553  0.0000E+00  0.4000E+00
    -38.330  0.0000E+00  0.4000E+00
    -38.107  0.0000E+00  0.4000E+00
    -37.884  0.0000E+00  0.4000E+00
    -37.661  0.0000E+00  0.4000E+00
    -37.438  0.0000E+00  0.4000E+00
    -37.215  0.0000E+00  0.4000E+00
    -36.992  0.0000E+00  0.4000E+00
    -36.769  0.0000E+00  0.4000E+00
    -36.546  0.0000E+00  0.4000E+00
    -36.323  0.0000E+00  0.4000E+00
    -36.099  0.0000E+00  0.4000E+00
    -35.876  0.0000E+00  0.4000E+00
    -35.653  0.0000E+00  0.4000E+00
    -35.430  0.0000E+00  0.4000E+00
    -35.207  0.0000E+00  0.4000E+00
    -34.984  0.0000E+00  0.4000E+00
    -34.761  0.0000E+00  0.4000E+00
    -34.538  0.0000E+00  0.4000E+00
    -34.315  0.0000E+00  0.4000E+00
    -34.092  0.0000E+00  0.4000E+00
    -33.869  0.0000E+00  0.4000E+00
    -33.646  0.0000E+00  0.4000E+00
    -33.423  0.0000E+00  0.4000E+00
    -33.200  0.0000E+00  0.4000E+00
    -32.977  0.0000E+00  0.4000E+00
    -32.753  0.0000E+00  0.4000E+00
    -32.530  0.0000E+00  0.4000E+00
    -32.307  0.0000E+00  0.4000E+00
    -32.084  0.0000E+00  0.4000E+00
    -31.861  0.0000E+00  0.4000E+00
    -31.638  0.0000E+00  0.4000E+00
    -31.415  0.0000E+00  0.4000E+00
    -31.192  0.0000E+00  0.4000E+00
    -30.969  0.0000E+00  0.4000E+00
    -30.746  0.0000E+00  0.4000E+00
    -30.523  0.0000E+00  0.4000E+00
    -30.300  0.0000E+00  0.4000E+00
    -30.077  0.0000E+00  0.4000E+00
    -29.854  0.0000E+00  0.4000E+00
    -29.631  0.0000E+00  0.4000E+00
    -29.408  0.0000E+00  0.4000E+00
    -29.184  0.0000E+00  0.4000E+00
    -28.961  0.0000E+00  0.4000E+00
    -28.738  0.0000E+00  0.4000E+00
    -28.515  0.0000E+00  0.4000E+00
    -28.292  0.0000E+00  0.4000E+00
    -28.069  0.0000E+00  0.4000E+00
    -27.846  0.0000E+00  0.4000E+00
    -27.623  0.0000E+00  0.4000E+00
    -27.400  0.3699E-09  0.4000E+00
    -27.177  0.4093E-03  0.4001E+00
    -26.954  0.9393E-01  0.4210E+00
    -26.731  0.3670E+00  0.5029E+00
    -26.508  0.3145E+00  0.5731E+00
    -26.285  0.4293E+00  0.6688E+00
    -26.062  0.3329E+00  0.7431E+00
    -25.839  0.7570E-01  0.7600E+00
    -25.615  0.9556E-04  0.7600E+00
    -25.392  0.1878E-01  0.7642E+00
    -25.169  0.3905E+00  0.8513E+00
    -24.946  0.8943E+00  0.1051E+01
    -24.723  0.5287E+00  0.1169E+01
    -24.500  0.5063E-01  0.1180E+01
    -24.277  0.1161E-04  0.1180E+01
    -24.054  0.3437E-12  0.1180E+01
    -23.831  0.6836E-07  0.1180E+01
    -23.608  0.4534E-02  0.1181E+01
    -23.385  0.1964E+00  0.1225E+01
    -23.162  0.4426E+00  0.1324E+01
    -22.939  0.6904E+00  0.1478E+01
    -22.716  0.2795E+00  0.1540E+01
    -22.493  0.4907E-03  0.1540E+01
    -22.270  0.1876E-09  0.1540E+01
    -22.046  0.0000E+00  0.1540E+01
    -21.823  0.0000E+00  0.1540E+01
    -21.600  0.0000E+00  0.1540E+01
    -21.377  0.0000E+00  0.1540E+01
    -21.154  0.0000E+00  0.1540E+01
    -20.931  0.0000E+00  0.1540E+01
    -20.708  0.0000E+00  0.1540E+01
    -20.485  0.0000E+00  0.1540E+01
    -20.262  0.0000E+00  0.1540E+01
    -20.039  0.0000E+00  0.1540E+01
    -19.816  0.0000E+00  0.1540E+01
    -19.593  0.0000E+00  0.1540E+01
    -19.370  0.3678E-10  0.1540E+01
    -19.147  0.1499E-03  0.1540E+01
    -18.924  0.9008E-01  0.1560E+01
    -18.701  0.3011E+00  0.1627E+01
    -18.477  0.3586E+00  0.1707E+01
    -18.254  0.5637E+00  0.1833E+01
    -18.031  0.2964E+00  0.1899E+01
    -17.808  0.1631E+00  0.1935E+01
    -17.585  0.1095E+00  0.1960E+01
    -17.362  0.3046E-03  0.1960E+01
    -17.139  0.1313E-09  0.1960E+01
    -16.916  0.0000E+00  0.1960E+01
    -16.693  0.0000E+00  0.1960E+01
    -16.470  0.0000E+00  0.1960E+01
    -16.247  0.0000E+00  0.1960E+01
    -16.024  0.0000E+00  0.1960E+01
    -15.801  0.0000E+00  0.1960E+01
    -15.578  0.0000E+00  0.1960E+01
    -15.355  0.0000E+00  0.1960E+01
    -15.132  0.0000E+00  0.1960E+01
    -14.908  0.0000E+00  0.1960E+01
    -14.685  0.0000E+00  0.1960E+01
    -14.462  0.0000E+00  0.1960E+01
    -14.239  0.0000E+00  0.1960E+01
    -14.016  0.0000E+00  0.1960E+01
    -13.793  0.0000E+00  0.1960E+01
    -13.570  0.0000E+00  0.1960E+01
    -13.347  0.0000E+00  0.1960E+01
    -13.124  0.0000E+00  0.1960E+01
    -12.901  0.0000E+00  0.1960E+01
    -12.678  0.0000E+00  0.1960E+01
    -12.455  0.0000E+00  0.1960E+01
    -12.232  0.0000E+00  0.1960E+01
    -12.009  0.0000E+00  0.1960E+01
    -11.786  0.0000E+00  0.1960E+01
    -11.562  0.0000E+00  0.1960E+01
    -11.339  0.0000E+00  0.1960E+01
    -11.116  0.0000E+00  0.1960E+01
    -10.893  0.0000E+00  0.1960E+01
    -10.670  0.0000E+00  0.1960E+01
    -10.447  0.0000E+00  0.1960E+01
    -10.224  0.0000E+00  0.1960E+01
    -10.001  0.0000E+00  0.1960E+01
     -9.778  0.0000E+00  0.1960E+01
     -9.555  0.0000E+00  0.1960E+01
     -9.332  0.0000E+00  0.1960E+01
     -9.109  0.0000E+00  0.1960E+01
     -8.886  0.0000E+00  0.1960E+01
     -8.663  0.0000E+00  0.1960E+01
     -8.440  0.0000E+00  0.1960E+01
     -8.217  0.0000E+00  0.1960E+01
     -7.993  0.2235E-11  0.1960E+01
     -7.770  0.9916E-05  0.1960E+01
     -7.547  0.1100E-01  0.1962E+01
     -7.324  0.7028E-01  0.1978E+01
     -7.101  0.8544E-02  0.1980E+01
     -6.878  0.3540E-01  0.1988E+01
     -6.655  0.9818E-01  0.2010E+01
     -6.432  0.1671E+00  0.2047E+01
     -6.209  0.2455E+00  0.2102E+01
     -5.986  0.3325E+00  0.2176E+01
     -5.763  0.1093E+00  0.2200E+01
     -5.540  0.4523E-01  0.2211E+01
     -5.317  0.3995E-01  0.2219E+01
     -5.094  0.2517E-02  0.2220E+01
     -4.871  0.4490E-06  0.2220E+01
     -4.648  0.7752E-14  0.2220E+01
     -4.424  0.1353E-15  0.2220E+01
     -4.201  0.3553E-07  0.2220E+01
     -3.978  0.8494E-03  0.2220E+01
     -3.755  0.3607E-01  0.2228E+01
     -3.532  0.5425E-01  0.2240E+01
     -3.309  0.9041E-01  0.2261E+01
     -3.086  0.1443E+00  0.2293E+01
     -2.863  0.1582E+00  0.2328E+01
     -2.640  0.1790E+00  0.2368E+01
     -2.417  0.2423E+00  0.2422E+01
     -2.194  0.2789E+00  0.2484E+01
     -1.971  0.2143E+00  0.2532E+01
     -1.748  0.1435E+00  0.2564E+01
     -1.525  0.1092E+00  0.2588E+01
     -1.302  0.4634E-01  0.2599E+01
     -1.079  0.5936E-02  0.2600E+01
     -0.855  0.7276E-04  0.2600E+01
     -0.632  0.3809E-09  0.2600E+01
     -0.409  0.0000E+00  0.2600E+01
     -0.186  0.0000E+00  0.2600E+01
      0.037  0.0000E+00  0.2600E+01
      0.260  0.5014E-15  0.2600E+01
      0.483  0.5820E-07  0.2600E+01
      0.706  0.6006E-03  0.2600E+01
      0.929  0.7856E-02  0.2602E+01
      1.152  0.3803E-01  0.2610E+01
      1.375  0.8906E-01  0.2630E+01
      1.598  0.1072E+00  0.2654E+01
      1.821  0.1157E+00  0.2680E+01
      2.044  0.1630E+00  0.2716E+01
      2.267  0.2551E+00  0.2773E+01
      2.490  0.3244E+00  0.2846E+01
      2.714  0.2501E+00  0.2901E+01
      2.937  0.3050E+00  0.2969E+01
      3.160  0.3799E+00  0.3054E+01
      3.383  0.3858E+00  0.3140E+01
      3.606  0.4638E+00  0.3244E+01
      3.829  0.5724E+00  0.3371E+01
      4.052  0.6416E+00  0.3514E+01
      4.275  0.6785E+00  0.3666E+01
      4.498  0.6749E+00  0.3816E+01
      4.721  0.6682E+00  0.3965E+01
      4.944  0.5539E+00  0.4089E+01
      5.167  0.4552E+00  0.4190E+01
      5.390  0.3822E+00  0.4276E+01
      5.613  0.3012E+00  0.4343E+01
      5.836  0.2254E+00  0.4393E+01
      6.060  0.1994E+00  0.4438E+01
      6.283  0.1972E+00  0.4482E+01
      6.506  0.1323E+00  0.4511E+01
      6.729  0.5071E-01  0.4522E+01
      6.952  0.1151E+00  0.4548E+01
      7.175  0.1834E+00  0.4589E+01
      7.398  0.1639E+00  0.4626E+01
      7.621  0.1559E+00  0.4660E+01
      7.844  0.1677E+00  0.4698E+01
      8.067  0.1782E+00  0.4738E+01
      8.290  0.1627E+00  0.4774E+01
      8.513  0.2102E+00  0.4821E+01
      8.736  0.2031E+00  0.4866E+01
      8.959  0.2167E+00  0.4914E+01
      9.182  0.2337E+00  0.4967E+01
      9.405  0.2849E+00  0.5030E+01
      9.629  0.3575E+00  0.5110E+01
      9.852  0.3994E+00  0.5199E+01
     10.075  0.4341E+00  0.5296E+01
     10.298  0.4802E+00  0.5403E+01
     10.521  0.5336E+00  0.5522E+01
     10.744  0.5110E+00  0.5636E+01
     10.967  0.5958E+00  0.5769E+01
     11.190  0.5467E+00  0.5891E+01
     11.413  0.4856E+00  0.5999E+01
     11.636  0.4379E+00  0.6097E+01
     11.859  0.2357E+00  0.6149E+01
     12.082  0.4750E-01  0.6160E+01
     12.305  0.4030E-03  0.6160E+01
     12.528  0.1373E-08  0.6160E+01
     12.751  0.0000E+00  0.6160E+01
     12.974  0.0000E+00  0.6160E+01
     13.198  0.0000E+00  0.6160E+01
     13.421  0.0000E+00  0.6160E+01
     13.644  0.0000E+00  0.6160E+01
     13.867  0.0000E+00  0.6160E+01
     14.090  0.0000E+00  0.6160E+01
     14.313  0.0000E+00  0.6160E+01
     14.536  0.0000E+00  0.6160E+01
     14.759  0.0000E+00  0.6160E+01
     14.982  0.0000E+00  0.6160E+01
