 vasp.6.4.3 19Mar24 (build Sep 18 2024 11:30:23) complex                        
  
 executed on             LinuxIFC date 2026.07.03  22:25:42
 running   28 mpi-ranks, on    1 nodes
 distrk:  each k-point on   28 cores,    1 groups
 distr:  one band on NCORE=   1 cores,   28 groups


--------------------------------------------------------------------------------------------------------


 INCAR:
   SYSTEM = HECN
   ISTART = 0
   ICHARG = 2
   PREC = Normal
   LREAL = .F.
   IBRION = 2
   ISIF = 3
   NSW = 100
   POTIM = 0.5
   EDIFFG = -0.01
   ENCUT = 400
   NELM = 60
   EDIFF = 1E-5
   LCHARG = .F.
   LWAVE = .F.
   ISMEAR = 0
   SIGMA = 0.1
   ALGO = Fast

 POTCAR:   PAW_PBE Ti_sv 07Sep2000                
 POTCAR:   PAW_PBE Ta_pv 07Sep2000                
 POTCAR:   PAW_PBE Nb_sv 17Jan2003                
 POTCAR:   PAW_PBE N 08Apr2002                    
 POTCAR:   PAW_PBE C 08Apr2002                    
 POTCAR:   PAW_PBE Zr_sv 07Sep2000                
 POTCAR:   PAW_PBE Mo 08Apr2002                   
 -----------------------------------------------------------------------------
|                                                                             |
|           W    W    AA    RRRRR   N    N  II  N    N   GGGG   !!!           |
|           W    W   A  A   R    R  NN   N  II  NN   N  G    G  !!!           |
|           W    W  A    A  R    R  N N  N  II  N N  N  G       !!!           |
|           W WW W  AAAAAA  RRRRR   N  N N  II  N  N N  G  GGG   !            |
|           WW  WW  A    A  R   R   N   NN  II  N   NN  G    G                |
|           W    W  A    A  R    R  N    N  II  N    N   GGGG   !!!           |
|                                                                             |
|     For optimal performance we recommend to set                             |
|       NCORE = 2 up to number-of-cores-per-socket                            |
|     NCORE specifies how many cores store one orbital (NPAR=cpu/NCORE).      |
|     This setting can greatly improve the performance of VASP for DFT.       |
|     The default, NCORE=1 might be grossly inefficient on modern             |
|     multi-core architectures or massively parallel machines. Do your        |
|     own testing! More info at https://www.vasp.at/wiki/index.php/NCORE      |
|     Unfortunately you need to use the default for GW and RPA                |
|     calculations (for HF NCORE is supported but not extensively tested      |
|     yet).                                                                   |
|                                                                             |
 -----------------------------------------------------------------------------

 POTCAR:   PAW_PBE Ti_sv 07Sep2000                
   VRHFIN =Ti: 3p4s3d                                                                               
   LEXCH  = PE                                                                                      
   EATOM  =  1587.5048 eV,  116.6783 Ry                                                             
                                                                                                    
   TITEL  = PAW_PBE Ti_sv 07Sep2000                                                                 
   LULTRA =        F    use ultrasoft PP ?                                                          
   IUNSCR =        1    unscreen: 0-lin 1-nonlin 2-no                                               
   RPACOR =    2.000    partial core radius                                                         
   POMASS =   47.880; ZVAL   =   12.000    mass and valenz                                          
   RCORE  =    2.300    outmost cutoff radius                                                       
   RWIGS  =    2.300; RWIGS  =    1.217    wigner-seitz radius (au A)                               
   ENMAX  =  274.574; ENMIN  =  205.930 eV                                                          
   RCLOC  =    1.701    cutoff for local pot                                                        
   LCOR   =        T    correct aug charges                                                         
   LPAW   =        T    paw PP                                                                      
   EAUG   =  482.848                                                                                
   DEXC   =     .000                                                                                
   RMAX   =    2.783    core radius for proj-oper                                                   
   RAUG   =    1.300    factor for augmentation sphere                                              
   RDEP   =    2.381    radius for radial grids                                                     
   QCUT   =   -4.492; QGAM   =    8.985    optimization parameters                                  
                                                                                                    
   Description                                                                                      
     l     E      TYP  RCUT    TYP  RCUT                                                            
     0   .000     23  1.800                                                                         
     0   .000     23  2.300                                                                         
     0   .000     23  1.800                                                                         
     0   .000     23  2.300                                                                         
     1   .000     23  2.300                                                                         
     1  -.100     23  2.300                                                                         
     2   .000     23  2.300                                                                         
     2   .000     23  2.300                                                                         
     3   .000      7   .000                                                                         
  local pseudopotential read in
  partial core-charges read in
  atomic valenz-charges read in
  non local Contribution for L=           0  read in
    real space projection operators read in
  non local Contribution for L=           0  read in
    real space projection operators read in
  non local Contribution for L=           1  read in
    real space projection operators read in
  non local Contribution for L=           1  read in
    real space projection operators read in
  non local Contribution for L=           2  read in
    real space projection operators read in
  non local Contribution for L=           2  read in
    real space projection operators read in
    PAW grid and wavefunctions read in
 
   number of l-projection  operators is LMAX  =           6
   number of lm-projection operators is LMMAX =          18
 
 POTCAR:   PAW_PBE Ta_pv 07Sep2000                
   VRHFIN =Ta:  5p6s5d                                                                              
   LEXCH  = PE                                                                                      
   EATOM  =  1045.8051 eV,   76.8645 Ry                                                             
                                                                                                    
   TITEL  = PAW_PBE Ta_pv 07Sep2000                                                                 
   LULTRA =        F    use ultrasoft PP ?                                                          
   IUNSCR =        1    unscreen: 0-lin 1-nonlin 2-no                                               
   RPACOR =    2.330    partial core radius                                                         
   POMASS =  180.948; ZVAL   =   11.000    mass and valenz                                          
   RCORE  =    2.500    outmost cutoff radius                                                       
   RWIGS  =    2.840; RWIGS  =    1.503    wigner-seitz radius (au A)                               
   ENMAX  =  223.675; ENMIN  =  167.756 eV                                                          
   RCLOC  =    2.205    cutoff for local pot                                                        
   LCOR   =        T    correct aug charges                                                         
   LPAW   =        T    paw PP                                                                      
   EAUG   =  377.421                                                                                
   DEXC   =    -.043                                                                                
   RMAX   =    3.083    core radius for proj-oper                                                   
   RAUG   =    1.300    factor for augmentation sphere                                              
   RDEP   =    2.526    radius for radial grids                                                     
   QCUT   =   -4.055; QGAM   =    8.109    optimization parameters                                  
                                                                                                    
   Description                                                                                      
     l     E      TYP  RCUT    TYP  RCUT                                                            
     1   .000     23  2.500                                                                         
     1   .100     23  2.500                                                                         
     2   .000     23  2.500                                                                         
     2   .000     23  2.500                                                                         
     0   .000     23  2.500                                                                         
     0   .000     23  2.500                                                                         
     3   .000      7   .000                                                                         
  local pseudopotential read in
  partial core-charges read in
  atomic valenz-charges read in
  non local Contribution for L=           1  read in
    real space projection operators read in
  non local Contribution for L=           1  read in
    real space projection operators read in
  non local Contribution for L=           2  read in
    real space projection operators read in
  non local Contribution for L=           2  read in
    real space projection operators read in
  non local Contribution for L=           0  read in
    real space projection operators read in
  non local Contribution for L=           0  read in
    real space projection operators read in
    PAW grid and wavefunctions read in
 
   number of l-projection  operators is LMAX  =           6
   number of lm-projection operators is LMMAX =          18
 
 POTCAR:   PAW_PBE Nb_sv 17Jan2003                
   VRHFIN =Nb: 4p5s4d                                                                               
   LEXCH  = PE                                                                                      
   EATOM  =  1555.1913 eV,  114.3033 Ry                                                             
                                                                                                    
   TITEL  = PAW_PBE Nb_sv 17Jan2003                                                                 
   LULTRA =        F    use ultrasoft PP ?                                                          
   IUNSCR =        1    unscreen: 0-lin 1-nonlin 2-no                                               
   RPACOR =    1.800    partial core radius                                                         
   POMASS =   92.910; ZVAL   =   13.000    mass and valenz                                          
   RCORE  =    2.200    outmost cutoff radius                                                       
   RWIGS  =    2.400; RWIGS  =    1.270    wigner-seitz radius (au A)                               
   ENMAX  =  293.235; ENMIN  =  219.927 eV                                                          
   RCLOC  =    1.411    cutoff for local pot                                                        
   LCOR   =        T    correct aug charges                                                         
   LPAW   =        T    paw PP                                                                      
   EAUG   =  455.659                                                                                
   DEXC   =     .000                                                                                
   RMAX   =    2.693    core radius for proj-oper                                                   
   RAUG   =    1.300    factor for augmentation sphere                                              
   RDEP   =    2.299    radius for radial grids                                                     
   QCUT   =   -4.642; QGAM   =    9.285    optimization parameters                                  
                                                                                                    
   Description                                                                                      
     l     E      TYP  RCUT    TYP  RCUT                                                            
     0   .000     23  2.200                                                                         
     0   .000     23  2.200                                                                         
     0   .000     23  2.200                                                                         
     0   .000     23  2.200                                                                         
     1   .000     23  2.200                                                                         
     1  1.000     23  2.200                                                                         
     2   .000     23  2.200                                                                         
     2   .000     23  2.200                                                                         
     3   .000      7   .000                                                                         
  local pseudopotential read in
  partial core-charges read in
  atomic valenz-charges read in
  non local Contribution for L=           0  read in
    real space projection operators read in
  non local Contribution for L=           0  read in
    real space projection operators read in
  non local Contribution for L=           1  read in
    real space projection operators read in
  non local Contribution for L=           1  read in
    real space projection operators read in
  non local Contribution for L=           2  read in
    real space projection operators read in
  non local Contribution for L=           2  read in
    real space projection operators read in
    PAW grid and wavefunctions read in
 
   number of l-projection  operators is LMAX  =           6
   number of lm-projection operators is LMMAX =          18
 
 POTCAR:   PAW_PBE N 08Apr2002                    
   VRHFIN =N: s2p3                                                                                  
   LEXCH  = PE                                                                                      
   EATOM  =   264.5486 eV,   19.4438 Ry                                                             
                                                                                                    
   TITEL  = PAW_PBE N 08Apr2002                                                                     
   LULTRA =        F    use ultrasoft PP ?                                                          
   IUNSCR =        0    unscreen: 0-lin 1-nonlin 2-no                                               
   RPACOR =     .000    partial core radius                                                         
   POMASS =   14.001; ZVAL   =    5.000    mass and valenz                                          
   RCORE  =    1.500    outmost cutoff radius                                                       
   RWIGS  =    1.400; RWIGS  =     .741    wigner-seitz radius (au A)                               
   ENMAX  =  400.000; ENMIN  =  300.000 eV                                                          
   ICORE  =        2    local potential                                                             
   LCOR   =        T    correct aug charges                                                         
   LPAW   =        T    paw PP                                                                      
   EAUG   =  627.112                                                                                
   DEXC   =     .000                                                                                
   RMAX   =    2.247    core radius for proj-oper                                                   
   RAUG   =    1.300    factor for augmentation sphere                                              
   RDEP   =    1.514    radius for radial grids                                                     
   QCUT   =   -5.562; QGAM   =   11.124    optimization parameters                                  
                                                                                                    
   Description                                                                                      
     l     E      TYP  RCUT    TYP  RCUT                                                            
     0   .000     23  1.200                                                                         
     0   .000     23  1.200                                                                         
     1   .000     23  1.500                                                                         
     1   .700     23  1.500                                                                         
     2   .000      7  1.500                                                                         
  local pseudopotential read in
  atomic valenz-charges read in
  non local Contribution for L=           0  read in
    real space projection operators read in
  non local Contribution for L=           0  read in
    real space projection operators read in
  non local Contribution for L=           1  read in
    real space projection operators read in
  non local Contribution for L=           1  read in
    real space projection operators read in
    PAW grid and wavefunctions read in
 
   number of l-projection  operators is LMAX  =           4
   number of lm-projection operators is LMMAX =           8
 
 POTCAR:   PAW_PBE C 08Apr2002                    
   VRHFIN =C: s2p2                                                                                  
   LEXCH  = PE                                                                                      
   EATOM  =   147.1560 eV,   10.8157 Ry                                                             
                                                                                                    
   TITEL  = PAW_PBE C 08Apr2002                                                                     
   LULTRA =        F    use ultrasoft PP ?                                                          
   IUNSCR =        0    unscreen: 0-lin 1-nonlin 2-no                                               
   RPACOR =     .000    partial core radius                                                         
   POMASS =   12.011; ZVAL   =    4.000    mass and valenz                                          
   RCORE  =    1.500    outmost cutoff radius                                                       
   RWIGS  =    1.630; RWIGS  =     .863    wigner-seitz radius (au A)                               
   ENMAX  =  400.000; ENMIN  =  300.000 eV                                                          
   ICORE  =        2    local potential                                                             
   LCOR   =        T    correct aug charges                                                         
   LPAW   =        T    paw PP                                                                      
   EAUG   =  644.873                                                                                
   DEXC   =     .000                                                                                
   RMAX   =    2.266    core radius for proj-oper                                                   
   RAUG   =    1.300    factor for augmentation sphere                                              
   RDEP   =    1.501    radius for radial grids                                                     
   RDEPT  =    1.300    core radius for aug-charge                                                  
   QCUT   =   -5.516; QGAM   =   11.032    optimization parameters                                  
                                                                                                    
   Description                                                                                      
     l     E      TYP  RCUT    TYP  RCUT                                                            
     0   .000     23  1.200                                                                         
     0   .000     23  1.200                                                                         
     1   .000     23  1.500                                                                         
     1  2.500     23  1.500                                                                         
     2   .000      7  1.500                                                                         
  local pseudopotential read in
  atomic valenz-charges read in
  non local Contribution for L=           0  read in
    real space projection operators read in
  non local Contribution for L=           0  read in
    real space projection operators read in
  non local Contribution for L=           1  read in
    real space projection operators read in
  non local Contribution for L=           1  read in
    real space projection operators read in
    PAW grid and wavefunctions read in
 
   number of l-projection  operators is LMAX  =           4
   number of lm-projection operators is LMMAX =           8
 
 POTCAR:   PAW_PBE Zr_sv 07Sep2000                
   VRHFIN =Zr: 4s4p5s4d                                                                             
   LEXCH  = PE                                                                                      
   EATOM  =  1283.3934 eV,   94.3268 Ry                                                             
                                                                                                    
   TITEL  = PAW_PBE Zr_sv 07Sep2000                                                                 
   LULTRA =        F    use ultrasoft PP ?                                                          
   IUNSCR =        1    unscreen: 0-lin 1-nonlin 2-no                                               
   RPACOR =    2.200    partial core radius                                                         
   POMASS =   91.224; ZVAL   =   12.000    mass and valenz                                          
   RCORE  =    2.500    outmost cutoff radius                                                       
   RWIGS  =    3.070; RWIGS  =    1.625    wigner-seitz radius (au A)                               
   ENMAX  =  229.839; ENMIN  =  172.379 eV                                                          
   RCLOC  =    2.213    cutoff for local pot                                                        
   LCOR   =        T    correct aug charges                                                         
   LPAW   =        T    paw PP                                                                      
   EAUG   =  357.078                                                                                
   DEXC   =     .000                                                                                
   RMAX   =    3.041    core radius for proj-oper                                                   
   RAUG   =    1.300    factor for augmentation sphere                                              
   RDEP   =    2.597    radius for radial grids                                                     
   QCUT   =   -4.110; QGAM   =    8.220    optimization parameters                                  
                                                                                                    
   Description                                                                                      
     l     E      TYP  RCUT    TYP  RCUT                                                            
     0   .000     23  2.500                                                                         
     0   .000     23  2.500                                                                         
     1   .000     23  2.500                                                                         
     1   .000     23  2.500                                                                         
     2   .000     23  2.500                                                                         
     2   .000     23  2.500                                                                         
     3   .000      7   .000                                                                         
  local pseudopotential read in
  partial core-charges read in
  atomic valenz-charges read in
  non local Contribution for L=           0  read in
    real space projection operators read in
  non local Contribution for L=           0  read in
    real space projection operators read in
  non local Contribution for L=           1  read in
    real space projection operators read in
  non local Contribution for L=           1  read in
    real space projection operators read in
  non local Contribution for L=           2  read in
    real space projection operators read in
  non local Contribution for L=           2  read in
    real space projection operators read in
    PAW grid and wavefunctions read in
 
   number of l-projection  operators is LMAX  =           6
   number of lm-projection operators is LMMAX =          18
 
 POTCAR:   PAW_PBE Mo 08Apr2002                   
   VRHFIN =Mo: 4p5s4d                                                                               
   LEXCH  = PE                                                                                      
   EATOM  =   217.5180 eV,   15.9871 Ry                                                             
                                                                                                    
   TITEL  = PAW_PBE Mo 08Apr2002                                                                    
   LULTRA =        F    use ultrasoft PP ?                                                          
   IUNSCR =        1    unscreen: 0-lin 1-nonlin 2-no                                               
   RPACOR =    2.200    partial core radius                                                         
   POMASS =   95.940; ZVAL   =    6.000    mass and valenz                                          
   RCORE  =    2.750    outmost cutoff radius                                                       
   RWIGS  =    2.750; RWIGS  =    1.455    wigner-seitz radius (au A)                               
   ENMAX  =  224.584; ENMIN  =  168.438 eV                                                          
   RCLOC  =    2.111    cutoff for local pot                                                        
   LCOR   =        T    correct aug charges                                                         
   LPAW   =        T    paw PP                                                                      
   EAUG   =  345.278                                                                                
   DEXC   =    -.088                                                                                
   RMAX   =    3.077    core radius for proj-oper                                                   
   RAUG   =    1.300    factor for augmentation sphere                                              
   RDEP   =    2.815    radius for radial grids                                                     
   QCUT   =   -4.063; QGAM   =    8.126    optimization parameters                                  
                                                                                                    
   Description                                                                                      
     l     E      TYP  RCUT    TYP  RCUT                                                            
     2   .000     23  2.500                                                                         
     2   .000     23  2.500                                                                         
     0   .000     23  2.600                                                                         
     0  1.000     23  2.600                                                                         
     1   .400     23  2.750                                                                         
     1  2.000     23  2.750                                                                         
     3   .000      7   .000                                                                         
  local pseudopotential read in
  partial core-charges read in
  atomic valenz-charges read in
  non local Contribution for L=           2  read in
    real space projection operators read in
  non local Contribution for L=           2  read in
    real space projection operators read in
  non local Contribution for L=           0  read in
    real space projection operators read in
  non local Contribution for L=           0  read in
    real space projection operators read in
  non local Contribution for L=           1  read in
    real space projection operators read in
  non local Contribution for L=           1  read in
    real space projection operators read in
    PAW grid and wavefunctions read in
 
   number of l-projection  operators is LMAX  =           6
   number of lm-projection operators is LMMAX =          18
 
 -----------------------------------------------------------------------------
|                                                                             |
|               ----> ADVICE to this user running VASP <----                  |
|                                                                             |
|     You have a (more or less) 'large supercell' and for larger cells it     |
|     might be more efficient to use real-space projection operators.         |
|     Therefore, try LREAL= Auto in the INCAR file.                           |
|     Mind: If you want to do very accurate calculations, keep the            |
|     reciprocal projection scheme (i.e. LREAL=.FALSE.).                      |
|                                                                             |
 -----------------------------------------------------------------------------

 PAW_PBE Ti_sv 07Sep2000                :
 energy of atom  1       EATOM=-1587.5048
 kinetic energy error for atom=    0.0139 (will be added to EATOM!!)
 PAW_PBE Ta_pv 07Sep2000                :
 energy of atom  2       EATOM=-1045.8051
 kinetic energy error for atom=    0.0046 (will be added to EATOM!!)
 PAW_PBE Nb_sv 17Jan2003                :
 energy of atom  3       EATOM=-1555.1913
 kinetic energy error for atom=    0.0212 (will be added to EATOM!!)
 PAW_PBE N 08Apr2002                    :
 energy of atom  4       EATOM= -264.5486
 kinetic energy error for atom=    0.0736 (will be added to EATOM!!)
 PAW_PBE C 08Apr2002                    :
 energy of atom  5       EATOM= -147.1560
 kinetic energy error for atom=    0.0288 (will be added to EATOM!!)
 PAW_PBE Zr_sv 07Sep2000                :
 energy of atom  6       EATOM=-1283.3934
 kinetic energy error for atom=    0.0044 (will be added to EATOM!!)
 PAW_PBE Mo 08Apr2002                   :
 energy of atom  7       EATOM= -217.5180
 kinetic energy error for atom=    0.0025 (will be added to EATOM!!)
 
 
 POSCAR: 17-TiZrNbMoTa
  positions in direct lattice
  velocities in cartesian coordinates


 exchange-correlation table for PE
   RHO(1)=    0.500       N(1)  =     2000
   RHO(2)=  100.500       N(2)  =     4000
 


--------------------------------------------------------------------------------------------------------


 ion  position               nearest neighbor table
   1  0.999  0.995  0.009-  33 2.10  37 2.16  24 2.16  21 2.19  22 2.21  28 2.23  59 3.00   9 3.11
                             8 3.15  55 3.15  57 3.19
   2  0.241  0.994  0.250-  33 2.10  21 2.14  42 2.15  35 2.19  20 2.29  25 2.32  61 2.93  59 2.98
                             8 3.09  58 3.13  56 3.18  52 3.20  54 3.20
   3  0.261  0.500  0.252-  40 2.06  45 2.17  36 2.21  35 2.24  20 2.24  26 2.27  54 3.06  62 3.09
                            58 3.13  53 3.20   8 3.23
   4  0.500  0.497  0.998-  34 2.14  39 2.15  51 2.19  36 2.19  40 2.20  27 2.24  60 2.97  63 3.03
                            13 3.09  54 3.15   9 3.19
   5  0.497  0.259  0.753-  34 2.15  51 2.16  41 2.19  31 2.22  29 2.25  32 2.30  13 3.04  63 3.10
                            52 3.17  62 3.18  11 3.21  56 3.23  55 3.23  57 3.30
   6  0.007  0.496  0.494-  26 2.10  43 2.15  45 2.19  49 2.22  47 2.23  46 2.32  11 3.04  10 3.05
                             8 3.06  64 3.07  12 3.08  58 3.12  13 3.19
   7  0.504  0.739  0.748-  51 2.14  50 2.14  48 2.16  27 2.17  44 2.26  63 2.95  62 3.04  13 3.07
                            64 3.13  58 3.18  57 3.19   9 3.19  56 3.22  52 3.25  55 3.28
   8  0.003  0.245  0.259-  43 2.15  33 2.17  20 2.19  26 2.19  23 2.22  22 2.29  61 2.90  19 3.04
                             6 3.06  11 3.08   2 3.09  16 3.14   1 3.15  53 3.18   3 3.23  17 3.25
   9  0.757  0.744  0.002-  37 2.14  39 2.20  38 2.21  48 2.24  24 2.26  27 2.27  63 3.05  53 3.08
                            60 3.11   1 3.11  59 3.11  16 3.12  12 3.13  54 3.18   4 3.19  57 3.19
  10  0.004  0.262  0.743-  47 2.12  43 2.14  41 2.21  29 2.27  22 2.30  28 2.31  19 2.99   6 3.05
                            11 3.10  13 3.11  53 3.15  55 3.19  61 3.19  14 3.20  63 3.23  57 3.27
  11  0.754  0.268  0.499-  49 2.08  43 2.17  23 2.18  29 2.21  31 2.22  30 2.29   6 3.04  60 3.07
                             8 3.08  62 3.09  10 3.10  63 3.13  15 3.16   5 3.21  61 3.23  57 3.29
  12  0.995  0.735  0.742-  47 2.12  46 2.15  48 2.22  44 2.28  37 2.28  28 2.41  63 3.05   6 3.08
                            64 3.08  58 3.12   9 3.13  18 3.15  13 3.16  57 3.16  53 3.18  55 3.25
  13  0.258  0.500  0.749-  51 2.16  41 2.21  44 2.21  45 2.25  36 2.25  47 2.30   5 3.04   7 3.07
                            14 3.08   4 3.09  10 3.11  19 3.12  18 3.12  62 3.14  58 3.15  12 3.16
  14  0.259  0.258  0.995-  34 2.14  41 2.18  36 2.18  20 2.26  21 2.31  22 2.33  13 3.08  52 3.13
                            55 3.15  53 3.18  10 3.20   8 3.27
  15  0.505  0.260  0.246-  40 2.14  34 2.22  23 2.23  25 2.28  31 2.28  20 2.28  60 2.89  17 2.97
                            62 3.14  52 3.16  11 3.16  56 3.24
  16  0.761  0.992  0.250-  33 2.18  30 2.19  24 2.21  38 2.24  23 2.28  25 2.32  59 2.91  61 3.06
                             9 3.12   8 3.14  54 3.20  52 3.22  56 3.23  64 3.26  11 3.31
  17  0.738  0.253  0.008-  34 2.14  23 2.20  39 2.21  24 2.30  29 2.31  22 2.32  15 2.97  60 3.03
                            52 3.08  53 3.18  63 3.22   8 3.25  57 3.28
  18  0.237  0.743  0.002-  37 2.13  35 2.17  36 2.17  44 2.19  21 2.31  27 2.37  53 3.06  59 3.12
                            13 3.12  12 3.15  55 3.18  54 3.21  52 3.31
  19  0.241  0.249  0.505-  43 2.17  41 2.18  45 2.20  42 2.21  20 2.27  31 2.36  61 2.95  10 2.99
                             8 3.04  13 3.12  55 3.14  56 3.19
  20  0.249  0.250  0.249-   8 2.19   3 2.24  14 2.26  19 2.27  15 2.28   2 2.29
  21  0.245  0.001  0.008-   2 2.14   1 2.19  55 2.26  52 2.27  14 2.31  18 2.31
  22  0.999  0.242  0.001-   1 2.21  53 2.29   8 2.29  10 2.30  17 2.32  14 2.33
  23  0.754  0.246  0.255-  11 2.18  17 2.20   8 2.22  15 2.23  60 2.26  16 2.28
  24  0.756  0.997  0.001-   1 2.16  16 2.21  57 2.26   9 2.26  52 2.29  17 2.30
  25  0.500  0.006  0.249-  52 2.20  56 2.22  15 2.28   2 2.32  54 2.32  16 2.32
  26  0.006  0.490  0.257-   6 2.10   8 2.19  53 2.22   3 2.27  59 2.48  60 2.50
  27  0.503  0.748  0.992-   7 2.17   4 2.24   9 2.27  54 2.28  52 2.29  18 2.37
  28  0.998  0.004  0.758-  57 2.18  55 2.20   1 2.23  10 2.31  12 2.41  61 2.42
  29  0.750  0.250  0.747-  11 2.21   5 2.25  10 2.27  57 2.29  17 2.31  63 2.32
  30  0.753  0.012  0.496-  16 2.19  57 2.23  56 2.29  11 2.29  61 2.30  64 2.58
  31  0.506  0.252  0.503-  11 2.22   5 2.22  56 2.26  15 2.28  62 2.29  19 2.36
  32  0.502  0.003  0.751-  52 2.21  56 2.23  57 2.25  55 2.29   5 2.30
  33  0.005  0.003  0.246-   2 2.10   1 2.10  59 2.12  61 2.12   8 2.17  16 2.18
  34  0.499  0.258  0.995-  17 2.14  14 2.14   4 2.14   5 2.15  15 2.22  52 2.28
  35  0.244  0.749  0.246-  18 2.17   2 2.19  59 2.22   3 2.24  58 2.25  54 2.28
  36  0.254  0.501  0.003-  18 2.17  14 2.18   4 2.19   3 2.21  13 2.25  53 2.29
  37  0.997  0.754  0.999-  18 2.13   9 2.14   1 2.16  12 2.28  59 2.29  53 2.30
  38  0.754  0.742  0.252-  59 2.17  64 2.19  60 2.21   9 2.21  16 2.24  54 2.27
  39  0.742  0.499  0.999-   4 2.15  63 2.17  60 2.18   9 2.20  17 2.21  53 2.28
  40  0.491  0.499  0.246-   3 2.06  60 2.09  15 2.14   4 2.20  54 2.22  62 2.24
  41  0.252  0.254  0.750-  19 2.18  14 2.18   5 2.19  13 2.21  10 2.21  55 2.28
  42  0.248  0.003  0.492-  61 2.12   2 2.15  19 2.21  56 2.22  58 2.28  55 2.32
  43  0.998  0.257  0.502-  10 2.14   6 2.15   8 2.15  11 2.17  19 2.17  61 2.20
  44  0.250  0.746  0.755-  18 2.19  13 2.21   7 2.26  58 2.27  55 2.27  12 2.28
  45  0.253  0.495  0.496-   3 2.17   6 2.19  19 2.20  13 2.25  62 2.26  58 2.28
  46  0.992  0.754  0.501-  12 2.15  59 2.17  64 2.18  58 2.27   6 2.32  61 2.32
  47  0.000  0.499  0.745-  10 2.12  12 2.12   6 2.23  13 2.30  53 2.33  63 2.33
  48  0.746  0.746  0.750-  63 2.12   7 2.16  12 2.22  57 2.23   9 2.24  64 2.25
  49  0.758  0.500  0.497-  64 2.01  11 2.08   6 2.22  62 2.25  60 2.26  63 2.30
  50  0.505  0.747  0.507-  62 2.14   7 2.14  64 2.19  56 2.27  54 2.29  58 2.30
  51  0.500  0.500  0.751-  63 2.14   7 2.14  13 2.16   5 2.16   4 2.19  62 2.25
  52  0.500  0.004  0.001-  25 2.20  32 2.21  21 2.27  34 2.28  24 2.29  27 2.29  17 3.08  14 3.13
                            55 3.15  15 3.16   5 3.17  54 3.19  57 3.20   2 3.20  16 3.22   7 3.25
  53  0.997  0.498  0.007-  26 2.22  39 2.28  36 2.29  22 2.29  37 2.30  47 2.33  18 3.06   9 3.08
                            10 3.15  14 3.18  12 3.18   8 3.18  17 3.18   3 3.20  60 3.21  63 3.22
  54  0.499  0.746  0.249-  40 2.22  38 2.27  35 2.28  27 2.28  50 2.29  25 2.32  60 3.01   3 3.06
                            62 3.07  64 3.15   4 3.15  58 3.16  56 3.17   9 3.18  52 3.19  16 3.20
  55  0.245  1.000  0.754-  28 2.20  21 2.26  44 2.27  41 2.28  32 2.29  42 2.32  19 3.14  14 3.15
                            52 3.15   1 3.15  61 3.17  58 3.18  56 3.18  18 3.18  10 3.19   5 3.23
  56  0.497  1.000  0.499-  42 2.22  25 2.22  32 2.23  31 2.26  50 2.27  30 2.29  58 3.16  54 3.17
                            57 3.17  55 3.18   2 3.18  19 3.19   7 3.22  16 3.23   5 3.23  15 3.24
  57  0.754  0.994  0.747-  28 2.18  30 2.23  48 2.23  32 2.25  24 2.26  29 2.29  12 3.16  56 3.17
                             9 3.19   7 3.19   1 3.19  52 3.20  61 3.26  10 3.27  64 3.27  17 3.28
  58  0.247  0.749  0.500-  35 2.25  44 2.27  46 2.27  45 2.28  42 2.28  50 2.30  59 3.11  12 3.12
                             6 3.12   2 3.13   3 3.13  13 3.15  54 3.16  62 3.16  56 3.16  61 3.17
  59  0.996  0.767  0.257-  33 2.12  46 2.17  38 2.17  35 2.22  37 2.29  26 2.48  16 2.91   2 2.98
                            61 2.99   1 3.00  64 3.09  58 3.11   9 3.11  18 3.12  53 3.27  60 3.42
  60  0.725  0.496  0.244-  40 2.09  39 2.18  38 2.21  23 2.26  49 2.26  26 2.50  15 2.89   4 2.97
                            62 2.98  54 3.01  17 3.03  64 3.04  11 3.07   9 3.11  53 3.21   8 3.35
  61  0.011  0.012  0.485-  42 2.12  33 2.12  43 2.20  30 2.30  46 2.32  28 2.42   8 2.90   2 2.93
                            19 2.95  59 2.99  16 3.06  58 3.17  55 3.17  10 3.19  11 3.23  57 3.26
  62  0.506  0.508  0.498-  50 2.14  40 2.24  51 2.25  49 2.25  45 2.26  31 2.29  64 2.91  60 2.98
                             7 3.04  54 3.07  63 3.09   3 3.09  11 3.09  15 3.14  13 3.14  58 3.16
  63  0.739  0.509  0.755-  48 2.12  51 2.14  39 2.17  49 2.30  29 2.32  47 2.33   7 2.95  64 2.99
                             4 3.03   9 3.05  12 3.05  62 3.09   5 3.10  11 3.13  17 3.22  53 3.22
  64  0.750  0.724  0.498-  49 2.01  46 2.18  38 2.19  50 2.19  48 2.25  30 2.58  62 2.91  63 2.99
                            60 3.04   6 3.07  12 3.08  59 3.09   7 3.13  54 3.15  16 3.26  57 3.27
 
  LATTYP: Found a triclinic cell.
 ALAT       =    12.5705202760
 B/A-ratio  =     0.7090758954
 C/A-ratio  =     1.0016536206
 COS(alpha) =     0.0002634446
 COS(beta)  =     0.4961997662
 COS(gamma) =     0.7085154489
  
  Lattice vectors:
  
 A1 = (   8.9099353430,   0.0052428816,  -8.8674125146)
 A2 = (   8.9134507222,  -0.0051633383,   0.0035405805)
 A3 = (   0.0016544786,  -8.9460249402,  -8.8605671781)


Analysis of symmetry for initial positions (statically):
=====================================================================
 Subroutine PRICEL returns:
 Original cell was already a primitive cell.
 

 Routine SETGRP: Setting up the symmetry group for a 
 triclinic supercell.


 Subroutine GETGRP returns: Found  1 space group operations
 (whereof  1 operations were pure point group operations)
 out of a pool of  2 trial point group operations.


The static configuration has the point symmetry C_1 .


Analysis of symmetry for dynamics (positions and initial velocities):
=====================================================================
 Subroutine PRICEL returns:
 Original cell was already a primitive cell.
 

 Routine SETGRP: Setting up the symmetry group for a 
 triclinic supercell.


 Subroutine GETGRP returns: Found  1 space group operations
 (whereof  1 operations were pure point group operations)
 out of a pool of  2 trial point group operations.


The dynamic configuration has the point symmetry C_1 .


 Subroutine INISYM returns: Found  1 space group operations
 (whereof  1 operations are pure point group operations),
 and found     1 'primitive' translations


----------------------------------------------------------------------------------------

                                     Primitive cell                                     

  volume of cell :     708.1909

  direct lattice vectors                    reciprocal lattice vectors
     8.913450722 -0.005163338  0.003540581     0.112190051  0.000064707 -0.000044383
    -0.005169858  8.956431160 -0.010385917     0.000064625  0.111651804  0.000130949
     0.003515379 -0.010406220  8.870953095    -0.000044702  0.000130694  0.112727630

  length of vectors
     8.913452921  8.956438674  8.870959895     0.112190078  0.111651899  0.112727715

  position of ions in fractional coordinates (direct lattice)
     0.998923971  0.994983591  0.009138260
     0.240526434  0.994242742  0.250049784
     0.260543314  0.499936777  0.252085516
     0.500171632  0.497416837  0.997921381
     0.497425655  0.259236546  0.753319816
     0.007026709  0.495730668  0.493748194
     0.503782577  0.739345493  0.748465047
     0.003471360  0.245326551  0.259224780
     0.757466492  0.744482577  0.002242957
     0.003765818  0.261889698  0.742797562
     0.754464284  0.267501342  0.499312567
     0.994933009  0.735466804  0.742277585
     0.257725174  0.499878626  0.749427402
     0.259447068  0.257675009  0.995471497
     0.504749635  0.260062311  0.246177581
     0.760795273  0.991797174  0.250093856
     0.738332755  0.252595307  0.008055559
     0.236665672  0.743108686  0.001531178
     0.241099606  0.248866821  0.504902319
     0.248822104  0.249873492  0.249454768
     0.244773080  0.000969723  0.008470386
     0.998593272  0.241658188  0.000835272
     0.754459349  0.246489203  0.254935276
     0.756227046  0.996536680  0.001046265
     0.500372947  0.005509421  0.248820642
     0.005674279  0.490317384  0.257303194
     0.502854001  0.747564483  0.992478870
     0.998445099  0.004381949  0.758167347
     0.749568131  0.250052434  0.747437659
     0.753196409  0.011996417  0.496362381
     0.505964641  0.252274328  0.503178740
     0.502303885  0.002719560  0.751051220
     0.005489287  0.003373561  0.246011605
     0.499209671  0.258009908  0.995432632
     0.244133964  0.749339122  0.245760339
     0.254232063  0.501352897  0.003071790
     0.997453553  0.753988962  0.999178397
     0.754104389  0.741515403  0.251574293
     0.741716673  0.499195538  0.999411819
     0.491049647  0.499109437  0.245733621
     0.251956388  0.253721609  0.749811920
     0.248144960  0.002974488  0.492127732
     0.997514521  0.256516911  0.501839828
     0.249896400  0.745984165  0.755006430
     0.253138143  0.494596322  0.496112991
     0.992372258  0.754322417  0.500735796
     0.000072547  0.498577281  0.745028319
     0.746026769  0.745671688  0.750314886
     0.758320338  0.499583710  0.496617489
     0.505224261  0.746634367  0.507004460
     0.499508243  0.500177292  0.750797591
     0.499687557  0.003559774  0.000563128
     0.997493051  0.497572059  0.007269143
     0.499432411  0.746270494  0.249383837
     0.245288043  0.999553856  0.753693882
     0.497019450  0.999960286  0.499288968
     0.753993344  0.994213076  0.746640031
     0.247468782  0.748578306  0.499637416
     0.996483147  0.767090763  0.256838516
     0.725033994  0.496415421  0.244263463
     0.010668631  0.012320714  0.485226102
     0.505879531  0.507526255  0.497597902
     0.739386407  0.508577806  0.754559262
     0.750031569  0.723829962  0.497682221

  ion indices of the primitive-cell ions
   primitive index   ion index
                 1           1
                 2           2
                 3           3
                 4           4
                 5           5
                 6           6
                 7           7
                 8           8
                 9           9
                10          10
                11          11
                12          12
                13          13
                14          14
                15          15
                16          16
                17          17
                18          18
                19          19
                20          20
                21          21
                22          22
                23          23
                24          24
                25          25
                26          26
                27          27
                28          28
                29          29
                30          30
                31          31
                32          32
                33          33
                34          34
                35          35
                36          36
                37          37
                38          38
                39          39
                40          40
                41          41
                42          42
                43          43
                44          44
                45          45
                46          46
                47          47
                48          48
                49          49
                50          50
                51          51
                52          52
                53          53
                54          54
                55          55
                56          56
                57          57
                58          58
                59          59
                60          60
                61          61
                62          62
                63          63
                64          64

----------------------------------------------------------------------------------------

 
 
 KPOINTS: HECN                                    

Automatic generation of k-mesh.
 Grid dimensions read from file:
 generate k-points for:    3    3    3

 Generating k-lattice:

  Cartesian coordinates                     Fractional coordinates (reciprocal lattice)
     0.037396684  0.000021569 -0.000014794     0.333333333 -0.000000000  0.000000000
     0.000021542  0.037217268  0.000043650    -0.000000000  0.333333333 -0.000000000
    -0.000014901  0.000043565  0.037575877    -0.000000000 -0.000000000  0.333333333

  Length of vectors
     0.037396693  0.037217300  0.037575905

  Shift w.r.t. Gamma in fractional coordinates (k-lattice)
     0.000000000  0.000000000  0.000000000

 
 Subroutine IBZKPT returns following result:
 ===========================================
 
 Found     14 irreducible k-points:
 
 Following reciprocal coordinates:
            Coordinates               Weight
  0.000000  0.000000  0.000000      1.000000
  0.333333  0.000000  0.000000      2.000000
 -0.000000  0.333333 -0.000000      2.000000
  0.333333  0.333333 -0.000000      2.000000
 -0.333333  0.333333  0.000000      2.000000
  0.000000 -0.000000  0.333333      2.000000
  0.333333  0.000000  0.333333      2.000000
 -0.333333 -0.000000  0.333333      2.000000
 -0.000000  0.333333  0.333333      2.000000
  0.333333  0.333333  0.333333      2.000000
 -0.333333  0.333333  0.333333      2.000000
  0.000000 -0.333333  0.333333      2.000000
  0.333333 -0.333333  0.333333      2.000000
 -0.333333 -0.333333  0.333333      2.000000
 
 Following cartesian coordinates:
            Coordinates               Weight
  0.000000  0.000000  0.000000      1.000000
  0.037397  0.000022 -0.000015      2.000000
  0.000022  0.037217  0.000044      2.000000
  0.037418  0.037239  0.000029      2.000000
 -0.037375  0.037196  0.000058      2.000000
 -0.000015  0.000044  0.037576      2.000000
  0.037382  0.000065  0.037561      2.000000
 -0.037412  0.000022  0.037591      2.000000
  0.000007  0.037261  0.037620      2.000000
  0.037403  0.037282  0.037605      2.000000
 -0.037390  0.037239  0.037634      2.000000
 -0.000036 -0.037174  0.037532      2.000000
  0.037360 -0.037152  0.037517      2.000000
 -0.037433 -0.037195  0.037547      2.000000
 


--------------------------------------------------------------------------------------------------------




 Dimension of arrays:
   k-points           NKPTS =     14   k-points in BZ     NKDIM =     14   number of bands    NBANDS=    308
   number of dos      NEDOS =    301   number of ions     NIONS =     64
   non local maximal  LDIM  =      6   non local SUM 2l+1 LMDIM =     18
   total plane-waves  NPLWV = 110592
   max r-space proj   IRMAX =      1   max aug-charges    IRDMAX=  10225
   dimension x,y,z NGX =    48 NGY =   48 NGZ =   48
   dimension x,y,z NGXF=    96 NGYF=   96 NGZF=   96
   support grid    NGXF=    96 NGYF=   96 NGZF=   96
   ions per type =               7   6   6  13  19   7   6
   NGX,Y,Z   is equivalent  to a cutoff of   8.95,  8.91,  9.00 a.u.
   NGXF,Y,Z  is equivalent  to a cutoff of  17.91, 17.82, 17.99 a.u.

 SYSTEM =  HECN                                    
 POSCAR =  17-TiZrNbMoTa                           

 Startparameter for this run:
   NWRITE =      2    write-flag & timer
   PREC   = normal    normal or accurate (medium, high low for compatibility)
   ISTART =      0    job   : 0-new  1-cont  2-samecut
   ICHARG =      2    charge: 1-file 2-atom 10-const
   ISPIN  =      1    spin polarized calculation?
   LNONCOLLINEAR =      F non collinear calculations
   LSORBIT =      F    spin-orbit coupling
   INIWAV =      1    electr: 0-lowe 1-rand  2-diag
   LASPH  =      F    aspherical Exc in radial PAW
 Electronic Relaxation 1
   ENCUT  =  400.0 eV  29.40 Ry    5.42 a.u.  14.54 14.61 14.47*2*pi/ulx,y,z
   ENINI  =  400.0     initial cutoff
   ENAUG  =  644.9 eV  augmentation charge cutoff
   NELM   =     60;   NELMIN=  2; NELMDL= -5     # of ELM steps 
   EDIFF  = 0.1E-04   stopping-criterion for ELM
   LREAL  =      F    real-space projection
   NLSPLINE    = F    spline interpolate recip. space projectors
   LCOMPAT=      F    compatible to vasp.4.4
   GGA_COMPAT  = T    GGA compatible to vasp.4.4-vasp.4.6
   LMAXPAW     = -100 max onsite density
   LMAXMIX     =    2 max onsite mixed and CHGCAR
   VOSKOWN=      0    Vosko Wilk Nusair interpolation
   ROPT   =    0.00000   0.00000   0.00000   0.00000
   ROPT   =    0.00000   0.00000   0.00000
 Ionic relaxation
   EDIFFG = -.1E-01   stopping-criterion for IOM
   NSW    =    100    number of steps for IOM
   NBLOCK =      1;   KBLOCK =    100    inner block; outer block 
   IBRION =      2    ionic relax: 0-MD 1-quasi-New 2-CG
   NFREE  =      1    steps in history (QN), initial steepest desc. (CG)
   ISIF   =      3    stress and relaxation
   IWAVPR =     11    prediction:  0-non 1-charg 2-wave 3-comb
   ISYM   =      2    0-nonsym 1-usesym 2-fastsym
   LCORR  =      T    Harris-Foulkes like correction to forces

   POTIM  = 0.5000    time-step for ionic-motion
   TEIN   =    0.0    initial temperature
   TEBEG  =    0.0;   TEEND  =   0.0 temperature during run
   SMASS  =  -3.00    Nose mass-parameter (am)
   estimated Nose-frequenzy (Omega)   =  0.10E-29 period in steps = 0.13E+47 mass=  -0.182E-26a.u.
   SCALEE = 1.0000    scale energy and forces
   NPACO  =    256;   APACO  = 10.0  distance and # of slots for P.C.
   PSTRESS=    0.0 pullay stress

  Mass of Ions in am
   POMASS =  47.88180.95 92.91 14.00 12.01 91.22 95.94
  Ionic Valenz
   ZVAL   =  12.00 11.00 13.00  5.00  4.00 12.00  6.00
  Atomic Wigner-Seitz radii
   RWIGS  =  -1.00 -1.00 -1.00 -1.00 -1.00 -1.00 -1.00
  virtual crystal weights 
   VCA    =   1.00  1.00  1.00  1.00  1.00  1.00  1.00
   NELECT =     489.0000    total number of electrons
   NUPDOWN=      -1.0000    fix difference up-down

 DOS related values:
   EMIN   =  10.00;   EMAX   =-10.00  energy-range for DOS
   EFERMI =   0.00;   METHOD = LEGACY      
   ISMEAR =     0;   SIGMA  =   0.10  broadening in eV -4-tet -1-fermi 0-gaus

 Electronic relaxation 2 (details)
   IALGO  =     68    algorithm
   LDIAG  =      T    sub-space diagonalisation (order eigenvalues)
   LSUBROT=      F    optimize rotation matrix (better conditioning)
   TURBO    =      0    0=normal 1=particle mesh
   IRESTART =      0    0=no restart 2=restart with 2 vectors
   NREBOOT  =      0    no. of reboots
   NMIN     =      0    reboot dimension
   EREF     =   0.00    reference energy to select bands
   IMIX   =      4    mixing-type and parameters
     AMIX     =   0.40;   BMIX     =  1.00
     AMIX_MAG =   1.60;   BMIX_MAG =  1.00
     AMIN     =   0.10
     WC   =   100.;   INIMIX=   1;  MIXPRE=   1;  MAXMIX= -45

 Intra band minimization:
   WEIMIN = 0.0010     energy-eigenvalue tresh-hold
   EBREAK =  0.81E-08  absolut break condition
   DEPER  =   0.30     relativ break condition  

   TIME   =   0.40     timestep for ELM

  volume/ion in A,a.u.               =      11.07        74.67
  Fermi-wavevector in a.u.,A,eV,Ry     =   1.446975  2.734386 28.487013  2.093736
  Thomas-Fermi vector in A             =   2.564982
 
 Write flags
   LWAVE        =      F    write WAVECAR
   LDOWNSAMPLE  =      F    k-point downsampling of WAVECAR
   LCHARG       =      F    write CHGCAR
   LVTOT        =      F    write LOCPOT, total local potential
   LVHAR        =      F    write LOCPOT, Hartree potential only
   WRT_POTENTIAL= false  ! write potential to hdf5 file
   LELF         =      F    write electronic localiz. function (ELF)
   LORBIT       =      0    0 simple, 1 ext, 2 COOP (PROOUT), +10 PAW based schemes


 Dipole corrections
   LMONO      =      F    monopole corrections only (constant potential shift)
   LDIPOL     =      F    correct potential (dipole corrections)
   IDIPOL     =      0    1-x, 2-y, 3-z, 4-all directions 
   EPSILON    =  1.0000000 bulk dielectric constant
   LVACPOTAV  =      F  vacuum potentials using an averaging scheme for the charge density
   VACPOTFLAT =  0.1000000 required flatness to determine vacuum potential
 Exchange correlation treatment:
   GGA     = PE    functional components
   XC_C    = 1    coefficients multiplying the functional components
   LIBXC   =     F    Libxc                    
   VOSKOWN =     0    Vosko Wilk Nusair interpolation
   LHFCALC =     F    Hartree Fock is set to
   LHFONE  =     F    Hartree Fock one center treatment
   AEXX    =    0.0000 exact exchange contribution

 Parameters of functionals:
   PE:
     No parameter
 
 Van der Waals corrections
   IVDW    =     0    specifies the selected vdW correction

 Linear response parameters
   LEPSILON=     F    determine dielectric tensor
   LRPA    =     F    only Hartree local field effects (RPA)
   LNABLA  =     F    use nabla operator in PAW spheres
   LVEL    =     F    velocity operator in full k-point grid
   CSHIFT  =0.1000    complex shift for real part using Kramers Kronig
   OMEGAMAX=  -1.0    maximum frequency
   DEG_THRESHOLD= 0.2000000E-02 threshold for treating states as degnerate
   RTIME   =   -0.100 relaxation time in fs
  (WPLASMAI=    0.000 imaginary part of plasma frequency in eV, 0.658/RTIME)
   DFIELD  = 0.0000000 0.0000000 0.0000000 field for delta impulse in time
 
  Optional k-point grid parameters
   LKPOINTS_OPT  =     F    use optional k-point grid
   KPOINTS_OPT_MODE=     1    mode for optional k-point grid
 
 Orbital magnetization related:
   ORBITALMAG=     F  switch on orbital magnetization
   LCHIMAG   =     F  perturbation theory with respect to B field
   DQ        =  0.001000  dq finite difference perturbation B field
   LLRAUG    =     F  two centre corrections for induced B field
   LBONE     =     F  B-component reconstruction in AE one-centre
   LVGVCALC  =     T  calculate vGv susceptibility
   LVGVAPPL  =     F  apply vGv susceptibility instead of pGv for G=0

 Random number generation:
   RANDOM_GENERATOR = DEFAULT
   PCG_SEED         = not used


--------------------------------------------------------------------------------------------------------


 conjugate gradient relaxation of ions
 charge density and potential will be updated during run
 non-spin polarized calculation
 RMM-DIIS sequential band-by-band and
  variant of blocked Davidson during initial phase
 perform sub-space diagonalisation
    before iterative eigenvector-optimisation
 modified Broyden-mixing scheme, WC =      100.0
 initial mixing is a Kerker type mixing with AMIX =  0.4000 and BMIX =      1.0000
 Hartree-type preconditioning will be used
 using additional bands           63
 reciprocal scheme for non local part
 use partial core corrections
 calculate Harris-corrections to forces 
   (improved forces if not selfconsistent)
 use gradient corrections 
 use of overlap-Matrix (Vanderbilt PP)
 Gauss-broadening in eV      SIGMA  =   0.10


--------------------------------------------------------------------------------------------------------


  energy-cutoff  :      400.00
  volume of cell :      708.19
      direct lattice vectors                 reciprocal lattice vectors
     8.913450722 -0.005163338  0.003540581     0.112190051  0.000064707 -0.000044383
    -0.005169858  8.956431160 -0.010385917     0.000064625  0.111651804  0.000130949
     0.003515379 -0.010406220  8.870953095    -0.000044702  0.000130694  0.112727630

  length of vectors
     8.913452921  8.956438674  8.870959895     0.112190078  0.111651899  0.112727715


 
 k-points in units of 2pi/SCALE and weight: HECN                                    
   0.00000000  0.00000000  0.00000000       0.037
   0.03739668  0.00002157 -0.00001479       0.074
   0.00002154  0.03721727  0.00004365       0.074
   0.03741823  0.03723884  0.00002886       0.074
  -0.03737514  0.03719570  0.00005844       0.074
  -0.00001490  0.00004356  0.03757588       0.074
   0.03738178  0.00006513  0.03756108       0.074
  -0.03741158  0.00002200  0.03759067       0.074
   0.00000664  0.03726083  0.03761953       0.074
   0.03740332  0.03728240  0.03760473       0.074
  -0.03739004  0.03723926  0.03763432       0.074
  -0.00003644 -0.03717370  0.03753223       0.074
   0.03736024 -0.03715213  0.03751743       0.074
  -0.03743313 -0.03719527  0.03754702       0.074
 
 k-points in reciprocal lattice and weights: HECN                                    
   0.00000000  0.00000000  0.00000000       0.037
   0.33333333  0.00000000  0.00000000       0.074
  -0.00000000  0.33333333 -0.00000000       0.074
   0.33333333  0.33333333 -0.00000000       0.074
  -0.33333333  0.33333333  0.00000000       0.074
   0.00000000 -0.00000000  0.33333333       0.074
   0.33333333  0.00000000  0.33333333       0.074
  -0.33333333 -0.00000000  0.33333333       0.074
  -0.00000000  0.33333333  0.33333333       0.074
   0.33333333  0.33333333  0.33333333       0.074
  -0.33333333  0.33333333  0.33333333       0.074
   0.00000000 -0.33333333  0.33333333       0.074
   0.33333333 -0.33333333  0.33333333       0.074
  -0.33333333 -0.33333333  0.33333333       0.074
 
 position of ions in fractional coordinates (direct lattice) 
   0.99892397  0.99498359  0.00913826
   0.24052643  0.99424274  0.25004978
   0.26054331  0.49993678  0.25208552
   0.50017163  0.49741684  0.99792138
   0.49742566  0.25923655  0.75331982
   0.00702671  0.49573067  0.49374819
   0.50378258  0.73934549  0.74846505
   0.00347136  0.24532655  0.25922478
   0.75746649  0.74448258  0.00224296
   0.00376582  0.26188970  0.74279756
   0.75446428  0.26750134  0.49931257
   0.99493301  0.73546680  0.74227759
   0.25772517  0.49987863  0.74942740
   0.25944707  0.25767501  0.99547150
   0.50474964  0.26006231  0.24617758
   0.76079527  0.99179717  0.25009386
   0.73833275  0.25259531  0.00805556
   0.23666567  0.74310869  0.00153118
   0.24109961  0.24886682  0.50490232
   0.24882210  0.24987349  0.24945477
   0.24477308  0.00096972  0.00847039
   0.99859327  0.24165819  0.00083527
   0.75445935  0.24648920  0.25493528
   0.75622705  0.99653668  0.00104627
   0.50037295  0.00550942  0.24882064
   0.00567428  0.49031738  0.25730319
   0.50285400  0.74756448  0.99247887
   0.99844510  0.00438195  0.75816735
   0.74956813  0.25005243  0.74743766
   0.75319641  0.01199642  0.49636238
   0.50596464  0.25227433  0.50317874
   0.50230388  0.00271956  0.75105122
   0.00548929  0.00337356  0.24601160
   0.49920967  0.25800991  0.99543263
   0.24413396  0.74933912  0.24576034
   0.25423206  0.50135290  0.00307179
   0.99745355  0.75398896  0.99917840
   0.75410439  0.74151540  0.25157429
   0.74171667  0.49919554  0.99941182
   0.49104965  0.49910944  0.24573362
   0.25195639  0.25372161  0.74981192
   0.24814496  0.00297449  0.49212773
   0.99751452  0.25651691  0.50183983
   0.24989640  0.74598417  0.75500643
   0.25313814  0.49459632  0.49611299
   0.99237226  0.75432242  0.50073580
   0.00007255  0.49857728  0.74502832
   0.74602677  0.74567169  0.75031489
   0.75832034  0.49958371  0.49661749
   0.50522426  0.74663437  0.50700446
   0.49950824  0.50017729  0.75079759
   0.49968756  0.00355977  0.00056313
   0.99749305  0.49757206  0.00726914
   0.49943241  0.74627049  0.24938384
   0.24528804  0.99955386  0.75369388
   0.49701945  0.99996029  0.49928897
   0.75399334  0.99421308  0.74664003
   0.24746878  0.74857831  0.49963742
   0.99648315  0.76709076  0.25683852
   0.72503399  0.49641542  0.24426346
   0.01066863  0.01232071  0.48522610
   0.50587953  0.50752626  0.49759790
   0.73938641  0.50857781  0.75455926
   0.75003157  0.72382996  0.49768222
 
 position of ions in cartesian coordinates  (Angst):
   8.89874779  8.90624916  0.07426803
   2.13965945  8.90102268  2.20870538
   2.32064156  4.47368080  2.23196896
   4.45919169  4.44211252  8.84911853
   4.43508705  2.31142669  6.68173352
   0.06180508  4.43480327  4.37489333
   4.48925000  6.61150712  6.63370323
   0.03058477  2.19453489  2.29703521
   6.74779927  6.66397256  0.01484690
   0.03482371  2.33784789  6.58661570
   6.72525254  2.38676585  4.42927136
   8.86709348  6.57429632  6.58059379
   2.29727086  4.46799907  6.64385613
   2.31473597  2.29614977  8.82902336
   4.49858192  2.32406221  2.18291589
   6.77706290  8.87643234  2.21096380
   6.57981506  2.25845639  0.07145118
   2.10567142  6.65436388  0.00670308
   2.14951777  2.22245954  4.47723371
   2.21744868  2.23409409  2.21118736
   2.18179755  0.00733327  0.07599697
   8.89966552  2.15923016  0.00843542
   6.72445811  2.20111514  2.26163008
   6.73544424  8.92149663  0.00160891
   4.46089582  0.04417187  2.20899064
   0.04894705  4.38878704  2.27745226
   4.48178850  6.68258547  8.79824975
   8.90223378  0.02620166  6.72915654
   6.68257339  2.22792913  6.63054130
   6.71526196  0.09839082  4.40574956
   4.51035554  2.25162900  4.46284631
   4.47988709  0.01394838  6.66429035
   0.04977588  0.02762667  2.18234180
   4.45184625  2.29791170  8.82952401
   2.17306602  6.70758628  2.17321024
   2.26350384  4.48898806  0.02294283
   8.89036757  6.73750237  8.85936539
   6.71872316  6.63482003  2.22667240
   6.61218756  4.45678064  8.86317688
   4.37523035  4.46514670  2.17644632
   2.24712501  2.26333648  6.64980331
   2.21354251  0.02023835  4.36648972
   8.89173453  2.28710329  4.45266520
   2.22623675  6.67220876  6.69076368
   2.25552140  4.42334821  4.39675449
   8.84332176  6.74570208  4.43768300
   0.00068813  4.45771979  6.60393334
   6.64845546  6.66689721  6.65090505
   6.75841399  4.46540373  4.40296671
   4.50121388  6.67929467  4.49164708
   4.45239560  4.46941139  6.65686396
   4.45392399  0.02929696  0.00672770
   8.88855833  4.45124386  0.06284819
   4.44868475  6.67874642  2.20628989
   2.18384485  8.94332570  6.67647025
   4.42674391  8.94831348  4.42054325
   6.71816730  8.89293815  6.61575246
   2.20368717  6.69811296  4.42536160
   8.87904056  6.86257772  2.27396361
   6.46084706  4.43982509  2.16426103
   0.09673637  0.10524517  4.30432780
   4.50825768  4.53783383  4.41068763
   6.59050759  4.54337230  6.69099563
   6.68337687  6.47388157  4.41005355
 


--------------------------------------------------------------------------------------------------------


 k-point     1 :   0.0000 0.0000 0.0000  plane waves:   12957
 k-point     2 :   0.3333 0.0000 0.0000  plane waves:   12866
 k-point     3 :  -0.0000 0.3333-0.0000  plane waves:   12875
 k-point     4 :   0.3333 0.3333-0.0000  plane waves:   12866
 k-point     5 :  -0.3333 0.3333 0.0000  plane waves:   12866
 k-point     6 :   0.0000-0.0000 0.3333  plane waves:   12848
 k-point     7 :   0.3333 0.0000 0.3333  plane waves:   12861
 k-point     8 :  -0.3333-0.0000 0.3333  plane waves:   12864
 k-point     9 :  -0.0000 0.3333 0.3333  plane waves:   12871
 k-point    10 :   0.3333 0.3333 0.3333  plane waves:   12861
 k-point    11 :  -0.3333 0.3333 0.3333  plane waves:   12863
 k-point    12 :   0.0000-0.3333 0.3333  plane waves:   12865
 k-point    13 :   0.3333-0.3333 0.3333  plane waves:   12860
 k-point    14 :  -0.3333-0.3333 0.3333  plane waves:   12860

 maximum and minimum number of plane-waves per node :     12957    12848

 maximum number of plane-waves:     12957
 maximum index in each direction: 
   IXMAX=   14   IYMAX=   14   IZMAX=   14
   IXMIN=  -14   IYMIN=  -14   IZMIN=  -14


 serial   3D FFT for wavefunctions
 parallel 3D FFT for charge:
    minimum data exchange during FFTs selected (reduces bandwidth)


 total amount of memory used by VASP MPI-rank0   270971. kBytes
=======================================================================

   base      :      30000. kBytes
   nonl-proj :     196223. kBytes
   fftplans  :       1680. kBytes
   grid      :       8060. kBytes
   one-center:        995. kBytes
   wavefun   :      34013. kBytes
 
     INWAV:  cpu time      0.0000: real time      0.0000
 Broyden mixing: mesh for mixing (old mesh)
   NGX = 29   NGY = 29   NGZ = 29
  (NGX  = 96   NGY  = 96   NGZ  = 96)
  gives a total of  24389 points

 initial charge density was supplied:
 charge density of overlapping atoms calculated
 number of electron     489.0000000 magnetization 
 keeping initial charge density in first step


--------------------------------------------------------------------------------------------------------


 Maximum index for augmentation-charges          669 (set IRDMAX)


--------------------------------------------------------------------------------------------------------


 First call to EWALD:  gamma=   0.199
 Maximum number of real-space cells 3x 3x 3
 Maximum number of reciprocal cells 3x 3x 3

    FEWALD:  cpu time      0.0024: real time      0.0027


--------------------------------------- Ionic step        1  -------------------------------------------




--------------------------------------- Iteration      1(   1)  ---------------------------------------


    POTLOK:  cpu time      0.0232: real time      0.0311
    SETDIJ:  cpu time      0.0067: real time      0.0088
     EDDAV:  cpu time     19.5317: real time     19.5821
       DOS:  cpu time      0.0015: real time      0.0041
    --------------------------------------------
      LOOP:  cpu time     19.5631: real time     19.6261

 eigenvalue-minimisations  :  8624
 total energy-change (2. order) : 0.5219152E+04  (-0.2057031E+05)
 number of electron     489.0000000 magnetization 
 augmentation part      489.0000000 magnetization 

 Free energy of the ion-electron system (eV)
  ---------------------------------------------------
  alpha Z        PSCENC =      3928.64717414
  Ewald energy   TEWEN  =    -38225.58485449
  -Hartree energ DENC   =     -7636.40334877
  -exchange      EXHF   =         0.00000000
  -V(xc)+E(xc)   XCENC  =      1437.59444119
  PAW double counting   =     26866.49309477   -26000.41487970
  entropy T*S    EENTRO =        -0.07705931
  eigenvalues    EBANDS =      1608.22901254
  atomic energy  EATOM  =     43240.66814686
  Solvation  Ediel_sol  =         0.00000000
  ---------------------------------------------------
  free energy    TOTEN  =      5219.15172722 eV

  energy without entropy =     5219.22878653  energy(sigma->0) =     5219.19025688


--------------------------------------------------------------------------------------------------------




--------------------------------------- Iteration      1(   2)  ---------------------------------------


     EDDAV:  cpu time     19.0793: real time     19.8336
       DOS:  cpu time      0.0008: real time      0.0008
    --------------------------------------------
      LOOP:  cpu time     19.0801: real time     19.8344

 eigenvalue-minimisations  :  8680
 total energy-change (2. order) :-0.5086709E+04  (-0.4906429E+04)
 number of electron     489.0000000 magnetization 
 augmentation part      489.0000000 magnetization 

 Free energy of the ion-electron system (eV)
  ---------------------------------------------------
  alpha Z        PSCENC =      3928.64717414
  Ewald energy   TEWEN  =    -38225.58485449
  -Hartree energ DENC   =     -7636.40334877
  -exchange      EXHF   =         0.00000000
  -V(xc)+E(xc)   XCENC  =      1437.59444119
  PAW double counting   =     26866.49309477   -26000.41487970
  entropy T*S    EENTRO =        -0.11253905
  eigenvalues    EBANDS =     -3478.44413404
  atomic energy  EATOM  =     43240.66814686
  Solvation  Ediel_sol  =         0.00000000
  ---------------------------------------------------
  free energy    TOTEN  =       132.44310089 eV

  energy without entropy =      132.55563995  energy(sigma->0) =      132.49937042


--------------------------------------------------------------------------------------------------------




--------------------------------------- Iteration      1(   3)  ---------------------------------------


     EDDAV:  cpu time     28.8136: real time     29.5097
       DOS:  cpu time      0.0009: real time      0.0031
    --------------------------------------------
      LOOP:  cpu time     28.8145: real time     29.5129

 eigenvalue-minimisations  : 14112
 total energy-change (2. order) :-0.8199328E+03  (-0.7876953E+03)
 number of electron     489.0000000 magnetization 
 augmentation part      489.0000000 magnetization 

 Free energy of the ion-electron system (eV)
  ---------------------------------------------------
  alpha Z        PSCENC =      3928.64717414
  Ewald energy   TEWEN  =    -38225.58485449
  -Hartree energ DENC   =     -7636.40334877
  -exchange      EXHF   =         0.00000000
  -V(xc)+E(xc)   XCENC  =      1437.59444119
  PAW double counting   =     26866.49309477   -26000.41487970
  entropy T*S    EENTRO =        -0.07676846
  eigenvalues    EBANDS =     -4298.41266495
  atomic energy  EATOM  =     43240.66814686
  Solvation  Ediel_sol  =         0.00000000
  ---------------------------------------------------
  free energy    TOTEN  =      -687.48965942 eV

  energy without entropy =     -687.41289096  energy(sigma->0) =     -687.45127519


--------------------------------------------------------------------------------------------------------




--------------------------------------- Iteration      1(   4)  ---------------------------------------


     EDDAV:  cpu time     30.8547: real time     31.3813
       DOS:  cpu time      0.0008: real time      0.0008
    --------------------------------------------
      LOOP:  cpu time     30.8555: real time     31.3821

 eigenvalue-minimisations  : 15176
 total energy-change (2. order) :-0.8533685E+02  (-0.8387853E+02)
 number of electron     489.0000000 magnetization 
 augmentation part      489.0000000 magnetization 

 Free energy of the ion-electron system (eV)
  ---------------------------------------------------
  alpha Z        PSCENC =      3928.64717414
  Ewald energy   TEWEN  =    -38225.58485449
  -Hartree energ DENC   =     -7636.40334877
  -exchange      EXHF   =         0.00000000
  -V(xc)+E(xc)   XCENC  =      1437.59444119
  PAW double counting   =     26866.49309477   -26000.41487970
  entropy T*S    EENTRO =        -0.08829457
  eigenvalues    EBANDS =     -4383.73799324
  atomic energy  EATOM  =     43240.66814686
  Solvation  Ediel_sol  =         0.00000000
  ---------------------------------------------------
  free energy    TOTEN  =      -772.82651382 eV

  energy without entropy =     -772.73821925  energy(sigma->0) =     -772.78236653


--------------------------------------------------------------------------------------------------------




--------------------------------------- Iteration      1(   5)  ---------------------------------------


     EDDAV:  cpu time     33.6401: real time     34.1474
       DOS:  cpu time      0.0008: real time      0.0008
    CHARGE:  cpu time      0.1588: real time      0.1638
    MIXING:  cpu time      0.0025: real time      0.0059
    --------------------------------------------
      LOOP:  cpu time     33.8023: real time     34.3180

 eigenvalue-minimisations  : 16576
 total energy-change (2. order) :-0.8504996E+01  (-0.8449744E+01)
 number of electron     489.0000046 magnetization 
 augmentation part       79.8749576 magnetization 

 Broyden mixing:
  rms(total) = 0.61412E+01    rms(broyden)= 0.61397E+01
  rms(prec ) = 0.96526E+01
  weight for this iteration     100.00

 Free energy of the ion-electron system (eV)
  ---------------------------------------------------
  alpha Z        PSCENC =      3928.64717414
  Ewald energy   TEWEN  =    -38225.58485449
  -Hartree energ DENC   =     -7636.40334877
  -exchange      EXHF   =         0.00000000
  -V(xc)+E(xc)   XCENC  =      1437.59444119
  PAW double counting   =     26866.49309477   -26000.41487970
  entropy T*S    EENTRO =        -0.09132671
  eigenvalues    EBANDS =     -4392.23995706
  atomic energy  EATOM  =     43240.66814686
  Solvation  Ediel_sol  =         0.00000000
  ---------------------------------------------------
  free energy    TOTEN  =      -781.33150978 eV

  energy without entropy =     -781.24018307  energy(sigma->0) =     -781.28584643


--------------------------------------------------------------------------------------------------------




--------------------------------------- Iteration      1(   6)  ---------------------------------------


    POTLOK:  cpu time      0.0185: real time      0.0196
    SETDIJ:  cpu time      0.0052: real time      0.0055
    EDDIAG:  cpu time      1.3521: real time      1.3605
  RMM-DIIS:  cpu time     17.1564: real time     17.2341
    ORTHCH:  cpu time      0.3297: real time      0.3307
       DOS:  cpu time      0.0008: real time      0.0008
    CHARGE:  cpu time      0.1885: real time      0.1929
    MIXING:  cpu time      0.0018: real time      0.0021
    --------------------------------------------
      LOOP:  cpu time     19.0530: real time     19.1462

 eigenvalue-minimisations  : 12490
 total energy-change (2. order) : 0.1434737E+03  (-0.6198722E+02)
 number of electron     489.0000064 magnetization 
 augmentation part       88.0736124 magnetization 

 Broyden mixing:
  rms(total) = 0.15637E+01    rms(broyden)= 0.15620E+01
  rms(prec ) = 0.27035E+01
  weight for this iteration     100.00

 eigenvalues of (default mixing * dielectric matrix)
  average eigenvalue GAMMA=   0.8970
  0.8970

 Free energy of the ion-electron system (eV)
  ---------------------------------------------------
  alpha Z        PSCENC =      3928.64717414
  Ewald energy   TEWEN  =    -38225.58485449
  -Hartree energ DENC   =     -7300.12087669
  -exchange      EXHF   =         0.00000000
  -V(xc)+E(xc)   XCENC  =      1441.11835304
  PAW double counting   =     26378.27789921   -25576.02340923
  entropy T*S    EENTRO =        -0.13319850
  eigenvalues    EBANDS =     -4524.70706217
  atomic energy  EATOM  =     43240.66814686
  Solvation  Ediel_sol  =         0.00000000
  ---------------------------------------------------
  free energy    TOTEN  =      -637.85782784 eV

  energy without entropy =     -637.72462934  energy(sigma->0) =     -637.79122859


--------------------------------------------------------------------------------------------------------




--------------------------------------- Iteration      1(   7)  ---------------------------------------


    POTLOK:  cpu time      0.0173: real time      0.0175
    SETDIJ:  cpu time      0.0053: real time      0.0054
    EDDIAG:  cpu time      1.3703: real time      1.3768
  RMM-DIIS:  cpu time     18.4791: real time     18.6732
    ORTHCH:  cpu time      0.3803: real time      0.3856
       DOS:  cpu time      0.0008: real time      0.0008
    CHARGE:  cpu time      0.1592: real time      0.1602
    MIXING:  cpu time      0.0010: real time      0.0010
    --------------------------------------------
      LOOP:  cpu time     20.4133: real time     20.6203

 eigenvalue-minimisations  : 13365
 total energy-change (2. order) :-0.6373775E+01  (-0.1479829E+02)
 number of electron     489.0000060 magnetization 
 augmentation part       84.8324560 magnetization 

 Broyden mixing:
  rms(total) = 0.10588E+01    rms(broyden)= 0.10584E+01
  rms(prec ) = 0.17599E+01
  weight for this iteration     100.00

 eigenvalues of (default mixing * dielectric matrix)
  average eigenvalue GAMMA=   0.7879
  0.8470  0.7289

 Free energy of the ion-electron system (eV)
  ---------------------------------------------------
  alpha Z        PSCENC =      3928.64717414
  Ewald energy   TEWEN  =    -38225.58485449
  -Hartree energ DENC   =     -7220.88237148
[...]
 -0.008   0.013   0.000  -0.000   0.001   0.001   0.002   0.004   0.010   0.004   0.016   0.529   0.000  -0.002  -0.002  -0.001
  0.029  -0.051   0.013   0.001  -0.001   0.042   0.006  -0.003  -0.002  -0.014   0.025   0.000   0.572  -0.001  -0.001  -0.010
  0.001  -0.003   0.002  -0.000   0.000   0.003  -0.000   0.007  -0.194   0.000   0.000  -0.002  -0.001   0.183  -0.001  -0.003
 -0.004   0.002  -0.001  -0.003  -0.000  -0.008  -0.002  -0.000   0.000  -0.222  -0.001  -0.002  -0.001  -0.001   0.195   0.000
  0.022  -0.043  -0.009  -0.027  -0.003  -0.019  -0.061  -0.007   0.000  -0.001  -0.521  -0.001  -0.010  -0.003   0.000   0.576
 -0.001   0.002  -0.000   0.001   0.001  -0.000  -0.000  -0.005  -0.002  -0.002  -0.000  -0.218  -0.001  -0.000   0.002   0.002
 -0.010   0.013  -0.011   0.001   0.005  -0.025   0.001   0.009  -0.001  -0.001  -0.010  -0.001  -0.500   0.002  -0.001  -0.005


------------------------ aborting loop because EDIFF is reached ----------------------------------------


    CHARGE:  cpu time      0.1587: real time      0.1618
    FORLOC:  cpu time      0.0074: real time      0.0074
    FORNL :  cpu time      6.1996: real time      6.3060
    STRESS:  cpu time     23.7758: real time     24.2883
    FORCOR:  cpu time      0.0202: real time      0.0205
    FORHAR:  cpu time      0.0100: real time      0.0100
    MIXING:  cpu time      0.0009: real time      0.0009
    OFIELD:  cpu time      0.0001: real time      0.0000

  FORCE on cell =-STRESS in cart. coord.  units (eV):
  Direction    XX          YY          ZZ          XY          YZ          ZX
  --------------------------------------------------------------------------------------
  Alpha Z  3931.00071  3931.00071  3931.00071
  Ewald  -12698.34610-12976.70981-12558.35278    86.56606    62.42675   -33.13047
  Hartree  2438.19639  2288.31218  2531.60870    73.94320    55.73544   -34.04278
  E(xc)   -2171.62879 -2171.36062 -2170.16815     0.20719     0.06033    -0.10179
  Local    1418.49993  1840.95075  1193.75373  -158.97621  -118.21137    64.42082
  n-local -1265.18060 -1271.41533 -1267.94463    -1.32245    -1.87686    -0.86311
  augment   805.41553   806.64977   805.12854    -0.10039     0.35205     0.80601
  Kinetic  7542.56340  7553.05900  7535.36999    -0.24657     1.48099     2.93426
  Fock        0.00000     0.00000     0.00000     0.00000     0.00000     0.00000
  -------------------------------------------------------------------------------------
  Total       0.52047     0.48665     0.39610     0.07083    -0.03266     0.02294
  in kB       1.17818     1.10163     0.89666     0.16033    -0.07394     0.05193
  external pressure =        1.06 kB  Pullay stress =        0.00 kB


 VOLUME and BASIS-vectors are now :
 -----------------------------------------------------------------------------
  energy-cutoff  :      400.00
  volume of cell :      707.77
      direct lattice vectors                 reciprocal lattice vectors
     8.911709232 -0.005113609  0.003572994     0.112211974  0.000064106 -0.000044809
    -0.005119927  8.954660583 -0.010424695     0.000064027  0.111673881  0.000131486
     0.003547596 -0.010444647  8.869127833    -0.000045130  0.000131235  0.112750831

  length of vectors
     8.911711415  8.954668115  8.869134693     0.112212002  0.111673977  0.112750916


 FORCES acting on ions
    electron-ion (+dipol)            ewald-force                    non-local-force                 convergence-correction
 -----------------------------------------------------------------------------------------------
   0.445E+02 0.892E+02 0.279E+02   -.441E+02 -.892E+02 -.280E+02   -.410E+00 0.333E-01 0.806E-01   0.246E-02 0.195E-02 -.473E-02
   0.553E+02 0.112E+03 -.132E+03   -.556E+02 -.113E+03 0.133E+03   0.358E+00 0.131E+01 -.400E+00   0.574E-02 0.737E-03 0.862E-02
   0.579E+02 -.132E+03 -.105E+03   -.574E+02 0.133E+03 0.106E+03   -.521E+00 -.143E+01 -.274E+00   -.381E-02 -.654E-05 0.738E-03
   -.133E+03 -.111E+03 0.192E+02   0.133E+03 0.111E+03 -.194E+02   0.485E+00 0.211E+00 0.215E+00   -.224E-02 0.100E-01 0.663E-03
   -.996E+02 -.798E+02 0.143E+03   0.987E+02 0.807E+02 -.143E+03   0.886E+00 -.923E+00 -.730E+00   -.127E-02 -.372E-02 -.196E-02
   0.180E+03 -.199E+03 -.115E+02   -.180E+03 0.199E+03 0.109E+02   -.688E+00 -.200E+00 0.563E+00   0.862E-03 0.109E-02 0.189E-02
   -.108E+03 0.594E+02 0.166E+03   0.108E+03 -.603E+02 -.167E+03   0.357E+00 0.842E+00 0.219E+00   -.991E-03 0.479E-02 0.487E-03
   0.936E+02 -.384E+02 -.553E+02   -.928E+02 0.385E+02 0.560E+02   -.817E+00 -.116E+00 -.688E+00   0.280E-02 0.452E-02 0.737E-02
   -.612E+02 0.120E+03 -.268E+02   0.620E+02 -.121E+03 0.267E+02   -.759E+00 0.116E+01 0.133E+00   -.725E-02 -.380E-02 -.426E-02
   0.102E+03 -.184E+02 0.414E+02   -.101E+03 0.198E+02 -.420E+02   -.983E+00 -.144E+01 0.628E+00   0.979E-03 0.171E-02 -.603E-02
   -.113E+02 -.960E+02 -.418E+02   0.118E+02 0.967E+02 0.424E+02   -.441E+00 -.713E+00 -.582E+00   0.666E-02 -.350E-02 -.462E-03
   0.113E+03 0.280E+00 0.123E+03   -.112E+03 -.169E+01 -.124E+03   -.490E+00 0.141E+01 0.693E+00   0.117E-02 -.177E-02 -.773E-02
   0.332E+02 -.746E+02 0.102E+03   -.327E+02 0.752E+02 -.102E+03   -.551E+00 -.577E+00 0.142E+00   -.559E-02 0.652E-02 -.657E-03
   0.100E+03 -.236E+02 0.344E+02   -.100E+03 0.239E+02 -.344E+02   -.249E+00 -.315E+00 0.355E-01   -.180E-02 0.354E-02 0.161E-02
   -.767E+02 -.836E+02 -.159E+03   0.766E+02 0.835E+02 0.159E+03   0.125E+00 0.651E-01 -.114E+00   -.317E-02 -.371E-02 0.191E-02
   -.722E+02 0.195E+03 -.193E+03   0.723E+02 -.195E+03 0.194E+03   -.814E-01 0.313E-01 -.381E+00   -.629E-02 -.129E-02 0.105E-01
   -.118E+03 -.129E+03 0.658E+02   0.118E+03 0.130E+03 -.658E+02   -.845E-01 -.276E+00 -.115E-01   0.106E-02 0.339E-02 0.118E-02
   0.649E+02 0.325E+02 -.703E+01   -.656E+02 -.329E+02 0.707E+01   0.669E+00 0.437E+00 -.337E-01   0.784E-02 -.504E-02 -.502E-02
   -.526E+01 -.771E+01 -.326E+02   0.493E+01 0.781E+01 0.328E+02   0.344E+00 -.101E+00 -.197E+00   -.829E-02 -.349E-02 -.203E-02
   0.183E+02 -.605E+00 -.316E+02   -.172E+02 0.359E+00 0.315E+02   -.117E+01 0.246E+00 0.834E-01   -.124E-02 -.345E-03 0.152E-02
   0.356E+01 0.264E+02 0.198E+02   -.411E+01 -.262E+02 -.192E+02   0.539E+00 -.207E+00 -.576E+00   0.714E-02 -.905E-03 -.466E-03
   0.291E+02 -.368E+02 0.199E+02   -.290E+02 0.352E+02 -.204E+02   -.546E-01 0.156E+01 0.507E+00   0.143E-02 0.707E-02 -.654E-03
   -.378E+02 -.785E+02 -.581E+02   0.380E+02 0.777E+02 0.578E+02   -.209E+00 0.769E+00 0.304E+00   0.117E-02 0.404E-03 0.262E-02
   -.107E+01 0.457E+02 0.266E+02   0.155E+01 -.449E+02 -.280E+02   -.481E+00 -.796E+00 0.142E+01   -.719E-02 -.218E-02 -.226E-02
   -.186E+02 0.478E+02 -.438E+02   0.173E+02 -.484E+02 0.444E+02   0.126E+01 0.589E+00 -.520E+00   -.165E-02 -.188E-02 0.144E-02
   0.112E+03 -.114E+03 -.549E+00   -.112E+03 0.116E+03 0.141E+01   0.143E+00 -.229E+01 -.865E+00   0.869E-03 -.184E-02 0.247E-02
   -.386E+02 0.637E+01 -.907E+01   0.376E+02 -.713E+01 0.856E+01   0.103E+01 0.758E+00 0.516E+00   -.310E-03 0.174E-03 -.225E-02
   0.226E+02 0.379E+02 0.110E+03   -.228E+02 -.386E+02 -.109E+03   0.152E+00 0.700E+00 -.837E+00   0.318E-03 -.766E-03 -.943E-02
   -.337E+02 -.707E+02 0.408E+02   0.321E+02 0.696E+02 -.396E+02   0.162E+01 0.118E+01 -.126E+01   0.497E-02 -.163E-02 -.267E-02
   -.773E+02 0.941E+02 -.231E+02   0.763E+02 -.959E+02 0.242E+02   0.103E+01 0.181E+01 -.116E+01   0.158E-02 -.155E-02 0.196E-02
   -.343E+02 -.811E+02 -.978E+01   0.331E+02 0.797E+02 0.111E+02   0.123E+01 0.138E+01 -.136E+01   -.112E-03 -.415E-02 -.344E-02
   -.198E+02 0.371E+02 0.431E+02   0.196E+02 -.373E+02 -.435E+02   0.145E+00 0.233E+00 0.371E+00   -.186E-03 -.700E-02 -.138E-02
   0.259E+02 0.683E+02 -.897E+02   -.249E+02 -.678E+02 0.880E+02   -.992E+00 -.482E+00 0.165E+01   0.167E-02 0.241E-02 0.842E-02
   -.217E+02 0.108E+01 0.119E+02   0.215E+02 -.508E+00 -.128E+02   0.133E+00 -.566E+00 0.925E+00   -.123E-02 -.186E-03 0.303E-02
   0.584E+02 0.158E+02 -.498E+02   -.573E+02 -.163E+02 0.506E+02   -.111E+01 0.458E+00 -.836E+00   0.249E-02 0.112E-03 0.113E-02
   0.365E+02 -.254E+02 0.129E+02   -.362E+02 0.257E+02 -.119E+02   -.300E+00 -.267E+00 -.994E+00   -.464E-03 0.113E-02 -.931E-03
   0.442E+02 0.409E+02 -.305E+02   -.440E+02 -.408E+02 0.301E+02   -.211E+00 -.850E-01 0.399E+00   0.295E-03 -.615E-02 -.322E-02
   -.551E+02 0.761E+02 -.817E+02   0.544E+02 -.761E+02 0.817E+02   0.676E+00 -.843E-03 0.642E-01   -.241E-02 -.437E-03 0.149E-02
   -.476E+02 -.431E+02 0.383E+01   0.474E+02 0.429E+02 -.387E+01   0.207E+00 0.177E+00 0.381E-01   0.437E-03 0.214E-02 0.135E-03
   -.870E+02 -.516E+02 -.891E+02   0.848E+02 0.526E+02 0.878E+02   0.213E+01 -.948E+00 0.136E+01   -.949E-03 0.135E-02 -.203E-02
   0.240E+02 -.364E+01 0.261E+02   -.228E+02 0.285E+01 -.261E+02   -.114E+01 0.780E+00 0.424E-01   -.413E-02 0.278E-03 -.110E-02
   0.557E+02 0.466E+02 -.253E+02   -.540E+02 -.475E+02 0.252E+02   -.165E+01 0.897E+00 0.851E-01   -.134E-02 -.928E-03 0.448E-03
   0.505E+02 0.456E+02 -.137E+02   -.504E+02 -.443E+02 0.140E+02   -.988E-01 -.136E+01 -.289E+00   0.541E-03 -.413E-03 0.189E-03
   0.214E+02 0.207E+01 0.474E+02   -.203E+02 -.117E+01 -.481E+02   -.112E+01 -.898E+00 0.702E+00   0.970E-03 -.398E-03 -.125E-02
   -.511E+02 -.464E+02 -.208E+02   0.498E+02 0.470E+02 0.198E+02   0.132E+01 -.603E+00 0.103E+01   -.428E-02 0.103E-02 0.882E-03
   0.753E+02 -.376E+02 0.421E+02   -.743E+02 0.371E+02 -.414E+02   -.979E+00 0.513E+00 -.772E+00   0.121E-03 0.180E-03 0.316E-02
   0.713E+02 -.283E+02 0.641E+01   -.713E+02 0.283E+02 -.691E+01   0.184E-01 0.214E-01 0.510E+00   0.165E-02 0.993E-03 -.170E-02
   -.316E+02 0.522E+02 0.793E+02   0.304E+02 -.506E+02 -.791E+02   0.121E+01 -.151E+01 -.188E+00   -.115E-02 0.127E-02 -.139E-02
   0.401E+02 -.824E+02 -.139E+01   -.379E+02 0.818E+02 0.134E+01   -.218E+01 0.672E+00 0.519E-01   0.417E-02 0.151E-02 -.281E-04
   -.734E+02 0.540E+02 0.158E+02   0.720E+02 -.524E+02 -.157E+02   0.138E+01 -.162E+01 -.110E+00   -.298E-04 0.348E-02 0.194E-02
   -.724E+02 -.220E+02 0.938E+02   0.720E+02 0.220E+02 -.925E+02   0.438E+00 0.288E-01 -.133E+01   -.191E-02 0.639E-02 0.195E-02
   -.417E+02 0.927E+02 0.229E+02   0.413E+02 -.920E+02 -.232E+02   0.397E+00 -.623E+00 0.268E+00   -.242E-02 -.896E-02 0.109E-03
   0.145E+03 -.102E+03 -.225E+01   -.145E+03 0.103E+03 0.244E+01   -.445E+00 -.100E+01 -.187E+00   0.229E-02 -.649E-03 -.174E-02
   -.139E+03 0.791E+02 -.162E+03   0.138E+03 -.805E+02 0.163E+03   0.941E+00 0.136E+01 -.840E+00   -.109E-02 0.395E-02 -.484E-03
   0.696E+02 0.832E+02 0.136E+03   -.698E+02 -.838E+02 -.137E+03   0.222E+00 0.583E+00 0.909E+00   0.597E-03 -.619E-02 -.748E-02
   -.845E+02 0.126E+03 -.209E+02   0.829E+02 -.127E+03 0.211E+02   0.159E+01 0.124E+01 -.191E+00   -.742E-03 -.612E-02 -.253E-04
   -.779E+02 0.109E+03 0.166E+03   0.781E+02 -.110E+03 -.166E+03   -.226E+00 0.989E+00 0.394E+00   -.692E-03 -.603E-02 -.873E-02
   0.680E+02 0.144E+02 0.424E+01   -.677E+02 -.146E+02 -.448E+01   -.314E+00 0.152E+00 0.236E+00   -.186E-02 0.309E-02 0.470E-02
   0.646E+02 0.716E+02 -.780E+02   -.642E+02 -.704E+02 0.785E+02   -.407E+00 -.115E+01 -.538E+00   0.664E-03 -.267E-02 0.530E-02
   -.717E+02 -.940E+02 -.821E+02   0.699E+02 0.953E+02 0.814E+02   0.185E+01 -.130E+01 0.693E+00   0.161E-02 0.974E-03 0.411E-03
   0.641E+02 0.969E+02 -.440E+02   -.626E+02 -.970E+02 0.428E+02   -.151E+01 0.660E-01 0.120E+01   0.400E-03 -.228E-03 0.278E-02
   -.822E+02 -.460E+02 -.113E+02   0.814E+02 0.474E+02 0.114E+02   0.878E+00 -.141E+01 -.428E-01   -.591E-03 0.330E-02 -.478E-04
   -.363E+02 -.320E+02 0.785E+02   0.354E+02 0.332E+02 -.777E+02   0.892E+00 -.122E+01 -.818E+00   0.260E-02 0.368E-02 -.581E-03
   -.286E+02 0.941E+01 0.139E+02   0.285E+02 -.109E+02 -.140E+02   0.810E-01 0.153E+01 0.688E-01   0.118E-02 0.223E-02 0.211E-02
 -----------------------------------------------------------------------------------------------
   -.406E+01 0.237E+00 0.586E+00   -.256E-12 0.114E-11 -.101E-11   0.407E+01 -.231E+00 -.585E+00   -.793E-02 -.252E-02 -.296E-02
 
 
 POSITION                                       TOTAL-FORCE (eV/Angst)
 -----------------------------------------------------------------------------------
      8.89704      8.90452      0.07429         0.001250      0.004066     -0.001269
      2.13926      8.89925      2.20824         0.003034      0.003935      0.000483
      2.32026      4.47281      2.23151        -0.001170     -0.000760      0.001843
      4.45840      4.44120      8.84730         0.001209      0.004436      0.000462
      4.43423      2.31100      6.68040         0.000817     -0.001706     -0.002408
      0.06183      4.43388      4.37398        -0.001729     -0.000047      0.000591
      4.48846      6.61017      6.63230         0.000488      0.002493     -0.001404
      0.03058      2.19409      2.29655        -0.001412      0.000532     -0.003263
      6.74650      6.66272      0.01485        -0.003152      0.001533      0.000285
      0.03484      2.33733      6.58527        -0.001717     -0.003976      0.005849
      6.72398      2.38632      4.42837         0.000412     -0.000839     -0.000318
      8.86542      6.57303      6.57925         0.002146      0.001970      0.001872
      2.29687      4.46709      6.64246        -0.000027     -0.000889     -0.002693
      2.31447      2.29573      8.82711        -0.001288     -0.000526     -0.001203
      4.49775      2.32372      2.18233        -0.000342     -0.000234      0.001721
      6.77589      8.87466      2.21041        -0.004496      0.002381     -0.003656
      6.57838      2.25810      0.07151         0.000986     -0.000654     -0.000620
      2.10524      6.65304      0.00670         0.002157      0.001081      0.000217
      2.14906      2.22200      4.47637         0.002714     -0.001098      0.003288
      2.21705      2.23366      2.21074         0.001327     -0.000638      0.001142
      2.18137      0.00735      0.07598        -0.000714      0.000584     -0.000251
      8.89794      2.15886      0.00846        -0.001505      0.000307      0.000065
      6.72315      2.20072      2.26123        -0.002083      0.001221      0.002392
      6.73418      8.91976      0.00157         0.000391      0.000058     -0.003723
      4.46005      0.04418      2.20855         0.000655      0.000954     -0.001185
      0.04897      4.38792      2.27696        -0.001771      0.003156      0.000381
      4.48098      6.68123      8.79643         0.000553     -0.001565      0.000699
      8.90051      0.02622      6.72780        -0.000074      0.000686     -0.001048
      6.68131      2.22750      6.62917        -0.001372      0.001118      0.000311
      6.71395      0.09840      4.40486        -0.001128      0.000192     -0.001813
      4.50950      2.25117      4.46194        -0.002028     -0.001501      0.002991
      4.47905      0.01393      6.66293         0.000002     -0.000381     -0.000096
      0.04976      0.02760      2.18188        -0.000043      0.000566     -0.003593
      4.45102      2.29745      8.82771        -0.000892      0.001392     -0.001870
      2.17267      6.70626      2.17275        -0.000223     -0.000353      0.001695
      2.26308      4.48811      0.02294         0.000154      0.000359      0.001839
      8.88870      6.73620      8.85755        -0.000416      0.002573      0.000192
      6.71746      6.63354      2.22623        -0.002379      0.000441      0.001677
      6.61094      4.45589      8.86134        -0.001351     -0.001046     -0.002444
      4.37443      4.46429      2.17600         0.001335      0.004470     -0.002257
      2.24673      2.26286      6.64845         0.001491     -0.002569      0.001030
      2.21310      0.02022      4.36561         0.000103     -0.001737      0.001297
      8.89001      2.28666      4.45177        -0.001023     -0.001404      0.001171
      2.22586      6.67086      6.68937         0.001690     -0.001269     -0.000695
      2.25512      4.42246      4.39583        -0.000835     -0.000951     -0.000508
      8.84163      6.74439      4.43676        -0.000329     -0.000714     -0.000927
      0.00073      4.45681      6.60256         0.000487      0.000233      0.000120
      6.64723      6.66557      6.64953         0.001123      0.000549      0.000089
      6.75714      4.46452      4.40206         0.002159     -0.003283     -0.000534
      4.50040      6.67796      4.49072         0.000027      0.000205      0.001793
      4.45159      4.46853      6.65548         0.000652      0.000479     -0.000277
      4.45307      0.02933      0.00674         0.000296     -0.001617     -0.000399
      8.88685      4.45039      0.06284        -0.000349     -0.004095     -0.001467
      4.44785      6.67744      2.20583        -0.002511      0.000488      0.000461
      2.18349      8.94152      6.67509         0.000891     -0.003402      0.003701
      4.42596      8.94655      4.41961         0.001480     -0.000270     -0.000434
      6.71695      8.89118      6.61438         0.001896      0.001965     -0.001019
      2.20330      6.69677      4.42442        -0.000264     -0.000401      0.000033
      8.87734      6.86129      2.27350        -0.000399     -0.002446     -0.001106
      6.45963      4.43896      2.16381         0.006555     -0.001030     -0.001492
      0.09673      0.10520      4.30345        -0.003696     -0.003278      0.006337
      4.50742      4.53691      4.40978        -0.000565     -0.003928     -0.001560
      6.58929      4.54245      6.68960         0.003631     -0.003705     -0.003222
      6.68213      6.47264      4.40916        -0.000826      0.007888      0.002727
 -----------------------------------------------------------------------------------
    total drift:                                0.004233      0.003022     -0.002629


--------------------------------------------------------------------------------------------------------



  FREE ENERGIE OF THE ION-ELECTRON SYSTEM (eV)
  ---------------------------------------------------
  free  energy   TOTEN  =      -649.92218209 eV

  energy  without entropy=     -649.81802255  energy(sigma->0) =     -649.87010232
 
 d Force =-0.3496223E-06[-0.353E-06,-0.347E-06]  d Energy = 0.1334574E-03-0.134E-03
 d Force = 0.5420061E-02[ 0.541E-02, 0.543E-02]  d Ewald  =-0.2294880E+01 0.230E+01


--------------------------------------------------------------------------------------------------------


    POTLOK:  cpu time      0.0285: real time      0.0288


--------------------------------------------------------------------------------------------------------




--------------------------------------------------------------------------------------------------------


  
 reached required accuracy - stopping structural energy minimisation
     LOOP+:  cpu time    124.0408: real time    126.5048
    4ORBIT:  cpu time      0.0000: real time      0.0000

 total amount of memory used by VASP MPI-rank0   270971. kBytes
=======================================================================

   base      :      30000. kBytes
   nonl-proj :     196223. kBytes
   fftplans  :       1680. kBytes
   grid      :       8060. kBytes
   one-center:        995. kBytes
   wavefun   :      34013. kBytes
 
  
  
 General timing and accounting informations for this job:
 ========================================================
  
                  Total CPU time used (sec):     2093.239
                            User time (sec):     2085.774
                          System time (sec):        7.465
                         Elapsed time (sec):     2116.982
  
                   Maximum memory used (kb):      363100.
                   Average memory used (kb):          N/A
  
                          Minor page faults:       628097
                          Major page faults:            1
                 Voluntary context switches:         1575
