  64  64   0   0
  0.1058523E+02  0.8773224E-09  0.8757725E-09  0.8817270E-09  0.5000000E-15
  1.000000000000000E-004
  CAR 
 HECN                                    
     14.52461573    -60.66330756  301      7.80987898      1.00000000
    -60.663  0.0000E+00  0.0000E+00
    -60.413  0.0000E+00  0.0000E+00
    -60.162  0.0000E+00  0.0000E+00
    -59.911  0.0000E+00  0.0000E+00
    -59.661  0.0000E+00  0.0000E+00
    -59.410  0.0000E+00  0.0000E+00
    -59.160  0.0000E+00  0.0000E+00
    -58.909  0.0000E+00  0.0000E+00
    -58.658  0.0000E+00  0.0000E+00
    -58.408  0.0000E+00  0.0000E+00
    -58.157  0.0000E+00  0.0000E+00
    -57.906  0.0000E+00  0.0000E+00
    -57.656  0.2642E-09  0.6621E-10
    -57.405  0.9831E-03  0.2464E-03
    -57.155  0.1202E+00  0.3037E-01
    -56.904  0.3660E+00  0.1221E+00
    -56.653  0.7141E-01  0.1400E+00
    -56.403  0.9540E-05  0.1400E+00
    -56.152  0.1885E-13  0.1400E+00
    -55.901  0.0000E+00  0.1400E+00
    -55.651  0.0000E+00  0.1400E+00
    -55.400  0.0000E+00  0.1400E+00
    -55.150  0.0000E+00  0.1400E+00
    -54.899  0.0000E+00  0.1400E+00
    -54.648  0.0000E+00  0.1400E+00
    -54.398  0.0000E+00  0.1400E+00
    -54.147  0.0000E+00  0.1400E+00
    -53.896  0.0000E+00  0.1400E+00
    -53.646  0.0000E+00  0.1400E+00
    -53.395  0.0000E+00  0.1400E+00
    -53.145  0.0000E+00  0.1400E+00
    -52.894  0.0000E+00  0.1400E+00
    -52.643  0.0000E+00  0.1400E+00
    -52.393  0.0000E+00  0.1400E+00
    -52.142  0.0000E+00  0.1400E+00
    -51.891  0.0000E+00  0.1400E+00
    -51.641  0.0000E+00  0.1400E+00
    -51.390  0.0000E+00  0.1400E+00
    -51.140  0.0000E+00  0.1400E+00
    -50.889  0.0000E+00  0.1400E+00
    -50.638  0.0000E+00  0.1400E+00
    -50.388  0.0000E+00  0.1400E+00
    -50.137  0.0000E+00  0.1400E+00
    -49.886  0.0000E+00  0.1400E+00
    -49.636  0.0000E+00  0.1400E+00
    -49.385  0.0000E+00  0.1400E+00
    -49.134  0.0000E+00  0.1400E+00
    -48.884  0.0000E+00  0.1400E+00
    -48.633  0.0000E+00  0.1400E+00
    -48.383  0.0000E+00  0.1400E+00
    -48.132  0.0000E+00  0.1400E+00
    -47.881  0.0000E+00  0.1400E+00
    -47.631  0.0000E+00  0.1400E+00
    -47.380  0.0000E+00  0.1400E+00
    -47.129  0.0000E+00  0.1400E+00
    -46.879  0.0000E+00  0.1400E+00
    -46.628  0.0000E+00  0.1400E+00
    -46.378  0.0000E+00  0.1400E+00
    -46.127  0.0000E+00  0.1400E+00
    -45.876  0.0000E+00  0.1400E+00
    -45.626  0.0000E+00  0.1400E+00
    -45.375  0.0000E+00  0.1400E+00
    -45.124  0.0000E+00  0.1400E+00
    -44.874  0.0000E+00  0.1400E+00
    -44.623  0.0000E+00  0.1400E+00
    -44.373  0.0000E+00  0.1400E+00
    -44.122  0.0000E+00  0.1400E+00
    -43.871  0.0000E+00  0.1400E+00
    -43.621  0.0000E+00  0.1400E+00
    -43.370  0.0000E+00  0.1400E+00
    -43.119  0.0000E+00  0.1400E+00
    -42.869  0.0000E+00  0.1400E+00
    -42.618  0.0000E+00  0.1400E+00
    -42.368  0.0000E+00  0.1400E+00
    -42.117  0.0000E+00  0.1400E+00
    -41.866  0.1837E-09  0.1400E+00
    -41.616  0.9327E-03  0.1402E+00
    -41.365  0.1274E+00  0.1722E+00
    -41.114  0.8750E-01  0.1941E+00
    -40.864  0.3744E-01  0.2035E+00
    -40.613  0.2119E+00  0.2566E+00
    -40.363  0.3280E-01  0.2648E+00
    -40.112  0.6040E-01  0.2800E+00
    -39.861  0.1794E-03  0.2800E+00
    -39.611  0.6819E-11  0.2800E+00
    -39.360  0.0000E+00  0.2800E+00
    -39.109  0.0000E+00  0.2800E+00
    -38.859  0.0000E+00  0.2800E+00
    -38.608  0.0000E+00  0.2800E+00
    -38.358  0.0000E+00  0.2800E+00
    -38.107  0.0000E+00  0.2800E+00
    -37.856  0.0000E+00  0.2800E+00
    -37.606  0.0000E+00  0.2800E+00
    -37.355  0.0000E+00  0.2800E+00
    -37.104  0.0000E+00  0.2800E+00
    -36.854  0.0000E+00  0.2800E+00
    -36.603  0.0000E+00  0.2800E+00
    -36.353  0.3153E-07  0.2800E+00
    -36.102  0.8840E-02  0.2822E+00
    -35.851  0.3449E+00  0.3687E+00
    -35.601  0.9569E+00  0.6085E+00
    -35.350  0.1256E+00  0.6400E+00
    -35.099  0.8113E-04  0.6400E+00
    -34.849  0.1246E-11  0.6400E+00
    -34.598  0.0000E+00  0.6400E+00
    -34.348  0.0000E+00  0.6400E+00
    -34.097  0.0000E+00  0.6400E+00
    -33.846  0.0000E+00  0.6400E+00
    -33.596  0.0000E+00  0.6400E+00
    -33.345  0.0000E+00  0.6400E+00
    -33.094  0.0000E+00  0.6400E+00
    -32.844  0.0000E+00  0.6400E+00
    -32.593  0.0000E+00  0.6400E+00
    -32.343  0.0000E+00  0.6400E+00
    -32.092  0.1039E-10  0.6400E+00
    -31.841  0.2563E-03  0.6401E+00
    -31.591  0.1985E+00  0.6898E+00
    -31.340  0.8642E+00  0.9064E+00
    -31.089  0.7862E+00  0.1103E+01
    -30.839  0.1046E+01  0.1366E+01
    -30.588  0.2172E+00  0.1420E+01
    -30.338  0.1942E-03  0.1420E+01
    -30.087  0.5570E-11  0.1420E+01
    -29.836  0.0000E+00  0.1420E+01
    -29.586  0.0000E+00  0.1420E+01
    -29.335  0.0000E+00  0.1420E+01
    -29.084  0.0000E+00  0.1420E+01
    -28.834  0.0000E+00  0.1420E+01
    -28.583  0.2215E-16  0.1420E+01
    -28.333  0.2813E-06  0.1420E+01
    -28.082  0.2283E-01  0.1426E+01
    -27.831  0.3029E+00  0.1502E+01
    -27.581  0.3833E+00  0.1598E+01
    -27.330  0.4720E+00  0.1716E+01
    -27.079  0.2062E+00  0.1768E+01
    -26.829  0.4907E-01  0.1780E+01
    -26.578  0.4541E-05  0.1780E+01
    -26.327  0.4676E-14  0.1780E+01
    -26.077  0.0000E+00  0.1780E+01
    -25.826  0.0000E+00  0.1780E+01
    -25.576  0.0000E+00  0.1780E+01
    -25.325  0.0000E+00  0.1780E+01
    -25.074  0.0000E+00  0.1780E+01
    -24.824  0.0000E+00  0.1780E+01
    -24.573  0.0000E+00  0.1780E+01
    -24.322  0.0000E+00  0.1780E+01
    -24.072  0.0000E+00  0.1780E+01
    -23.821  0.0000E+00  0.1780E+01
    -23.571  0.0000E+00  0.1780E+01
    -23.320  0.0000E+00  0.1780E+01
    -23.069  0.0000E+00  0.1780E+01
    -22.819  0.0000E+00  0.1780E+01
    -22.568  0.0000E+00  0.1780E+01
    -22.317  0.0000E+00  0.1780E+01
    -22.067  0.0000E+00  0.1780E+01
    -21.816  0.0000E+00  0.1780E+01
    -21.566  0.0000E+00  0.1780E+01
    -21.315  0.0000E+00  0.1780E+01
    -21.064  0.0000E+00  0.1780E+01
    -20.814  0.0000E+00  0.1780E+01
    -20.563  0.5891E-13  0.1780E+01
    -20.312  0.1642E-04  0.1780E+01
    -20.062  0.4045E-01  0.1790E+01
    -19.811  0.1707E+00  0.1833E+01
    -19.561  0.2674E+00  0.1900E+01
    -19.310  0.2505E+00  0.1963E+01
    -19.059  0.5263E+00  0.2095E+01
    -18.809  0.2541E+00  0.2158E+01
    -18.558  0.1659E+00  0.2200E+01
    -18.307  0.3993E-03  0.2200E+01
    -18.057  0.1584E-10  0.2200E+01
    -17.806  0.0000E+00  0.2200E+01
    -17.556  0.0000E+00  0.2200E+01
    -17.305  0.0000E+00  0.2200E+01
    -17.054  0.0000E+00  0.2200E+01
    -16.804  0.0000E+00  0.2200E+01
    -16.553  0.0000E+00  0.2200E+01
    -16.302  0.0000E+00  0.2200E+01
    -16.052  0.0000E+00  0.2200E+01
    -15.801  0.0000E+00  0.2200E+01
    -15.551  0.0000E+00  0.2200E+01
    -15.300  0.0000E+00  0.2200E+01
    -15.049  0.0000E+00  0.2200E+01
    -14.799  0.0000E+00  0.2200E+01
    -14.548  0.0000E+00  0.2200E+01
    -14.297  0.0000E+00  0.2200E+01
    -14.047  0.0000E+00  0.2200E+01
    -13.796  0.0000E+00  0.2200E+01
    -13.546  0.0000E+00  0.2200E+01
    -13.295  0.0000E+00  0.2200E+01
    -13.044  0.0000E+00  0.2200E+01
    -12.794  0.0000E+00  0.2200E+01
    -12.543  0.0000E+00  0.2200E+01
    -12.292  0.0000E+00  0.2200E+01
    -12.042  0.0000E+00  0.2200E+01
    -11.791  0.0000E+00  0.2200E+01
    -11.541  0.0000E+00  0.2200E+01
    -11.290  0.0000E+00  0.2200E+01
    -11.039  0.0000E+00  0.2200E+01
    -10.789  0.0000E+00  0.2200E+01
    -10.538  0.0000E+00  0.2200E+01
    -10.287  0.0000E+00  0.2200E+01
    -10.037  0.0000E+00  0.2200E+01
     -9.786  0.0000E+00  0.2200E+01
     -9.536  0.0000E+00  0.2200E+01
     -9.285  0.0000E+00  0.2200E+01
     -9.034  0.1749E-09  0.2200E+01
     -8.784  0.2095E-03  0.2200E+01
     -8.533  0.4462E-01  0.2211E+01
     -8.282  0.4320E-01  0.2222E+01
     -8.032  0.7702E-01  0.2241E+01
     -7.781  0.8177E-01  0.2262E+01
     -7.531  0.1167E+00  0.2291E+01
     -7.280  0.1776E+00  0.2336E+01
     -7.029  0.1835E+00  0.2382E+01
     -6.779  0.1818E+00  0.2427E+01
     -6.528  0.1143E+00  0.2456E+01
     -6.277  0.1662E-01  0.2460E+01
     -6.027  0.5337E-06  0.2460E+01
     -5.776  0.1378E-05  0.2460E+01
     -5.525  0.6860E-02  0.2462E+01
     -5.275  0.5979E-01  0.2477E+01
     -5.024  0.1358E-01  0.2480E+01
     -4.774  0.5972E-01  0.2495E+01
     -4.523  0.1135E+00  0.2524E+01
     -4.272  0.1346E+00  0.2557E+01
     -4.022  0.1926E+00  0.2606E+01
     -3.771  0.2265E+00  0.2662E+01
     -3.520  0.1866E+00  0.2709E+01
     -3.270  0.1852E+00  0.2755E+01
     -3.019  0.1608E+00  0.2796E+01
     -2.769  0.9457E-01  0.2819E+01
     -2.518  0.7545E-01  0.2838E+01
     -2.267  0.6380E-02  0.2840E+01
     -2.017  0.4867E-05  0.2840E+01
     -1.766  0.1161E-12  0.2840E+01
     -1.515  0.0000E+00  0.2840E+01
     -1.265  0.0000E+00  0.2840E+01
     -1.014  0.8039E-17  0.2840E+01
     -0.764  0.3425E-07  0.2840E+01
     -0.513  0.1238E-02  0.2840E+01
     -0.262  0.1011E-01  0.2843E+01
     -0.012  0.6516E-01  0.2859E+01
      0.239  0.9404E-01  0.2883E+01
      0.490  0.1240E+00  0.2914E+01
      0.740  0.1794E+00  0.2959E+01
      0.991  0.2754E+00  0.3028E+01
      1.241  0.2521E+00  0.3091E+01
      1.492  0.2467E+00  0.3153E+01
      1.743  0.3229E+00  0.3234E+01
      1.993  0.3060E+00  0.3310E+01
      2.244  0.3818E+00  0.3406E+01
      2.495  0.4943E+00  0.3530E+01
      2.745  0.5779E+00  0.3675E+01
      2.996  0.5846E+00  0.3821E+01
      3.246  0.5804E+00  0.3967E+01
      3.497  0.5717E+00  0.4110E+01
      3.748  0.5343E+00  0.4244E+01
      3.998  0.4700E+00  0.4362E+01
      4.249  0.4117E+00  0.4465E+01
      4.500  0.3341E+00  0.4549E+01
      4.750  0.3196E+00  0.4629E+01
      5.001  0.2562E+00  0.4693E+01
      5.251  0.1494E+00  0.4730E+01
      5.502  0.1087E+00  0.4758E+01
      5.753  0.9458E-01  0.4781E+01
      6.003  0.1970E+00  0.4831E+01
      6.254  0.2010E+00  0.4881E+01
      6.505  0.1659E+00  0.4923E+01
      6.755  0.1982E+00  0.4972E+01
      7.006  0.2244E+00  0.5029E+01
      7.256  0.2765E+00  0.5098E+01
      7.507  0.2992E+00  0.5173E+01
      7.758  0.2902E+00  0.5246E+01
      8.008  0.3152E+00  0.5325E+01
      8.259  0.4094E+00  0.5427E+01
      8.510  0.4969E+00  0.5552E+01
      8.760  0.5349E+00  0.5686E+01
      9.011  0.5156E+00  0.5815E+01
      9.261  0.5025E+00  0.5941E+01
      9.512  0.4632E+00  0.6057E+01
      9.763  0.4615E+00  0.6173E+01
     10.013  0.4295E+00  0.6280E+01
     10.264  0.4522E+00  0.6394E+01
     10.515  0.4691E+00  0.6511E+01
     10.765  0.4322E+00  0.6620E+01
     11.016  0.3321E+00  0.6703E+01
     11.266  0.6832E-01  0.6720E+01
     11.517  0.1599E-03  0.6720E+01
     11.768  0.3114E-10  0.6720E+01
     12.018  0.0000E+00  0.6720E+01
     12.269  0.0000E+00  0.6720E+01
     12.520  0.0000E+00  0.6720E+01
     12.770  0.0000E+00  0.6720E+01
     13.021  0.0000E+00  0.6720E+01
     13.271  0.0000E+00  0.6720E+01
     13.522  0.0000E+00  0.6720E+01
     13.773  0.0000E+00  0.6720E+01
     14.023  0.0000E+00  0.6720E+01
     14.274  0.0000E+00  0.6720E+01
     14.525  0.0000E+00  0.6720E+01
