  64  64   0   0
  0.1129557E+02  0.8932500E-09  0.9055600E-09  0.8937200E-09  0.5000000E-15
  1.000000000000000E-004
  CAR 
 HECN                                    
     13.97197831    -44.01264042  301      7.91263247      1.00000000
    -44.013  0.0000E+00  0.0000E+00
    -43.819  0.0000E+00  0.0000E+00
    -43.626  0.0000E+00  0.0000E+00
    -43.433  0.0000E+00  0.0000E+00
    -43.240  0.0000E+00  0.0000E+00
    -43.046  0.0000E+00  0.0000E+00
    -42.853  0.0000E+00  0.0000E+00
    -42.660  0.0000E+00  0.0000E+00
    -42.466  0.0000E+00  0.0000E+00
    -42.273  0.0000E+00  0.0000E+00
    -42.080  0.0000E+00  0.0000E+00
    -41.887  0.2975E-13  0.5749E-14
    -41.693  0.4006E-06  0.7742E-07
    -41.500  0.4479E-02  0.8659E-03
    -41.307  0.1414E+00  0.2819E-01
    -41.113  0.1575E+00  0.5862E-01
    -40.920  0.6217E-01  0.7064E-01
    -40.727  0.2326E+00  0.1156E+00
    -40.534  0.2486E-01  0.1204E+00
    -40.340  0.7562E-01  0.1350E+00
    -40.147  0.2578E-01  0.1400E+00
    -39.954  0.3365E-04  0.1400E+00
    -39.760  0.4186E-10  0.1400E+00
    -39.567  0.0000E+00  0.1400E+00
    -39.374  0.0000E+00  0.1400E+00
    -39.181  0.0000E+00  0.1400E+00
    -38.987  0.0000E+00  0.1400E+00
    -38.794  0.0000E+00  0.1400E+00
    -38.601  0.0000E+00  0.1400E+00
    -38.407  0.0000E+00  0.1400E+00
    -38.214  0.0000E+00  0.1400E+00
    -38.021  0.0000E+00  0.1400E+00
    -37.828  0.0000E+00  0.1400E+00
    -37.634  0.0000E+00  0.1400E+00
    -37.441  0.0000E+00  0.1400E+00
    -37.248  0.0000E+00  0.1400E+00
    -37.054  0.0000E+00  0.1400E+00
    -36.861  0.0000E+00  0.1400E+00
    -36.668  0.0000E+00  0.1400E+00
    -36.475  0.2872E-16  0.1400E+00
    -36.281  0.4380E-08  0.1400E+00
    -36.088  0.4512E-03  0.1401E+00
    -35.895  0.6525E-01  0.1527E+00
    -35.702  0.4391E+00  0.2376E+00
    -35.508  0.1017E+01  0.4341E+00
    -35.315  0.3203E+00  0.4960E+00
    -35.122  0.2047E-01  0.5000E+00
    -34.928  0.1130E-04  0.5000E+00
    -34.735  0.6419E-11  0.5000E+00
    -34.542  0.0000E+00  0.5000E+00
    -34.349  0.0000E+00  0.5000E+00
    -34.155  0.0000E+00  0.5000E+00
    -33.962  0.0000E+00  0.5000E+00
    -33.769  0.0000E+00  0.5000E+00
    -33.575  0.0000E+00  0.5000E+00
    -33.382  0.0000E+00  0.5000E+00
    -33.189  0.0000E+00  0.5000E+00
    -32.996  0.0000E+00  0.5000E+00
    -32.802  0.0000E+00  0.5000E+00
    -32.609  0.0000E+00  0.5000E+00
    -32.416  0.5744E-17  0.5000E+00
    -32.222  0.1457E-08  0.5000E+00
    -32.029  0.2527E-03  0.5000E+00
    -31.836  0.6014E-01  0.5117E+00
    -31.643  0.2168E+00  0.5536E+00
    -31.449  0.4129E+00  0.6334E+00
    -31.256  0.9423E+00  0.8155E+00
    -31.063  0.2290E+00  0.8598E+00
    -30.869  0.1219E-02  0.8600E+00
    -30.676  0.1674E-07  0.8600E+00
    -30.483  0.2068E-15  0.8600E+00
    -30.290  0.0000E+00  0.8600E+00
    -30.096  0.0000E+00  0.8600E+00
    -29.903  0.0000E+00  0.8600E+00
    -29.710  0.0000E+00  0.8600E+00
    -29.516  0.0000E+00  0.8600E+00
    -29.323  0.0000E+00  0.8600E+00
    -29.130  0.0000E+00  0.8600E+00
    -28.937  0.0000E+00  0.8600E+00
    -28.743  0.0000E+00  0.8600E+00
    -28.550  0.0000E+00  0.8600E+00
    -28.357  0.1499E-10  0.8600E+00
    -28.164  0.1940E-04  0.8600E+00
    -27.970  0.2748E-01  0.8653E+00
    -27.777  0.2010E+00  0.9042E+00
    -27.584  0.1460E+00  0.9324E+00
    -27.390  0.6949E+00  0.1067E+01
    -27.197  0.9667E+00  0.1254E+01
    -27.004  0.1363E+00  0.1280E+01
    -26.811  0.6959E-03  0.1280E+01
    -26.617  0.7756E-08  0.1280E+01
    -26.424  0.6893E-16  0.1280E+01
    -26.231  0.0000E+00  0.1280E+01
    -26.037  0.0000E+00  0.1280E+01
    -25.844  0.0000E+00  0.1280E+01
    -25.651  0.0000E+00  0.1280E+01
    -25.458  0.0000E+00  0.1280E+01
    -25.264  0.0000E+00  0.1280E+01
    -25.071  0.0000E+00  0.1280E+01
    -24.878  0.0000E+00  0.1280E+01
    -24.684  0.0000E+00  0.1280E+01
    -24.491  0.0000E+00  0.1280E+01
    -24.298  0.0000E+00  0.1280E+01
    -24.105  0.0000E+00  0.1280E+01
    -23.911  0.0000E+00  0.1280E+01
    -23.718  0.0000E+00  0.1280E+01
    -23.525  0.0000E+00  0.1280E+01
    -23.331  0.0000E+00  0.1280E+01
    -23.138  0.0000E+00  0.1280E+01
    -22.945  0.0000E+00  0.1280E+01
    -22.752  0.0000E+00  0.1280E+01
    -22.558  0.0000E+00  0.1280E+01
    -22.365  0.0000E+00  0.1280E+01
    -22.172  0.0000E+00  0.1280E+01
    -21.978  0.0000E+00  0.1280E+01
    -21.785  0.0000E+00  0.1280E+01
    -21.592  0.0000E+00  0.1280E+01
    -21.399  0.0000E+00  0.1280E+01
    -21.205  0.0000E+00  0.1280E+01
    -21.012  0.0000E+00  0.1280E+01
    -20.819  0.0000E+00  0.1280E+01
    -20.626  0.0000E+00  0.1280E+01
    -20.432  0.4124E-11  0.1280E+01
    -20.239  0.8520E-05  0.1280E+01
    -20.046  0.1558E-01  0.1283E+01
    -19.852  0.1103E+00  0.1304E+01
    -19.659  0.2706E+00  0.1357E+01
    -19.466  0.3946E+00  0.1433E+01
    -19.273  0.3567E+00  0.1502E+01
    -19.079  0.6495E+00  0.1627E+01
    -18.886  0.1076E+00  0.1648E+01
    -18.693  0.2502E+00  0.1697E+01
    -18.499  0.1794E-01  0.1700E+01
    -18.306  0.3429E-05  0.1700E+01
    -18.113  0.6714E-12  0.1700E+01
    -17.920  0.0000E+00  0.1700E+01
    -17.726  0.0000E+00  0.1700E+01
    -17.533  0.0000E+00  0.1700E+01
    -17.340  0.0000E+00  0.1700E+01
    -17.146  0.0000E+00  0.1700E+01
    -16.953  0.0000E+00  0.1700E+01
    -16.760  0.0000E+00  0.1700E+01
    -16.567  0.0000E+00  0.1700E+01
    -16.373  0.0000E+00  0.1700E+01
    -16.180  0.0000E+00  0.1700E+01
    -15.987  0.0000E+00  0.1700E+01
    -15.793  0.0000E+00  0.1700E+01
    -15.600  0.0000E+00  0.1700E+01
    -15.407  0.0000E+00  0.1700E+01
    -15.214  0.0000E+00  0.1700E+01
    -15.020  0.0000E+00  0.1700E+01
    -14.827  0.0000E+00  0.1700E+01
    -14.634  0.0000E+00  0.1700E+01
    -14.440  0.0000E+00  0.1700E+01
    -14.247  0.0000E+00  0.1700E+01
    -14.054  0.0000E+00  0.1700E+01
    -13.861  0.0000E+00  0.1700E+01
    -13.667  0.0000E+00  0.1700E+01
    -13.474  0.0000E+00  0.1700E+01
    -13.281  0.0000E+00  0.1700E+01
    -13.088  0.0000E+00  0.1700E+01
    -12.894  0.0000E+00  0.1700E+01
    -12.701  0.0000E+00  0.1700E+01
    -12.508  0.0000E+00  0.1700E+01
    -12.314  0.0000E+00  0.1700E+01
    -12.121  0.0000E+00  0.1700E+01
    -11.928  0.0000E+00  0.1700E+01
    -11.735  0.0000E+00  0.1700E+01
    -11.541  0.0000E+00  0.1700E+01
    -11.348  0.0000E+00  0.1700E+01
    -11.155  0.0000E+00  0.1700E+01
    -10.961  0.0000E+00  0.1700E+01
    -10.768  0.0000E+00  0.1700E+01
    -10.575  0.0000E+00  0.1700E+01
    -10.382  0.0000E+00  0.1700E+01
    -10.188  0.0000E+00  0.1700E+01
     -9.995  0.0000E+00  0.1700E+01
     -9.802  0.0000E+00  0.1700E+01
     -9.608  0.0000E+00  0.1700E+01
     -9.415  0.0000E+00  0.1700E+01
     -9.222  0.0000E+00  0.1700E+01
     -9.029  0.6656E-12  0.1700E+01
     -8.835  0.8746E-06  0.1700E+01
     -8.642  0.1734E-02  0.1700E+01
     -8.449  0.4507E-01  0.1709E+01
     -8.255  0.7881E-01  0.1724E+01
     -8.062  0.8977E-01  0.1742E+01
     -7.869  0.9266E-01  0.1760E+01
     -7.676  0.8560E-01  0.1776E+01
     -7.482  0.9655E-01  0.1795E+01
     -7.289  0.1454E+00  0.1823E+01
     -7.096  0.1840E+00  0.1858E+01
     -6.902  0.2639E+00  0.1909E+01
     -6.709  0.1799E+00  0.1944E+01
     -6.516  0.7914E-01  0.1960E+01
     -6.323  0.2519E-02  0.1960E+01
     -6.129  0.1481E-06  0.1960E+01
     -5.936  0.7599E-14  0.1960E+01
     -5.743  0.1044E-13  0.1960E+01
     -5.550  0.8595E-07  0.1960E+01
     -5.356  0.8186E-03  0.1960E+01
     -5.163  0.4312E-01  0.1968E+01
     -4.970  0.5827E-01  0.1980E+01
     -4.776  0.4211E-01  0.1988E+01
     -4.583  0.1281E+00  0.2013E+01
     -4.390  0.1185E+00  0.2036E+01
     -4.197  0.1709E+00  0.2069E+01
     -4.003  0.2126E+00  0.2110E+01
     -3.810  0.1772E+00  0.2144E+01
     -3.617  0.2210E+00  0.2187E+01
     -3.423  0.2346E+00  0.2232E+01
     -3.230  0.2097E+00  0.2273E+01
     -3.037  0.1573E+00  0.2303E+01
     -2.844  0.1072E+00  0.2324E+01
     -2.650  0.7010E-01  0.2337E+01
     -2.457  0.1348E-01  0.2340E+01
     -2.264  0.1011E-02  0.2340E+01
     -2.070  0.1133E-05  0.2340E+01
     -1.877  0.1311E-11  0.2340E+01
     -1.684  0.0000E+00  0.2340E+01
     -1.491  0.0000E+00  0.2340E+01
     -1.297  0.0000E+00  0.2340E+01
     -1.104  0.5544E-15  0.2340E+01
     -0.911  0.9532E-08  0.2340E+01
     -0.717  0.1282E-03  0.2340E+01
     -0.524  0.3333E-02  0.2341E+01
     -0.331  0.1168E-01  0.2343E+01
     -0.138  0.3484E-01  0.2350E+01
      0.056  0.8797E-01  0.2367E+01
      0.249  0.9678E-01  0.2385E+01
      0.442  0.1445E+00  0.2413E+01
      0.636  0.1838E+00  0.2449E+01
      0.829  0.2192E+00  0.2491E+01
      1.022  0.2627E+00  0.2542E+01
      1.215  0.2361E+00  0.2588E+01
      1.409  0.2874E+00  0.2643E+01
      1.602  0.2837E+00  0.2698E+01
      1.795  0.3121E+00  0.2758E+01
      1.988  0.3259E+00  0.2821E+01
      2.182  0.4049E+00  0.2900E+01
      2.375  0.4801E+00  0.2992E+01
      2.568  0.5325E+00  0.3095E+01
      2.762  0.5882E+00  0.3209E+01
      2.955  0.6476E+00  0.3334E+01
      3.148  0.6796E+00  0.3465E+01
      3.341  0.6497E+00  0.3591E+01
      3.535  0.5793E+00  0.3703E+01
      3.728  0.5119E+00  0.3802E+01
      3.921  0.4351E+00  0.3886E+01
      4.115  0.3542E+00  0.3955E+01
      4.308  0.3239E+00  0.4017E+01
      4.501  0.3108E+00  0.4077E+01
      4.694  0.3044E+00  0.4136E+01
      4.888  0.2314E+00  0.4181E+01
      5.081  0.1826E+00  0.4216E+01
      5.274  0.1382E+00  0.4243E+01
      5.468  0.9868E-01  0.4262E+01
      5.661  0.1285E+00  0.4287E+01
      5.854  0.1854E+00  0.4323E+01
      6.047  0.1844E+00  0.4358E+01
      6.241  0.1909E+00  0.4395E+01
      6.434  0.1833E+00  0.4431E+01
      6.627  0.2113E+00  0.4471E+01
      6.821  0.2364E+00  0.4517E+01
      7.014  0.2784E+00  0.4571E+01
      7.207  0.2789E+00  0.4625E+01
      7.400  0.2956E+00  0.4682E+01
      7.594  0.2891E+00  0.4738E+01
      7.787  0.2620E+00  0.4788E+01
      7.980  0.2575E+00  0.4838E+01
      8.174  0.2834E+00  0.4893E+01
      8.367  0.3490E+00  0.4960E+01
      8.560  0.4024E+00  0.5038E+01
      8.753  0.4511E+00  0.5125E+01
      8.947  0.4700E+00  0.5216E+01
      9.140  0.4882E+00  0.5311E+01
      9.333  0.4627E+00  0.5400E+01
      9.526  0.4409E+00  0.5485E+01
      9.720  0.4113E+00  0.5565E+01
      9.913  0.4104E+00  0.5644E+01
     10.106  0.4246E+00  0.5726E+01
     10.300  0.4289E+00  0.5809E+01
     10.493  0.4500E+00  0.5896E+01
     10.686  0.4482E+00  0.5983E+01
     10.879  0.4887E+00  0.6077E+01
     11.073  0.4561E+00  0.6165E+01
     11.266  0.3066E+00  0.6225E+01
     11.459  0.7854E-01  0.6240E+01
     11.653  0.1624E-02  0.6240E+01
     11.846  0.1091E-06  0.6240E+01
     12.039  0.6569E-14  0.6240E+01
     12.232  0.0000E+00  0.6240E+01
     12.426  0.0000E+00  0.6240E+01
     12.619  0.0000E+00  0.6240E+01
     12.812  0.0000E+00  0.6240E+01
     13.006  0.0000E+00  0.6240E+01
     13.199  0.0000E+00  0.6240E+01
     13.392  0.0000E+00  0.6240E+01
     13.585  0.0000E+00  0.6240E+01
     13.779  0.0000E+00  0.6240E+01
     13.972  0.0000E+00  0.6240E+01
