       N       E                     dE             d eps       ncg     rms          rms(c)
DAV:   1     0.481784818007E+04    0.48178E+04   -0.22349E+05  8624   0.143E+03
DAV:   2    -0.185495061244E+03   -0.50033E+04   -0.48230E+04  8624   0.491E+02
DAV:   3    -0.764137788727E+03   -0.57864E+03   -0.55524E+03 11200   0.144E+02
DAV:   4    -0.795416600750E+03   -0.31279E+02   -0.30464E+02 10864   0.352E+01
DAV:   5    -0.796924189462E+03   -0.15076E+01   -0.14933E+01 11872   0.729E+00    0.665E+01
RMM:   6    -0.745581001433E+03    0.51343E+02   -0.13592E+03 11647   0.614E+01    0.785E+01
RMM:   7    -0.679996027869E+03    0.65585E+02   -0.19696E+02  9043   0.324E+01    0.367E+01
RMM:   8    -0.664735157531E+03    0.15261E+02   -0.48786E+01 10342   0.136E+01    0.109E+01
RMM:   9    -0.664058983640E+03    0.67617E+00   -0.14558E+01 12121   0.532E+00    0.743E+00
RMM:  10    -0.663944783781E+03    0.11420E+00   -0.42012E+00 10665   0.327E+00    0.816E+00
RMM:  11    -0.663796360312E+03    0.14842E+00   -0.20544E+00  9844   0.257E+00    0.702E+00
RMM:  12    -0.663576156943E+03    0.22020E+00   -0.14594E+00 11010   0.209E+00    0.410E+00
RMM:  13    -0.663550846766E+03    0.25310E-01   -0.50010E-01 10058   0.126E+00    0.352E+00
RMM:  14    -0.663465411007E+03    0.85436E-01   -0.19424E-01 10178   0.765E-01    0.145E+00
RMM:  15    -0.663457851936E+03    0.75591E-02   -0.11707E-01 10937   0.442E-01    0.121E+00
RMM:  16    -0.663448308816E+03    0.95431E-02   -0.77911E-02 11232   0.353E-01    0.527E-01
RMM:  17    -0.663448969203E+03   -0.66039E-03   -0.30345E-02 11152   0.249E-01    0.491E-01
RMM:  18    -0.663448410005E+03    0.55920E-03   -0.11355E-02 10151   0.158E-01    0.340E-01
RMM:  19    -0.663447941208E+03    0.46880E-03   -0.60698E-03 10325   0.127E-01    0.197E-01
RMM:  20    -0.663448300009E+03   -0.35880E-03   -0.35524E-03 10859   0.868E-02    0.224E-01
RMM:  21    -0.663448061321E+03    0.23869E-03   -0.13795E-03 10098   0.529E-02    0.428E-02
RMM:  22    -0.663448144099E+03   -0.82778E-04   -0.78725E-04  9671   0.269E-02    0.707E-02
RMM:  23    -0.663448143726E+03    0.37299E-06   -0.33335E-04  7739   0.173E-02    0.268E-02
RMM:  24    -0.663448153132E+03   -0.94069E-05   -0.18462E-04  6206   0.106E-02    0.116E-02
RMM:  25    -0.663448155828E+03   -0.26958E-05   -0.79877E-05  5868   0.831E-03
   1 F= -.66344816E+03 E0= -.66337603E+03  d E =-.663448E+03
       N       E                     dE             d eps       ncg     rms          rms(c)
DAV:   1    -0.667366873165E+03   -0.39187E+01   -0.27033E+02  9856   0.503E+01    0.163E+01
RMM:   2    -0.672087639708E+03   -0.47208E+01   -0.44459E+01  8699   0.175E+01    0.295E+01
RMM:   3    -0.665027420652E+03    0.70602E+01   -0.10033E+01  8624   0.961E+00    0.120E+01
RMM:   4    -0.664419961267E+03    0.60746E+00   -0.28671E+00  9283   0.441E+00    0.937E+00
RMM:   5    -0.663762306891E+03    0.65765E+00   -0.12721E+00  8860   0.294E+00    0.527E+00
RMM:   6    -0.663712718184E+03    0.49589E-01   -0.93624E-01  9542   0.210E+00    0.534E+00
RMM:   7    -0.663529263730E+03    0.18345E+00   -0.38301E-01  9251   0.152E+00    0.183E+00
RMM:   8    -0.663526860209E+03    0.24035E-02   -0.18806E-01 10808   0.824E-01    0.163E+00
RMM:   9    -0.663515267819E+03    0.11592E-01   -0.58228E-02 10568   0.468E-01    0.857E-01
RMM:  10    -0.663513719033E+03    0.15488E-02   -0.22327E-02 11100   0.253E-01    0.557E-01
RMM:  11    -0.663513352094E+03    0.36694E-03   -0.89470E-03 10298   0.166E-01    0.395E-01
RMM:  12    -0.663512838596E+03    0.51350E-03   -0.36496E-03 10522   0.101E-01    0.134E-01
RMM:  13    -0.663513173035E+03   -0.33444E-03   -0.18539E-03 10712   0.641E-02    0.111E-01
RMM:  14    -0.663513275892E+03   -0.10286E-03   -0.81133E-04 10347   0.469E-02    0.136E-01
RMM:  15    -0.663513178710E+03    0.97182E-04   -0.30506E-04  8790   0.294E-02    0.250E-02
RMM:  16    -0.663513185103E+03   -0.63933E-05   -0.16675E-04  8177   0.150E-02    0.113E-02
RMM:  17    -0.663513188229E+03   -0.31256E-05   -0.58107E-05  6053   0.947E-03
   2 F= -.66351319E+03 E0= -.66344888E+03  d E =-.650324E-01
       N       E                     dE             d eps       ncg     rms          rms(c)
DAV:   1    -0.664839767635E+03   -0.13266E+01   -0.61633E+01 10164   0.242E+01    0.895E+00
RMM:   2    -0.667421796948E+03   -0.25820E+01   -0.97049E+00  8923   0.810E+00    0.173E+01
RMM:   3    -0.664104259615E+03    0.33175E+01   -0.30745E+00  8624   0.522E+00    0.494E+00
RMM:   4    -0.664218398699E+03   -0.11414E+00   -0.76692E-01  9747   0.210E+00    0.690E+00
RMM:   5    -0.663920599344E+03    0.29780E+00   -0.29515E-01  8767   0.140E+00    0.221E+00
RMM:   6    -0.663927064792E+03   -0.64654E-02   -0.20181E-01  9506   0.966E-01    0.293E+00
RMM:   7    -0.663875142114E+03    0.51923E-01   -0.89326E-02  9250   0.727E-01    0.970E-01
RMM:   8    -0.663872953251E+03    0.21889E-02   -0.47366E-02 10961   0.404E-01    0.799E-01
RMM:   9    -0.663870628209E+03    0.23250E-02   -0.14626E-02 10428   0.239E-01    0.502E-01
RMM:  10    -0.663869499465E+03    0.11287E-02   -0.59376E-03 11303   0.130E-01    0.282E-01
RMM:  11    -0.663869539083E+03   -0.39618E-04   -0.24213E-03 10113   0.872E-02    0.265E-01
RMM:  12    -0.663869151466E+03    0.38762E-03   -0.10607E-03 10132   0.583E-02    0.804E-02
RMM:  13    -0.663869161857E+03   -0.10391E-04   -0.54349E-04 10412   0.376E-02    0.518E-02
RMM:  14    -0.663869203276E+03   -0.41419E-04   -0.23861E-04  9467   0.255E-02    0.946E-02
RMM:  15    -0.663869155194E+03    0.48082E-04   -0.10519E-04  7901   0.171E-02    0.211E-02
RMM:  16    -0.663869154553E+03    0.64047E-06   -0.48709E-05  5990   0.914E-03
   3 F= -.66386915E+03 E0= -.66380137E+03  d E =-.420999E+00
       N       E                     dE             d eps       ncg     rms          rms(c)
DAV:   1    -0.663134352878E+03    0.73480E+00   -0.14826E+02  9408   0.368E+01    0.379E+00
RMM:   2    -0.664243445129E+03   -0.11091E+01   -0.11782E+01  9603   0.887E+00    0.570E+00
RMM:   3    -0.664213782227E+03    0.29663E-01   -0.24170E+00 10507   0.400E+00    0.377E+00
RMM:   4    -0.664268855683E+03   -0.55073E-01   -0.70841E-01 11597   0.187E+00    0.399E+00
RMM:   5    -0.664166807071E+03    0.10205E+00   -0.15187E-01  9578   0.888E-01    0.110E+00
RMM:   6    -0.664171635495E+03   -0.48284E-02   -0.83797E-02 10485   0.523E-01    0.151E+00
RMM:   7    -0.664160412785E+03    0.11223E-01   -0.44057E-02 10180   0.410E-01    0.706E-01
RMM:   8    -0.664158490658E+03    0.19221E-02   -0.21761E-02 11356   0.265E-01    0.603E-01
RMM:   9    -0.664157152464E+03    0.13382E-02   -0.74858E-03 10726   0.163E-01    0.347E-01
RMM:  10    -0.664156584712E+03    0.56775E-03   -0.31466E-03 11065   0.906E-02    0.178E-01
RMM:  11    -0.664156680448E+03   -0.95736E-04   -0.16697E-03 10624   0.659E-02    0.198E-01
RMM:  12    -0.664156520743E+03    0.15971E-03   -0.94125E-04 10832   0.480E-02    0.736E-02
RMM:  13    -0.664156551905E+03   -0.31162E-04   -0.36248E-04  9645   0.295E-02    0.979E-02
RMM:  14    -0.664156498213E+03    0.53692E-04   -0.14485E-04  8063   0.197E-02    0.330E-02
RMM:  15    -0.664156494486E+03    0.37269E-05   -0.13791E-04  8879   0.152E-02    0.161E-02
RMM:  16    -0.664156493965E+03    0.52099E-06   -0.58519E-05  6781   0.973E-03
   4 F= -.66415649E+03 E0= -.66409058E+03  d E =-.287339E+00
       N       E                     dE             d eps       ncg     rms          rms(c)
DAV:   1    -0.664150986159E+03    0.55083E-02   -0.11908E+00 10192   0.330E+00    0.323E-01
RMM:   2    -0.664159971512E+03   -0.89854E-02   -0.94295E-02  9611   0.795E-01    0.528E-01
RMM:   3    -0.664159903368E+03    0.68144E-04   -0.19063E-02 10629   0.352E-01    0.362E-01
RMM:   4    -0.664160152237E+03   -0.24887E-03   -0.56450E-03 11534   0.169E-01    0.331E-01
RMM:   5    -0.664159406234E+03    0.74600E-03   -0.11851E-03  9389   0.813E-02    0.107E-01
RMM:   6    -0.664159443997E+03   -0.37763E-04   -0.70394E-04 10298   0.493E-02    0.135E-01
RMM:   7    -0.664159355892E+03    0.88105E-04   -0.36725E-04  9926   0.381E-02    0.615E-02
RMM:   8    -0.664159345074E+03    0.10818E-04   -0.18115E-04 10087   0.244E-02    0.514E-02
RMM:   9    -0.664159335015E+03    0.10059E-04   -0.55380E-05  6977   0.142E-02    0.271E-02
RMM:  10    -0.664159334258E+03    0.75716E-06   -0.22595E-05  5675   0.939E-03
   5 F= -.66415933E+03 E0= -.66409329E+03  d E =-.290180E+00
       N       E                     dE             d eps       ncg     rms          rms(c)
DAV:   1    -0.664013317712E+03    0.14602E+00   -0.30313E+01  9212   0.183E+01    0.161E+00
RMM:   2    -0.664270424660E+03   -0.25711E+00   -0.25225E+00  9900   0.429E+00    0.288E+00
RMM:   3    -0.664271810200E+03   -0.13855E-02   -0.54847E-01 11213   0.189E+00    0.182E+00
RMM:   4    -0.664272969331E+03   -0.11591E-02   -0.13258E-01 11312   0.877E-01    0.147E+00
RMM:   5    -0.664259126391E+03    0.13843E-01   -0.31236E-02  9637   0.419E-01    0.631E-01
RMM:   6    -0.664259419055E+03   -0.29266E-03   -0.17505E-02 10542   0.252E-01    0.704E-01
RMM:   7    -0.664256858058E+03    0.25610E-02   -0.88965E-03  9976   0.189E-01    0.362E-01
RMM:   8    -0.664256629396E+03    0.22866E-03   -0.44103E-03 10305   0.131E-01    0.363E-01
RMM:   9    -0.664255897209E+03    0.73219E-03   -0.18608E-03 10263   0.878E-02    0.127E-01
RMM:  10    -0.664255895415E+03    0.17937E-05   -0.80080E-04 11148   0.458E-02    0.112E-01
RMM:  11    -0.664255854868E+03    0.40547E-04   -0.30500E-04  9157   0.295E-02    0.688E-02
RMM:  12    -0.664255843199E+03    0.11668E-04   -0.16409E-04  9547   0.191E-02    0.436E-02
RMM:  13    -0.664255845086E+03   -0.18874E-05   -0.71358E-05  7009   0.139E-02
   6 F= -.66425585E+03 E0= -.66419057E+03  d E =-.965108E-01
       N       E                     dE             d eps       ncg     rms          rms(c)
DAV:   1    -0.664227826693E+03    0.28017E-01   -0.48496E+00 10192   0.731E+00    0.637E-01
RMM:   2    -0.664268584943E+03   -0.40758E-01   -0.39719E-01  9901   0.169E+00    0.117E+00
RMM:   3    -0.664268095998E+03    0.48894E-03   -0.80637E-02 11229   0.731E-01    0.731E-01
RMM:   4    -0.664268027155E+03    0.68843E-04   -0.19829E-02 11232   0.341E-01    0.571E-01
RMM:   5    -0.664265878806E+03    0.21483E-02   -0.50631E-03  9643   0.171E-01    0.253E-01
RMM:   6    -0.664265944789E+03   -0.65982E-04   -0.28777E-03 10607   0.104E-01    0.288E-01
RMM:   7    -0.664265515710E+03    0.42908E-03   -0.14597E-03  9989   0.767E-02    0.142E-01
RMM:   8    -0.664265482045E+03    0.33664E-04   -0.70621E-04 10292   0.520E-02    0.146E-01
RMM:   9    -0.664265362062E+03    0.11998E-03   -0.29518E-04  9304   0.347E-02    0.488E-02
RMM:  10    -0.664265361912E+03    0.15031E-06   -0.13358E-04  9062   0.184E-02    0.421E-02
RMM:  11    -0.664265356325E+03    0.55868E-05   -0.48318E-05  6444   0.117E-02
   7 F= -.66426536E+03 E0= -.66420036E+03  d E =-.106022E+00
       N       E                     dE             d eps       ncg     rms          rms(c)
DAV:   1    -0.664202125757E+03    0.63236E-01   -0.32199E+01  9408   0.199E+01    0.322E+00
RMM:   2    -0.664649591946E+03   -0.44747E+00   -0.32427E+00  9466   0.498E+00    0.655E+00
RMM:   3    -0.664343678839E+03    0.30591E+00   -0.78296E-01  8654   0.266E+00    0.263E+00
RMM:   4    -0.664350387480E+03   -0.67086E-02   -0.26871E-01 11160   0.118E+00    0.247E+00
RMM:   5    -0.664308072550E+03    0.42315E-01   -0.71487E-02  9317   0.672E-01    0.110E+00
RMM:   6    -0.664309864122E+03   -0.17916E-02   -0.46230E-02  9977   0.450E-01    0.130E+00
RMM:   7    -0.664299479794E+03    0.10384E-01   -0.20710E-02  9627   0.320E-01    0.396E-01
RMM:   8    -0.664300013862E+03   -0.53407E-03   -0.10145E-02 11051   0.196E-01    0.499E-01
RMM:   9    -0.664298798916E+03    0.12149E-02   -0.38141E-03 10222   0.123E-01    0.198E-01
RMM:  10    -0.664298708954E+03    0.89962E-04   -0.14519E-03 11385   0.598E-02    0.116E-01
RMM:  11    -0.664298726841E+03   -0.17887E-04   -0.53022E-04  9497   0.386E-02    0.103E-01
RMM:  12    -0.664298697014E+03    0.29826E-04   -0.24224E-04  9409   0.261E-02    0.363E-02
RMM:  13    -0.664298730429E+03   -0.33415E-04   -0.13160E-04  8838   0.176E-02    0.352E-02
RMM:  14    -0.664298732975E+03   -0.25463E-05   -0.49676E-05  6428   0.121E-02
   8 F= -.66429873E+03 E0= -.66423575E+03  d E =-.333767E-01
       N       E                     dE             d eps       ncg     rms          rms(c)
DAV:   1    -0.664297640454E+03    0.10900E-02   -0.23485E+00 10192   0.536E+00    0.890E-01
RMM:   2    -0.664331427690E+03   -0.33787E-01   -0.23244E-01  9510   0.131E+00    0.176E+00
RMM:   3    -0.664307170213E+03    0.24257E-01   -0.58684E-02  8643   0.726E-01    0.680E-01
RMM:   4    -0.664308266575E+03   -0.10964E-02   -0.19560E-02 11184   0.321E-01    0.712E-01
RMM:   5    -0.664304847143E+03    0.34194E-02   -0.51086E-03  9234   0.180E-01    0.281E-01
RMM:   6    -0.664305037895E+03   -0.19075E-03   -0.33247E-03 10021   0.120E-01    0.359E-01
RMM:   7    -0.664304245468E+03    0.79243E-03   -0.14341E-03  9652   0.843E-02    0.105E-01
RMM:   8    -0.664304249796E+03   -0.43278E-05   -0.72069E-04 10911   0.517E-02    0.125E-01
RMM:   9    -0.664304173423E+03    0.76373E-04   -0.26282E-04  9073   0.335E-02    0.583E-02
RMM:  10    -0.664304155843E+03    0.17581E-04   -0.10478E-04  8516   0.168E-02    0.319E-02
RMM:  11    -0.664304153363E+03    0.24802E-05   -0.36669E-05  6294   0.110E-02
   9 F= -.66430415E+03 E0= -.66424065E+03  d E =-.387970E-01
       N       E                     dE             d eps       ncg     rms          rms(c)
DAV:   1    -0.664202789031E+03    0.10137E+00   -0.16103E+01  9408   0.139E+01    0.115E+00
RMM:   2    -0.664332488999E+03   -0.12970E+00   -0.13623E+00  9712   0.306E+00    0.172E+00
RMM:   3    -0.664340264770E+03   -0.77758E-02   -0.25568E-01 11300   0.128E+00    0.127E+00
RMM:   4    -0.664340023106E+03    0.24166E-03   -0.59111E-02 11111   0.586E-01    0.107E+00
RMM:   5    -0.664332406444E+03    0.76167E-02   -0.14918E-02  9448   0.301E-01    0.401E-01
RMM:   6    -0.664333140469E+03   -0.73402E-03   -0.92350E-03 10405   0.186E-01    0.546E-01
RMM:   7    -0.664331364440E+03    0.17760E-02   -0.40428E-03  9412   0.137E-01    0.229E-01
RMM:   8    -0.664331416504E+03   -0.52065E-04   -0.22578E-03 10520   0.906E-02    0.251E-01
RMM:   9    -0.664331044559E+03    0.37195E-03   -0.85998E-04 10063   0.590E-02    0.756E-02
RMM:  10    -0.664331034044E+03    0.10515E-04   -0.36340E-04 10489   0.294E-02    0.466E-02
RMM:  11    -0.664331043553E+03   -0.95095E-05   -0.13954E-04  8607   0.188E-02    0.547E-02
RMM:  12    -0.664331026515E+03    0.17038E-04   -0.58475E-05  6741   0.123E-02    0.174E-02
RMM:  13    -0.664331027172E+03   -0.65700E-06   -0.26800E-05  5786   0.876E-03
  10 F= -.66433103E+03 E0= -.66426789E+03  d E =-.268738E-01
       N       E                     dE             d eps       ncg     rms          rms(c)
DAV:   1    -0.664330587557E+03    0.43896E-03   -0.71608E-02 11004   0.924E-01    0.783E-02
RMM:   2    -0.664331215904E+03   -0.62835E-03   -0.60983E-03  9727   0.205E-01    0.142E-01
RMM:   3    -0.664331199169E+03    0.16735E-04   -0.11558E-03 10796   0.866E-02    0.811E-02
RMM:   4    -0.664331203676E+03   -0.45072E-05   -0.29824E-04 10680   0.404E-02    0.697E-02
RMM:   5    -0.664331170951E+03    0.32725E-04   -0.79140E-05  7742   0.215E-02    0.314E-02
RMM:   6    -0.664331172482E+03   -0.15307E-05   -0.44130E-05  6554   0.133E-02
  11 F= -.66433117E+03 E0= -.66426806E+03  d E =-.270191E-01
       N       E                     dE             d eps       ncg     rms          rms(c)
DAV:   1    -0.664277600739E+03    0.53570E-01   -0.69962E+00  9184   0.948E+00    0.656E-01
RMM:   2    -0.664342784642E+03   -0.65184E-01   -0.66155E-01  9755   0.212E+00    0.111E+00
RMM:   3    -0.664351427471E+03   -0.86428E-02   -0.14315E-01 11432   0.903E-01    0.727E-01
RMM:   4    -0.664351445551E+03   -0.18079E-04   -0.23430E-02 10828   0.368E-01    0.547E-01
RMM:   5    -0.664349260719E+03    0.21848E-02   -0.54208E-03  9426   0.182E-01    0.232E-01
RMM:   6    -0.664349688411E+03   -0.42769E-03   -0.32354E-03 10524   0.109E-01    0.349E-01
RMM:   7    -0.664348901479E+03    0.78693E-03   -0.15939E-03  9411   0.859E-02    0.124E-01
RMM:   8    -0.664348901653E+03   -0.17318E-06   -0.78094E-04 10609   0.530E-02    0.128E-01
RMM:   9    -0.664348813569E+03    0.88084E-04   -0.28640E-04  9533   0.330E-02    0.476E-02
RMM:  10    -0.664348801898E+03    0.11671E-04   -0.12188E-04  8879   0.178E-02    0.217E-02
RMM:  11    -0.664348809681E+03   -0.77827E-05   -0.50484E-05  6428   0.119E-02
  12 F= -.66434881E+03 E0= -.66428606E+03  d E =-.176372E-01
       N       E                     dE             d eps       ncg     rms          rms(c)
DAV:   1    -0.664314073750E+03    0.34728E-01   -0.38661E+00  9128   0.706E+00    0.488E-01
RMM:   2    -0.664350405631E+03   -0.36332E-01   -0.37025E-01  9766   0.159E+00    0.811E-01
RMM:   3    -0.664355646385E+03   -0.52408E-02   -0.81777E-02 11430   0.675E-01    0.539E-01
RMM:   4    -0.664355606426E+03    0.39959E-04   -0.12699E-02 10869   0.271E-01    0.403E-01
RMM:   5    -0.664354431454E+03    0.11750E-02   -0.29950E-03  9488   0.132E-01    0.173E-01
RMM:   6    -0.664354656535E+03   -0.22508E-03   -0.17591E-03 10466   0.795E-02    0.258E-01
RMM:   7    -0.664354233767E+03    0.42277E-03   -0.88178E-04  9428   0.632E-02    0.963E-02
RMM:   8    -0.664354225411E+03    0.83558E-05   -0.43624E-04 10395   0.396E-02    0.959E-02
RMM:   9    -0.664354176202E+03    0.49208E-04   -0.16172E-04  9073   0.247E-02    0.357E-02
RMM:  10    -0.664354169506E+03    0.66968E-05   -0.67926E-05  7348   0.134E-02
  13 F= -.66435417E+03 E0= -.66429174E+03  d E =-.229970E-01
       N       E                     dE             d eps       ncg     rms          rms(c)
DAV:   1    -0.664304435361E+03    0.49741E-01   -0.57139E+00  9016   0.897E+00    0.807E-01
RMM:   2    -0.664371153667E+03   -0.66718E-01   -0.66098E-01  9815   0.208E+00    0.126E+00
RMM:   3    -0.664371189265E+03   -0.35598E-04   -0.14131E-01 10238   0.911E-01    0.688E-01
RMM:   4    -0.664371830923E+03   -0.64166E-03   -0.28001E-02 11400   0.387E-01    0.584E-01
RMM:   5    -0.664369558887E+03    0.22720E-02   -0.56085E-03  9585   0.177E-01    0.224E-01
RMM:   6    -0.664369416081E+03    0.14281E-03   -0.30120E-03 10561   0.102E-01    0.232E-01
RMM:   7    -0.664369424347E+03   -0.82661E-05   -0.15153E-03  9710   0.832E-02    0.243E-01
RMM:   8    -0.664369063446E+03    0.36090E-03   -0.84515E-04 10106   0.593E-02    0.977E-02
RMM:   9    -0.664369083474E+03   -0.20028E-04   -0.35400E-04 10096   0.354E-02    0.994E-02
RMM:  10    -0.664369031015E+03    0.52459E-04   -0.12008E-04  8619   0.209E-02    0.253E-02
RMM:  11    -0.664369042052E+03   -0.11038E-04   -0.67967E-05  7479   0.129E-02    0.351E-02
RMM:  12    -0.664369038761E+03    0.32914E-05   -0.26507E-05  5929   0.919E-03
  14 F= -.66436904E+03 E0= -.66430725E+03  d E =-.148693E-01
       N       E                     dE             d eps       ncg     rms          rms(c)
DAV:   1    -0.664284839856E+03    0.84202E-01   -0.81238E+00  9016   0.107E+01    0.953E-01
RMM:   2    -0.664378455767E+03   -0.93616E-01   -0.93817E-01  9812   0.248E+00    0.144E+00
RMM:   3    -0.664379602401E+03   -0.11466E-02   -0.19883E-01 10306   0.108E+00    0.784E-01
RMM:   4    -0.664380723152E+03   -0.11208E-02   -0.40638E-02 11420   0.460E-01    0.680E-01
RMM:   5    -0.664377726779E+03    0.29964E-02   -0.73370E-03  9643   0.201E-01    0.282E-01
RMM:   6    -0.664377474434E+03    0.25234E-03   -0.40195E-03 10539   0.117E-01    0.287E-01
RMM:   7    -0.664377468607E+03    0.58276E-05   -0.21305E-03  9755   0.983E-02    0.298E-01
RMM:   8    -0.664376912276E+03    0.55633E-03   -0.12061E-03 10144   0.705E-02    0.103E-01
RMM:   9    -0.664376954822E+03   -0.42547E-04   -0.49290E-04 10440   0.419E-02    0.113E-01
RMM:  10    -0.664376881108E+03    0.73714E-04   -0.16065E-04  8889   0.247E-02    0.288E-02
RMM:  11    -0.664376893800E+03   -0.12692E-04   -0.94659E-05  8275   0.148E-02    0.373E-02
RMM:  12    -0.664376892407E+03    0.13927E-05   -0.36830E-05  6215   0.104E-02
  15 F= -.66437689E+03 E0= -.66431601E+03  d E =-.227229E-01
       N       E                     dE             d eps       ncg     rms          rms(c)
DAV:   1    -0.664368436748E+03    0.84571E-02   -0.12485E+00  9800   0.421E+00    0.224E-01
RMM:   2    -0.664381832849E+03   -0.13396E-01   -0.13942E-01  9921   0.922E-01    0.279E-01
RMM:   3    -0.664384926408E+03   -0.30936E-02   -0.28476E-02 11401   0.385E-01    0.305E-01
RMM:   4    -0.664384816560E+03    0.10985E-03   -0.44283E-03 11217   0.150E-01    0.132E-01
RMM:   5    -0.664384742661E+03    0.73900E-04   -0.72583E-04 10263   0.553E-02    0.875E-02
RMM:   6    -0.664384711347E+03    0.31314E-04   -0.26396E-04  9972   0.298E-02    0.703E-02
RMM:   7    -0.664384703463E+03    0.78833E-05   -0.20307E-04  8965   0.263E-02    0.707E-02
RMM:   8    -0.664384672125E+03    0.31339E-04   -0.12291E-04  8391   0.218E-02    0.290E-02
RMM:   9    -0.664384675119E+03   -0.29943E-05   -0.51390E-05  7134   0.130E-02
  16 F= -.66438468E+03 E0= -.66432406E+03  d E =-.778271E-02
       N       E                     dE             d eps       ncg     rms          rms(c)
DAV:   1    -0.664261382297E+03    0.12329E+00   -0.11246E+01  9016   0.126E+01    0.679E-01
RMM:   2    -0.664381118866E+03   -0.11974E+00   -0.12497E+00  9905   0.280E+00    0.868E-01
RMM:   3    -0.664409154996E+03   -0.28036E-01   -0.26402E-01 11399   0.118E+00    0.906E-01
RMM:   4    -0.664408071627E+03    0.10834E-02   -0.38946E-02 11204   0.450E-01    0.380E-01
RMM:   5    -0.664407474131E+03    0.59750E-03   -0.70236E-03 10755   0.172E-01    0.250E-01
RMM:   6    -0.664407211103E+03    0.26303E-03   -0.23557E-03 10731   0.905E-02    0.205E-01
RMM:   7    -0.664407131133E+03    0.79971E-04   -0.18980E-03  9841   0.790E-02    0.213E-01
RMM:   8    -0.664406872921E+03    0.25821E-03   -0.10360E-03  9664   0.646E-02    0.915E-02
RMM:   9    -0.664406895034E+03   -0.22112E-04   -0.42076E-04 10164   0.374E-02    0.100E-01
RMM:  10    -0.664406831130E+03    0.63904E-04   -0.14009E-04  8510   0.243E-02    0.354E-02
RMM:  11    -0.664406815482E+03    0.15648E-04   -0.11125E-04  8659   0.180E-02    0.238E-02
RMM:  12    -0.664406819593E+03   -0.41116E-05   -0.54531E-05  7237   0.123E-02
  17 F= -.66440682E+03 E0= -.66434744E+03  d E =-.299272E-01
       N       E                     dE             d eps       ncg     rms          rms(c)
DAV:   1    -0.663851123234E+03    0.55569E+00   -0.45002E+01  9016   0.251E+01    0.136E+00
RMM:   2    -0.664334070810E+03   -0.48295E+00   -0.50446E+00  9874   0.563E+00    0.175E+00
RMM:   3    -0.664446286825E+03   -0.11222E+00   -0.10937E+00 11368   0.241E+00    0.167E+00
RMM:   4    -0.664445532993E+03    0.75383E-03   -0.16477E-01 11238   0.914E-01    0.744E-01
RMM:   5    -0.664443196988E+03    0.23360E-02   -0.28683E-02 10876   0.344E-01    0.463E-01
RMM:   6    -0.664442217643E+03    0.97934E-03   -0.96838E-03 10647   0.185E-01    0.402E-01
RMM:   7    -0.664441791481E+03    0.42616E-03   -0.79606E-03  9797   0.161E-01    0.393E-01
RMM:   8    -0.664440922455E+03    0.86903E-03   -0.39648E-03  9766   0.127E-01    0.163E-01
RMM:   9    -0.664441036397E+03   -0.11394E-03   -0.15013E-03 10885   0.712E-02    0.197E-01
RMM:  10    -0.664440786890E+03    0.24951E-03   -0.51530E-04  9102   0.458E-02    0.708E-02
RMM:  11    -0.664440727954E+03    0.58936E-04   -0.43850E-04  9531   0.368E-02    0.466E-02
RMM:  12    -0.664440743907E+03   -0.15953E-04   -0.21165E-04  9804   0.244E-02    0.632E-02
RMM:  13    -0.664440719050E+03    0.24857E-04   -0.67130E-05  7355   0.147E-02    0.156E-02
RMM:  14    -0.664440719342E+03   -0.29211E-06   -0.26241E-05  5667   0.862E-03
  18 F= -.66444072E+03 E0= -.66438532E+03  d E =-.638269E-01
       N       E                     dE             d eps       ncg     rms          rms(c)
DAV:   1    -0.662083064431E+03    0.23577E+01   -0.18150E+02  9408   0.501E+01    0.272E+00
RMM:   2    -0.664057816514E+03   -0.19748E+01   -0.20601E+01  9811   0.112E+01    0.402E+00
RMM:   3    -0.664397304783E+03   -0.33949E+00   -0.39567E+00 11116   0.469E+00    0.272E+00
RMM:   4    -0.664415400976E+03   -0.18096E-01   -0.62194E-01 11310   0.172E+00    0.142E+00
RMM:   5    -0.664408963581E+03    0.64374E-02   -0.11640E-01 11300   0.674E-01    0.936E-01
RMM:   6    -0.664405506273E+03    0.34573E-02   -0.40321E-02 10308   0.371E-01    0.930E-01
RMM:   7    -0.664401670880E+03    0.38354E-02   -0.33079E-02  9709   0.333E-01    0.675E-01
RMM:   8    -0.664400275758E+03    0.13951E-02   -0.16131E-02 10346   0.238E-01    0.421E-01
RMM:   9    -0.664399629313E+03    0.64645E-03   -0.52757E-03 10537   0.141E-01    0.283E-01
RMM:  10    -0.664398793202E+03    0.83611E-03   -0.23181E-03  9825   0.912E-02    0.126E-01
RMM:  11    -0.664398885764E+03   -0.92562E-04   -0.16761E-03 10506   0.699E-02    0.172E-01
RMM:  12    -0.664398685262E+03    0.20050E-03   -0.79997E-04 10276   0.495E-02    0.484E-02
RMM:  13    -0.664398684267E+03    0.99486E-06   -0.22907E-04  9913   0.232E-02    0.397E-02
RMM:  14    -0.664398686480E+03   -0.22126E-05   -0.90612E-05  7182   0.144E-02
  19 F= -.66439869E+03 E0= -.66434947E+03  d E =-.217941E-01
       N       E                     dE             d eps       ncg     rms          rms(c)
DAV:   1    -0.663053768169E+03    0.13449E+01   -0.11060E+02  9184   0.388E+01    0.220E+00
RMM:   2    -0.664250109714E+03   -0.11963E+01   -0.12134E+01  9913   0.880E+00    0.370E+00
RMM:   3    -0.664431960125E+03   -0.18185E+00   -0.25083E+00 10186   0.383E+00    0.204E+00
RMM:   4    -0.664462898845E+03   -0.30939E-01   -0.49199E-01 12053   0.149E+00    0.142E+00
RMM:   5    -0.664452973666E+03    0.99252E-02   -0.73530E-02 10473   0.560E-01    0.743E-01
RMM:   6    -0.664451509115E+03    0.14646E-02   -0.25438E-02 10614   0.298E-01    0.694E-01
RMM:   7    -0.664449445509E+03    0.20636E-02   -0.15486E-02  9675   0.239E-01    0.541E-01
RMM:   8    -0.664447927063E+03    0.15184E-02   -0.11682E-02  9718   0.201E-01    0.280E-01
RMM:   9    -0.664448107866E+03   -0.18080E-03   -0.38981E-03 10796   0.120E-01    0.279E-01
RMM:  10    -0.664447495028E+03    0.61284E-03   -0.11790E-03 10106   0.676E-02    0.721E-02
RMM:  11    -0.664447455924E+03    0.39104E-04   -0.10244E-03 10137   0.517E-02    0.824E-02
RMM:  12    -0.664447460446E+03   -0.45221E-05   -0.38382E-04 10243   0.335E-02    0.661E-02
RMM:  13    -0.664447433464E+03    0.26982E-04   -0.11007E-04  8160   0.171E-02    0.236E-02
RMM:  14    -0.664447439080E+03   -0.56159E-05   -0.53125E-05  6272   0.109E-02
  20 F= -.66444744E+03 E0= -.66439385E+03  d E =-.705467E-01
       N       E                     dE             d eps       ncg     rms          rms(c)
DAV:   1    -0.664361534130E+03    0.85899E-01   -0.94767E+00  9408   0.112E+01    0.970E-01
RMM:   2    -0.664475383368E+03   -0.11385E+00   -0.11448E+00 10010   0.260E+00    0.148E+00
RMM:   3    -0.664479680984E+03   -0.42976E-02   -0.22137E-01 10703   0.111E+00    0.869E-01
RMM:   4    -0.664480731444E+03   -0.10505E-02   -0.43025E-02 11223   0.467E-01    0.739E-01
RMM:   5    -0.664476979828E+03    0.37516E-02   -0.91536E-03  9604   0.226E-01    0.240E-01
RMM:   6    -0.664476991111E+03   -0.11282E-04   -0.46429E-03 10183   0.130E-01    0.310E-01
RMM:   7    -0.664476517520E+03    0.47359E-03   -0.23015E-03  9621   0.102E-01    0.198E-01
RMM:   8    -0.664476275312E+03    0.24221E-03   -0.12684E-03 10393   0.699E-02    0.106E-01
RMM:   9    -0.664476267052E+03    0.82607E-05   -0.47838E-04 10307   0.430E-02    0.873E-02
RMM:  10    -0.664476219492E+03    0.47560E-04   -0.17035E-04  9642   0.243E-02    0.334E-02
RMM:  11    -0.664476228101E+03   -0.86093E-05   -0.87472E-05  7994   0.160E-02
  21 F= -.66447623E+03 E0= -.66442434E+03  d E =-.287890E-01
       N       E                     dE             d eps       ncg     rms          rms(c)
DAV:   1    -0.664251608731E+03    0.22461E+00   -0.18555E+01  9072   0.157E+01    0.140E+00
RMM:   2    -0.664483291239E+03   -0.23168E+00   -0.23492E+00 10009   0.379E+00    0.206E+00
RMM:   3    -0.664501298882E+03   -0.18008E-01   -0.54056E-01 10617   0.168E+00    0.116E+00
RMM:   4    -0.664505119739E+03   -0.38209E-02   -0.92680E-02 11456   0.672E-01    0.104E+00
RMM:   5    -0.664497835121E+03    0.72846E-02   -0.17639E-02  9607   0.302E-01    0.339E-01
RMM:   6    -0.664497722516E+03    0.11261E-03   -0.89333E-03 10321   0.177E-01    0.406E-01
RMM:   7    -0.664497084840E+03    0.63768E-03   -0.45997E-03  9753   0.138E-01    0.306E-01
RMM:   8    -0.664496461786E+03    0.62305E-03   -0.25002E-03 10253   0.985E-02    0.135E-01
RMM:   9    -0.664496491197E+03   -0.29411E-04   -0.97166E-04 10821   0.606E-02    0.130E-01
RMM:  10    -0.664496375594E+03    0.11560E-03   -0.33155E-04  9831   0.343E-02    0.417E-02
RMM:  11    -0.664496391865E+03   -0.16270E-04   -0.18606E-04  9763   0.221E-02    0.664E-02
RMM:  12    -0.664496369404E+03    0.22460E-04   -0.82979E-05  7694   0.156E-02    0.262E-02
RMM:  13    -0.664496364392E+03    0.50124E-05   -0.28218E-05  5738   0.848E-03
  22 F= -.66449636E+03 E0= -.66444619E+03  d E =-.489253E-01
       N       E                     dE             d eps       ncg     rms          rms(c)
DAV:   1    -0.664485849219E+03    0.10520E-01   -0.34014E+00  9408   0.603E+00    0.591E-01
RMM:   2    -0.664522551488E+03   -0.36702E-01   -0.40679E-01 10087   0.163E+00    0.743E-01
RMM:   3    -0.664528441262E+03   -0.58898E-02   -0.10381E-01 10668   0.766E-01    0.478E-01
RMM:   4    -0.664528863537E+03   -0.42228E-03   -0.20203E-02 11456   0.317E-01    0.362E-01
RMM:   5    -0.664528064606E+03    0.79893E-03   -0.34710E-03 10016   0.131E-01    0.185E-01
RMM:   6    -0.664527822582E+03    0.24202E-03   -0.16362E-03 10454   0.772E-02    0.133E-01
RMM:   7    -0.664527891211E+03   -0.68629E-04   -0.10675E-03  9822   0.651E-02    0.190E-01
RMM:   8    -0.664527654465E+03    0.23675E-03   -0.44584E-04  9261   0.464E-02    0.474E-02
RMM:   9    -0.664527683018E+03   -0.28553E-04   -0.20717E-04 10089   0.251E-02    0.604E-02
RMM:  10    -0.664527659775E+03    0.23243E-04   -0.62444E-05  7225   0.145E-02    0.180E-02
RMM:  11    -0.664527663917E+03   -0.41425E-05   -0.36430E-05  6020   0.104E-02
  23 F= -.66452766E+03 E0= -.66447809E+03  d E =-.312995E-01
       N       E                     dE             d eps       ncg     rms          rms(c)
DAV:   1    -0.664363779058E+03    0.16388E+00   -0.17053E+01  9016   0.135E+01    0.128E+00
RMM:   2    -0.664541231259E+03   -0.17745E+00   -0.19709E+00 10092   0.356E+00    0.161E+00
RMM:   3    -0.664567380417E+03   -0.26149E-01   -0.45706E-01 10728   0.163E+00    0.109E+00
RMM:   4    -0.664568557795E+03   -0.11774E-02   -0.94732E-02 11383   0.687E-01    0.820E-01
RMM:   5    -0.664564151523E+03    0.44063E-02   -0.17125E-02  9991   0.292E-01    0.391E-01
RMM:   6    -0.664563093760E+03    0.10578E-02   -0.83162E-03 10322   0.172E-01    0.322E-01
RMM:   7    -0.664563287578E+03   -0.19382E-03   -0.51706E-03  9804   0.146E-01    0.413E-01
RMM:   8    -0.664562116539E+03    0.11710E-02   -0.22318E-03  9810   0.103E-01    0.109E-01
RMM:   9    -0.664562246143E+03   -0.12960E-03   -0.10378E-03 10944   0.553E-02    0.136E-01
RMM:  10    -0.664562120515E+03    0.12563E-03   -0.30900E-04  9393   0.321E-02    0.397E-02
RMM:  11    -0.664562140553E+03   -0.20038E-04   -0.17962E-04  9521   0.215E-02    0.581E-02
RMM:  12    -0.664562128968E+03    0.11585E-04   -0.94777E-05  8276   0.160E-02    0.212E-02
RMM:  13    -0.664562130517E+03   -0.15491E-05   -0.31007E-05  5727   0.938E-03
  24 F= -.66456213E+03 E0= -.66451375E+03  d E =-.657661E-01
       N       E                     dE             d eps       ncg     rms          rms(c)
DAV:   1    -0.664528410990E+03    0.33718E-01   -0.67575E+00  8904   0.883E+00    0.100E+00
RMM:   2    -0.664599766969E+03   -0.71356E-01   -0.75949E-01 10053   0.231E+00    0.149E+00
RMM:   3    -0.664597581497E+03    0.21855E-02   -0.18774E-01  9633   0.115E+00    0.755E-01
RMM:   4    -0.664600465507E+03   -0.28840E-02   -0.54308E-02 11766   0.496E-01    0.678E-01
RMM:   5    -0.664597510227E+03    0.29553E-02   -0.97459E-03  9771   0.217E-01    0.256E-01
RMM:   6    -0.664597216912E+03    0.29331E-03   -0.40619E-03 10768   0.118E-01    0.240E-01
RMM:   7    -0.664597234326E+03   -0.17414E-04   -0.20291E-03 10064   0.902E-02    0.267E-01
RMM:   8    -0.664596742842E+03    0.49148E-03   -0.10211E-03  9822   0.668E-02    0.837E-02
RMM:   9    -0.664596773782E+03   -0.30940E-04   -0.44467E-04 10620   0.407E-02    0.920E-02
RMM:  10    -0.664596712730E+03    0.61052E-04   -0.16061E-04  8963   0.243E-02    0.248E-02
RMM:  11    -0.664596716391E+03   -0.36608E-05   -0.79380E-05  7596   0.138E-02
  25 F= -.66459672E+03 E0= -.66454818E+03  d E =-.345859E-01
       N       E                     dE             d eps       ncg     rms          rms(c)
DAV:   1    -0.664522215487E+03    0.74497E-01   -0.90156E+00  8680   0.102E+01    0.116E+00
RMM:   2    -0.664618545553E+03   -0.96330E-01   -0.10182E+00 10050   0.268E+00    0.174E+00
RMM:   3    -0.664615153674E+03    0.33919E-02   -0.25362E-01  9620   0.133E+00    0.874E-01
RMM:   4    -0.664619264533E+03   -0.41109E-02   -0.73948E-02 11811   0.575E-01    0.791E-01
RMM:   5    -0.664615189673E+03    0.40749E-02   -0.12644E-02  9750   0.248E-01    0.292E-01
RMM:   6    -0.664614814981E+03    0.37469E-03   -0.54331E-03 10808   0.135E-01    0.276E-01
RMM:   7    -0.664614884157E+03   -0.69176E-04   -0.27384E-03 10071   0.104E-01    0.318E-01
RMM:   8    -0.664614196683E+03    0.68747E-03   -0.13765E-03  9830   0.774E-02    0.959E-02
RMM:   9    -0.664614248577E+03   -0.51894E-04   -0.60025E-04 10763   0.471E-02    0.111E-01
RMM:  10    -0.664614162629E+03    0.85949E-04   -0.21664E-04  9206   0.282E-02    0.304E-02
RMM:  11    -0.664614172388E+03   -0.97592E-05   -0.10906E-04  8364   0.163E-02    0.448E-02
RMM:  12    -0.664614160574E+03    0.11814E-04   -0.44854E-05  6271   0.109E-02    0.182E-02
RMM:  13    -0.664614157718E+03    0.28554E-05   -0.18939E-05  5538   0.793E-03
  26 F= -.66461416E+03 E0= -.66456539E+03  d E =-.520272E-01
       N       E                     dE             d eps       ncg     rms          rms(c)
DAV:   1    -0.664574094795E+03    0.40066E-01   -0.82719E+00  9436   0.973E+00    0.112E+00
RMM:   2    -0.664651903624E+03   -0.77809E-01   -0.80783E-01 10029   0.242E+00    0.167E+00
RMM:   3    -0.664643039106E+03    0.88645E-02   -0.18855E-01  9458   0.118E+00    0.828E-01
RMM:   4    -0.664645175657E+03   -0.21366E-02   -0.57292E-02 11791   0.520E-01    0.724E-01
RMM:   5    -0.664641943053E+03    0.32326E-02   -0.11480E-02  9784   0.248E-01    0.326E-01
RMM:   6    -0.664641645753E+03    0.29730E-03   -0.54010E-03 10900   0.145E-01    0.295E-01
RMM:   7    -0.664641467267E+03    0.17849E-03   -0.24719E-03  9989   0.105E-01    0.250E-01
RMM:   8    -0.664641069084E+03    0.39818E-03   -0.11713E-03 10466   0.695E-02    0.105E-01
RMM:   9    -0.664641102345E+03   -0.33261E-04   -0.52428E-04 10424   0.426E-02    0.103E-01
RMM:  10    -0.664641043520E+03    0.58824E-04   -0.17104E-04  9168   0.249E-02    0.295E-02
RMM:  11    -0.664641061219E+03   -0.17699E-04   -0.90194E-05  7908   0.152E-02    0.451E-02
RMM:  12    -0.664641056263E+03    0.49559E-05   -0.44073E-05  6443   0.110E-02
  27 F= -.66464106E+03 E0= -.66459247E+03  d E =-.268985E-01
       N       E                     dE             d eps       ncg     rms          rms(c)
DAV:   1    -0.664616126360E+03    0.24935E-01   -0.40142E+00 10080   0.679E+00    0.772E-01
RMM:   2    -0.664653377918E+03   -0.37252E-01   -0.38678E-01 10029   0.164E+00    0.115E+00
RMM:   3    -0.664648254128E+03    0.51238E-02   -0.80634E-02  9475   0.791E-01    0.571E-01
RMM:   4    -0.664649081965E+03   -0.82784E-03   -0.26256E-02 11760   0.352E-01    0.490E-01
RMM:   5    -0.664647618267E+03    0.14637E-02   -0.54828E-03  9823   0.171E-01    0.226E-01
RMM:   6    -0.664647482046E+03    0.13622E-03   -0.25857E-03 10823   0.996E-02    0.207E-01
RMM:   7    -0.664647397181E+03    0.84865E-04   -0.11995E-03  9846   0.732E-02    0.173E-01
RMM:   8    -0.664647212186E+03    0.18500E-03   -0.56498E-04 10415   0.487E-02    0.721E-02
RMM:   9    -0.664647228464E+03   -0.16278E-04   -0.24876E-04  9937   0.294E-02    0.692E-02
RMM:  10    -0.664647203599E+03    0.24865E-04   -0.83063E-05  7826   0.168E-02    0.192E-02
RMM:  11    -0.664647212502E+03   -0.89031E-05   -0.38755E-05  6103   0.106E-02
  28 F= -.66464721E+03 E0= -.66459870E+03  d E =-.330548E-01
       N       E                     dE             d eps       ncg     rms          rms(c)
DAV:   1    -0.664582321700E+03    0.64882E-01   -0.89939E+00  9408   0.104E+01    0.825E-01
RMM:   2    -0.664661086517E+03   -0.78765E-01   -0.82483E-01  9963   0.236E+00    0.113E+00
RMM:   3    -0.664666388176E+03   -0.53017E-02   -0.15681E-01 10815   0.102E+00    0.691E-01
RMM:   4    -0.664667858451E+03   -0.14703E-02   -0.36997E-02 11711   0.440E-01    0.589E-01
RMM:   5    -0.664665663336E+03    0.21951E-02   -0.71954E-03 10108   0.189E-01    0.230E-01
RMM:   6    -0.664665656960E+03    0.63757E-05   -0.31887E-03 10568   0.107E-01    0.276E-01
RMM:   7    -0.664665436614E+03    0.22035E-03   -0.17363E-03  9820   0.854E-02    0.216E-01
RMM:   8    -0.664665096046E+03    0.34057E-03   -0.90812E-04 10428   0.599E-02    0.665E-02
RMM:   9    -0.664665129459E+03   -0.33414E-04   -0.34483E-04 10608   0.342E-02    0.826E-02
RMM:  10    -0.664665085060E+03    0.44400E-04   -0.12833E-04  8612   0.213E-02    0.270E-02
RMM:  11    -0.664665090850E+03   -0.57905E-05   -0.65623E-05  7007   0.133E-02
  29 F= -.66466509E+03 E0= -.66461613E+03  d E =-.178783E-01
       N       E                     dE             d eps       ncg     rms          rms(c)
DAV:   1    -0.664650879745E+03    0.14205E-01   -0.17961E+00 10192   0.464E+00    0.364E-01
RMM:   2    -0.664666584571E+03   -0.15705E-01   -0.16462E-01  9962   0.106E+00    0.493E-01
RMM:   3    -0.664667800597E+03   -0.12160E-02   -0.31397E-02 10857   0.453E-01    0.305E-01
RMM:   4    -0.664668078124E+03   -0.27753E-03   -0.72440E-03 11680   0.196E-01    0.261E-01
RMM:   5    -0.664667658699E+03    0.41943E-03   -0.14852E-03 10163   0.853E-02    0.104E-01
RMM:   6    -0.664667647588E+03    0.11111E-04   -0.64089E-04 10473   0.481E-02    0.117E-01
RMM:   7    -0.664667617257E+03    0.30331E-04   -0.35371E-04  9570   0.380E-02    0.101E-01
RMM:   8    -0.664667543269E+03    0.73988E-04   -0.18662E-04  9490   0.270E-02    0.336E-02
RMM:   9    -0.664667547948E+03   -0.46783E-05   -0.72825E-05  7598   0.158E-02
  30 F= -.66466755E+03 E0= -.66461839E+03  d E =-.203354E-01
       N       E                     dE             d eps       ncg     rms          rms(c)
DAV:   1    -0.664653809457E+03    0.13734E-01   -0.26832E+00  9576   0.567E+00    0.478E-01
RMM:   2    -0.664676089080E+03   -0.22280E-01   -0.23657E-01  9879   0.126E+00    0.623E-01
RMM:   3    -0.664676902816E+03   -0.81374E-03   -0.44544E-02 10875   0.530E-01    0.372E-01
RMM:   4    -0.664676926872E+03   -0.24056E-04   -0.96886E-03 11596   0.232E-01    0.283E-01
RMM:   5    -0.664676499666E+03    0.42721E-03   -0.22895E-03 10278   0.108E-01    0.145E-01
RMM:   6    -0.664676440949E+03    0.58717E-04   -0.10415E-03 10579   0.606E-02    0.130E-01
RMM:   7    -0.664676432748E+03    0.82016E-05   -0.52421E-04  9676   0.473E-02    0.129E-01
RMM:   8    -0.664676329459E+03    0.10329E-03   -0.25939E-04  9664   0.333E-02    0.449E-02
RMM:   9    -0.664676343479E+03   -0.14020E-04   -0.11769E-04  8747   0.199E-02    0.500E-02
RMM:  10    -0.664676329363E+03    0.14116E-04   -0.39841E-05  6318   0.120E-02    0.129E-02
RMM:  11    -0.664676334228E+03   -0.48647E-05   -0.19594E-05  5563   0.841E-03
  31 F= -.66467633E+03 E0= -.66462711E+03  d E =-.878628E-02
       N       E                     dE             d eps       ncg     rms          rms(c)
DAV:   1    -0.664664404102E+03    0.11925E-01   -0.15434E+00  9744   0.432E+00    0.368E-01
RMM:   2    -0.664677902368E+03   -0.13498E-01   -0.14276E-01  9879   0.988E-01    0.478E-01
RMM:   3    -0.664678945083E+03   -0.10427E-02   -0.31638E-02 10866   0.428E-01    0.279E-01
RMM:   4    -0.664678997417E+03   -0.52334E-04   -0.60235E-03 11765   0.182E-01    0.204E-01
RMM:   5    -0.664678788387E+03    0.20903E-03   -0.13247E-03 10284   0.793E-02    0.110E-01
RMM:   6    -0.664678739085E+03    0.49302E-04   -0.56207E-04 10498   0.438E-02    0.841E-02
RMM:   7    -0.664678754861E+03   -0.15776E-04   -0.29816E-04  9685   0.350E-02    0.998E-02
RMM:   8    -0.664678693481E+03    0.61381E-04   -0.14356E-04  8786   0.254E-02    0.310E-02
RMM:   9    -0.664678705263E+03   -0.11783E-04   -0.67870E-05  7540   0.149E-02    0.410E-02
RMM:  10    -0.664678695825E+03    0.94382E-05   -0.22501E-05  5793   0.939E-03
  32 F= -.66467870E+03 E0= -.66462941E+03  d E =-.111479E-01
       N       E                     dE             d eps       ncg     rms          rms(c)
DAV:   1    -0.664667341964E+03    0.11363E-01   -0.24740E+00  9156   0.544E+00    0.729E-01
RMM:   2    -0.664693527070E+03   -0.26185E-01   -0.24524E-01  9943   0.133E+00    0.123E+00
RMM:   3    -0.664684240262E+03    0.92868E-02   -0.58667E-02  8861   0.703E-01    0.524E-01
RMM:   4    -0.664684900765E+03   -0.66050E-03   -0.18797E-02 11771   0.299E-01    0.482E-01
RMM:   5    -0.664683226846E+03    0.16739E-02   -0.39277E-03  9561   0.148E-01    0.164E-01
RMM:   6    -0.664683091907E+03    0.13494E-03   -0.19833E-03 10794   0.844E-02    0.162E-01
RMM:   7    -0.664683101567E+03   -0.96598E-05   -0.93862E-04 10090   0.625E-02    0.173E-01
RMM:   8    -0.664682884529E+03    0.21704E-03   -0.38186E-04 10030   0.419E-02    0.442E-02
RMM:   9    -0.664682912285E+03   -0.27756E-04   -0.18522E-04  9737   0.241E-02    0.708E-02
RMM:  10    -0.664682878633E+03    0.33652E-04   -0.60957E-05  7165   0.151E-02    0.184E-02
RMM:  11    -0.664682879916E+03   -0.12823E-05   -0.26478E-05  5843   0.946E-03
  33 F= -.66468288E+03 E0= -.66463324E+03  d E =-.418409E-02
       N       E                     dE             d eps       ncg     rms          rms(c)
DAV:   1    -0.664682875078E+03    0.35554E-05   -0.81106E-05 10724   0.317E-02    0.110E-02
RMM:   2    -0.664682882036E+03   -0.69579E-05   -0.23811E-05  5830   0.105E-02
  34 F= -.66468288E+03 E0= -.66463324E+03  d E =-.418621E-02
       N       E                     dE             d eps       ncg     rms          rms(c)
DAV:   1    -0.664670042950E+03    0.12832E-01   -0.18546E+00  9884   0.454E+00    0.379E-01
RMM:   2    -0.664685532185E+03   -0.15489E-01   -0.16063E-01 10020   0.105E+00    0.533E-01
RMM:   3    -0.664686161976E+03   -0.62979E-03   -0.31579E-02 11027   0.450E-01    0.301E-01
RMM:   4    -0.664686348952E+03   -0.18698E-03   -0.69643E-03 11823   0.196E-01    0.249E-01
RMM:   5    -0.664685981869E+03    0.36708E-03   -0.14674E-03 10151   0.855E-02    0.109E-01
RMM:   6    -0.664685951954E+03    0.29915E-04   -0.66250E-04 10384   0.485E-02    0.104E-01
RMM:   7    -0.664685944060E+03    0.78940E-05   -0.34410E-04  9711   0.379E-02    0.985E-02
RMM:   8    -0.664685884824E+03    0.59236E-04   -0.17768E-04  9366   0.268E-02    0.383E-02
RMM:   9    -0.664685891106E+03   -0.62821E-05   -0.76482E-05  7840   0.162E-02
  35 F= -.66468589E+03 E0= -.66463626E+03  d E =-.300907E-02
       N       E                     dE             d eps       ncg     rms          rms(c)
DAV:   1    -0.664685163816E+03    0.72101E-03   -0.95110E-02 10192   0.103E+00    0.865E-02
RMM:   2    -0.664685962431E+03   -0.79862E-03   -0.83233E-03 10025   0.239E-01    0.120E-01
RMM:   3    -0.664686010751E+03   -0.48319E-04   -0.17170E-03 10982   0.103E-01    0.721E-02
RMM:   4    -0.664686024411E+03   -0.13660E-04   -0.37773E-04 11155   0.450E-02    0.617E-02
RMM:   5    -0.664686003833E+03    0.20578E-04   -0.88077E-05  7763   0.203E-02    0.250E-02
RMM:   6    -0.664686004814E+03   -0.98025E-06   -0.39795E-05  6239   0.122E-02
  36 F= -.66468600E+03 E0= -.66463637E+03  d E =-.312278E-02
       N       E                     dE             d eps       ncg     rms          rms(c)
DAV:   1    -0.664684478065E+03    0.15258E-02   -0.38027E-01  9576   0.189E+00    0.103E-01
RMM:   2    -0.664686736791E+03   -0.22587E-02   -0.25053E-02  9966   0.424E-01    0.117E-01
RMM:   3    -0.664687355473E+03   -0.61868E-03   -0.55949E-03 11351   0.187E-01    0.133E-01
RMM:   4    -0.664687316803E+03    0.38670E-04   -0.10814E-03 11520   0.754E-02    0.512E-02
RMM:   5    -0.664687327375E+03   -0.10572E-04   -0.22397E-04  9639   0.278E-02    0.558E-02
RMM:   6    -0.664687304095E+03    0.23280E-04   -0.86034E-05  7998   0.164E-02    0.270E-02
RMM:   7    -0.664687306879E+03   -0.27835E-05   -0.55935E-05  7592   0.133E-02
  37 F= -.66468731E+03 E0= -.66463762E+03  d E =-.130207E-02
       N       E                     dE             d eps       ncg     rms          rms(c)
DAV:   1    -0.664684361830E+03    0.29423E-02   -0.45987E-01  9492   0.208E+00    0.120E-01
RMM:   2    -0.664687131373E+03   -0.27695E-02   -0.30531E-02  9971   0.467E-01    0.165E-01
RMM:   3    -0.664687814435E+03   -0.68306E-03   -0.68276E-03 11349   0.207E-01    0.151E-01
RMM:   4    -0.664687784331E+03    0.30104E-04   -0.13612E-03 11536   0.842E-02    0.689E-02
RMM:   5    -0.664687775817E+03    0.85147E-05   -0.27828E-04 10157   0.325E-02    0.530E-02
RMM:   6    -0.664687764549E+03    0.11268E-04   -0.11155E-04  8400   0.190E-02    0.442E-02
RMM:   7    -0.664687754449E+03    0.10099E-04   -0.69592E-05  7928   0.157E-02    0.304E-02
RMM:   8    -0.664687749015E+03    0.54341E-05   -0.36787E-05  6336   0.111E-02
  38 F= -.66468775E+03 E0= -.66463803E+03  d E =-.174420E-02
       N       E                     dE             d eps       ncg     rms          rms(c)
DAV:   1    -0.664684541370E+03    0.32131E-02   -0.50895E-01  9576   0.231E+00    0.134E-01
RMM:   2    -0.664687911321E+03   -0.33700E-02   -0.36761E-02  9972   0.504E-01    0.153E-01
RMM:   3    -0.664688612516E+03   -0.70120E-03   -0.70888E-03 11356   0.211E-01    0.152E-01
RMM:   4    -0.664688601977E+03    0.10539E-04   -0.14040E-03 11568   0.891E-02    0.899E-02
RMM:   5    -0.664688562848E+03    0.39129E-04   -0.30486E-04  9723   0.362E-02    0.492E-02
RMM:   6    -0.664688559033E+03    0.38145E-05   -0.12114E-04  8655   0.199E-02    0.510E-02
RMM:   7    -0.664688551140E+03    0.78933E-05   -0.67009E-05  7829   0.156E-02
  39 F= -.66468855E+03 E0= -.66463882E+03  d E =-.802125E-03
       N       E                     dE             d eps       ncg     rms          rms(c)
DAV:   1    -0.664688080012E+03    0.47902E-03   -0.67210E-02 10612   0.839E-01    0.549E-02
RMM:   2    -0.664688551769E+03   -0.47176E-03   -0.49049E-03  9981   0.182E-01    0.920E-02
RMM:   3    -0.664688603365E+03   -0.51597E-04   -0.97319E-04 10707   0.803E-02    0.562E-02
RMM:   4    -0.664688609092E+03   -0.57264E-05   -0.23689E-04 10330   0.345E-02    0.376E-02
RMM:   5    -0.664688600865E+03    0.82267E-05   -0.49039E-05  6617   0.157E-02
  40 F= -.66468860E+03 E0= -.66463883E+03  d E =-.851850E-03
       N       E                     dE             d eps       ncg     rms          rms(c)
DAV:   1    -0.664687283435E+03    0.13257E-02   -0.18879E-01  9912   0.147E+00    0.899E-02
RMM:   2    -0.664688731751E+03   -0.14483E-02   -0.15518E-02 10002   0.329E-01    0.101E-01
RMM:   3    -0.664689018469E+03   -0.28672E-03   -0.30883E-03 11480   0.135E-01    0.918E-02
RMM:   4    -0.664689010022E+03    0.84471E-05   -0.56671E-04 11530   0.565E-02    0.545E-02
RMM:   5    -0.664688994883E+03    0.15139E-04   -0.12352E-04  8496   0.227E-02    0.308E-02
RMM:   6    -0.664688995159E+03   -0.27566E-06   -0.53907E-05  6898   0.136E-02
  41 F= -.66468900E+03 E0= -.66463915E+03  d E =-.394294E-03
       N       E                     dE             d eps       ncg     rms          rms(c)
DAV:   1    -0.664688965570E+03    0.29313E-04   -0.52909E-03 11284   0.245E-01    0.318E-02
RMM:   2    -0.664689079367E+03   -0.11380E-03   -0.50547E-04 10035   0.586E-02    0.106E-01
RMM:   3    -0.664689003932E+03    0.75435E-04   -0.11651E-04  7750   0.325E-02    0.261E-02
RMM:   4    -0.664689004185E+03   -0.25328E-06   -0.37161E-05  6572   0.133E-02
  42 F= -.66468900E+03 E0= -.66463915E+03  d E =-.403320E-03
       N       E                     dE             d eps       ncg     rms          rms(c)
DAV:   1    -0.664688815195E+03    0.18874E-03   -0.21120E-02 10164   0.492E-01    0.316E-02
RMM:   2    -0.664688977987E+03   -0.16279E-03   -0.17468E-03 10009   0.109E-01    0.387E-02
RMM:   3    -0.664689009838E+03   -0.31851E-04   -0.35190E-04 10628   0.452E-02    0.347E-02
RMM:   4    -0.664689007839E+03    0.19992E-05   -0.73179E-05  7001   0.203E-02
  43 F= -.66468901E+03 E0= -.66463912E+03  d E =-.406974E-03
       N       E                     dE             d eps       ncg     rms          rms(c)
DAV:   1    -0.664688916121E+03    0.93717E-04   -0.10382E-02 10192   0.346E-01    0.236E-02
RMM:   2    -0.664689005747E+03   -0.89626E-04   -0.86354E-04  9997   0.762E-02    0.453E-02
RMM:   3    -0.664689007673E+03   -0.19269E-05   -0.16500E-04  9562   0.320E-02    0.226E-02
RMM:   4    -0.664689008477E+03   -0.80388E-06   -0.31766E-05  6003   0.143E-02
  44 F= -.66468901E+03 E0= -.66463915E+03  d E =-.407612E-03
       N       E                     dE             d eps       ncg     rms          rms(c)
DAV:   1    -0.664687752309E+03    0.12554E-02   -0.18437E-01  9464   0.157E+00    0.198E-01
RMM:   2    -0.664689893935E+03   -0.21416E-02   -0.19701E-02  9768   0.364E-01    0.327E-01
RMM:   3    -0.664689166445E+03    0.72749E-03   -0.40705E-03  8749   0.182E-01    0.133E-01
RMM:   4    -0.664689228276E+03   -0.61831E-04   -0.13249E-03 11453   0.789E-02    0.127E-01
RMM:   5    -0.664689123023E+03    0.10525E-03   -0.28567E-04  9259   0.418E-02    0.509E-02
RMM:   6    -0.664689114078E+03    0.89447E-05   -0.14411E-04  9547   0.238E-02    0.430E-02
RMM:   7    -0.664689117303E+03   -0.32243E-05   -0.64381E-05  7560   0.170E-02
  45 F= -.66468912E+03 E0= -.66463925E+03  d E =-.108825E-03
       N       E                     dE             d eps       ncg     rms          rms(c)
DAV:   1    -0.664688977501E+03    0.13658E-03   -0.22046E-02  9968   0.543E-01    0.658E-02
RMM:   2    -0.664689237102E+03   -0.25960E-03   -0.23094E-03  9771   0.124E-01    0.118E-01
RMM:   3    -0.664689150179E+03    0.86924E-04   -0.45138E-04  8618   0.613E-02    0.527E-02
RMM:   4    -0.664689158504E+03   -0.83249E-05   -0.15765E-04  9139   0.274E-02    0.531E-02
RMM:   5    -0.664689136435E+03    0.22069E-04   -0.32378E-05  5978   0.153E-02    0.157E-02
RMM:   6    -0.664689135971E+03    0.46423E-06   -0.15191E-05  5361   0.961E-03
  46 F= -.66468914E+03 E0= -.66463926E+03  d E =-.127493E-03
       N       E                     dE             d eps       ncg     rms          rms(c)
DAV:   1    -0.664687825066E+03    0.13114E-02   -0.12748E-01  9268   0.132E+00    0.812E-02
RMM:   2    -0.664689031065E+03   -0.12060E-02   -0.12922E-02  9745   0.293E-01    0.914E-02
RMM:   3    -0.664689308118E+03   -0.27705E-03   -0.27877E-03 11251   0.122E-01    0.884E-02
RMM:   4    -0.664689301241E+03    0.68769E-05   -0.42621E-04 10722   0.474E-02    0.536E-02
RMM:   5    -0.664689283016E+03    0.18226E-04   -0.84272E-05  7457   0.209E-02    0.229E-02
RMM:   6    -0.664689283582E+03   -0.56643E-06   -0.35891E-05  6173   0.124E-02
  47 F= -.66468928E+03 E0= -.66463936E+03  d E =-.147611E-03
       N       E                     dE             d eps       ncg     rms          rms(c)
DAV:   1    -0.664689278146E+03    0.48699E-05   -0.33827E-04 11508   0.670E-02    0.215E-02
RMM:   2    -0.664689328408E+03   -0.50262E-04   -0.10118E-04  8023   0.217E-02    0.839E-02
RMM:   3    -0.664689277303E+03    0.51105E-04   -0.27197E-05  5815   0.144E-02    0.151E-02
RMM:   4    -0.664689276383E+03    0.92011E-06   -0.48503E-06  4761   0.570E-03
  48 F= -.66468928E+03 E0= -.66463937E+03  d E =-.140413E-03
       N       E                     dE             d eps       ncg     rms          rms(c)
DAV:   1    -0.664689264508E+03    0.12795E-04   -0.12067E-03  9772   0.128E-01    0.974E-03
RMM:   2    -0.664689278838E+03   -0.14330E-04   -0.12554E-04  8678   0.287E-02    0.243E-02
RMM:   3    -0.664689277266E+03    0.15720E-05   -0.25862E-05  5931   0.131E-02
  49 F= -.66468928E+03 E0= -.66463936E+03  d E =-.141295E-03
       N       E                     dE             d eps       ncg     rms          rms(c)
DAV:   1    -0.664689271195E+03    0.76427E-05   -0.49436E-04  9800   0.821E-02    0.676E-03
RMM:   2    -0.664689277295E+03   -0.61001E-05   -0.49424E-05  6641   0.176E-02
  50 F= -.66468928E+03 E0= -.66463937E+03  d E =-.141325E-03
       N       E                     dE             d eps       ncg     rms          rms(c)
DAV:   1    -0.664689274610E+03   -0.34152E-05   -0.26186E-04  9800   0.611E-02    0.507E-03
RMM:   2    -0.664689278186E+03   -0.35762E-05   -0.23521E-05  5959   0.123E-02
  51 F= -.66468928E+03 E0= -.66463937E+03  d E =-.142216E-03
       N       E                     dE             d eps       ncg     rms          rms(c)
DAV:   1    -0.664689275573E+03   -0.96281E-06   -0.66692E-05  9884   0.317E-02    0.420E-03
RMM:   2    -0.664689277645E+03   -0.20719E-05   -0.74118E-06  4561   0.670E-03
  52 F= -.66468928E+03 E0= -.66463937E+03  d E =-.141674E-03
       N       E                     dE             d eps       ncg     rms          rms(c)
DAV:   1    -0.664689275931E+03   -0.35757E-06   -0.14666E-05  6272   0.163E-02    0.307E-03
RMM:   2    -0.664689276949E+03   -0.10183E-05   -0.34958E-06  4183   0.555E-03
  53 F= -.66468928E+03 E0= -.66463937E+03  d E =-.140978E-03
       N       E                     dE             d eps       ncg     rms          rms(c)
DAV:   1    -0.664689276028E+03   -0.97200E-07   -0.27896E-06  5488   0.783E-03    0.235E-03
RMM:   2    -0.664689276657E+03   -0.62968E-06   -0.72158E-07  3224   0.239E-03
  54 F= -.66468928E+03 E0= -.66463937E+03  d E =-.140687E-03
       N       E                     dE             d eps       ncg     rms          rms(c)
DAV:   1    -0.664689276024E+03    0.33615E-08   -0.15164E-06  5488   0.527E-03    0.179E-03
RMM:   2    -0.664689276350E+03   -0.32590E-06   -0.39708E-07  2781   0.182E-03
  55 F= -.66468928E+03 E0= -.66463937E+03  d E =-.140380E-03
       N       E                     dE             d eps       ncg     rms          rms(c)
DAV:   1    -0.664689190725E+03    0.85299E-04   -0.14874E-02  9324   0.430E-01    0.241E-02
RMM:   2    -0.664689311213E+03   -0.12049E-03   -0.13091E-03  9835   0.943E-02    0.259E-02
RMM:   3    -0.664689342452E+03   -0.31239E-04   -0.28170E-04  9815   0.407E-02    0.276E-02
RMM:   4    -0.664689340274E+03    0.21782E-05   -0.44435E-05  6401   0.159E-02
  56 F= -.66468934E+03 E0= -.66463941E+03  d E =-.639237E-04
