HECN                                    
           1
     8.841367    0.017516    0.017287
     0.023518    8.851397   -0.005674
     0.049066   -0.020806    8.860175
   Hf   Ta   V    N    C    W    Mo
     7     6     7    13    19     6     6
Direct configuration=     1
   0.00009453  0.00009846  0.00509733
   0.25760991  0.00657894  0.23971594
   0.25037454  0.49014207  0.25266069
   0.50208244  0.49822086  0.99911472
   0.50244359  0.24898582  0.74920854
   0.99880624  0.50038459  0.50196791
   0.49551667  0.75755155  0.75437361
   0.99375466  0.24969223  0.24491509
   0.75392572  0.74635606  0.00934466
   0.99532774  0.24772067  0.75344003
   0.74600493  0.24710684  0.49704555
   0.99971833  0.75768224  0.74533144
   0.25285999  0.50359838  0.74537731
   0.25813044  0.26450080  0.97788178
   0.51881482  0.26348926  0.23855629
   0.75782547  0.97789922  0.27240037
   0.73246867  0.24853046  0.01150204
   0.23331014  0.72560195  0.00701749
   0.24467597  0.24167443  0.51932017
   0.24829145  0.74819366  0.49337006
   0.25340205  0.24847613  0.24649015
   0.25791202  0.00278712  0.99153509
   0.99679120  0.25107777  0.99879995
   0.74440916  0.24202298  0.24561675
   0.75362143  0.00663780  0.01675995
   0.51364581  0.99630940  0.24112084
   0.00071977  0.49920493  0.24758543
   0.49530385  0.75617564  0.00652307
   0.99286617  0.00356089  0.75077090
   0.74869726  0.24290800  0.75092531
   0.74170237  0.99960409  0.50664122
   0.49703065  0.24075790  0.49471638
   0.49484310  0.00321572  0.73868420
   0.99940504  0.00326030  0.25276379
   0.49530467  0.24933155  0.00624647
   0.25478346  0.74825612  0.24571042
   0.24637761  0.49569178  0.99906593
   0.00399564  0.74412968  0.00379707
   0.74949322  0.74717703  0.25497954
   0.75647067  0.49059101  0.00537366
   0.49703278  0.49417484  0.25270087
   0.24906998  0.24870895  0.74794730
   0.25513915  0.99879748  0.49713387
   0.00336404  0.24763190  0.49899592
   0.24724401  0.75789932  0.75359444
   0.25661876  0.49951593  0.49864653
   0.00282383  0.75613156  0.49663008
   0.99885389  0.50126651  0.75305610
   0.74746135  0.75470821  0.74855139
   0.74900595  0.49949027  0.50248404
   0.49365221  0.75676345  0.50040482
   0.50608317  0.50349526  0.74399559
   0.52093703  0.01397627  0.98896288
   0.99996525  0.50356802  0.98754673
   0.49262112  0.73626105  0.26044503
   0.24861243  0.00133612  0.74708781
   0.48524100  0.99233234  0.47975255
   0.73523118  0.98483481  0.77144153
   0.00800104  0.76645983  0.25910564
   0.73315017  0.50434893  0.25617313
   0.02323796  0.00201998  0.49011411
   0.50807776  0.52196181  0.49357090
   0.75268709  0.52031913  0.75891733
   0.74707783  0.73881347  0.49099440
HECN                                    
           1
     8.705470    0.012591    0.017756
     0.018422    8.745937    0.000746
     0.049007   -0.014233    8.744989
   Hf   Ta   V    N    C    W    Mo
     7     6     7    13    19     6     6
Direct configuration=     2
   0.99969657  0.99994507  0.00352749
   0.25795479  0.00602123  0.23937985
   0.25090669  0.49115649  0.25246534
   0.50188301  0.49764576  0.99989429
   0.50191154  0.24884072  0.74870692
   0.99986756  0.50003200  0.50402356
   0.49430181  0.75733004  0.75394385
   0.99040410  0.24428732  0.24848963
   0.75841255  0.74640811  0.00892351
   0.99998611  0.25296255  0.75062006
   0.74969638  0.25013698  0.49270111
   0.00199671  0.75301975  0.74546093
   0.25158309  0.50333240  0.74535094
   0.25703615  0.26603595  0.97782640
   0.52040159  0.26198470  0.23900789
   0.75867944  0.97993290  0.27385281
   0.73180758  0.24853727  0.01298930
   0.23116837  0.72659357  0.00621181
   0.24195369  0.24221984  0.52016036
   0.24881258  0.74926477  0.49342168
   0.25045937  0.24798440  0.24593220
   0.25764796  0.00294236  0.99172539
   0.99609898  0.25023708  0.00028867
   0.74659350  0.24106815  0.24708487
   0.75396238  0.00508293  0.01696560
   0.51371161  0.99587080  0.24116040
   0.00015691  0.49659365  0.24801063
   0.49717398  0.75672523  0.00629870
   0.99138663  0.00325780  0.74985075
   0.75118948  0.24181748  0.74916093
   0.74191683  0.00305477  0.50815251
   0.49927834  0.24077704  0.49439666
   0.49559359  0.00369895  0.73755538
   0.99870322  0.00610889  0.25283687
   0.49432638  0.24945497  0.00565565
   0.25487666  0.74832882  0.24580922
   0.24642585  0.49514641  0.99659535
   0.00175825  0.74531913  0.00245788
   0.74974280  0.74743854  0.25140209
   0.75667668  0.49222004  0.00566917
   0.49814169  0.49423490  0.25256682
   0.24730738  0.25143998  0.74889680
   0.25412871  0.99828745  0.49738977
   0.00112176  0.24708475  0.49861266
   0.24445501  0.75484613  0.75336264
   0.25609617  0.49924407  0.50280943
   0.00284680  0.75658367  0.50063783
   0.00164011  0.50165608  0.74996677
   0.74958005  0.75417762  0.75004264
   0.74868881  0.49524532  0.50383435
   0.49370538  0.75612128  0.50025262
   0.50289365  0.50356917  0.74435172
   0.52106547  0.01450882  0.99042836
   0.99935895  0.50339708  0.98583252
   0.49244059  0.73771332  0.26029538
   0.24701305  0.00156950  0.74694805
   0.48593449  0.99278663  0.47983153
   0.73569586  0.98446130  0.77346011
   0.00834839  0.76850508  0.25818610
   0.73255683  0.50243530  0.25609748
   0.02332273  0.00291913  0.48936362
   0.50714022  0.52100839  0.49225352
   0.75331690  0.52093515  0.76038025
   0.74706168  0.73845476  0.49023250
HECN                                    
           1
     8.769546    0.014913    0.017535
     0.020825    8.795662   -0.002281
     0.049035   -0.017332    8.799300
   Hf   Ta   V    N    C    W    Mo
     7     6     7    13    19     6     6
Direct configuration=     3
   0.99988713  0.00001783  0.00427736
   0.25778977  0.00628716  0.23954023
   0.25065158  0.49067222  0.25255903
   0.50197869  0.49792051  0.99952167
   0.50216634  0.24890993  0.74894648
   0.99935949  0.50020069  0.50304146
   0.49488361  0.75743590  0.75414903
   0.99201012  0.24686858  0.24678000
   0.75626393  0.74638198  0.00912490
   0.99775389  0.25045902  0.75196922
   0.74792773  0.24868859  0.49477772
   0.00090691  0.75524411  0.74539754
   0.25219462  0.50345964  0.74536339
   0.25755976  0.26530365  0.97785335
   0.51964215  0.26270241  0.23879170
   0.75827001  0.97896273  0.27315969
   0.73212420  0.24853470  0.01227879
   0.23219370  0.72612064  0.00659695
   0.24325718  0.24196056  0.51975906
   0.24856275  0.74875353  0.49339742
   0.25186863  0.24821961  0.24619845
   0.25777437  0.00286841  0.99163452
   0.99643073  0.25063894  0.99957716
   0.74554780  0.24152374  0.24638328
   0.75379953  0.00582488  0.01686683
   0.51368022  0.99608010  0.24114135
   0.00042715  0.49784002  0.24780658
   0.49627828  0.75646241  0.00640615
   0.99209518  0.00340249  0.75029016
   0.74999628  0.24233662  0.75000353
   0.74181326  0.00140860  0.50743175
   0.49820198  0.24076723  0.49454949
   0.49523404  0.00346778  0.73809483
   0.99903854  0.00474977  0.25280292
   0.49479480  0.24939612  0.00593790
   0.25483201  0.74829414  0.24576205
   0.24640282  0.49540579  0.99777540
   0.00282930  0.74475164  0.00309796
   0.74962310  0.74731245  0.25311120
   0.75657760  0.49144273  0.00552857
   0.49761065  0.49420591  0.25263092
   0.24815073  0.25013753  0.74844408
   0.25461272  0.99853118  0.49726731
   0.00219565  0.24734629  0.49879547
   0.24579137  0.75630372  0.75347220
   0.25634662  0.49937536  0.50082063
   0.00283581  0.75636930  0.49872342
   0.00030569  0.50146841  0.75144284
   0.74856566  0.75443079  0.74933014
   0.74884185  0.49727152  0.50318780
   0.49368009  0.75642765  0.50032511
   0.50442099  0.50353483  0.74418149
   0.52100387  0.01425517  0.98972847
   0.99964928  0.50347821  0.98665135
   0.49252665  0.73702031  0.26036737
   0.24777887  0.00145849  0.74701484
   0.48560228  0.99256970  0.47979398
   0.73547350  0.98464011  0.77249569
   0.00818148  0.76752870  0.25862610
   0.73284146  0.50334859  0.25613293
   0.02328187  0.00248978  0.48972246
   0.50758939  0.52146314  0.49288249
   0.75301519  0.52064153  0.75968163
   0.74706949  0.73862567  0.49059635
HECN                                    
           1
     8.790799    0.009474    0.016910
     0.015363    8.823399    0.002789
     0.048472   -0.012336    8.827820
   Hf   Ta   V    N    C    W    Mo
     7     6     7    13    19     6     6
Direct configuration=     4
   0.00006111  0.00030616  0.00208412
   0.25812818  0.00579276  0.23911613
   0.25043453  0.49131989  0.25261813
   0.50180465  0.49782678  0.00023836
   0.50187940  0.24904456  0.74795721
   0.00041504  0.50031467  0.50383871
   0.49377725  0.75719613  0.75382338
   0.98934225  0.24205959  0.25070048
   0.76037358  0.74655902  0.00812183
   0.00208180  0.25618320  0.74947799
   0.75151404  0.25194864  0.49063735
   0.00276696  0.74997439  0.74618572
   0.25149900  0.50313254  0.74567671
   0.25566044  0.26656217  0.97863825
   0.52066655  0.26048604  0.23965744
   0.75899046  0.98160518  0.27463850
   0.73210594  0.24842197  0.01393879
   0.23030096  0.72780709  0.00551345
   0.24037308  0.24259663  0.51969874
   0.24930464  0.75003975  0.49364065
   0.24887323  0.24786968  0.24563666
   0.25762514  0.00269939  0.99169927
   0.99560769  0.25008057  0.00110196
   0.74758668  0.23985008  0.24745254
   0.75434220  0.00433562  0.01791153
   0.51418044  0.99589650  0.24070609
   0.99958999  0.49518608  0.24784330
   0.49791141  0.75712133  0.00621280
   0.99034187  0.00320159  0.74898725
   0.75262850  0.24111142  0.74831001
   0.74222332  0.00452599  0.50950388
   0.50013798  0.24113831  0.49370316
   0.49608468  0.00384326  0.73670740
   0.99831933  0.00659570  0.25221684
   0.49335489  0.24982575  0.00538422
   0.25456978  0.74839253  0.24573261
   0.24644862  0.49508793  0.99602018
   0.00118676  0.74599823  0.00218564
   0.75020220  0.74753580  0.25011557
   0.75656890  0.49279585  0.00611644
   0.49797340  0.49396243  0.25217362
   0.24718432  0.25248832  0.74951647
   0.25393736  0.99809276  0.49741207
   0.00022277  0.24698499  0.49865526
   0.24371427  0.75355167  0.75329314
   0.25607066  0.49879650  0.50382136
   0.00283996  0.75703395  0.50204197
   0.00267832  0.50196975  0.74823480
   0.75020579  0.75406306  0.75059157
   0.74846447  0.49335997  0.50500287
   0.49367414  0.75581707  0.50058023
   0.50164499  0.50361515  0.74450868
   0.52002078  0.01440887  0.99140740
   0.99920020  0.50263930  0.98532203
   0.49287006  0.73905799  0.25974983
   0.24588591  0.00207097  0.74708095
   0.48699831  0.99331112  0.48057861
   0.73671880  0.98458664  0.77379524
   0.00803129  0.76938211  0.25776990
   0.73345627  0.50093582  0.25581245
   0.02189136  0.00322109  0.48995011
   0.50627572  0.51961420  0.49198207
   0.75374840  0.52030150  0.76106904
   0.74702933  0.73846575  0.48990119
HECN                                    
           1
     8.788888    0.009963    0.016966
     0.015854    8.820906    0.002333
     0.048522   -0.012785    8.825256
   Hf   Ta   V    N    C    W    Mo
     7     6     7    13    19     6     6
Direct configuration=     5
   0.00004551  0.00028020  0.00228065
   0.25809787  0.00583702  0.23915411
   0.25045395  0.49126187  0.25261287
   0.50182026  0.49783523  0.00017414
   0.50190513  0.24903246  0.74804586
   0.00032037  0.50030444  0.50376727
   0.49387648  0.75721766  0.75385256
   0.98958174  0.24249088  0.25034896
   0.76000505  0.74654288  0.00821169
   0.00169339  0.25566989  0.74970148
   0.75119228  0.25165609  0.49100849
   0.00260045  0.75044655  0.74611482
   0.25156139  0.50316191  0.74564863
   0.25583069  0.26644954  0.97856800
   0.52057481  0.26068464  0.23957974
   0.75892569  0.98136843  0.27450613
   0.73210757  0.24843215  0.01379004
   0.23047060  0.72765601  0.00561063
   0.24063168  0.24253979  0.51970419
   0.24923803  0.74992447  0.49361892
   0.24914187  0.24790118  0.24568700
   0.25763853  0.00271455  0.99169346
   0.99568152  0.25013073  0.00096531
   0.74740393  0.24000000  0.24735663
   0.75429362  0.00446909  0.01781784
   0.51413560  0.99591290  0.24074508
   0.99966521  0.49542395  0.24783988
   0.49776492  0.75706219  0.00623014
   0.99049912  0.00321962  0.74910399
   0.75239253  0.24122098  0.74846167
   0.74218636  0.00424672  0.50931837
   0.49996435  0.24110491  0.49377900
   0.49600839  0.00380949  0.73683173
   0.99838372  0.00643029  0.25226945
   0.49348399  0.24978731  0.00543386
   0.25459329  0.74838373  0.24573525
   0.24644454  0.49511632  0.99617744
   0.00133399  0.74588656  0.00226746
   0.75015028  0.74751560  0.25038399
   0.75656960  0.49267462  0.00606383
   0.49794089  0.49398420  0.25221458
   0.24727084  0.25227777  0.74942051
   0.25399795  0.99813209  0.49739908
   0.00039971  0.24701747  0.49866782
   0.24390070  0.75379839  0.75330906
   0.25609541  0.49884855  0.50355246
   0.00283952  0.75697456  0.50174465
   0.00246555  0.50192453  0.74852226
   0.75005872  0.75409599  0.75047851
   0.74849852  0.49371060  0.50484003
   0.49367470  0.75587180  0.50055734
   0.50189392  0.50360813  0.74447938
   0.52010892  0.01439524  0.99125698
   0.99924053  0.50271443  0.98544110
   0.49283915  0.73887534  0.25980527
   0.24605563  0.00201620  0.74707507
   0.48687307  0.99324465  0.48050833
   0.73660712  0.98459143  0.77367879
   0.00804466  0.76921599  0.25784672
   0.73340127  0.50115197  0.25584104
   0.02201601  0.00315564  0.48992976
   0.50639364  0.51977991  0.49206266
   0.75368266  0.52033200  0.76094470
   0.74703295  0.73848005  0.48996347
HECN                                    
           1
     8.808706    0.008561    0.013474
     0.014490    8.817132    0.000571
     0.045108   -0.014547    8.836142
   Hf   Ta   V    N    C    W    Mo
     7     6     7    13    19     6     6
Direct configuration=     6
   0.00072249  0.00155588  0.00058610
   0.25810903  0.00604814  0.23933873
   0.24937697  0.49074434  0.25290395
   0.50195989  0.49817785  0.00046391
   0.50263016  0.24901301  0.74711540
   0.00026381  0.50144060  0.50148337
   0.49393617  0.75745304  0.75385230
   0.99062384  0.24231339  0.25152412
   0.76042903  0.74657209  0.00731906
   0.00132606  0.25742373  0.74990578
   0.75125385  0.25245481  0.49081521
   0.00215071  0.74831240  0.74719095
   0.25276634  0.50298239  0.74605149
   0.25436527  0.26721774  0.97944902
   0.52109710  0.25965566  0.23968277
   0.75885985  0.98215230  0.27566962
   0.73204243  0.24797669  0.01517393
   0.22939582  0.72814501  0.00510703
   0.23912126  0.24238862  0.51909992
   0.24977054  0.75083539  0.49377836
   0.24765043  0.24791202  0.24551100
   0.25755380  0.00218982  0.99158089
   0.99521992  0.25046418  0.00123496
   0.74718409  0.23848750  0.24685876
   0.75386894  0.00394615  0.01843438
   0.51450132  0.99598917  0.24036991
   0.99945547  0.49408149  0.24727695
   0.49839425  0.75724397  0.00598020
   0.98986494  0.00338480  0.74835168
   0.75327447  0.24038319  0.74770962
   0.74219191  0.00488021  0.51051054
   0.50068775  0.24122096  0.49303846
   0.49661069  0.00374753  0.73639125
   0.99853281  0.00438303  0.25123735
   0.49277946  0.24976163  0.00513085
   0.25461270  0.74853041  0.24550768
   0.24607715  0.49579422  0.99701159
   0.00225105  0.74576752  0.00267417
   0.75065514  0.74729520  0.25092067
   0.75643446  0.49286139  0.00656977
   0.49758675  0.49401871  0.25192261
   0.24866457  0.25184239  0.74973369
   0.25445020  0.99842056  0.49756474
   0.00044977  0.24747463  0.49942167
   0.24470159  0.75408548  0.75329306
   0.25633679  0.49834312  0.50242009
   0.00266134  0.75752113  0.50140427
   0.00230728  0.50223193  0.74832071
   0.74970225  0.75450310  0.75059124
   0.74805209  0.49426409  0.50569991
   0.49386728  0.75547655  0.50037749
   0.50191240  0.50368047  0.74479190
   0.52023530  0.01503905  0.99148315
   0.99933570  0.50185986  0.98476551
   0.49340678  0.73929680  0.26038653
   0.24519572  0.00260241  0.74708267
   0.48738145  0.99308973  0.48105144
   0.73709123  0.98415969  0.77398085
   0.00722773  0.77067756  0.25844348
   0.73363450  0.50041911  0.25578428
   0.02095853  0.00259058  0.49066758
   0.50620132  0.51965453  0.49146094
   0.75404210  0.51989177  0.76155944
   0.74659635  0.73766903  0.48898120
HECN                                    
           1
     8.816622    0.008001    0.012079
     0.013945    8.815624   -0.000133
     0.043744   -0.015251    8.840490
   Hf   Ta   V    N    C    W    Mo
     7     6     7    13    19     6     6
Direct configuration=     7
   0.00099214  0.00206562  0.99991020
   0.25811351  0.00613253  0.23941242
   0.24894772  0.49053746  0.25301987
   0.50201562  0.49831481  0.00057957
   0.50291900  0.24900521  0.74674427
   0.00024098  0.50189449  0.50057219
   0.49395998  0.75754711  0.75385223
   0.99103938  0.24224261  0.25199315
   0.76059788  0.74658372  0.00696297
   0.00117979  0.25812465  0.74998737
   0.75127841  0.25277400  0.49073817
   0.00197148  0.74745954  0.74762008
   0.25324667  0.50291076  0.74621241
   0.25378136  0.26752473  0.97980036
   0.52130523  0.25924447  0.23972388
   0.75883383  0.98246566  0.27613389
   0.73201666  0.24779477  0.01572604
   0.22896738  0.72834032  0.00490596
   0.23851912  0.24232807  0.51885857
   0.24998286  0.75119949  0.49384214
   0.24705594  0.24791625  0.24544054
   0.25751998  0.00198009  0.99153592
   0.99503599  0.25059743  0.00134250
   0.74709629  0.23788297  0.24665996
   0.75369973  0.00373718  0.01868026
   0.51464704  0.99601964  0.24022029
   0.99937170  0.49354491  0.24705220
   0.49864506  0.75731664  0.00588059
   0.98961206  0.00345071  0.74805143
   0.75362582  0.24004836  0.74740964
   0.74219435  0.00513348  0.51098625
   0.50097597  0.24126733  0.49274312
   0.49685068  0.00372277  0.73621560
   0.99859194  0.00356476  0.25082541
   0.49249859  0.24975131  0.00500983
   0.25462040  0.74858901  0.24541689
   0.24593088  0.49606519  0.99734440
   0.00261663  0.74572003  0.00283658
   0.75085644  0.74720719  0.25113486
   0.75638069  0.49293606  0.00677163
   0.49744556  0.49403245  0.25180607
   0.24922011  0.25166850  0.74985883
   0.25463050  0.99853589  0.49763093
   0.00046987  0.24765740  0.49972249
   0.24502083  0.75420026  0.75328683
   0.25643279  0.49814106  0.50196828
   0.00259030  0.75773954  0.50126848
   0.00224419  0.50235476  0.74824029
   0.74956021  0.75466579  0.75063619
   0.74787432  0.49448533  0.50604297
   0.49394398  0.75531859  0.50030573
   0.50191982  0.50370941  0.74491659
   0.52028575  0.01529637  0.99157346
   0.99937347  0.50151828  0.98449591
   0.49363314  0.73946532  0.26061857
   0.24485301  0.00283663  0.74708561
   0.48758416  0.99302789  0.48126820
   0.73728421  0.98398720  0.77410141
   0.00690230  0.77126168  0.25868157
   0.73372740  0.50012623  0.25576161
   0.02053712  0.00236474  0.49096175
   0.50612457  0.51960437  0.49122082
   0.75418543  0.51971590  0.76180474
   0.74642213  0.73734480  0.48858915
HECN                                    
           1
     8.786611    0.008530    0.009538
     0.014444    8.799204   -0.002056
     0.041080   -0.017144    8.817287
   Hf   Ta   V    N    C    W    Mo
     7     6     7    13    19     6     6
Direct configuration=     8
   0.00146228  0.00347092  0.99822146
   0.25828013  0.00598660  0.23964833
   0.24879632  0.49066175  0.25266914
   0.50201075  0.49847245  0.00109730
   0.50404930  0.24888983  0.74621374
   0.99993998  0.50310219  0.49931956
   0.49428151  0.75774721  0.75391990
   0.99240280  0.24074919  0.25302822
   0.76105040  0.74685416  0.00687750
   0.00083351  0.25955713  0.75024569
   0.75136898  0.25312899  0.49076526
   0.00177913  0.74618837  0.74850121
   0.25426941  0.50253674  0.74560113
   0.25235184  0.26868370  0.98033496
   0.52192876  0.25843166  0.23930435
   0.75861749  0.98311453  0.27757890
   0.73143320  0.24715738  0.01761306
   0.22821218  0.72859087  0.00446224
   0.23682188  0.24214405  0.51854645
   0.25038281  0.75247046  0.49412095
   0.24526867  0.24786138  0.24532658
   0.25734561  0.00140712  0.99156448
   0.99437059  0.25113859  0.00148158
   0.74699139  0.23600840  0.24635904
   0.75349358  0.00325799  0.01902546
   0.51489329  0.99627036  0.23992285
   0.99915116  0.49202868  0.24633602
   0.49959600  0.75746285  0.00568381
   0.98927322  0.00362078  0.74710224
   0.75424159  0.23947700  0.74655115
   0.74216104  0.00542149  0.51221360
   0.50183286  0.24131239  0.49181261
   0.49740071  0.00374674  0.73603539
   0.99872570  0.00311604  0.24998742
   0.49178540  0.24991197  0.00457312
   0.25501022  0.74880131  0.24502853
   0.24566801  0.49711902  0.99816058
   0.00303977  0.74558252  0.00360182
   0.75148226  0.74664373  0.25140231
   0.75636350  0.49273212  0.00727439
   0.49693402  0.49400351  0.25171818
   0.24996520  0.25109750  0.74996295
   0.25486630  0.99909556  0.49802297
   0.00050012  0.24852016  0.50072894
   0.24532270  0.75485874  0.75325845
   0.25651515  0.49763118  0.50131149
   0.00221364  0.75813660  0.50114055
   0.00253137  0.50249377  0.74683453
   0.74926058  0.75458713  0.75041158
   0.74762356  0.49588021  0.50665012
   0.49411233  0.75507688  0.50041705
   0.50243291  0.50377469  0.74522657
   0.52085264  0.01567326  0.99157132
   0.99928159  0.50045658  0.98445742
   0.49410895  0.73984675  0.26105396
   0.24411762  0.00315895  0.74684344
   0.48834483  0.99256441  0.48127026
   0.73752975  0.98396706  0.77458568
   0.00590235  0.77174948  0.25916920
   0.73311376  0.49940357  0.25573841
   0.02021951  0.00169318  0.49121958
   0.50605251  0.51940913  0.49028628
   0.75408059  0.51930207  0.76267866
   0.74575111  0.73676075  0.48793022
HECN                                    
           1
     8.794697    0.008388    0.010222
     0.014310    8.803628   -0.001538
     0.041798   -0.016634    8.823539
   Hf   Ta   V    N    C    W    Mo
     7     6     7    13    19     6     6
Direct configuration=     9
   0.00133532  0.00309167  0.99867756
   0.25823506  0.00602598  0.23958459
   0.24883728  0.49062822  0.25276390
   0.50201203  0.49842987  0.00095742
   0.50374375  0.24892103  0.74635699
   0.00002148  0.50277624  0.49965792
   0.49419458  0.75769320  0.75390158
   0.99203407  0.24115230  0.25274857
   0.76092807  0.74678117  0.00690054
   0.00092714  0.25917041  0.75017585
   0.75134450  0.25303316  0.49075792
   0.00183105  0.74653146  0.74826326
   0.25399293  0.50263776  0.74576621
   0.25273831  0.26837078  0.98019058
   0.52176020  0.25865111  0.23941769
   0.75867588  0.98293928  0.27718851
   0.73159079  0.24732932  0.01710335
   0.22841640  0.72852325  0.00458216
   0.23728078  0.24219371  0.51863091
   0.25027468  0.75212736  0.49404552
   0.24575190  0.24787617  0.24535751
   0.25739274  0.00156179  0.99155681
   0.99455049  0.25099249  0.00144403
   0.74701975  0.23651446  0.24644046
   0.75354928  0.00338733  0.01893225
   0.51482674  0.99620270  0.24000318
   0.99921082  0.49243802  0.24652961
   0.49933891  0.75742341  0.00573689
   0.98936491  0.00357492  0.74735868
   0.75407516  0.23963130  0.74678306
   0.74216996  0.00534367  0.51188201
   0.50160126  0.24130029  0.49206393
   0.49725202  0.00374029  0.73608403
   0.99868960  0.00323722  0.25021383
   0.49197826  0.24986861  0.00469114
   0.25490486  0.74874403  0.24513341
   0.24573904  0.49683448  0.99794004
   0.00292531  0.74561960  0.00339506
   0.75131303  0.74679583  0.25133004
   0.75636810  0.49278715  0.00713858
   0.49707233  0.49401132  0.25174196
   0.24976373  0.25125165  0.74993480
   0.25480253  0.99894446  0.49791701
   0.00049187  0.24828720  0.50045699
   0.24524109  0.75468099  0.75326606
   0.25649293  0.49776886  0.50148895
   0.00231549  0.75802941  0.50117512
   0.00245384  0.50245633  0.74721427
   0.74934161  0.75460837  0.75047229
   0.74769133  0.49550362  0.50648603
   0.49406680  0.75514213  0.50038698
   0.50229416  0.50375706  0.74514278
   0.52069938  0.01557153  0.99157183
   0.99930642  0.50074318  0.98446789
   0.49398028  0.73974376  0.26093628
   0.24431647  0.00307194  0.74690890
   0.48813916  0.99268954  0.48126967
   0.73746332  0.98397248  0.77445483
   0.00617267  0.77161775  0.25903751
   0.73327966  0.49959864  0.25574476
   0.02030535  0.00187445  0.49114999
   0.50607206  0.51946188  0.49053877
   0.75410886  0.51941373  0.76244260
   0.74593257  0.73691844  0.48810832
HECN                                    
           1
     8.792625    0.009174    0.010188
     0.015078    8.819560   -0.002266
     0.041746   -0.017389    8.829333
   Hf   Ta   V    N    C    W    Mo
     7     6     7    13    19     6     6
Direct configuration=    10
   0.00150117  0.00385316  0.99774813
   0.25854475  0.00552216  0.23965696
   0.24920878  0.49127804  0.25224817
   0.50186758  0.49842938  0.00132310
   0.50456782  0.24885474  0.74640158
   0.99975459  0.50342478  0.49944693
   0.49448795  0.75770390  0.75410106
   0.99310891  0.23964153  0.25334793
   0.76110660  0.74709927  0.00745015
   0.00080467  0.25998469  0.75031513
   0.75157428  0.25311416  0.49081270
   0.00189685  0.74641012  0.74865177
   0.25445459  0.50232953  0.74475480
   0.25171795  0.26942615  0.98036526
   0.52178944  0.25813073  0.23882311
   0.75830056  0.98331467  0.27824449
   0.73101284  0.24682235  0.01868820
   0.22850826  0.72867151  0.00427469
   0.23628017  0.24215745  0.51847029
   0.25041045  0.75330383  0.49446292
   0.24451071  0.24779934  0.24533132
   0.25730464  0.00118583  0.99169818
   0.99390973  0.25134990  0.00157298
   0.74725040  0.23498476  0.24666788
   0.75393460  0.00311528  0.01916955
   0.51504245  0.99652881  0.23980032
   0.99889055  0.49148627  0.24592232
   0.50012949  0.75752898  0.00574648
   0.98939283  0.00362694  0.74646873
   0.75425509  0.23958305  0.74623122
   0.74223487  0.00530647  0.51281325
   0.50212524  0.24134985  0.49124505
   0.49740042  0.00382429  0.73613900
   0.99867843  0.00378673  0.24983271
   0.49137655  0.25015380  0.00429919
   0.25528845  0.74892435  0.24474478
   0.24577340  0.49771386  0.99798539
   0.00274959  0.74566684  0.00409066
   0.75178574  0.74611612  0.25109780
   0.75631469  0.49226236  0.00754939
   0.49661355  0.49385592  0.25171784
   0.24963715  0.25102930  0.74990834
   0.25491335  0.99944781  0.49822046
   0.00044789  0.24893673  0.50110037
   0.24499446  0.75510641  0.75322873
   0.25638816  0.49741343  0.50154103
   0.00195843  0.75815084  0.50155309
   0.00305439  0.50253630  0.74576451
   0.74940830  0.75421126  0.75017536
   0.74770192  0.49649934  0.50667312
   0.49397343  0.75506799  0.50084775
   0.50295325  0.50375670  0.74522693
   0.52080853  0.01547342  0.99143323
   0.99912837  0.49991876  0.98474653
   0.49441563  0.74013867  0.26076295
   0.24396793  0.00303240  0.74658390
   0.48922524  0.99231614  0.48088209
   0.73771923  0.98429949  0.77455948
   0.00543553  0.77128671  0.25894666
   0.73275420  0.49889236  0.25566245
   0.02017955  0.00161384  0.49113278
   0.50590385  0.51908116  0.49001318
   0.75375709  0.51903606  0.76308343
   0.74541488  0.73713272  0.48824237
HECN                                    
           1
     8.792487    0.009226    0.010186
     0.015130    8.820622   -0.002314
     0.041743   -0.017439    8.829719
   Hf   Ta   V    N    C    W    Mo
     7     6     7    13    19     6     6
Direct configuration=    11
   0.00151222  0.00390382  0.99768623
   0.25856540  0.00548864  0.23966177
   0.24923354  0.49132127  0.25221382
   0.50185795  0.49842935  0.00134746
   0.50462276  0.24885032  0.74640455
   0.99973679  0.50346792  0.49943288
   0.49450751  0.75770462  0.75411434
   0.99318057  0.23954101  0.25338784
   0.76111850  0.74712043  0.00748675
   0.00079650  0.26003886  0.75032441
   0.75158960  0.25311955  0.49081635
   0.00190124  0.74640205  0.74867765
   0.25448536  0.50230902  0.74468743
   0.25164992  0.26949636  0.98037690
   0.52179140  0.25809610  0.23878351
   0.75827554  0.98333965  0.27831483
   0.73097432  0.24678864  0.01879376
   0.22851438  0.72868137  0.00425421
   0.23621346  0.24215504  0.51845959
   0.25041950  0.75338210  0.49449073
   0.24442796  0.24779424  0.24532957
   0.25729876  0.00116082  0.99170760
   0.99386701  0.25137369  0.00158157
   0.74726578  0.23488300  0.24668302
   0.75396029  0.00309718  0.01918535
   0.51505682  0.99655050  0.23978681
   0.99886921  0.49142295  0.24588187
   0.50018219  0.75753599  0.00574712
   0.98939469  0.00363040  0.74640945
   0.75426709  0.23957983  0.74619446
   0.74223920  0.00530400  0.51287528
   0.50216017  0.24135314  0.49119050
   0.49741031  0.00382988  0.73614266
   0.99867768  0.00382328  0.24980733
   0.49133644  0.25017277  0.00427309
   0.25531402  0.74893635  0.24471890
   0.24577569  0.49777236  0.99798841
   0.00273787  0.74566999  0.00413699
   0.75181726  0.74607089  0.25108233
   0.75631113  0.49222745  0.00757675
   0.49658297  0.49384559  0.25171624
   0.24962871  0.25101451  0.74990658
   0.25492074  0.99948130  0.49824067
   0.00044495  0.24897995  0.50114323
   0.24497802  0.75513471  0.75322624
   0.25638118  0.49738978  0.50154450
   0.00193463  0.75815892  0.50157826
   0.00309442  0.50254161  0.74566795
   0.74941275  0.75418484  0.75015558
   0.74770262  0.49656558  0.50668558
   0.49396721  0.75506306  0.50087844
   0.50299718  0.50375667  0.74523254
   0.52081581  0.01546689  0.99142399
   0.99911651  0.49986392  0.98476509
   0.49444465  0.74016494  0.26075141
   0.24394469  0.00302977  0.74656225
   0.48929765  0.99229129  0.48085627
   0.73773628  0.98432124  0.77456645
   0.00538639  0.77126469  0.25894061
   0.73271918  0.49884538  0.25565696
   0.02017116  0.00159650  0.49113163
   0.50589264  0.51905583  0.48997817
   0.75373365  0.51901094  0.76312612
   0.74538037  0.73714697  0.48825130
HECN                                    
           1
     8.799869    0.008597    0.011058
     0.014516    8.815571   -0.002451
     0.042649   -0.017570    8.834656
   Hf   Ta   V    N    C    W    Mo