  64  64   0   0
  0.1020103E+02  0.8652458E-09  0.8690650E-09  0.8682355E-09  0.5000000E-15
  1.000000000000000E-004
  CAR 
 HECN                                    
     15.21725324    -51.16845631  301      9.64593782      1.00000000
    -51.168  0.0000E+00  0.0000E+00
    -50.947  0.0000E+00  0.0000E+00
    -50.726  0.0000E+00  0.0000E+00
    -50.505  0.0000E+00  0.0000E+00
    -50.283  0.0000E+00  0.0000E+00
    -50.062  0.0000E+00  0.0000E+00
    -49.841  0.0000E+00  0.0000E+00
    -49.619  0.0000E+00  0.0000E+00
    -49.398  0.0000E+00  0.0000E+00
    -49.177  0.0000E+00  0.0000E+00
    -48.956  0.0000E+00  0.0000E+00
    -48.734  0.5017E-17  0.1110E-17
    -48.513  0.1411E-07  0.3123E-08
    -48.292  0.2569E-02  0.5686E-03
    -48.070  0.1848E+00  0.4146E-01
    -47.849  0.1507E+00  0.7481E-01
    -47.628  0.2027E+00  0.1197E+00
    -47.407  0.6525E-01  0.1341E+00
    -47.185  0.2669E-01  0.1400E+00
    -46.964  0.1109E-04  0.1400E+00
    -46.743  0.6800E-07  0.1400E+00
    -46.521  0.4194E-02  0.1409E+00
    -46.300  0.1043E+00  0.1640E+00
    -46.079  0.3869E+00  0.2496E+00
    -45.858  0.1371E+00  0.2799E+00
    -45.636  0.2551E-03  0.2800E+00
    -45.415  0.1356E-09  0.2800E+00
    -45.194  0.0000E+00  0.2800E+00
    -44.972  0.0000E+00  0.2800E+00
    -44.751  0.0000E+00  0.2800E+00
    -44.530  0.0000E+00  0.2800E+00
    -44.309  0.0000E+00  0.2800E+00
    -44.087  0.0000E+00  0.2800E+00
    -43.866  0.0000E+00  0.2800E+00
    -43.645  0.0000E+00  0.2800E+00
    -43.423  0.0000E+00  0.2800E+00
    -43.202  0.0000E+00  0.2800E+00
    -42.981  0.0000E+00  0.2800E+00
    -42.760  0.0000E+00  0.2800E+00
    -42.538  0.0000E+00  0.2800E+00
    -42.317  0.0000E+00  0.2800E+00
    -42.096  0.0000E+00  0.2800E+00
    -41.874  0.0000E+00  0.2800E+00
    -41.653  0.0000E+00  0.2800E+00
    -41.432  0.0000E+00  0.2800E+00
    -41.211  0.0000E+00  0.2800E+00
    -40.989  0.0000E+00  0.2800E+00
    -40.768  0.0000E+00  0.2800E+00
    -40.547  0.0000E+00  0.2800E+00
    -40.325  0.0000E+00  0.2800E+00
    -40.104  0.0000E+00  0.2800E+00
    -39.883  0.0000E+00  0.2800E+00
    -39.662  0.0000E+00  0.2800E+00
    -39.440  0.0000E+00  0.2800E+00
    -39.219  0.0000E+00  0.2800E+00
    -38.998  0.0000E+00  0.2800E+00
    -38.776  0.0000E+00  0.2800E+00
    -38.555  0.0000E+00  0.2800E+00
    -38.334  0.0000E+00  0.2800E+00
    -38.113  0.0000E+00  0.2800E+00
    -37.891  0.0000E+00  0.2800E+00
    -37.670  0.0000E+00  0.2800E+00
    -37.449  0.0000E+00  0.2800E+00
    -37.227  0.0000E+00  0.2800E+00
    -37.006  0.0000E+00  0.2800E+00
    -36.785  0.0000E+00  0.2800E+00
    -36.564  0.0000E+00  0.2800E+00
    -36.342  0.0000E+00  0.2800E+00
    -36.121  0.0000E+00  0.2800E+00
    -35.900  0.0000E+00  0.2800E+00
    -35.678  0.0000E+00  0.2800E+00
    -35.457  0.0000E+00  0.2800E+00
    -35.236  0.0000E+00  0.2800E+00
    -35.015  0.0000E+00  0.2800E+00
    -34.793  0.2860E-15  0.2800E+00
    -34.572  0.1374E-06  0.2800E+00
    -34.351  0.5607E-02  0.2812E+00
    -34.129  0.1512E+00  0.3147E+00
    -33.908  0.9818E+00  0.5320E+00
    -33.687  0.4797E+00  0.6381E+00
    -33.466  0.8461E-02  0.6400E+00
    -33.244  0.1036E-06  0.6400E+00
    -33.023  0.1204E-15  0.6400E+00
    -32.802  0.0000E+00  0.6400E+00
    -32.580  0.0000E+00  0.6400E+00
    -32.359  0.0000E+00  0.6400E+00
    -32.138  0.0000E+00  0.6400E+00
    -31.917  0.0000E+00  0.6400E+00
    -31.695  0.0000E+00  0.6400E+00
    -31.474  0.0000E+00  0.6400E+00
    -31.253  0.0000E+00  0.6400E+00
    -31.031  0.0000E+00  0.6400E+00
    -30.810  0.0000E+00  0.6400E+00
    -30.589  0.1473E-10  0.6400E+00
    -30.368  0.7225E-04  0.6400E+00
    -30.146  0.4889E-01  0.6508E+00
    -29.925  0.2182E+00  0.6991E+00
    -29.704  0.5930E+00  0.8304E+00
    -29.482  0.6484E+00  0.9738E+00
    -29.261  0.1178E+00  0.9999E+00
    -29.040  0.4429E-03  0.1000E+01
    -28.819  0.4700E-09  0.1000E+01
    -28.597  0.0000E+00  0.1000E+01
    -28.376  0.0000E+00  0.1000E+01
    -28.155  0.0000E+00  0.1000E+01
    -27.933  0.0000E+00  0.1000E+01
    -27.712  0.0000E+00  0.1000E+01
    -27.491  0.0000E+00  0.1000E+01
    -27.270  0.0000E+00  0.1000E+01
    -27.048  0.0000E+00  0.1000E+01
    -26.827  0.0000E+00  0.1000E+01
    -26.606  0.0000E+00  0.1000E+01
    -26.384  0.0000E+00  0.1000E+01
    -26.163  0.0000E+00  0.1000E+01
    -25.942  0.0000E+00  0.1000E+01
    -25.721  0.0000E+00  0.1000E+01
    -25.499  0.0000E+00  0.1000E+01
    -25.278  0.0000E+00  0.1000E+01
    -25.057  0.5737E-09  0.1000E+01
    -24.835  0.4850E-03  0.1000E+01
    -24.614  0.1256E+00  0.1028E+01
    -24.393  0.5704E+00  0.1154E+01
    -24.172  0.6252E+00  0.1292E+01
    -23.950  0.3390E+00  0.1367E+01
    -23.729  0.2292E+00  0.1418E+01
    -23.508  0.8063E-02  0.1420E+01
    -23.286  0.1130E-06  0.1420E+01
    -23.065  0.6479E-10  0.1420E+01
    -22.844  0.1895E-03  0.1420E+01
    -22.623  0.1243E+00  0.1448E+01
    -22.401  0.5980E+00  0.1580E+01
    -22.180  0.9384E+00  0.1788E+01
    -21.959  0.2305E+00  0.1839E+01
    -21.737  0.6669E-02  0.1840E+01
    -21.516  0.1761E-06  0.1840E+01
    -21.295  0.4259E-15  0.1840E+01
    -21.074  0.0000E+00  0.1840E+01
    -20.852  0.0000E+00  0.1840E+01
    -20.631  0.0000E+00  0.1840E+01
    -20.410  0.0000E+00  0.1840E+01
    -20.188  0.0000E+00  0.1840E+01
    -19.967  0.0000E+00  0.1840E+01
    -19.746  0.0000E+00  0.1840E+01
    -19.525  0.0000E+00  0.1840E+01
    -19.303  0.0000E+00  0.1840E+01
    -19.082  0.0000E+00  0.1840E+01
    -18.861  0.0000E+00  0.1840E+01
    -18.639  0.0000E+00  0.1840E+01
    -18.418  0.0000E+00  0.1840E+01
    -18.197  0.0000E+00  0.1840E+01
    -17.976  0.0000E+00  0.1840E+01
    -17.754  0.0000E+00  0.1840E+01
    -17.533  0.0000E+00  0.1840E+01
    -17.312  0.0000E+00  0.1840E+01
    -17.090  0.0000E+00  0.1840E+01
    -16.869  0.0000E+00  0.1840E+01
    -16.648  0.0000E+00  0.1840E+01
    -16.427  0.0000E+00  0.1840E+01
    -16.205  0.0000E+00  0.1840E+01
    -15.984  0.0000E+00  0.1840E+01
    -15.763  0.0000E+00  0.1840E+01
    -15.541  0.0000E+00  0.1840E+01
    -15.320  0.0000E+00  0.1840E+01
    -15.099  0.0000E+00  0.1840E+01
    -14.878  0.0000E+00  0.1840E+01
    -14.656  0.0000E+00  0.1840E+01
    -14.435  0.0000E+00  0.1840E+01
    -14.214  0.0000E+00  0.1840E+01
    -13.992  0.0000E+00  0.1840E+01
    -13.771  0.0000E+00  0.1840E+01
    -13.550  0.0000E+00  0.1840E+01
    -13.329  0.0000E+00  0.1840E+01
    -13.107  0.0000E+00  0.1840E+01
    -12.886  0.0000E+00  0.1840E+01
    -12.665  0.0000E+00  0.1840E+01
    -12.443  0.0000E+00  0.1840E+01
    -12.222  0.0000E+00  0.1840E+01
    -12.001  0.0000E+00  0.1840E+01
    -11.780  0.0000E+00  0.1840E+01
    -11.558  0.0000E+00  0.1840E+01
    -11.337  0.0000E+00  0.1840E+01
    -11.116  0.0000E+00  0.1840E+01
    -10.894  0.0000E+00  0.1840E+01
    -10.673  0.0000E+00  0.1840E+01
    -10.452  0.0000E+00  0.1840E+01
    -10.231  0.0000E+00  0.1840E+01
    -10.009  0.0000E+00  0.1840E+01
     -9.788  0.0000E+00  0.1840E+01
     -9.567  0.0000E+00  0.1840E+01
     -9.345  0.0000E+00  0.1840E+01
     -9.124  0.0000E+00  0.1840E+01
     -8.903  0.0000E+00  0.1840E+01
     -8.682  0.0000E+00  0.1840E+01
     -8.460  0.0000E+00  0.1840E+01
     -8.239  0.0000E+00  0.1840E+01
     -8.018  0.0000E+00  0.1840E+01
     -7.796  0.0000E+00  0.1840E+01
     -7.575  0.1840E-16  0.1840E+01
     -7.354  0.7793E-08  0.1840E+01
     -7.133  0.4108E-03  0.1840E+01
     -6.911  0.3125E-01  0.1847E+01
     -6.690  0.6470E-01  0.1861E+01
     -6.469  0.7910E-01  0.1879E+01
     -6.247  0.8911E-01  0.1899E+01
     -6.026  0.9844E-01  0.1920E+01
     -5.805  0.1577E+00  0.1955E+01
     -5.584  0.1980E+00  0.1999E+01
     -5.362  0.2423E+00  0.2053E+01
     -5.141  0.1039E+00  0.2076E+01
     -4.920  0.1065E+00  0.2099E+01
     -4.698  0.3618E-02  0.2100E+01
     -4.477  0.5101E-07  0.2100E+01
     -4.256  0.6541E-16  0.2100E+01
     -4.035  0.1215E-08  0.2100E+01
     -3.813  0.2087E-03  0.2100E+01
     -3.592  0.2787E-01  0.2106E+01
     -3.371  0.6036E-01  0.2120E+01
     -3.149  0.2464E-01  0.2125E+01
     -2.928  0.1219E+00  0.2152E+01
     -2.707  0.1240E+00  0.2179E+01
     -2.486  0.1973E+00  0.2223E+01
     -2.264  0.2230E+00  0.2272E+01
     -2.043  0.1877E+00  0.2314E+01
     -1.822  0.2071E+00  0.2360E+01
     -1.600  0.2304E+00  0.2411E+01
     -1.379  0.1755E+00  0.2450E+01
     -1.158  0.1013E+00  0.2472E+01
     -0.937  0.3413E-01  0.2480E+01
     -0.715  0.1758E-02  0.2480E+01
     -0.494  0.9409E-06  0.2480E+01
     -0.273  0.7830E-13  0.2480E+01
     -0.051  0.0000E+00  0.2480E+01
      0.170  0.0000E+00  0.2480E+01
      0.391  0.0000E+00  0.2480E+01
      0.612  0.7952E-13  0.2480E+01
      0.834  0.9414E-06  0.2480E+01
      1.055  0.1256E-02  0.2480E+01
      1.276  0.6943E-02  0.2482E+01
      1.498  0.2915E-01  0.2488E+01
      1.719  0.9012E-01  0.2508E+01
      1.940  0.9509E-01  0.2529E+01
      2.161  0.1536E+00  0.2563E+01
      2.383  0.1872E+00  0.2605E+01
      2.604  0.2496E+00  0.2660E+01
      2.825  0.2764E+00  0.2721E+01
      3.047  0.2726E+00  0.2781E+01
      3.268  0.3252E+00  0.2853E+01
      3.489  0.3317E+00  0.2927E+01
      3.710  0.3701E+00  0.3009E+01
      3.932  0.4219E+00  0.3102E+01
      4.153  0.5166E+00  0.3216E+01
      4.374  0.5905E+00  0.3347E+01
      4.596  0.6491E+00  0.3491E+01
      4.817  0.6314E+00  0.3630E+01
      5.038  0.6285E+00  0.3769E+01
      5.259  0.5691E+00  0.3895E+01
      5.481  0.4683E+00  0.3999E+01
      5.702  0.3673E+00  0.4080E+01
      5.923  0.3154E+00  0.4150E+01
      6.145  0.3081E+00  0.4218E+01
      6.366  0.2962E+00  0.4284E+01
      6.587  0.2002E+00  0.4328E+01
      6.808  0.1601E+00  0.4364E+01
      7.030  0.1222E+00  0.4391E+01
      7.251  0.7814E-01  0.4408E+01
      7.472  0.1443E+00  0.4440E+01
      7.694  0.2020E+00  0.4484E+01
      7.915  0.1753E+00  0.4523E+01
      8.136  0.2057E+00  0.4569E+01
      8.357  0.1881E+00  0.4610E+01
      8.579  0.2331E+00  0.4662E+01
      8.800  0.2956E+00  0.4727E+01
      9.021  0.2914E+00  0.4792E+01
      9.243  0.2610E+00  0.4850E+01
      9.464  0.2675E+00  0.4909E+01
      9.685  0.2874E+00  0.4972E+01
      9.906  0.3300E+00  0.5045E+01
     10.128  0.4046E+00  0.5135E+01
     10.349  0.4731E+00  0.5240E+01
     10.570  0.5099E+00  0.5353E+01
     10.792  0.5455E+00  0.5473E+01
     11.013  0.5479E+00  0.5594E+01
     11.234  0.5448E+00  0.5715E+01
     11.455  0.5792E+00  0.5843E+01
     11.677  0.6006E+00  0.5976E+01
     11.898  0.5951E+00  0.6108E+01
     12.119  0.4911E+00  0.6216E+01
     12.341  0.1055E+00  0.6240E+01
     12.562  0.7334E-03  0.6240E+01
     12.783  0.3374E-08  0.6240E+01
     13.004  0.0000E+00  0.6240E+01
     13.226  0.0000E+00  0.6240E+01
     13.447  0.0000E+00  0.6240E+01
     13.668  0.0000E+00  0.6240E+01
     13.890  0.0000E+00  0.6240E+01
     14.111  0.0000E+00  0.6240E+01
     14.332  0.0000E+00  0.6240E+01
     14.553  0.0000E+00  0.6240E+01
     14.775  0.0000E+00  0.6240E+01
     14.996  0.0000E+00  0.6240E+01
     15.217  0.0000E+00  0.6240E+01
