<?xml version="1.0" encoding="ISO-8859-1"?>
<modeling>
 <generator>
  <i name="program" type="string">vasp </i>
  <i name="version" type="string">5.4.4.18Apr17-6-g9f103f2a35  </i>
  <i name="subversion" type="string">(build Oct 18 2021 20:38:43) complex            parallel </i>
  <i name="platform" type="string">LinuxIFC </i>
  <i name="date" type="string">2024 06 19 </i>
  <i name="time" type="string">10:05:29 </i>
 </generator>
 <incar>
  <i type="string" name="SYSTEM">HECN</i>
  <i type="int" name="ISTART">     0</i>
  <i type="string" name="PREC">normal</i>
  <i type="string" name="ALGO">Fast</i>
  <i type="int" name="ICHARG">     2</i>
  <i type="int" name="NELM">    60</i>
  <i type="int" name="IBRION">     2</i>
  <i name="EDIFF">      0.00001000</i>
  <i name="EDIFFG">     -0.01000000</i>
  <i type="int" name="NSW">   100</i>
  <i type="int" name="ISIF">     3</i>
  <i name="ENCUT">    400.00000000</i>
  <i name="POTIM">      0.50000000</i>
  <i type="logical" name="LREAL"> F  </i>
  <i type="int" name="ISMEAR">     0</i>
  <i name="SIGMA">      0.10000000</i>
  <i type="logical" name="LWAVE"> F  </i>
  <i type="logical" name="LCHARG"> F  </i>
  <v type="int" name="KPOINT_BSE">    -1     0     0     0</v>
  <i type="int" name="NELM">    60</i>
 </incar>
 <structure name="primitive_cell" >
  <crystal>
   <varray name="basis" >
    <v>       8.65245674       0.00398267      -0.00086683 </v>
    <v>       0.00965303       8.69061837       0.02140657 </v>
    <v>       0.03017915       0.00618600       8.68230057 </v>
   </varray>
   <i name="volume">    652.86607393 </i>
   <varray name="rec_basis" >
    <v>       0.11557413      -0.00012738      -0.00040164 </v>
    <v>      -0.00005297       0.11506687      -0.00008180 </v>
    <v>       0.00001167      -0.00028371       0.11517701 </v>
   </varray>
  </crystal>
  <varray name="positions" >
   <v>       0.00678717      -0.00334047      -0.01096623 </v>
   <v>      -0.01402498      -0.01223164      -0.25757824 </v>
   <v>       0.01067822      -0.25526789       0.00507151 </v>
   <v>       0.26175817       0.00259025      -0.00390515 </v>
   <v>       0.00146356       0.25038790       0.00525244 </v>
   <v>      -0.00736027      -0.00004839       0.24666518 </v>
   <v>      -0.25489511      -0.00372779       0.00376144 </v>
   <v>       0.21628358       0.01295852      -0.23687397 </v>
   <v>       0.01604238       0.23422963      -0.25370386 </v>
   <v>      -0.00124566      -0.23222453       0.25166044 </v>
   <v>      -0.23629166      -0.25349612      -0.00266288 </v>
   <v>       0.25932461      -0.24606721      -0.00025159 </v>
   <v>       0.00298523      -0.26415641      -0.24424763 </v>
   <v>       0.25216881       0.24884153      -0.00625171 </v>
   <v>      -0.28273931      -0.00433116      -0.21609092 </v>
   <v>      -0.25166882       0.24543016      -0.00482822 </v>
   <v>      -0.00808735       0.23307244       0.25930712 </v>
   <v>       0.25504630      -0.00625835       0.25297138 </v>
   <v>      -0.26532456      -0.00865688       0.25982992 </v>
   <v>       0.24917013      -0.23979023      -0.24891900 </v>
   <v>      -0.24439480      -0.22958887      -0.25459709 </v>
   <v>      -0.24146087       0.22824583      -0.25483139 </v>
   <v>       0.25677422       0.24730764      -0.25030628 </v>
   <v>      -0.25511233       0.23973934       0.24173164 </v>
   <v>       0.25975378      -0.24824519       0.25021408 </v>
   <v>       0.24925564       0.24986019       0.25091461 </v>
   <v>      -0.25913325      -0.25329187       0.24569475 </v>
   <v>      -0.00948826      -0.47672576      -0.02415868 </v>
   <v>       0.01636166       0.00288012       0.49665882 </v>
   <v>      -0.49015451       0.02433527      -0.01443765 </v>
   <v>       0.25554273       0.00103698      -0.48451164 </v>
   <v>      -0.00050912       0.48567118      -0.24248500 </v>
   <v>       0.49412983       0.00067332      -0.25175132 </v>
   <v>       0.00187534      -0.24683225      -0.49678012 </v>
   <v>       0.00803658       0.25033006      -0.49642497 </v>
   <v>       0.24381358      -0.49811164      -0.00315881 </v>
   <v>      -0.49594101      -0.24517349      -0.00397338 </v>
   <v>      -0.23639892       0.49485669       0.00966267 </v>
   <v>      -0.49902859       0.00286094       0.24260339 </v>
   <v>      -0.49786663       0.24924192       0.00186573 </v>
   <v>      -0.00099551       0.48817817       0.25097624 </v>
   <v>      -0.25718345       0.00839869       0.49260371 </v>
   <v>      -0.25104103      -0.47872719      -0.23609602 </v>
   <v>       0.25625072       0.24976564      -0.49381871 </v>
   <v>       0.25055683      -0.24773624       0.49989360 </v>
   <v>       0.25435519      -0.49589444      -0.24711030 </v>
   <v>      -0.49846719      -0.23966018      -0.26012505 </v>
   <v>      -0.49702371       0.24228342      -0.25025985 </v>
   <v>       0.25066892      -0.49273579       0.24529854 </v>
   <v>      -0.23815443       0.25633236       0.48310609 </v>
   <v>      -0.49847564       0.24644020       0.24917359 </v>
   <v>      -0.25016016      -0.26490478       0.49690470 </v>
   <v>      -0.26875208      -0.49527813       0.25521744 </v>
   <v>      -0.49577211      -0.26782976       0.27577188 </v>
   <v>       0.47393480       0.00043704       0.49243276 </v>
   <v>       0.00266548      -0.49924662      -0.49276017 </v>
   <v>      -0.49558104       0.49291940      -0.00238067 </v>
   <v>       0.49885040      -0.23506101       0.49109785 </v>
   <v>      -0.25161291       0.49283921      -0.49016833 </v>
   <v>       0.25124548      -0.49881394      -0.49886398 </v>
   <v>      -0.49821099      -0.49832425      -0.25443484 </v>
   <v>       0.49493981      -0.49839235       0.24695084 </v>
   <v>      -0.49466315       0.24487547       0.49373186 </v>
   <v>       0.49650063      -0.48684892       0.49268956 </v>
  </varray>
 </structure>
 <varray name="primitive_index" >
  <v type="int" >        1 </v>
  <v type="int" >       29 </v>
  <v type="int" >       38 </v>
  <v type="int" >       22 </v>
  <v type="int" >       23 </v>
  <v type="int" >       34 </v>
  <v type="int" >       25 </v>
  <v type="int" >       56 </v>
  <v type="int" >       10 </v>
  <v type="int" >       59 </v>
  <v type="int" >        9 </v>
  <v type="int" >       18 </v>
  <v type="int" >       12 </v>
  <v type="int" >       14 </v>
  <v type="int" >       58 </v>
  <v type="int" >       17 </v>
  <v type="int" >        8 </v>
  <v type="int" >        2 </v>
  <v type="int" >       16 </v>
  <v type="int" >       45 </v>
  <v type="int" >       49 </v>
  <v type="int" >       30 </v>
  <v type="int" >       42 </v>
  <v type="int" >       24 </v>
  <v type="int" >       36 </v>
  <v type="int" >       21 </v>
  <v type="int" >       39 </v>
  <v type="int" >       54 </v>
  <v type="int" >       61 </v>
  <v type="int" >       53 </v>
  <v type="int" >       43 </v>
  <v type="int" >       48 </v>
  <v type="int" >       33 </v>
  <v type="int" >       47 </v>
  <v type="int" >       44 </v>
  <v type="int" >       37 </v>
  <v type="int" >       28 </v>
  <v type="int" >       40 </v>
  <v type="int" >       26 </v>
  <v type="int" >       35 </v>
  <v type="int" >       27 </v>
  <v type="int" >       31 </v>
  <v type="int" >       63 </v>
  <v type="int" >       19 </v>
  <v type="int" >       20 </v>
  <v type="int" >       13 </v>
  <v type="int" >        7 </v>
  <v type="int" >        5 </v>
  <v type="int" >        3 </v>
  <v type="int" >       11 </v>
  <v type="int" >       15 </v>
  <v type="int" >       64 </v>
  <v type="int" >       60 </v>
  <v type="int" >       55 </v>
  <v type="int" >       57 </v>
  <v type="int" >        6 </v>
  <v type="int" >        4 </v>
  <v type="int" >       51 </v>
  <v type="int" >       50 </v>
  <v type="int" >       46 </v>
  <v type="int" >       52 </v>
  <v type="int" >       41 </v>
  <v type="int" >       32 </v>
  <v type="int" >       62 </v>
 </varray>
 <kpoints>
  <generation param="Gamma">
   <v type="int" name="divisions">       3        3        3 </v>
   <v name="usershift">      0.00000000       0.00000000       0.00000000 </v>
   <v name="genvec1">      0.33333333      -0.00000000      -0.00000000 </v>
   <v name="genvec2">      0.00000000       0.33333333       0.00000000 </v>
   <v name="genvec3">     -0.00000000       0.00000000       0.33333333 </v>
   <v name="shift">      0.00000000       0.00000000       0.00000000 </v>
  </generation>
  <varray name="kpointlist" >
   <v>       0.00000000       0.00000000       0.00000000 </v>
   <v>       0.33333333       0.00000000       0.00000000 </v>
   <v>      -0.00000000       0.33333333       0.00000000 </v>
   <v>       0.33333333       0.33333333       0.00000000 </v>
   <v>      -0.33333333       0.33333333       0.00000000 </v>
   <v>      -0.00000000       0.00000000       0.33333333 </v>
   <v>       0.33333333       0.00000000       0.33333333 </v>
   <v>      -0.33333333      -0.00000000       0.33333333 </v>
   <v>      -0.00000000       0.33333333       0.33333333 </v>
   <v>       0.33333333       0.33333333       0.33333333 </v>
   <v>      -0.33333333       0.33333333       0.33333333 </v>
   <v>      -0.00000000      -0.33333333       0.33333333 </v>
   <v>       0.33333333      -0.33333333       0.33333333 </v>
   <v>      -0.33333333      -0.33333333       0.33333333 </v>
  </varray>
  <varray name="weights" >
   <v>       0.03703704 </v>
   <v>       0.07407407 </v>
   <v>       0.07407407 </v>
   <v>       0.07407407 </v>
   <v>       0.07407407 </v>
   <v>       0.07407407 </v>
   <v>       0.07407407 </v>
   <v>       0.07407407 </v>
   <v>       0.07407407 </v>
   <v>       0.07407407 </v>
   <v>       0.07407407 </v>
   <v>       0.07407407 </v>
   <v>       0.07407407 </v>
   <v>       0.07407407 </v>
  </varray>
 </kpoints>
 <parameters>
  <separator name="general" >
   <i type="string" name="SYSTEM">HECN</i>
   <i type="logical" name="LCOMPAT"> F  </i>
  </separator>
  <separator name="electronic" >
   <i type="string" name="PREC">normal</i>
   <i name="ENMAX">    400.00000000</i>
   <i name="ENAUG">    644.87300000</i>
   <i name="EDIFF">      0.00001000</i>
   <i type="int" name="IALGO">    68</i>
   <i type="int" name="IWAVPR">    11</i>
   <i type="int" name="NBANDS">   312</i>
   <i name="NELECT">    496.00000000</i>
   <i type="int" name="TURBO">     0</i>
   <i type="int" name="IRESTART">     0</i>
   <i type="int" name="NREBOOT">     0</i>
   <i type="int" name="NMIN">     0</i>
   <i name="EREF">      0.00000000</i>
   <separator name="electronic smearing" >
    <i type="int" name="ISMEAR">     0</i>
    <i name="SIGMA">      0.10000000</i>
    <i name="KSPACING">      0.50000000</i>
    <i type="logical" name="KGAMMA"> T  </i>
   </separator>
   <separator name="electronic projectors" >
    <i type="logical" name="LREAL"> F  </i>
    <v name="ROPT">      0.00000000      0.00000000      0.00000000      0.00000000      0.00000000      0.00000000      0.00000000</v>
    <i type="int" name="LMAXPAW">  -100</i>
    <i type="int" name="LMAXMIX">     2</i>
    <i type="logical" name="NLSPLINE"> F  </i>
   </separator>
   <separator name="electronic startup" >
    <i type="int" name="ISTART">     0</i>
    <i type="int" name="ICHARG">     2</i>
    <i type="int" name="INIWAV">     1</i>
   </separator>
   <separator name="electronic spin" >
    <i type="int" name="ISPIN">     1</i>
    <i type="logical" name="LNONCOLLINEAR"> F  </i>
    <v name="MAGMOM">      1.00000000      1.00000000      1.00000000      1.00000000      1.00000000      1.00000000      1.00000000      1.00000000      1.00000000      1.00000000      1.00000000      1.00000000      1.00000000      1.00000000      1.00000000      1.00000000      1.00000000      1.00000000      1.00000000      1.00000000
      1.00000000      1.00000000      1.00000000      1.00000000      1.00000000      1.00000000      1.00000000      1.00000000      1.00000000      1.00000000      1.00000000      1.00000000      1.00000000      1.00000000      1.00000000      1.00000000      1.00000000      1.00000000      1.00000000      1.00000000
      1.00000000      1.00000000      1.00000000      1.00000000      1.00000000      1.00000000      1.00000000      1.00000000      1.00000000      1.00000000      1.00000000      1.00000000      1.00000000      1.00000000      1.00000000      1.00000000      1.00000000      1.00000000      1.00000000      1.00000000
      1.00000000      1.00000000      1.00000000      1.00000000</v>
    <i name="NUPDOWN">     -1.00000000</i>
    <i type="logical" name="LSORBIT"> F  </i>
    <v name="SAXIS">      0.00000000      0.00000000      1.00000000</v>
    <i type="logical" name="LSPIRAL"> F  </i>
    <v name="QSPIRAL">      0.00000000      0.00000000      0.00000000</v>
    <i type="logical" name="LZEROZ"> F  </i>
   </separator>
   <separator name="electronic exchange-correlation" >
    <i type="logical" name="LASPH"> F  </i>
    <i type="logical" name="LMETAGGA"> F  </i>
   </separator>
   <separator name="electronic convergence" >
    <i type="int" name="NELM">    60</i>
    <i type="int" name="NELMDL">    -5</i>
    <i type="int" name="NELMIN">     2</i>
    <i name="ENINI">    400.00000000</i>
    <separator name="electronic convergence detail" >
     <i type="logical" name="LDIAG"> T  </i>
     <i type="logical" name="LSUBROT"> F  </i>
     <i name="WEIMIN">      0.00100000</i>
     <i name="EBREAK">      0.00000001</i>
     <i name="DEPER">      0.30000000</i>
     <i type="int" name="NRMM">     4</i>
     <i name="TIME">      0.40000000</i>
    </separator>
   </separator>
   <separator name="electronic mixer" >
    <i name="AMIX">      0.40000000</i>
    <i name="BMIX">      1.00000000</i>
    <i name="AMIN">      0.10000000</i>
    <i name="AMIX_MAG">      1.60000000</i>
    <i name="BMIX_MAG">      1.00000000</i>
    <separator name="electronic mixer details" >
     <i type="int" name="IMIX">     4</i>
     <i type="logical" name="MIXFIRST"> F  </i>
     <i type="int" name="MAXMIX">   -45</i>
     <i name="WC">    100.00000000</i>
     <i type="int" name="INIMIX">     1</i>
     <i type="int" name="MIXPRE">     1</i>
     <i type="int" name="MREMOVE">     5</i>
    </separator>
   </separator>
   <separator name="electronic dipolcorrection" >
    <i type="logical" name="LDIPOL"> F  </i>
    <i type="logical" name="LMONO"> F  </i>
    <i type="int" name="IDIPOL">     0</i>
    <i name="EPSILON">      1.00000000</i>
    <v name="DIPOL">   -100.00000000   -100.00000000   -100.00000000</v>
    <i name="EFIELD">      0.00000000</i>
   </separator>
  </separator>
  <separator name="grids" >
   <i type="int" name="NGX">    42</i>
   <i type="int" name="NGY">    48</i>
   <i type="int" name="NGZ">    42</i>
   <i type="int" name="NGXF">    84</i>
   <i type="int" name="NGYF">    96</i>
   <i type="int" name="NGZF">    84</i>
   <i type="logical" name="ADDGRID"> F  </i>
  </separator>
  <separator name="ionic" >
   <i type="int" name="NSW">   100</i>
   <i type="int" name="IBRION">     2</i>
   <i type="int" name="MDALGO">     0</i>
   <i type="int" name="ISIF">     3</i>
   <i name="PSTRESS">      0.00000000</i>
   <i name="EDIFFG">     -0.01000000</i>
   <i type="int" name="NFREE">     1</i>
   <i name="POTIM">      0.50000000</i>
   <i name="SMASS">     -3.00000000</i>
   <i name="SCALEE">      1.00000000</i>
  </separator>
  <separator name="ionic md" >
   <i name="TEBEG">      0.00010000</i>
   <i name="TEEND">      0.00010000</i>
   <i type="int" name="NBLOCK">     1</i>
   <i type="int" name="KBLOCK">   100</i>
   <i type="int" name="NPACO">   256</i>
   <i name="APACO">     16.00000000</i>
  </separator>
  <separator name="symmetry" >
   <i type="int" name="ISYM">     2</i>
   <i name="SYMPREC">      0.00001000</i>
  </separator>
  <separator name="dos" >
   <i type="int" name="LORBIT">     0</i>
   <v name="RWIGS">     -1.00000000     -1.00000000     -1.00000000     -1.00000000     -1.00000000     -1.00000000     -1.00000000</v>
   <i type="int" name="NEDOS">   301</i>
   <i name="EMIN">     10.00000000</i>
   <i name="EMAX">    -10.00000000</i>
   <i name="EFERMI">      0.00000000</i>
  </separator>
  <separator name="writing" >
   <i type="int" name="NWRITE">     2</i>
   <i type="logical" name="LWAVE"> F  </i>
   <i type="logical" name="LDOWNSAMPLE"> F  </i>
   <i type="logical" name="LCHARG"> F  </i>
   <i type="logical" name="LPARD"> F  </i>
   <i type="logical" name="LVTOT"> F  </i>
   <i type="logical" name="LVHAR"> F  </i>
   <i type="logical" name="LELF"> F  </i>
   <i type="logical" name="LOPTICS"> F  </i>
   <v name="STM">      0.00000000      0.00000000      0.00000000      0.00000000      0.00000000      0.00000000      0.00000000</v>
  </separator>
  <separator name="performance" >
   <i type="int" name="NPAR">    24</i>
   <i type="int" name="NSIM">     4</i>
   <i type="int" name="NBLK">    -1</i>
   <i type="logical" name="LPLANE"> T  </i>
   <i type="logical" name="LSCALAPACK"> T  </i>
   <i type="logical" name="LSCAAWARE"> F  </i>
   <i type="logical" name="LSCALU"> F  </i>
   <i type="logical" name="LASYNC"> F  </i>
   <i type="logical" name="LORBITALREAL"> F  </i>
  </separator>
  <separator name="miscellaneous" >
   <i type="int" name="IDIOT">     3</i>
   <i type="int" name="ISPECIAL">     0</i>
   <i type="logical" name="LMUSIC"> F  </i>
   <v name="POMASS">     92.91000000    183.85000000     47.88000000     14.00100000     12.01100000     51.99600000     95.94000000</v>
   <v name="DARWINR">      0.00000000      0.00000000      0.00000000      0.00000000      0.00000000      0.00000000      0.00000000</v>
   <v name="DARWINV">      1.00000000      1.00000000      1.00000000      1.00000000      1.00000000      1.00000000      1.00000000</v>
   <i type="logical" name="LCORR"> T  </i>
  </separator>
  <i type="logical" name="GGA_COMPAT"> T  </i>
  <i type="logical" name="LBERRY"> F  </i>
  <i type="int" name="ICORELEVEL">     0</i>
  <i type="logical" name="LDAU"> F  </i>
  <i type="int" name="I_CONSTRAINED_M">     0</i>
  <separator name="electronic exchange-correlation" >
   <i type="string" name="GGA">--</i>
   <i type="int" name="VOSKOWN">     0</i>
   <i type="logical" name="LHFCALC"> F  </i>
   <i type="string" name="PRECFOCK"></i>
   <i type="logical" name="LSYMGRAD"> F  </i>
   <i type="logical" name="LHFONE"> F  </i>
   <i type="logical" name="LRHFCALC"> F  </i>
   <i type="logical" name="LTHOMAS"> F  </i>
   <i type="logical" name="LMODELHF"> F  </i>
   <i name="ENCUT4O">     -1.00000000</i>
   <i type="int" name="EXXOEP">     0</i>
   <i type="int" name="FOURORBIT">     0</i>
   <i name="AEXX">      0.00000000</i>
   <i name="HFALPHA">      0.00000000</i>
   <i name="MCALPHA">      0.00000000</i>
   <i name="ALDAX">      1.00000000</i>
   <i name="AGGAX">      1.00000000</i>
   <i name="ALDAC">      1.00000000</i>
   <i name="AGGAC">      1.00000000</i>
   <i type="int" name="NKREDX">     1</i>
   <i type="int" name="NKREDY">     1</i>
   <i type="int" name="NKREDZ">     1</i>
   <i type="logical" name="SHIFTRED"> F  </i>
   <i type="logical" name="ODDONLY"> F  </i>
   <i type="logical" name="EVENONLY"> F  </i>
   <i type="int" name="LMAXFOCK">     0</i>
   <i type="int" name="NMAXFOCKAE">     0</i>
   <i type="logical" name="LFOCKAEDFT"> F  </i>
   <i name="HFSCREEN">      0.00000000</i>
   <i name="HFSCREENC">      0.00000000</i>
   <i type="int" name="NBANDSGWLOW">     0</i>
  </separator>
  <separator name="vdW DFT" >
   <i type="logical" name="LUSE_VDW"> F  </i>
   <i name="Zab_VDW">     -0.84910000</i>
   <i name="PARAM1">      0.12340000</i>
   <i name="PARAM2">      1.00000000</i>
   <i name="PARAM3">      0.00000000</i>
  </separator>
  <separator name="model GW" >
   <i type="int" name="MODEL_GW">     0</i>
   <i name="MODEL_EPS0">      6.12061944</i>
   <i name="MODEL_ALPHA">      1.00000000</i>
  </separator>
  <separator name="linear response parameters" >
   <i type="logical" name="LEPSILON"> F  </i>
   <i type="logical" name="LRPA"> F  </i>
   <i type="logical" name="LNABLA"> F  </i>
   <i type="logical" name="LVEL"> F  </i>
   <i type="int" name="KINTER">     0</i>
   <i name="CSHIFT">      0.10000000</i>
   <i name="OMEGAMAX">     -1.00000000</i>
   <i name="DEG_THRESHOLD">      0.00200000</i>
   <i name="RTIME">     -0.10000000</i>
   <i name="WPLASMAI">      0.00000000</i>
   <v name="DFIELD">      0.00000000      0.00000000      0.00000000</v>
   <v name="WPLASMA">      0.00000000      0.00000000      0.00000000      0.00000000      0.00000000      0.00000000      0.00000000      0.00000000      0.00000000</v>
  </separator>
  <separator name="orbital magnetization" >
   <i type="logical" name="NUCIND"> F  </i>
   <v name="MAGPOS">      0.00000000      0.00000000      0.00000000</v>
   <i type="logical" name="LNICSALL"> T  </i>
   <i type="logical" name="ORBITALMAG"> F  </i>
   <i type="logical" name="LMAGBLOCH"> F  </i>
   <i type="logical" name="LCHIMAG"> F  </i>
   <i type="logical" name="LGAUGE"> T  </i>
   <i type="int" name="MAGATOM">     0</i>
   <v name="MAGDIPOL">      0.00000000      0.00000000      0.00000000</v>
   <v name="AVECCONST">      0.00000000      0.00000000      0.00000000</v>
  </separator>
  <separator name="response functions" >
   <i type="logical" name="LADDER"> F  </i>
   <i type="logical" name="LRPAFORCE"> F  </i>
   <i type="logical" name="LFXC"> F  </i>
   <i type="logical" name="LHARTREE"> T  </i>
   <i type="int" name="IBSE">     0</i>
   <v type="int" name="KPOINT">    -1     0     0     0</v>
   <i type="logical" name="LTCTE"> F  </i>
   <i type="logical" name="LTETE"> F  </i>
   <i type="logical" name="LTRIPLET"> F  </i>
   <i type="logical" name="LFXCEPS"> F  </i>
   <i type="logical" name="LFXHEG"> F  </i>
   <i type="int" name="NATURALO">     2</i>
   <i type="logical" name="L2ORDER"> F  </i>
   <i type="logical" name="LMP2LT"> F  </i>
   <i type="logical" name="LUSEW"> F  </i>
   <i name="ENCUTGW">     -2.00000000</i>
   <i name="ENCUTGWSOFT">     -2.00000000</i>
   <i name="ENCUTLF">     -1.00000000</i>
   <i type="int" name="LMAXMP2">    -1</i>
   <i name="SCISSOR">      0.00000000</i>
   <i type="int" name="NOMEGA">     0</i>
   <i type="int" name="NOMEGAR">     0</i>
   <i type="int" name="NBANDSGW">    -1</i>
   <i type="int" name="NBANDSO">    -1</i>
   <i type="int" name="NBANDSV">    -1</i>
   <i type="int" name="NELM">    60</i>
   <i type="int" name="NELMHF">     1</i>
   <i type="int" name="DIM">     3</i>
   <i type="int" name="ANTIRES">     0</i>
   <i name="OMEGAMAX">    -30.00000000</i>
   <i name="OMEGAMIN">    -30.00000000</i>
   <i name="OMEGATL">   -200.00000000</i>
   <i type="int" name="OMEGAGRID">   140</i>
   <i name="CSHIFT">     -0.10000000</i>
   <i type="logical" name="SELFENERGY"> F  </i>
   <i type="logical" name="LSPECTRAL"> F  </i>
   <i type="logical" name="LSPECTRALGW"> F  </i>
   <i type="logical" name="LSINGLES"> F  </i>
   <i type="logical" name="LFERMIGW"> F  </i>
   <i type="logical" name="ODDONLYGW"> F  </i>
   <i type="logical" name="EVENONLYGW"> F  </i>
   <i type="int" name="NKREDLFX">     1</i>
   <i type="int" name="NKREDLFY">     1</i>
   <i type="int" name="NKREDLFZ">     1</i>
   <i type="int" name="MAXMEM">  2800</i>
   <i type="int" name="TELESCOPE">     0</i>
   <i type="int" name="TAUPAR">     1</i>
   <i type="int" name="OMEGAPAR">    -1</i>
   <i name="LAMBDA">      1.00000000</i>
  </separator>
  <separator name="External order field" >
   <i name="OFIELD_KAPPA">      0.00000000</i>
   <v name="OFIELD_K">      0.00000000      0.00000000      0.00000000</v>
   <i name="OFIELD_Q6_NEAR">      0.00000000</i>
   <i name="OFIELD_Q6_FAR">      0.00000000</i>
   <i name="OFIELD_A">      0.00000000</i>
  </separator>
 </parameters>
 <atominfo>
  <atoms>      64 </atoms>
  <types>       7 </types>
  <array name="atoms" >
   <dimension dim="1">ion</dimension>
   <field type="string">element</field>
   <field type="int">atomtype</field>
   <set>
    <rc><c>Nb</c><c>   1</c></rc>
    <rc><c>Nb</c><c>   1</c></rc>
    <rc><c>Nb</c><c>   1</c></rc>
    <rc><c>Nb</c><c>   1</c></rc>
    <rc><c>Nb</c><c>   1</c></rc>
    <rc><c>Nb</c><c>   1</c></rc>
    <rc><c>Nb</c><c>   1</c></rc>
    <rc><c>W </c><c>   2</c></rc>
    <rc><c>W </c><c>   2</c></rc>
    <rc><c>W </c><c>   2</c></rc>
    <rc><c>W </c><c>   2</c></rc>
    <rc><c>W </c><c>   2</c></rc>
    <rc><c>W </c><c>   2</c></rc>
    <rc><c>Ti</c><c>   3</c></rc>
    <rc><c>Ti</c><c>   3</c></rc>
    <rc><c>Ti</c><c>   3</c></rc>
    <rc><c>Ti</c><c>   3</c></rc>
    <rc><c>Ti</c><c>   3</c></rc>
    <rc><c>Ti</c><c>   3</c></rc>
    <rc><c>Ti</c><c>   3</c></rc>
    <rc><c>N </c><c>   4</c></rc>
    <rc><c>N </c><c>   4</c></rc>
    <rc><c>N </c><c>   4</c></rc>
    <rc><c>N </c><c>   4</c></rc>
    <rc><c>N </c><c>   4</c></rc>
    <rc><c>N </c><c>   4</c></rc>
    <rc><c>N </c><c>   4</c></rc>
    <rc><c>N </c><c>   4</c></rc>
    <rc><c>N </c><c>   4</c></rc>
    <rc><c>N </c><c>   4</c></rc>
    <rc><c>N </c><c>   4</c></rc>
    <rc><c>N </c><c>   4</c></rc>
    <rc><c>N </c><c>   4</c></rc>
    <rc><c>C </c><c>   5</c></rc>
    <rc><c>C </c><c>   5</c></rc>
    <rc><c>C </c><c>   5</c></rc>
    <rc><c>C </c><c>   5</c></rc>
    <rc><c>C </c><c>   5</c></rc>
    <rc><c>C </c><c>   5</c></rc>
    <rc><c>C </c><c>   5</c></rc>
    <rc><c>C </c><c>   5</c></rc>
    <rc><c>C </c><c>   5</c></rc>
    <rc><c>C </c><c>   5</c></rc>
    <rc><c>C </c><c>   5</c></rc>
    <rc><c>C </c><c>   5</c></rc>
    <rc><c>C </c><c>   5</c></rc>
    <rc><c>C </c><c>   5</c></rc>
    <rc><c>C </c><c>   5</c></rc>
    <rc><c>C </c><c>   5</c></rc>
    <rc><c>C </c><c>   5</c></rc>
    <rc><c>C </c><c>   5</c></rc>
    <rc><c>C </c><c>   5</c></rc>
    <rc><c>Cr</c><c>   6</c></rc>
    <rc><c>Cr</c><c>   6</c></rc>
    <rc><c>Cr</c><c>   6</c></rc>
    <rc><c>Cr</c><c>   6</c></rc>
    <rc><c>Cr</c><c>   6</c></rc>
    <rc><c>Cr</c><c>   6</c></rc>
    <rc><c>Mo</c><c>   7</c></rc>
    <rc><c>Mo</c><c>   7</c></rc>
    <rc><c>Mo</c><c>   7</c></rc>
    <rc><c>Mo</c><c>   7</c></rc>
    <rc><c>Mo</c><c>   7</c></rc>
    <rc><c>Mo</c><c>   7</c></rc>
   </set>
  </array>
  <array name="atomtypes" >
   <dimension dim="1">type</dimension>
   <field type="int">atomspertype</field>
   <field type="string">element</field>
   <field>mass</field>
   <field>valence</field>
   <field type="string">pseudopotential</field>
   <set>
    <rc><c>   7</c><c>Nb</c><c>     92.91000000</c><c>     13.00000000</c><c> PAW_PBE Nb_sv 17Jan2003                </c></rc>
    <rc><c>   6</c><c>W </c><c>    183.85000000</c><c>     12.00000000</c><c> PAW_PBE W_pv 06Sep2000                 </c></rc>
    <rc><c>   7</c><c>Ti</c><c>     47.88000000</c><c>     12.00000000</c><c> PAW_PBE Ti_sv 07Sep2000                </c></rc>
    <rc><c>  13</c><c>N </c><c>     14.00100000</c><c>      5.00000000</c><c> PAW_PBE N 08Apr2002                    </c></rc>
    <rc><c>  19</c><c>C </c><c>     12.01100000</c><c>      4.00000000</c><c> PAW_PBE C 08Apr2002                    </c></rc>
    <rc><c>   6</c><c>Cr</c><c>     51.99600000</c><c>     12.00000000</c><c> PAW_PBE Cr_pv 07Sep2000                </c></rc>
    <rc><c>   6</c><c>Mo</c><c>     95.94000000</c><c>      6.00000000</c><c> PAW_PBE Mo 08Apr2002                   </c></rc>
   </set>
  </array>
 </atominfo>
 <structure name="initialpos" >
  <crystal>
   <varray name="basis" >
    <v>       8.65245674       0.00398267      -0.00086683 </v>
    <v>       0.00965303       8.69061837       0.02140657 </v>
    <v>       0.03017915       0.00618600       8.68230057 </v>
   </varray>
   <i name="volume">    652.86607393 </i>
   <varray name="rec_basis" >
    <v>       0.11557413      -0.00012738      -0.00040164 </v>
    <v>      -0.00005297       0.11506687      -0.00008180 </v>
    <v>       0.00001167      -0.00028371       0.11517701 </v>
   </varray>
  </crystal>
  <varray name="positions" >
   <v>       0.00678717       0.99665953       0.98903377 </v>
   <v>       0.25504630       0.99374165       0.25297138 </v>
   <v>       0.25066892       0.50726421       0.24529854 </v>
   <v>       0.50441896       0.49291940       0.99761933 </v>
   <v>       0.50297629       0.24228342       0.74974015 </v>
   <v>       0.00266548       0.50075338       0.50723983 </v>
   <v>       0.50153281       0.76033982       0.73987495 </v>
   <v>       0.99191265       0.23307244       0.25930712 </v>
   <v>       0.76370834       0.74650388       0.99733712 </v>
   <v>       0.01604238       0.23422963       0.74629614 </v>
   <v>       0.76184557       0.25633236       0.48310609 </v>
   <v>       0.00298523       0.73584359       0.75575237 </v>
   <v>       0.25435519       0.50410556       0.75288970 </v>
   <v>       0.25216881       0.24884153       0.99374829 </v>
   <v>       0.50152436       0.24644020       0.24917359 </v>
   <v>       0.73467544       0.99134312       0.25982992 </v>
   <v>       0.74833118       0.24543016       0.99517178 </v>
   <v>       0.25932461       0.75393279       0.99974841 </v>
   <v>       0.25625072       0.24976564       0.50618129 </v>
   <v>       0.25055683       0.75226376       0.49989360 </v>
   <v>       0.24925564       0.24986019       0.25091461 </v>
   <v>       0.26175817       0.00259025       0.99609485 </v>
   <v>       0.00146356       0.25038790       0.00525244 </v>
   <v>       0.74488767       0.23973934       0.24173164 </v>
   <v>       0.74510489       0.99627221       0.00376144 </v>
   <v>       0.50097141       0.00286094       0.24260339 </v>
   <v>       0.99900449       0.48817817       0.25097624 </v>
   <v>       0.50405899       0.75482651       0.99602662 </v>
   <v>       0.98597502       0.98776836       0.74242176 </v>
   <v>       0.75853913       0.22824583       0.74516861 </v>
   <v>       0.74281655       0.00839869       0.49260371 </v>
   <v>       0.50533685       0.24487547       0.49373186 </v>
   <v>       0.49412983       0.00067332       0.74824868 </v>
   <v>       0.99263973       0.99995161       0.24666518 </v>
   <v>       0.50213337       0.24924192       0.00186573 </v>
   <v>       0.25975378       0.75175481       0.25021408 </v>
   <v>       0.24381358       0.50188836       0.99684119 </v>
   <v>       0.01067822       0.74473211       0.00507151 </v>
   <v>       0.74086675       0.74670813       0.24569475 </v>
   <v>       0.76360108       0.49485669       0.00966267 </v>
   <v>       0.49493981       0.50160765       0.24695084 </v>
   <v>       0.25677422       0.24730764       0.74969372 </v>
   <v>       0.25554273       0.00103698       0.51548836 </v>
   <v>       0.00803658       0.25033006       0.50357503 </v>
   <v>       0.24917013       0.76020977       0.75108100 </v>
   <v>       0.25124548       0.50118606       0.50113602 </v>
   <v>       0.00187534       0.75316775       0.50321988 </v>
   <v>       0.99949088       0.48567118       0.75751500 </v>
   <v>       0.75560520       0.77041113       0.74540291 </v>
   <v>       0.74838709       0.49283921       0.50983167 </v>
   <v>       0.49885040       0.76493899       0.49109785 </v>
   <v>       0.50178901       0.50167575       0.74556516 </v>
   <v>       0.50984549       0.02433527       0.98556235 </v>
   <v>       0.99051174       0.52327424       0.97584132 </v>
   <v>       0.50422789       0.73217024       0.27577188 </v>
   <v>       0.21628358       0.01295852       0.76312603 </v>
   <v>       0.47393480       0.00043704       0.49243276 </v>
   <v>       0.71726069       0.99566884       0.78390908 </v>
   <v>       0.99875434       0.76777547       0.25166044 </v>
   <v>       0.73124792       0.50472187       0.25521744 </v>
   <v>       0.01636166       0.00288012       0.49665882 </v>
   <v>       0.49650063       0.51315108       0.49268956 </v>
   <v>       0.74895897       0.52127281       0.76390398 </v>
   <v>       0.74983984       0.73509522       0.49690470 </v>
  </varray>
 </structure>
 <calculation>
  <scstep>
   <time name="dav">   17.96   18.03</time>
   <time name="total">   17.99   18.06</time>
   <energy>
    <i name="alphaZ">   3872.67676495 </i>
    <i name="ewald"> -40226.97937814 </i>
    <i name="hartreedc">  -9236.38751318 </i>
    <i name="XCdc">   1550.02893556 </i>
    <i name="pawpsdc">  30061.05897249 </i>
    <i name="pawaedc"> -29617.42069458 </i>
    <i name="eentropy">     -0.08787425 </i>
    <i name="bandstr">   3589.06441975 </i>
    <i name="atom">  46982.73727694 </i>
    <i name="e_fr_energy">   6974.69090956 </i>
    <i name="e_wo_entrp">   6974.77878381 </i>
    <i name="e_0_energy">   6974.73484668 </i>
   </energy>
  </scstep>
  <scstep>
   <time name="dav">   18.98   19.06</time>
   <time name="total">   18.98   19.06</time>
   <energy>
    <i name="e_fr_energy">    485.06236399 </i>
    <i name="e_wo_entrp">    485.16753757 </i>
    <i name="e_0_energy">    485.11495078 </i>
   </energy>
  </scstep>
  <scstep>
   <time name="dav">   27.51   27.53</time>
   <time name="total">   27.51   27.53</time>
   <energy>
    <i name="e_fr_energy">   -619.76364715 </i>
    <i name="e_wo_entrp">   -619.64138142 </i>
    <i name="e_0_energy">   -619.70251428 </i>
   </energy>
  </scstep>
  <scstep>
   <time name="dav">   30.24   31.05</time>
   <time name="total">   30.24   31.05</time>
   <energy>
    <i name="e_fr_energy">   -759.31350345 </i>
    <i name="e_wo_entrp">   -759.20119909 </i>
    <i name="e_0_energy">   -759.25735127 </i>
   </energy>
  </scstep>
  <scstep>
   <time name="dav">   33.48   33.51</time>
   <time name="total">   33.67   33.69</time>
   <energy>
    <i name="e_fr_energy">   -778.23235883 </i>
    <i name="e_wo_entrp">   -778.11199139 </i>
    <i name="e_0_energy">   -778.17217511 </i>
   </energy>
  </scstep>
  <scstep>
   <time name="diag">    1.53    1.53</time>
   <time name="diis">   15.97   16.00</time>
   <time name="orth">    0.41    0.41</time>
   <time name="total">   18.11   18.14</time>
   <energy>
    <i name="e_fr_energy">   -793.99017495 </i>
    <i name="e_wo_entrp">   -793.89250064 </i>
    <i name="e_0_energy">   -793.94133779 </i>
   </energy>
  </scstep>
  <scstep>
   <time name="diag">    1.53    1.53</time>
   <time name="diis">   19.64   19.72</time>
   <time name="orth">    0.40    0.40</time>
   <time name="total">   21.78   21.87</time>
   <energy>
    <i name="e_fr_energy">   -668.96641955 </i>
    <i name="e_wo_entrp">   -668.81517744 </i>
    <i name="e_0_energy">   -668.89079849 </i>
   </energy>
  </scstep>
  <scstep>
   <time name="diag">    1.54    1.54</time>
   <time name="diis">   17.71   17.82</time>
   <time name="orth">    0.41    0.41</time>
   <time name="total">   19.86   19.98</time>
   <energy>
    <i name="e_fr_energy">   -640.24472223 </i>
    <i name="e_wo_entrp">   -640.08944515 </i>
    <i name="e_0_energy">   -640.16708369 </i>
   </energy>
  </scstep>
  <scstep>
   <time name="diag">    1.54    1.54</time>
   <time name="diis">   19.26   19.33</time>
   <time name="orth">    0.40    0.40</time>
   <time name="total">   21.41   21.47</time>
   <energy>
    <i name="e_fr_energy">   -641.08117223 </i>
    <i name="e_wo_entrp">   -640.93508575 </i>
    <i name="e_0_energy">   -641.00812899 </i>
   </energy>
  </scstep>
  <scstep>
   <time name="diag">    1.54    1.54</time>
   <time name="diis">   19.31   19.38</time>
   <time name="orth">    0.41    0.41</time>
   <time name="total">   21.46   21.54</time>
   <energy>
    <i name="e_fr_energy">   -639.19619536 </i>
    <i name="e_wo_entrp">   -639.04539359 </i>
    <i name="e_0_energy">   -639.12079447 </i>
   </energy>
  </scstep>
  <scstep>
   <time name="diag">    1.58    1.59</time>
   <time name="diis">   20.23   20.24</time>
   <time name="orth">    0.40    0.40</time>
   <time name="total">   22.42   22.44</time>
   <energy>
    <i name="e_fr_energy">   -639.75367805 </i>
    <i name="e_wo_entrp">   -639.60118819 </i>
    <i name="e_0_energy">   -639.67743312 </i>
   </energy>
  </scstep>
  <scstep>
   <time name="diag">    1.52    1.54</time>
   <time name="diis">   19.44   19.45</time>
   <time name="orth">    0.41    0.41</time>
   <time name="total">   21.57   21.60</time>
   <energy>
    <i name="e_fr_energy">   -638.35984445 </i>
    <i name="e_wo_entrp">   -638.20695252 </i>
    <i name="e_0_energy">   -638.28339849 </i>
   </energy>
  </scstep>
  <scstep>
   <time name="diag">    1.51    1.54</time>
   <time name="diis">   19.69   19.92</time>
   <time name="orth">    0.40    0.40</time>
   <time name="total">   21.81   22.07</time>
   <energy>
    <i name="e_fr_energy">   -639.18465134 </i>
    <i name="e_wo_entrp">   -639.03615231 </i>
    <i name="e_0_energy">   -639.11040182 </i>
   </energy>
  </scstep>
  <scstep>
   <time name="diag">    1.51    1.54</time>
   <time name="diis">   19.06   19.14</time>
   <time name="orth">    0.40    0.40</time>
   <time name="total">   21.18   21.28</time>
   <energy>
    <i name="e_fr_energy">   -638.60940137 </i>
    <i name="e_wo_entrp">   -638.45195822 </i>
    <i name="e_0_energy">   -638.53067979 </i>
   </energy>
  </scstep>
  <scstep>
   <time name="diag">    1.54    1.54</time>
   <time name="diis">   19.00   19.04</time>
   <time name="orth">    0.41    0.41</time>
   <time name="total">   21.15   21.19</time>
   <energy>
    <i name="e_fr_energy">   -638.72542278 </i>
    <i name="e_wo_entrp">   -638.57078140 </i>
    <i name="e_0_energy">   -638.64810209 </i>
   </energy>
  </scstep>
  <scstep>
   <time name="diag">    1.52    1.54</time>
   <time name="diis">   19.04   19.07</time>
   <time name="orth">    0.40    0.40</time>
   <time name="total">   21.17   21.22</time>
   <energy>
    <i name="e_fr_energy">   -638.45163047 </i>
    <i name="e_wo_entrp">   -638.29546438 </i>
    <i name="e_0_energy">   -638.37354742 </i>
   </energy>
  </scstep>
  <scstep>
   <time name="diag">    1.54    1.54</time>
   <time name="diis">   20.58   20.59</time>
   <time name="orth">    0.40    0.40</time>
   <time name="total">   22.73   22.75</time>
   <energy>
    <i name="e_fr_energy">   -638.51123570 </i>
    <i name="e_wo_entrp">   -638.35415426 </i>
    <i name="e_0_energy">   -638.43269498 </i>
   </energy>
  </scstep>
  <scstep>
   <time name="diag">    1.51    1.54</time>
   <time name="diis">   20.11   20.79</time>
   <time name="orth">    0.40    0.40</time>
   <time name="total">   22.23   22.95</time>
   <energy>
    <i name="e_fr_energy">   -638.48892344 </i>
    <i name="e_wo_entrp">   -638.33221287 </i>
    <i name="e_0_energy">   -638.41056816 </i>
   </energy>
  </scstep>
  <scstep>
   <time name="diag">    1.53    1.54</time>
   <time name="diis">   19.31   19.33</time>
   <time name="orth">    0.41    0.41</time>
   <time name="total">   21.46   21.48</time>
   <energy>
    <i name="e_fr_energy">   -638.50652711 </i>
    <i name="e_wo_entrp">   -638.35005470 </i>
    <i name="e_0_energy">   -638.42829091 </i>
   </energy>
  </scstep>
  <scstep>
   <time name="diag">    1.53    1.53</time>
   <time name="diis">   19.56   19.57</time>
   <time name="orth">    0.41    0.41</time>
   <time name="total">   21.70   21.72</time>
   <energy>
    <i name="e_fr_energy">   -638.49477672 </i>
    <i name="e_wo_entrp">   -638.33913816 </i>
    <i name="e_0_energy">   -638.41695744 </i>
   </energy>
  </scstep>
  <scstep>
   <time name="diag">    1.59    1.60</time>
   <time name="diis">   19.92   19.94</time>
   <time name="orth">    0.41    0.41</time>
   <time name="total">   22.14   22.16</time>
   <energy>
    <i name="e_fr_energy">   -638.49849757 </i>
    <i name="e_wo_entrp">   -638.34234809 </i>
    <i name="e_0_energy">   -638.42042283 </i>
   </energy>
  </scstep>
  <scstep>
   <time name="diag">    1.58    1.58</time>
   <time name="diis">   19.40   19.41</time>
   <time name="orth">    0.40    0.40</time>
   <time name="total">   21.60   21.61</time>
   <energy>
    <i name="e_fr_energy">   -638.50153468 </i>
    <i name="e_wo_entrp">   -638.34538611 </i>
    <i name="e_0_energy">   -638.42346039 </i>
   </energy>
  </scstep>
  <scstep>
   <time name="diag">    1.53    1.53</time>
   <time name="diis">   20.36   20.40</time>
   <time name="orth">    0.41    0.41</time>
   <time name="total">   22.51   22.55</time>
   <energy>
    <i name="e_fr_energy">   -638.50402460 </i>
    <i name="e_wo_entrp">   -638.34785682 </i>
    <i name="e_0_energy">   -638.42594071 </i>
   </energy>
  </scstep>
  <scstep>
   <time name="diag">    1.53    1.56</time>
   <time name="diis">   19.71   19.89</time>
   <time name="orth">    0.41    0.41</time>
   <time name="total">   21.86   22.07</time>
   <energy>
    <i name="e_fr_energy">   -638.50511692 </i>
    <i name="e_wo_entrp">   -638.34899701 </i>
    <i name="e_0_energy">   -638.42705696 </i>
   </energy>
  </scstep>
  <scstep>
   <time name="diag">    1.53    1.53</time>
   <time name="diis">   18.89   18.91</time>
   <time name="orth">    0.40    0.40</time>
   <time name="total">   21.03   21.05</time>
   <energy>
    <i name="e_fr_energy">   -638.50622085 </i>
    <i name="e_wo_entrp">   -638.35012041 </i>
    <i name="e_0_energy">   -638.42817063 </i>
   </energy>
  </scstep>
  <scstep>
   <time name="diag">    1.53    1.53</time>
   <time name="diis">   17.95   17.97</time>
   <time name="orth">    0.40    0.41</time>
   <time name="total">   20.09   20.12</time>
   <energy>
    <i name="e_fr_energy">   -638.50667080 </i>
    <i name="e_wo_entrp">   -638.35055755 </i>
    <i name="e_0_energy">   -638.42861417 </i>
   </energy>
  </scstep>
  <scstep>
   <time name="diag">    1.51    1.53</time>
   <time name="diis">   17.38   17.92</time>
   <time name="orth">    0.40    0.40</time>
   <time name="total">   19.49   20.07</time>
   <energy>
    <i name="e_fr_energy">   -638.50712644 </i>
    <i name="e_wo_entrp">   -638.35102974 </i>
    <i name="e_0_energy">   -638.42907809 </i>
   </energy>
  </scstep>
  <scstep>
   <time name="diag">    1.51    1.54</time>
   <time name="diis">   17.00   17.51</time>
   <time name="orth">    0.40    0.40</time>
   <time name="total">   19.12   19.67</time>
   <energy>
    <i name="e_fr_energy">   -638.50731547 </i>
    <i name="e_wo_entrp">   -638.35122795 </i>
    <i name="e_0_energy">   -638.42927171 </i>
   </energy>
  </scstep>
  <scstep>
   <time name="diag">    1.51    1.53</time>
   <time name="diis">   16.21   16.72</time>
   <time name="orth">    0.41    0.42</time>
   <time name="total">   18.34   18.89</time>
   <energy>
    <i name="e_fr_energy">   -638.50750492 </i>
    <i name="e_wo_entrp">   -638.35142171 </i>
    <i name="e_0_energy">   -638.42946332 </i>
   </energy>
  </scstep>
  <scstep>
   <time name="diag">    1.53    1.56</time>
   <time name="diis">   15.79   16.28</time>
   <time name="orth">    0.40    0.41</time>
   <time name="total">   17.93   18.46</time>
   <energy>
    <i name="e_fr_energy">   -638.50759176 </i>
    <i name="e_wo_entrp">   -638.35150747 </i>
    <i name="e_0_energy">   -638.42954961 </i>
   </energy>
  </scstep>
  <scstep>
   <time name="diag">    1.51    1.54</time>
   <time name="diis">   15.79   15.99</time>
   <time name="orth">    0.40    0.40</time>
   <time name="total">   17.91   18.14</time>
   <energy>
    <i name="e_fr_energy">   -638.50767299 </i>
    <i name="e_wo_entrp">   -638.35159385 </i>
    <i name="e_0_energy">   -638.42963342 </i>
   </energy>
  </scstep>
  <scstep>
   <time name="diag">    1.53    1.53</time>
   <time name="diis">   15.73   15.76</time>
   <time name="orth">    0.40    0.40</time>
   <time name="total">   17.88   17.91</time>
   <energy>
    <i name="e_fr_energy">   -638.50771344 </i>
    <i name="e_wo_entrp">   -638.35163572 </i>
    <i name="e_0_energy">   -638.42967458 </i>
   </energy>
  </scstep>
  <scstep>
   <time name="diag">    1.54    1.54</time>
   <time name="diis">   15.48   15.49</time>
   <time name="orth">    0.40    0.40</time>
   <time name="total">   17.63   17.64</time>
   <energy>
    <i name="e_fr_energy">   -638.50774731 </i>
    <i name="e_wo_entrp">   -638.35167342 </i>
    <i name="e_0_energy">   -638.42971037 </i>
   </energy>
  </scstep>
  <scstep>
   <time name="diag">    1.55    1.57</time>
   <time name="diis">   15.04   15.05</time>
   <time name="orth">    0.40    0.40</time>
   <time name="total">   17.19   17.24</time>
   <energy>
    <i name="e_fr_energy">   -638.50776566 </i>
    <i name="e_wo_entrp">   -638.35168999 </i>
    <i name="e_0_energy">   -638.42972783 </i>
   </energy>
  </scstep>
  <scstep>
   <time name="diag">    1.54    1.54</time>
   <time name="diis">   14.73   14.74</time>
   <time name="orth">    0.40    0.41</time>
   <time name="total">   16.89   16.91</time>
   <energy>
    <i name="e_fr_energy">   -638.50777973 </i>
    <i name="e_wo_entrp">   -638.35170570 </i>
    <i name="e_0_energy">   -638.42974271 </i>
   </energy>
  </scstep>
  <scstep>
   <time name="diag">    1.59    1.60</time>
   <time name="diis">   13.68   13.70</time>
   <time name="orth">    0.40    0.40</time>
   <time name="total">   15.88   15.91</time>
   <energy>
    <i name="e_fr_energy">   -638.50778865 </i>
    <i name="e_wo_entrp">   -638.35171517 </i>
    <i name="e_0_energy">   -638.42975191 </i>
   </energy>
  </scstep>
  <scstep>
   <time name="diag">    1.53    1.53</time>
   <time name="diis">   12.98   12.99</time>
   <time name="orth">    0.40    0.40</time>
   <time name="total">   14.94   14.96</time>
   <energy>
    <i name="alphaZ">   3872.67676495 </i>
    <i name="ewald"> -40226.97937814 </i>
    <i name="hartreedc">  -8721.94962112 </i>
    <i name="XCdc">   1541.22448246 </i>
    <i name="pawpsdc">  31542.19583412 </i>
    <i name="pawaedc"> -31132.19733307 </i>
    <i name="eentropy">     -0.15607334 </i>
    <i name="bandstr">  -4496.05974769 </i>
    <i name="atom">  46982.73727694 </i>
    <i name="e_fr_energy">   -638.50779488 </i>
    <i name="e_wo_entrp">   -638.35172154 </i>
    <i name="e_0_energy">   -638.42975821 </i>
   </energy>
  </scstep>
  <structure>
   <crystal>
    <varray name="basis" >
     <v>       8.65245674       0.00398267      -0.00086683 </v>
     <v>       0.00965303       8.69061837       0.02140657 </v>
     <v>       0.03017915       0.00618600       8.68230057 </v>
    </varray>
    <i name="volume">    652.86607393 </i>
    <varray name="rec_basis" >
     <v>       0.11557413      -0.00012738      -0.00040164 </v>
     <v>      -0.00005297       0.11506687      -0.00008180 </v>
     <v>       0.00001167      -0.00028371       0.11517701 </v>
    </varray>
   </crystal>
   <varray name="positions" >
    <v>       0.00678717       0.99665953       0.98903377 </v>
    <v>       0.25504630       0.99374165       0.25297138 </v>
    <v>       0.25066892       0.50726421       0.24529854 </v>
    <v>       0.50441896       0.49291940       0.99761933 </v>
    <v>       0.50297629       0.24228342       0.74974015 </v>
    <v>       0.00266548       0.50075338       0.50723983 </v>
    <v>       0.50153281       0.76033982       0.73987495 </v>
    <v>       0.99191265       0.23307244       0.25930712 </v>
    <v>       0.76370834       0.74650388       0.99733712 </v>
    <v>       0.01604238       0.23422963       0.74629614 </v>
    <v>       0.76184557       0.25633236       0.48310609 </v>
    <v>       0.00298523       0.73584359       0.75575237 </v>
    <v>       0.25435519       0.50410556       0.75288970 </v>
    <v>       0.25216881       0.24884153       0.99374829 </v>
    <v>       0.50152436       0.24644020       0.24917359 </v>
    <v>       0.73467544       0.99134312       0.25982992 </v>
    <v>       0.74833118       0.24543016       0.99517178 </v>
    <v>       0.25932461       0.75393279       0.99974841 </v>
    <v>       0.25625072       0.24976564       0.50618129 </v>
    <v>       0.25055683       0.75226376       0.49989360 </v>
    <v>       0.24925564       0.24986019       0.25091461 </v>
    <v>       0.26175817       0.00259025       0.99609485 </v>
    <v>       0.00146356       0.25038790       0.00525244 </v>
    <v>       0.74488767       0.23973934       0.24173164 </v>
    <v>       0.74510489       0.99627221       0.00376144 </v>
    <v>       0.50097141       0.00286094       0.24260339 </v>
    <v>       0.99900449       0.48817817       0.25097624 </v>
    <v>       0.50405899       0.75482651       0.99602662 </v>
    <v>       0.98597502       0.98776836       0.74242176 </v>
    <v>       0.75853913       0.22824583       0.74516861 </v>
    <v>       0.74281655       0.00839869       0.49260371 </v>
    <v>       0.50533685       0.24487547       0.49373186 </v>
    <v>       0.49412983       0.00067332       0.74824868 </v>
    <v>       0.99263973       0.99995161       0.24666518 </v>
    <v>       0.50213337       0.24924192       0.00186573 </v>
    <v>       0.25975378       0.75175481       0.25021408 </v>
    <v>       0.24381358       0.50188836       0.99684119 </v>
    <v>       0.01067822       0.74473211       0.00507151 </v>
    <v>       0.74086675       0.74670813       0.24569475 </v>
    <v>       0.76360108       0.49485669       0.00966267 </v>
    <v>       0.49493981       0.50160765       0.24695084 </v>
    <v>       0.25677422       0.24730764       0.74969372 </v>
    <v>       0.25554273       0.00103698       0.51548836 </v>
    <v>       0.00803658       0.25033006       0.50357503 </v>
    <v>       0.24917013       0.76020977       0.75108100 </v>
    <v>       0.25124548       0.50118606       0.50113602 </v>
    <v>       0.00187534       0.75316775       0.50321988 </v>
    <v>       0.99949088       0.48567118       0.75751500 </v>
    <v>       0.75560520       0.77041113       0.74540291 </v>
    <v>       0.74838709       0.49283921       0.50983167 </v>
    <v>       0.49885040       0.76493899       0.49109785 </v>
    <v>       0.50178901       0.50167575       0.74556516 </v>
    <v>       0.50984549       0.02433527       0.98556235 </v>
    <v>       0.99051174       0.52327424       0.97584132 </v>
    <v>       0.50422789       0.73217024       0.27577188 </v>
    <v>       0.21628358       0.01295852       0.76312603 </v>
    <v>       0.47393480       0.00043704       0.49243276 </v>
    <v>       0.71726069       0.99566884       0.78390908 </v>
    <v>       0.99875434       0.76777547       0.25166044 </v>
    <v>       0.73124792       0.50472187       0.25521744 </v>
    <v>       0.01636166       0.00288012       0.49665882 </v>
    <v>       0.49650063       0.51315108       0.49268956 </v>
    <v>       0.74895897       0.52127281       0.76390398 </v>
    <v>       0.74983984       0.73509522       0.49690470 </v>
   </varray>
  </structure>
  <varray name="forces" >
   <v>      -0.00171798      -0.00195157      -0.00063330 </v>
   <v>      -0.00851578      -0.00835620       0.00486518 </v>
   <v>       0.01221367       0.00604530      -0.00150523 </v>
   <v>      -0.00657396      -0.00612190       0.00039822 </v>
   <v>      -0.00373266       0.00428766       0.00921257 </v>
   <v>       0.00399250      -0.00188252       0.00626099 </v>
   <v>      -0.00187807      -0.00582980      -0.01124515 </v>
   <v>       0.00431817      -0.00645976       0.00403766 </v>
   <v>      -0.00318569       0.00174499      -0.00243370 </v>
   <v>       0.00369906       0.00048964      -0.00263558 </v>
   <v>      -0.00448527       0.01320956      -0.00134878 </v>
   <v>      -0.00350000       0.00143579       0.00149519 </v>
   <v>      -0.00048635      -0.00367755       0.00079087 </v>
   <v>       0.00988233       0.00184095      -0.01030010 </v>
   <v>      -0.00288539       0.00859981      -0.00231820 </v>
   <v>      -0.00604528       0.00237189       0.01450652 </v>
   <v>      -0.00594624       0.01120276       0.00241991 </v>
   <v>      -0.00687647      -0.00357410       0.00004008 </v>
   <v>      -0.00434365      -0.00319612       0.00699624 </v>
   <v>       0.00208042      -0.00368431      -0.00344397 </v>
   <v>      -0.00065920       0.00149874       0.00316858 </v>
   <v>       0.02064475       0.00106735      -0.01434606 </v>
   <v>       0.00490322       0.01371337       0.01408040 </v>
   <v>       0.00519206       0.00441912       0.00458145 </v>
   <v>      -0.01344921       0.00112211       0.00207664 </v>
   <v>       0.01219461      -0.00100049      -0.00186850 </v>
   <v>      -0.00274175      -0.01023401      -0.01607282 </v>
   <v>       0.00286915       0.01330981       0.00425413 </v>
   <v>      -0.01205479       0.00062480      -0.00600485 </v>
   <v>       0.00833893      -0.00220003       0.00210898 </v>
   <v>       0.00020476       0.00849367      -0.01533162 </v>
   <v>       0.01018837      -0.00539980      -0.01089525 </v>
   <v>       0.00613718      -0.00529921       0.01208576 </v>
   <v>      -0.01399308       0.00917961       0.00618065 </v>
   <v>       0.00349331      -0.00581315       0.00663149 </v>
   <v>       0.00308049       0.00018520      -0.00022121 </v>
   <v>      -0.01001532       0.00030755      -0.00425953 </v>
   <v>       0.00345372      -0.01103310       0.00592899 </v>
   <v>      -0.00867673      -0.00123814      -0.00424475 </v>
   <v>       0.01067279       0.00946900      -0.00289835 </v>
   <v>      -0.01976008       0.00882040       0.00243837 </v>
   <v>      -0.00029251      -0.00624290      -0.00100494 </v>
   <v>       0.01020400      -0.00325501       0.00910844 </v>
   <v>       0.00101614      -0.00755926       0.00491583 </v>
   <v>      -0.00799163      -0.00111219       0.00302736 </v>
   <v>       0.00595159      -0.00250870       0.00244307 </v>
   <v>      -0.00051507       0.00454187       0.00195497 </v>
   <v>      -0.00052975      -0.00759177       0.01165394 </v>
   <v>       0.00403108       0.00507354      -0.00137894 </v>
   <v>      -0.00326920      -0.00102869      -0.00664566 </v>
   <v>       0.00045757       0.00623397      -0.02033248 </v>
   <v>       0.00314554      -0.00121765      -0.00436813 </v>
   <v>       0.00883532       0.01055494      -0.01265395 </v>
   <v>       0.00021787       0.00586976      -0.00466463 </v>
   <v>       0.00118341      -0.00460318       0.00532038 </v>
   <v>      -0.00215611       0.00124887       0.00943509 </v>
   <v>      -0.01120317      -0.01302229       0.01584794 </v>
   <v>      -0.00036397      -0.00404691       0.00012416 </v>
   <v>      -0.00314002      -0.00143021      -0.00035985 </v>
   <v>       0.00929269       0.00100838      -0.00581952 </v>
   <v>       0.00087150      -0.00442489      -0.00365479 </v>
   <v>      -0.00409733      -0.00637953       0.00218523 </v>
   <v>       0.00006120      -0.00330316      -0.00164464 </v>
   <v>       0.00225429      -0.00329232      -0.00604080 </v>
  </varray>
  <varray name="stress" >
   <v>     -12.22369229       0.08127587       0.00057796 </v>
   <v>       0.08127549     -13.91117755       0.34816139 </v>
   <v>       0.00057609       0.34816153     -12.34841592 </v>
  </varray>
  <energy>
   <i name="e_fr_energy">   -638.50779488 </i>
   <i name="e_wo_entrp">   -638.42975821 </i>
   <i name="e_0_energy">     -0.15607334 </i>
  </energy>
  <time name="totalsc">  811.20  816.92</time>
 </calculation>
 <calculation>
  <scstep>
   <time name="dav">   25.71   26.29</time>
   <time name="total">   25.92   26.50</time>
   <energy>
    <i name="alphaZ">   3918.81734964 </i>
    <i name="ewald"> -40385.93380725 </i>
    <i name="hartreedc">  -8756.60648722 </i>
    <i name="XCdc">   1548.88680172 </i>
    <i name="pawpsdc">  31542.21281653 </i>
    <i name="pawaedc"> -31132.20317377 </i>
    <i name="eentropy">     -0.15016257 </i>
    <i name="bandstr">  -4356.82185321 </i>
    <i name="atom">  46982.73727694 </i>
    <i name="e_fr_energy">   -639.06123919 </i>
    <i name="e_wo_entrp">   -638.91107662 </i>
    <i name="e_0_energy">   -638.98615791 </i>
   </energy>
  </scstep>
  <scstep>
   <time name="diag">    1.54    1.54</time>
   <time name="diis">   14.52   14.53</time>
   <time name="orth">    0.40    0.40</time>
   <time name="total">   16.68   16.69</time>
   <energy>
    <i name="e_fr_energy">   -645.19440997 </i>
    <i name="e_wo_entrp">   -645.06433669 </i>
    <i name="e_0_energy">   -645.12937333 </i>
   </energy>
  </scstep>
  <scstep>
   <time name="diag">    1.53    1.53</time>
   <time name="diis">   15.07   15.16</time>
   <time name="orth">    0.41    0.41</time>
   <time name="total">   17.21   17.30</time>
   <energy>
    <i name="e_fr_energy">   -638.78613905 </i>
    <i name="e_wo_entrp">   -638.63393524 </i>
    <i name="e_0_energy">   -638.71003714 </i>
   </energy>
  </scstep>
  <scstep>
   <time name="diag">    1.52    1.56</time>
   <time name="diis">   16.20   16.71</time>
   <time name="orth">    0.40    0.41</time>
   <time name="total">   18.33   18.89</time>
   <energy>
    <i name="e_fr_energy">   -638.68282754 </i>
    <i name="e_wo_entrp">   -638.52865832 </i>
    <i name="e_0_energy">   -638.60574293 </i>
   </energy>
  </scstep>
  <scstep>
   <time name="diag">    1.53    1.53</time>
   <time name="diis">   17.57   17.60</time>
   <time name="orth">    0.40    0.40</time>
   <time name="total">   19.72   19.75</time>
   <energy>
    <i name="e_fr_energy">   -638.55651872 </i>
    <i name="e_wo_entrp">   -638.40609128 </i>
    <i name="e_0_energy">   -638.48130500 </i>
   </energy>
  </scstep>
  <scstep>
   <time name="diag">    1.53    1.54</time>
   <time name="diis">   16.30   16.35</time>
   <time name="orth">    0.41    0.41</time>
   <time name="total">   18.45   18.50</time>
   <energy>
    <i name="e_fr_energy">   -638.53907031 </i>
    <i name="e_wo_entrp">   -638.38617702 </i>
    <i name="e_0_energy">   -638.46262367 </i>
   </energy>
  </scstep>
  <scstep>
   <time name="diag">    1.54    1.54</time>
   <time name="diis">   17.17   17.19</time>
   <time name="orth">    0.41    0.41</time>
   <time name="total">   19.33   19.36</time>
   <energy>
    <i name="e_fr_energy">   -638.48169699 </i>
    <i name="e_wo_entrp">   -638.32856882 </i>
    <i name="e_0_energy">   -638.40513290 </i>
   </energy>
  </scstep>
  <scstep>
   <time name="diag">    1.53    1.55</time>
   <time name="diis">   16.14   16.17</time>
   <time name="orth">    0.40    0.40</time>
   <time name="total">   18.28   18.33</time>
   <energy>
    <i name="e_fr_energy">   -638.48704597 </i>
    <i name="e_wo_entrp">   -638.33322628 </i>
    <i name="e_0_energy">   -638.41013613 </i>
   </energy>
  </scstep>
  <scstep>
   <time name="diag">    1.53    1.54</time>
   <time name="diis">   16.48   16.51</time>
   <time name="orth">    0.41    0.41</time>
   <time name="total">   18.62   18.66</time>
   <energy>
    <i name="e_fr_energy">   -638.47298967 </i>
    <i name="e_wo_entrp">   -638.31941415 </i>
    <i name="e_0_energy">   -638.39620191 </i>
   </energy>
  </scstep>
  <scstep>
   <time name="diag">    1.52    1.55</time>
   <time name="diis">   17.24   17.79</time>
   <time name="orth">    0.40    0.40</time>
   <time name="total">   19.36   19.96</time>
   <energy>
    <i name="e_fr_energy">   -638.47435201 </i>
    <i name="e_wo_entrp">   -638.32113507 </i>
    <i name="e_0_energy">   -638.39774354 </i>
   </energy>
  </scstep>
  <scstep>
   <time name="diag">    1.54    1.56</time>
   <time name="diis">   17.43   17.48</time>
   <time name="orth">    0.40    0.40</time>
   <time name="total">   19.58   19.66</time>
   <energy>
    <i name="e_fr_energy">   -638.47286935 </i>
    <i name="e_wo_entrp">   -638.31943214 </i>
    <i name="e_0_energy">   -638.39615074 </i>
   </energy>
  </scstep>
  <scstep>
   <time name="diag">    1.54    1.54</time>
   <time name="diis">   19.12   19.20</time>
   <time name="orth">    0.40    0.40</time>
   <time name="total">   21.26   21.34</time>
   <energy>
    <i name="e_fr_energy">   -638.47325202 </i>
    <i name="e_wo_entrp">   -638.31980865 </i>
    <i name="e_0_energy">   -638.39653034 </i>
   </energy>
  </scstep>
  <scstep>
   <time name="diag">    1.53    1.54</time>
   <time name="diis">   17.64   17.65</time>
   <time name="orth">    0.40    0.40</time>
   <time name="total">   19.78   19.80</time>
   <energy>
    <i name="e_fr_energy">   -638.47331815 </i>
    <i name="e_wo_entrp">   -638.31997534 </i>
    <i name="e_0_energy">   -638.39664674 </i>
   </energy>
  </scstep>
  <scstep>
   <time name="diag">    1.57    1.57</time>
   <time name="diis">   18.20   18.23</time>
   <time name="orth">    0.40    0.40</time>
   <time name="total">   20.38   20.41</time>
   <energy>
    <i name="e_fr_energy">   -638.47352339 </i>
    <i name="e_wo_entrp">   -638.32014477 </i>
    <i name="e_0_energy">   -638.39683408 </i>
   </energy>
  </scstep>
  <scstep>
   <time name="diag">    1.52    1.54</time>
   <time name="diis">   17.56   18.10</time>
   <time name="orth">    0.40    0.40</time>
   <time name="total">   19.69   20.25</time>
   <energy>
    <i name="e_fr_energy">   -638.47371154 </i>
    <i name="e_wo_entrp">   -638.32036279 </i>
    <i name="e_0_energy">   -638.39703716 </i>
   </energy>
  </scstep>
  <scstep>
   <time name="diag">    1.55    1.55</time>
   <time name="diis">   17.16   17.19</time>
   <time name="orth">    0.40    0.40</time>
   <time name="total">   19.32   19.35</time>
   <energy>
    <i name="e_fr_energy">   -638.47378000 </i>
    <i name="e_wo_entrp">   -638.32042125 </i>
    <i name="e_0_energy">   -638.39710062 </i>
   </energy>
  </scstep>
  <scstep>
   <time name="diag">    1.57    1.57</time>
   <time name="diis">   16.31   16.32</time>
   <time name="orth">    0.40    0.41</time>
   <time name="total">   18.50   18.51</time>
   <energy>
    <i name="e_fr_energy">   -638.47381774 </i>
    <i name="e_wo_entrp">   -638.32048108 </i>
    <i name="e_0_energy">   -638.39714941 </i>
   </energy>
  </scstep>
  <scstep>
   <time name="diag">    1.53    1.53</time>
   <time name="diis">   15.64   15.66</time>
   <time name="orth">    0.43    0.44</time>
   <time name="total">   17.81   17.84</time>
   <energy>
    <i name="e_fr_energy">   -638.47383026 </i>
    <i name="e_wo_entrp">   -638.32048385 </i>
    <i name="e_0_energy">   -638.39715705 </i>
   </energy>
  </scstep>
  <scstep>
   <time name="diag">    1.51    1.53</time>
   <time name="diis">   14.18   14.62</time>
   <time name="orth">    0.40    0.41</time>
   <time name="total">   16.30   16.77</time>
   <energy>
    <i name="e_fr_energy">   -638.47383944 </i>
    <i name="e_wo_entrp">   -638.32050496 </i>
    <i name="e_0_energy">   -638.39717220 </i>
   </energy>
  </scstep>
  <scstep>
   <time name="diag">    1.51    1.54</time>
   <time name="diis">   13.01   13.40</time>
   <time name="orth">    0.40    0.40</time>
   <time name="total">   14.95   15.37</time>
   <energy>
    <i name="alphaZ">   3918.81734964 </i>
    <i name="ewald"> -40385.93380725 </i>
    <i name="hartreedc">  -8673.77634190 </i>
    <i name="XCdc">   1544.42914113 </i>
    <i name="pawpsdc">  31673.57724397 </i>
    <i name="pawaedc"> -31262.92633956 </i>
    <i name="eentropy">     -0.15333768 </i>
    <i name="bandstr">  -4435.24503103 </i>
    <i name="atom">  46982.73727694 </i>
    <i name="e_fr_energy">   -638.47384573 </i>
    <i name="e_wo_entrp">   -638.32050805 </i>
    <i name="e_0_energy">   -638.39717689 </i>
   </energy>
  </scstep>
  <structure>
   <crystal>
    <varray name="basis" >
     <v>       8.61997007       0.00418156      -0.00086158 </v>
     <v>       0.00983375       8.65348626       0.02225477 </v>
     <v>       0.03006753       0.00708881       8.64936979 </v>
    </varray>
    <i name="volume">    645.17915727 </i>
    <varray name="rec_basis" >
     <v>       0.11600971      -0.00013080      -0.00040317 </v>
     <v>      -0.00005607       0.11556067      -0.00009452 </v>
     <v>       0.00001170      -0.00029735       0.11561556 </v>
    </varray>
   </crystal>
   <varray name="positions" >
    <v>       0.00677762       0.99664870       0.98903028 </v>
    <v>       0.25499878       0.99369527       0.25299852 </v>
    <v>       0.25073702       0.50729775       0.24529010 </v>
    <v>       0.50438234       0.49288543       0.99762162 </v>
    <v>       0.50295527       0.24230720       0.74979128 </v>
    <v>       0.00268763       0.50074289       0.50727465 </v>
    <v>       0.50152259       0.76030751       0.73981255 </v>
    <v>       0.99193669       0.23303656       0.25932964 </v>
    <v>       0.76369061       0.74651359       0.99732357 </v>
    <v>       0.01606305       0.23423235       0.74628149 </v>
    <v>       0.76182051       0.25640571       0.48309842 </v>
    <v>       0.00296568       0.73585157       0.75576065 </v>
    <v>       0.25435249       0.50408514       0.75289415 </v>
    <v>       0.25222410       0.24885176       0.99369104 </v>
    <v>       0.50150827       0.24648796       0.24916059 </v>
    <v>       0.73464144       0.99135624       0.25991049 </v>
    <v>       0.74829791       0.24549236       0.99518507 </v>
    <v>       0.25928629       0.75391297       0.99974868 </v>
    <v>       0.25622638       0.24974788       0.50622020 </v>
    <v>       0.25056852       0.75224332       0.49987451 </v>
    <v>       0.24925189       0.24986850       0.25093220 </v>
    <v>       0.26187355       0.00259618       0.99601513 </v>
    <v>       0.00149054       0.25046395       0.00533050 </v>
    <v>       0.74491650       0.23976384       0.24175704 </v>
    <v>       0.74502986       0.99627847       0.00377296 </v>
    <v>       0.50103945       0.00285536       0.24259303 </v>
    <v>       0.99898957       0.48812143       0.25088707 </v>
    <v>       0.50407482       0.75490037       0.99605008 </v>
    <v>       0.98590792       0.98777189       0.74238838 </v>
    <v>       0.75858560       0.22823359       0.74518036 </v>
    <v>       0.74281794       0.00844590       0.49251841 </v>
    <v>       0.50539390       0.24484551       0.49367140 </v>
    <v>       0.49416384       0.00064384       0.74831591 </v>
    <v>       0.99256153       0.00000257       0.24669939 </v>
    <v>       0.50215275       0.24920962       0.00190266 </v>
    <v>       0.25977096       0.75175583       0.25021285 </v>
    <v>       0.24375782       0.50189011       0.99681751 </v>
    <v>       0.01069743       0.74467083       0.00510461 </v>
    <v>       0.74081847       0.74670130       0.24567117 </v>
    <v>       0.76366059       0.49490923       0.00964644 </v>
    <v>       0.49482953       0.50165665       0.24696426 </v>
    <v>       0.25677264       0.24727299       0.74968822 </v>
    <v>       0.25559947       0.00101885       0.51553903 </v>
    <v>       0.00804220       0.25028807       0.50360245 </v>
    <v>       0.24912552       0.76020360       0.75109783 </v>
    <v>       0.25127864       0.50117211       0.50114963 </v>
    <v>       0.00187240       0.75319295       0.50323068 </v>
    <v>       0.99948775       0.48562899       0.75757985 </v>
    <v>       0.75562767       0.77043929       0.74539518 </v>
    <v>       0.74836900       0.49283353       0.50979476 </v>
    <v>       0.49885331       0.76497367       0.49098479 </v>
    <v>       0.50180665       0.50166900       0.74554090 </v>
    <v>       0.50989493       0.02439389       0.98549190 </v>
    <v>       0.99051301       0.52330684       0.97581532 </v>
    <v>       0.50423441       0.73214466       0.27580151 </v>
    <v>       0.21627137       0.01296542       0.76317844 </v>
    <v>       0.47387210       0.00036471       0.49252099 </v>
    <v>       0.71725869       0.99564637       0.78390983 </v>
    <v>       0.99873685       0.76776754       0.25165846 </v>
    <v>       0.73129984       0.50472746       0.25518510 </v>
    <v>       0.01636661       0.00285557       0.49663857 </v>
    <v>       0.49647778       0.51311567       0.49270179 </v>
    <v>       0.74895936       0.52125448       0.76389489 </v>
    <v>       0.74985255       0.73507696       0.49687118 </v>
   </varray>
  </structure>
  <varray name="forces" >
   <v>      -0.02111838       0.01641981       0.03008971 </v>
   <v>      -0.01017055       0.04949697      -0.01291633 </v>
   <v>      -0.04323585      -0.04593044       0.00996729 </v>
   <v>      -0.01336143       0.04372866       0.00484031 </v>
   <v>       0.03429989       0.04453436      -0.02726116 </v>
   <v>      -0.00169451      -0.00005682      -0.02106453 </v>
   <v>      -0.00867114      -0.02225797       0.01110699 </v>
   <v>       0.04305970       0.10122998      -0.06346653 </v>
   <v>      -0.05498962       0.04141563       0.01287228 </v>
   <v>      -0.07744657       0.03338454       0.05102573 </v>
   <v>      -0.05482747      -0.03616146       0.07212795 </v>
   <v>       0.00654478       0.04727744      -0.02338630 </v>
   <v>      -0.01368572      -0.01429250      -0.02222220 </v>
   <v>      -0.00063625       0.00429112       0.03129096 </v>
   <v>      -0.02150057       0.01747549       0.00137971 </v>
   <v>       0.02169408       0.00864199      -0.04273742 </v>
   <v>       0.02073352       0.00545532       0.00445553 </v>
   <v>       0.00155468       0.00946328       0.00666733 </v>
   <v>       0.01464460       0.00384148      -0.02704283 </v>
   <v>       0.00013503      -0.00423649      -0.00127973 </v>
   <v>       0.01370798       0.00773284      -0.00163028 </v>
   <v>       0.05261292      -0.00789036      -0.00869099 </v>
   <v>       0.00112692       0.07570449       0.00616643 </v>
   <v>      -0.02621394       0.00218747      -0.05636003 </v>
   <v>       0.00571077       0.02781245       0.06563974 </v>
   <v>       0.00649526      -0.04432687      -0.02062263 </v>
   <v>      -0.03525240       0.03428552      -0.06282943 </v>
   <v>       0.00106193       0.04795052       0.05230416 </v>
   <v>      -0.08374002      -0.02435696      -0.01660094 </v>
   <v>       0.01711276       0.03289141      -0.00779818 </v>
   <v>      -0.01403793      -0.04859721       0.08258009 </v>
   <v>      -0.00503001      -0.00283438      -0.00736620 </v>
   <v>      -0.08173402      -0.00365836      -0.03117323 </v>
   <v>      -0.03386358      -0.01918147      -0.02766454 </v>
   <v>      -0.00880296      -0.00150139       0.03031998 </v>
   <v>       0.01858049      -0.00830848      -0.00549871 </v>
   <v>      -0.03389256      -0.00372773       0.02036239 </v>
   <v>       0.05196337       0.00849304       0.02453648 </v>
   <v>      -0.00925693       0.04556147      -0.00477956 </v>
   <v>       0.00152546      -0.04453218       0.01843437 </v>
   <v>      -0.01973111      -0.02522766      -0.02160304 </v>
   <v>       0.03576839      -0.00738512      -0.00112264 </v>
   <v>       0.00325443      -0.00820196       0.04746975 </v>
   <v>       0.04301853       0.01422021       0.00555020 </v>
   <v>       0.01680538       0.04738573      -0.00209749 </v>
   <v>      -0.00872121      -0.00872283      -0.01392584 </v>
   <v>       0.01763785      -0.00011887       0.00265409 </v>
   <v>      -0.00069591      -0.03911258      -0.01712851 </v>
   <v>      -0.00794536       0.03755279      -0.02450033 </v>
   <v>       0.00419073       0.01849259       0.02054706 </v>
   <v>      -0.01787189       0.04059847       0.01434649 </v>
   <v>       0.00689804      -0.00881166      -0.01010431 </v>
   <v>      -0.03176813      -0.08021984       0.03832299 </v>
   <v>       0.05522644      -0.10636674       0.10123828 </v>
   <v>      -0.02115122       0.07017251      -0.11750249 </v>
   <v>       0.08021932      -0.04889518      -0.01200926 </v>
   <v>       0.08472166       0.01477945       0.02430861 </v>
   <v>       0.07211154       0.02299677      -0.08225624 </v>
   <v>       0.00763449      -0.12111326       0.00683565 </v>
   <v>       0.07761258      -0.07358906      -0.00862517 </v>
   <v>      -0.06742287      -0.02458429       0.00564870 </v>
   <v>       0.00432058      -0.07224699       0.03278968 </v>
   <v>      -0.00215232      -0.11158821      -0.03649641 </v>
   <v>       0.00863832       0.09256152       0.00388455 </v>
  </varray>
  <varray name="stress" >
   <v>      26.99882922       0.03199641      -0.00720922 </v>
   <v>       0.03199756      27.68061339       0.26539316 </v>
   <v>      -0.00720752       0.26539511      26.92529132 </v>
  </varray>
  <energy>
   <i name="e_fr_energy">   -638.47384573 </i>
   <i name="e_wo_entrp">   -638.39717689 </i>
   <i name="e_0_energy">     -0.15333768 </i>
  </energy>
  <time name="totalsc">  419.98  423.88</time>
 </calculation>
 <calculation>
  <scstep>
   <time name="dav">   24.99   25.56</time>
   <time name="total">   25.21   25.78</time>
   <energy>
    <i name="alphaZ">   3887.49506881 </i>
    <i name="ewald"> -40278.16754226 </i>
    <i name="hartreedc">  -8650.56437744 </i>
    <i name="XCdc">   1539.25159171 </i>
    <i name="pawpsdc">  31673.75583352 </i>
    <i name="pawaedc"> -31263.07456640 </i>
    <i name="eentropy">     -0.15668505 </i>
    <i name="bandstr">  -4530.07061757 </i>
    <i name="atom">  46982.73727694 </i>
    <i name="e_fr_energy">   -638.79401775 </i>
    <i name="e_wo_entrp">   -638.63733269 </i>
    <i name="e_0_energy">   -638.71567522 </i>
   </energy>
  </scstep>
  <scstep>
   <time name="diag">    1.54    1.54</time>
   <time name="diis">   15.75   15.76</time>
   <time name="orth">    0.40    0.40</time>
   <time name="total">   17.90   17.92</time>
   <energy>
    <i name="e_fr_energy">   -642.03245128 </i>
    <i name="e_wo_entrp">   -641.88145503 </i>
    <i name="e_0_energy">   -641.95695315 </i>
   </energy>
  </scstep>
  <scstep>
   <time name="diag">    1.51    1.54</time>
   <time name="diis">   15.20   15.68</time>
   <time name="orth">    0.40    0.40</time>
   <time name="total">   17.32   17.83</time>
   <energy>
    <i name="e_fr_energy">   -638.65898261 </i>
    <i name="e_wo_entrp">   -638.50700769 </i>
    <i name="e_0_energy">   -638.58299515 </i>
   </energy>
  </scstep>
  <scstep>
   <time name="diag">    1.52    1.54</time>
   <time name="diis">   16.51   16.55</time>
   <time name="orth">    0.40    0.40</time>
   <time name="total">   18.63   18.70</time>
   <energy>
    <i name="e_fr_energy">   -638.64569665 </i>
    <i name="e_wo_entrp">   -638.49650169 </i>
    <i name="e_0_energy">   -638.57109917 </i>
   </energy>
  </scstep>
  <scstep>
   <time name="diag">    1.52    1.54</time>
   <time name="diis">   17.72   18.24</time>
   <time name="orth">    0.40    0.41</time>
   <time name="total">   19.84   20.40</time>
   <energy>
    <i name="e_fr_energy">   -638.54594680 </i>
    <i name="e_wo_entrp">   -638.38980810 </i>
    <i name="e_0_energy">   -638.46787745 </i>
   </energy>
  </scstep>
  <scstep>
   <time name="diag">    1.53    1.56</time>
   <time name="diis">   16.31   16.85</time>
   <time name="orth">    0.40    0.40</time>
   <time name="total">   18.45   19.02</time>
   <energy>
    <i name="e_fr_energy">   -638.55207338 </i>
    <i name="e_wo_entrp">   -638.39546312 </i>
    <i name="e_0_energy">   -638.47376825 </i>
   </energy>
  </scstep>
  <scstep>
   <time name="diag">    1.51    1.54</time>
   <time name="diis">   16.49   16.70</time>
   <time name="orth">    0.40    0.40</time>
   <time name="total">   18.61   18.84</time>
   <energy>
    <i name="e_fr_energy">   -638.52013420 </i>
    <i name="e_wo_entrp">   -638.36554236 </i>
    <i name="e_0_energy">   -638.44283828 </i>
   </energy>
  </scstep>
  <scstep>
   <time name="diag">    1.54    1.54</time>
   <time name="diis">   16.95   16.99</time>
   <time name="orth">    0.40    0.40</time>
   <time name="total">   19.10   19.13</time>
   <energy>
    <i name="e_fr_energy">   -638.52404806 </i>
    <i name="e_wo_entrp">   -638.36884393 </i>
    <i name="e_0_energy">   -638.44644599 </i>
   </energy>
  </scstep>
  <scstep>
   <time name="diag">    1.54    1.54</time>
   <time name="diis">   16.00   16.03</time>
   <time name="orth">    0.40    0.40</time>
   <time name="total">   18.15   18.17</time>
   <energy>
    <i name="e_fr_energy">   -638.51776765 </i>
    <i name="e_wo_entrp">   -638.36285657 </i>
    <i name="e_0_energy">   -638.44031211 </i>
   </energy>
  </scstep>
  <scstep>
   <time name="diag">    1.53    1.53</time>
   <time name="diis">   19.60   19.62</time>
   <time name="orth">    0.40    0.40</time>
   <time name="total">   21.74   21.77</time>
   <energy>
    <i name="e_fr_energy">   -638.51778411 </i>
    <i name="e_wo_entrp">   -638.36266879 </i>
    <i name="e_0_energy">   -638.44022645 </i>
   </energy>
  </scstep>
  <scstep>
   <time name="diag">    1.53    1.53</time>
   <time name="diis">   15.93   15.95</time>
   <time name="orth">    0.40    0.40</time>
   <time name="total">   18.08   18.10</time>
   <energy>
    <i name="e_fr_energy">   -638.51790102 </i>
    <i name="e_wo_entrp">   -638.36281070 </i>
    <i name="e_0_energy">   -638.44035586 </i>
   </energy>
  </scstep>
  <scstep>
   <time name="diag">    1.53    1.53</time>
   <time name="diis">   17.23   17.26</time>
   <time name="orth">    0.42    0.42</time>
   <time name="total">   19.38   19.42</time>
   <energy>
    <i name="e_fr_energy">   -638.51773835 </i>
    <i name="e_wo_entrp">   -638.36262816 </i>
    <i name="e_0_energy">   -638.44018326 </i>
   </energy>
  </scstep>
  <scstep>
   <time name="diag">    1.51    1.54</time>
   <time name="diis">   17.29   17.75</time>
   <time name="orth">    0.40    0.40</time>
   <time name="total">   19.41   19.90</time>
   <energy>
    <i name="e_fr_energy">   -638.51782526 </i>
    <i name="e_wo_entrp">   -638.36269666 </i>
    <i name="e_0_energy">   -638.44026096 </i>
   </energy>
  </scstep>
  <scstep>
   <time name="diag">    1.51    1.54</time>
   <time name="diis">   15.99   16.51</time>
   <time name="orth">    0.40    0.40</time>
   <time name="total">   18.11   18.66</time>
   <energy>
    <i name="e_fr_energy">   -638.51784937 </i>
    <i name="e_wo_entrp">   -638.36268789 </i>
    <i name="e_0_energy">   -638.44026863 </i>
   </energy>
  </scstep>
  <scstep>
   <time name="diag">    1.53    1.53</time>
   <time name="diis">   16.76   16.82</time>
   <time name="orth">    0.40    0.40</time>
   <time name="total">   18.90   18.97</time>
   <energy>
    <i name="e_fr_energy">   -638.51787842 </i>
    <i name="e_wo_entrp">   -638.36272704 </i>
    <i name="e_0_energy">   -638.44030273 </i>
   </energy>
  </scstep>
  <scstep>
   <time name="diag">    1.54    1.54</time>
   <time name="diis">   16.09   16.14</time>
   <time name="orth">    0.40    0.40</time>
   <time name="total">   18.23   18.29</time>
   <energy>
    <i name="e_fr_energy">   -638.51789671 </i>
    <i name="e_wo_entrp">   -638.36272142 </i>
    <i name="e_0_energy">   -638.44030906 </i>
   </energy>
  </scstep>
  <scstep>
   <time name="diag">    1.55    1.57</time>
   <time name="diis">   14.73   15.18</time>
   <time name="orth">    0.42    0.42</time>
   <time name="total">   16.90   17.40</time>
   <energy>
    <i name="e_fr_energy">   -638.51790184 </i>
    <i name="e_wo_entrp">   -638.36273443 </i>
    <i name="e_0_energy">   -638.44031813 </i>
   </energy>
  </scstep>
  <scstep>
   <time name="diag">    1.51    1.54</time>
   <time name="diis">   13.76   14.20</time>
   <time name="orth">    0.46    0.49</time>
   <time name="total">   15.77   16.25</time>
   <energy>
    <i name="alphaZ">   3887.49506881 </i>
    <i name="ewald"> -40278.16754226 </i>
    <i name="hartreedc">  -8706.68364194 </i>
    <i name="XCdc">   1542.26735500 </i>
    <i name="pawpsdc">  31584.76389188 </i>
    <i name="pawaedc"> -31174.22032250 </i>
    <i name="eentropy">     -0.15517834 </i>
[...]
      </set>
     </set>
    </set>
   </array>
  </eigenvalues>
  <separator name="orbital magnetization" >
   <v name="MAGDIPOLOUT">      0.00000000      0.00000000      0.00000000</v>
  </separator>
  <dos>
   <i name="efermi">      9.64593782 </i>
   <total>
    <array>
     <dimension dim="1">gridpoints</dimension>
     <dimension dim="2">spin</dimension>
     <field>energy</field>
     <field>total</field>
     <field>integrated</field>
     <set>
      <set comment="spin 1">
       <r>   -51.1685     0.0000     0.0000 </r>
       <r>   -50.9472     0.0000     0.0000 </r>
       <r>   -50.7259     0.0000     0.0000 </r>
       <r>   -50.5046     0.0000     0.0000 </r>
       <r>   -50.2833     0.0000     0.0000 </r>
       <r>   -50.0620     0.0000     0.0000 </r>
       <r>   -49.8407     0.0000     0.0000 </r>
       <r>   -49.6195     0.0000     0.0000 </r>
       <r>   -49.3982     0.0000     0.0000 </r>
       <r>   -49.1769     0.0000     0.0000 </r>
       <r>   -48.9556     0.0000     0.0000 </r>
       <r>   -48.7343     0.0000     0.0000 </r>
       <r>   -48.5130     0.0000     0.0000 </r>
       <r>   -48.2917     0.2569     0.0569 </r>
       <r>   -48.0705    18.4785     4.1459 </r>
       <r>   -47.8492    15.0705     7.4808 </r>
       <r>   -47.6279    20.2651    11.9652 </r>
       <r>   -47.4066     6.5254    13.4091 </r>
       <r>   -47.1853     2.6690    13.9998 </r>
       <r>   -46.9640     0.0011    14.0000 </r>
       <r>   -46.7427     0.0000    14.0000 </r>
       <r>   -46.5215     0.4194    14.0928 </r>
       <r>   -46.3002    10.4274    16.4003 </r>
       <r>   -46.0789    38.6871    24.9611 </r>
       <r>   -45.8576    13.7072    27.9944 </r>
       <r>   -45.6363     0.0255    28.0000 </r>
       <r>   -45.4150     0.0000    28.0000 </r>
       <r>   -45.1937     0.0000    28.0000 </r>
       <r>   -44.9725     0.0000    28.0000 </r>
       <r>   -44.7512     0.0000    28.0000 </r>
       <r>   -44.5299     0.0000    28.0000 </r>
       <r>   -44.3086     0.0000    28.0000 </r>
       <r>   -44.0873     0.0000    28.0000 </r>
       <r>   -43.8660     0.0000    28.0000 </r>
       <r>   -43.6447     0.0000    28.0000 </r>
       <r>   -43.4235     0.0000    28.0000 </r>
       <r>   -43.2022     0.0000    28.0000 </r>
       <r>   -42.9809     0.0000    28.0000 </r>
       <r>   -42.7596     0.0000    28.0000 </r>
       <r>   -42.5383     0.0000    28.0000 </r>
       <r>   -42.3170     0.0000    28.0000 </r>
       <r>   -42.0957     0.0000    28.0000 </r>
       <r>   -41.8745     0.0000    28.0000 </r>
       <r>   -41.6532     0.0000    28.0000 </r>
       <r>   -41.4319     0.0000    28.0000 </r>
       <r>   -41.2106     0.0000    28.0000 </r>
       <r>   -40.9893     0.0000    28.0000 </r>
       <r>   -40.7680     0.0000    28.0000 </r>
       <r>   -40.5467     0.0000    28.0000 </r>
       <r>   -40.3255     0.0000    28.0000 </r>
       <r>   -40.1042     0.0000    28.0000 </r>
       <r>   -39.8829     0.0000    28.0000 </r>
       <r>   -39.6616     0.0000    28.0000 </r>
       <r>   -39.4403     0.0000    28.0000 </r>
       <r>   -39.2190     0.0000    28.0000 </r>
       <r>   -38.9977     0.0000    28.0000 </r>
       <r>   -38.7765     0.0000    28.0000 </r>
       <r>   -38.5552     0.0000    28.0000 </r>
       <r>   -38.3339     0.0000    28.0000 </r>
       <r>   -38.1126     0.0000    28.0000 </r>
       <r>   -37.8913     0.0000    28.0000 </r>
       <r>   -37.6700     0.0000    28.0000 </r>
       <r>   -37.4487     0.0000    28.0000 </r>
       <r>   -37.2275     0.0000    28.0000 </r>
       <r>   -37.0062     0.0000    28.0000 </r>
       <r>   -36.7849     0.0000    28.0000 </r>
       <r>   -36.5636     0.0000    28.0000 </r>
       <r>   -36.3423     0.0000    28.0000 </r>
       <r>   -36.1210     0.0000    28.0000 </r>
       <r>   -35.8997     0.0000    28.0000 </r>
       <r>   -35.6785     0.0000    28.0000 </r>
       <r>   -35.4572     0.0000    28.0000 </r>
       <r>   -35.2359     0.0000    28.0000 </r>
       <r>   -35.0146     0.0000    28.0000 </r>
       <r>   -34.7933     0.0000    28.0000 </r>
       <r>   -34.5720     0.0000    28.0000 </r>
       <r>   -34.3507     0.5607    28.1241 </r>
       <r>   -34.1295    15.1232    31.4706 </r>
       <r>   -33.9082    98.1842    53.1974 </r>
       <r>   -33.6869    47.9715    63.8128 </r>
       <r>   -33.4656     0.8461    64.0000 </r>
       <r>   -33.2443     0.0000    64.0000 </r>
       <r>   -33.0230     0.0000    64.0000 </r>
       <r>   -32.8017     0.0000    64.0000 </r>
       <r>   -32.5805     0.0000    64.0000 </r>
       <r>   -32.3592     0.0000    64.0000 </r>
       <r>   -32.1379     0.0000    64.0000 </r>
       <r>   -31.9166     0.0000    64.0000 </r>
       <r>   -31.6953     0.0000    64.0000 </r>
       <r>   -31.4740     0.0000    64.0000 </r>
       <r>   -31.2527     0.0000    64.0000 </r>
       <r>   -31.0315     0.0000    64.0000 </r>
       <r>   -30.8102     0.0000    64.0000 </r>
       <r>   -30.5889     0.0000    64.0000 </r>
       <r>   -30.3676     0.0072    64.0016 </r>
       <r>   -30.1463     4.8888    65.0834 </r>
       <r>   -29.9250    21.8210    69.9121 </r>
       <r>   -29.7037    59.3032    83.0351 </r>
       <r>   -29.4825    64.8418    97.3836 </r>
       <r>   -29.2612    11.7792    99.9902 </r>
       <r>   -29.0399     0.0443   100.0000 </r>
       <r>   -28.8186     0.0000   100.0000 </r>
       <r>   -28.5973     0.0000   100.0000 </r>
       <r>   -28.3760     0.0000   100.0000 </r>
       <r>   -28.1547     0.0000   100.0000 </r>
       <r>   -27.9335     0.0000   100.0000 </r>
       <r>   -27.7122     0.0000   100.0000 </r>
       <r>   -27.4909     0.0000   100.0000 </r>
       <r>   -27.2696     0.0000   100.0000 </r>
       <r>   -27.0483     0.0000   100.0000 </r>
       <r>   -26.8270     0.0000   100.0000 </r>
       <r>   -26.6057     0.0000   100.0000 </r>
       <r>   -26.3845     0.0000   100.0000 </r>
       <r>   -26.1632     0.0000   100.0000 </r>
       <r>   -25.9419     0.0000   100.0000 </r>
       <r>   -25.7206     0.0000   100.0000 </r>
       <r>   -25.4993     0.0000   100.0000 </r>
       <r>   -25.2780     0.0000   100.0000 </r>
       <r>   -25.0567     0.0000   100.0000 </r>
       <r>   -24.8355     0.0485   100.0107 </r>
       <r>   -24.6142    12.5621   102.7905 </r>
       <r>   -24.3929    57.0413   115.4130 </r>
       <r>   -24.1716    62.5207   129.2479 </r>
       <r>   -23.9503    33.8991   136.7493 </r>
       <r>   -23.7290    22.9218   141.8216 </r>
       <r>   -23.5077     0.8063   142.0000 </r>
       <r>   -23.2865     0.0000   142.0000 </r>
       <r>   -23.0652     0.0000   142.0000 </r>
       <r>   -22.8439     0.0189   142.0042 </r>
       <r>   -22.6226    12.4281   144.7544 </r>
       <r>   -22.4013    59.7999   157.9872 </r>
       <r>   -22.1800    93.8367   178.7519 </r>
       <r>   -21.9587    23.0493   183.8524 </r>
       <r>   -21.7375     0.6669   184.0000 </r>
       <r>   -21.5162     0.0000   184.0000 </r>
       <r>   -21.2949     0.0000   184.0000 </r>
       <r>   -21.0736     0.0000   184.0000 </r>
       <r>   -20.8523     0.0000   184.0000 </r>
       <r>   -20.6310     0.0000   184.0000 </r>
       <r>   -20.4097     0.0000   184.0000 </r>
       <r>   -20.1885     0.0000   184.0000 </r>
       <r>   -19.9672     0.0000   184.0000 </r>
       <r>   -19.7459     0.0000   184.0000 </r>
       <r>   -19.5246     0.0000   184.0000 </r>
       <r>   -19.3033     0.0000   184.0000 </r>
       <r>   -19.0820     0.0000   184.0000 </r>
       <r>   -18.8607     0.0000   184.0000 </r>
       <r>   -18.6395     0.0000   184.0000 </r>
       <r>   -18.4182     0.0000   184.0000 </r>
       <r>   -18.1969     0.0000   184.0000 </r>
       <r>   -17.9756     0.0000   184.0000 </r>
       <r>   -17.7543     0.0000   184.0000 </r>
       <r>   -17.5330     0.0000   184.0000 </r>
       <r>   -17.3117     0.0000   184.0000 </r>
       <r>   -17.0905     0.0000   184.0000 </r>
       <r>   -16.8692     0.0000   184.0000 </r>
       <r>   -16.6479     0.0000   184.0000 </r>
       <r>   -16.4266     0.0000   184.0000 </r>
       <r>   -16.2053     0.0000   184.0000 </r>
       <r>   -15.9840     0.0000   184.0000 </r>
       <r>   -15.7627     0.0000   184.0000 </r>
       <r>   -15.5415     0.0000   184.0000 </r>
       <r>   -15.3202     0.0000   184.0000 </r>
       <r>   -15.0989     0.0000   184.0000 </r>
       <r>   -14.8776     0.0000   184.0000 </r>
       <r>   -14.6563     0.0000   184.0000 </r>
       <r>   -14.4350     0.0000   184.0000 </r>
       <r>   -14.2137     0.0000   184.0000 </r>
       <r>   -13.9925     0.0000   184.0000 </r>
       <r>   -13.7712     0.0000   184.0000 </r>
       <r>   -13.5499     0.0000   184.0000 </r>
       <r>   -13.3286     0.0000   184.0000 </r>
       <r>   -13.1073     0.0000   184.0000 </r>
       <r>   -12.8860     0.0000   184.0000 </r>
       <r>   -12.6647     0.0000   184.0000 </r>
       <r>   -12.4435     0.0000   184.0000 </r>
       <r>   -12.2222     0.0000   184.0000 </r>
       <r>   -12.0009     0.0000   184.0000 </r>
       <r>   -11.7796     0.0000   184.0000 </r>
       <r>   -11.5583     0.0000   184.0000 </r>
       <r>   -11.3370     0.0000   184.0000 </r>
       <r>   -11.1157     0.0000   184.0000 </r>
       <r>   -10.8945     0.0000   184.0000 </r>
       <r>   -10.6732     0.0000   184.0000 </r>
       <r>   -10.4519     0.0000   184.0000 </r>
       <r>   -10.2306     0.0000   184.0000 </r>
       <r>   -10.0093     0.0000   184.0000 </r>
       <r>    -9.7880     0.0000   184.0000 </r>
       <r>    -9.5667     0.0000   184.0000 </r>
       <r>    -9.3455     0.0000   184.0000 </r>
       <r>    -9.1242     0.0000   184.0000 </r>
       <r>    -8.9029     0.0000   184.0000 </r>
       <r>    -8.6816     0.0000   184.0000 </r>
       <r>    -8.4603     0.0000   184.0000 </r>
       <r>    -8.2390     0.0000   184.0000 </r>
       <r>    -8.0177     0.0000   184.0000 </r>
       <r>    -7.7965     0.0000   184.0000 </r>
       <r>    -7.5752     0.0000   184.0000 </r>
       <r>    -7.3539     0.0000   184.0000 </r>
       <r>    -7.1326     0.0411   184.0091 </r>
       <r>    -6.9113     3.1254   184.7007 </r>
       <r>    -6.6900     6.4699   186.1324 </r>
       <r>    -6.4687     7.9097   187.8827 </r>
       <r>    -6.2475     8.9111   189.8546 </r>
       <r>    -6.0262     9.8439   192.0329 </r>
       <r>    -5.8049    15.7660   195.5217 </r>
       <r>    -5.5836    19.7967   199.9024 </r>
       <r>    -5.3623    24.2340   205.2651 </r>
       <r>    -5.1410    10.3886   207.5639 </r>
       <r>    -4.9197    10.6470   209.9199 </r>
       <r>    -4.6985     0.3618   210.0000 </r>
       <r>    -4.4772     0.0000   210.0000 </r>
       <r>    -4.2559     0.0000   210.0000 </r>
       <r>    -4.0346     0.0000   210.0000 </r>
       <r>    -3.8133     0.0209   210.0046 </r>
       <r>    -3.5920     2.7869   210.6213 </r>
       <r>    -3.3707     6.0365   211.9571 </r>
       <r>    -3.1495     2.4636   212.5023 </r>
       <r>    -2.9282    12.1903   215.1998 </r>
       <r>    -2.7069    12.4037   217.9446 </r>
       <r>    -2.4856    19.7260   222.3097 </r>
       <r>    -2.2643    22.3021   227.2448 </r>
       <r>    -2.0430    18.7663   231.3975 </r>
       <r>    -1.8217    20.7096   235.9802 </r>
       <r>    -1.6005    23.0431   241.0793 </r>
       <r>    -1.3792    17.5523   244.9634 </r>
       <r>    -1.1579    10.1337   247.2058 </r>
       <r>    -0.9366     3.4129   247.9611 </r>
       <r>    -0.7153     0.1758   248.0000 </r>
       <r>    -0.4940     0.0001   248.0000 </r>
       <r>    -0.2727     0.0000   248.0000 </r>
       <r>    -0.0515     0.0000   248.0000 </r>
       <r>     0.1698     0.0000   248.0000 </r>
       <r>     0.3911     0.0000   248.0000 </r>
       <r>     0.6124     0.0000   248.0000 </r>
       <r>     0.8337     0.0001   248.0000 </r>
       <r>     1.0550     0.1256   248.0278 </r>
       <r>     1.2763     0.6943   248.1815 </r>
       <r>     1.4975     2.9149   248.8265 </r>
       <r>     1.7188     9.0117   250.8206 </r>
       <r>     1.9401     9.5089   252.9248 </r>
       <r>     2.1614    15.3632   256.3245 </r>
       <r>     2.3827    18.7238   260.4678 </r>
       <r>     2.6040    24.9574   265.9905 </r>
       <r>     2.8253    27.6419   272.1073 </r>
       <r>     3.0465    27.2647   278.1406 </r>
       <r>     3.2678    32.5182   285.3364 </r>
       <r>     3.4891    33.1742   292.6774 </r>
       <r>     3.7104    37.0076   300.8666 </r>
       <r>     3.9317    42.1909   310.2029 </r>
       <r>     4.1530    51.6602   321.6345 </r>
       <r>     4.3743    59.0494   334.7013 </r>
       <r>     4.5955    64.9052   349.0639 </r>
       <r>     4.8168    63.1436   363.0367 </r>
       <r>     5.0381    62.8497   376.9444 </r>
       <r>     5.2594    56.9052   389.5367 </r>
       <r>     5.4807    46.8281   399.8991 </r>
       <r>     5.7020    36.7333   408.0277 </r>
       <r>     5.9233    31.5423   415.0075 </r>
       <r>     6.1445    30.8053   421.8243 </r>
       <r>     6.3658    29.6208   428.3789 </r>
       <r>     6.5871    20.0249   432.8102 </r>
       <r>     6.8084    16.0112   436.3532 </r>
       <r>     7.0297    12.2165   439.0565 </r>
       <r>     7.2510     7.8136   440.7856 </r>
       <r>     7.4723    14.4277   443.9782 </r>
       <r>     7.6935    20.2028   448.4488 </r>
       <r>     7.9148    17.5261   452.3271 </r>
       <r>     8.1361    20.5748   456.8800 </r>
       <r>     8.3574    18.8135   461.0432 </r>
       <r>     8.5787    23.3082   466.2009 </r>
       <r>     8.8000    29.5555   472.7411 </r>
       <r>     9.0213    29.1432   479.1901 </r>
       <r>     9.2425    26.0985   484.9653 </r>
       <r>     9.4638    26.7502   490.8848 </r>
       <r>     9.6851    28.7412   497.2448 </r>
       <r>     9.9064    32.9964   504.5464 </r>
       <r>    10.1277    40.4611   513.4999 </r>
       <r>    10.3490    47.3085   523.9686 </r>
       <r>    10.5703    50.9919   535.2523 </r>
       <r>    10.7915    54.5538   547.3243 </r>
       <r>    11.0128    54.7945   559.4495 </r>
       <r>    11.2341    54.4774   571.5046 </r>
       <r>    11.4554    57.9233   584.3222 </r>
       <r>    11.6767    60.0591   597.6124 </r>
       <r>    11.8980    59.5107   610.7813 </r>
       <r>    12.1193    49.1147   621.6497 </r>
       <r>    12.3405    10.5480   623.9838 </r>
       <r>    12.5618     0.0733   624.0000 </r>
       <r>    12.7831     0.0000   624.0000 </r>
       <r>    13.0044     0.0000   624.0000 </r>
       <r>    13.2257     0.0000   624.0000 </r>
       <r>    13.4470     0.0000   624.0000 </r>
       <r>    13.6683     0.0000   624.0000 </r>
       <r>    13.8895     0.0000   624.0000 </r>
       <r>    14.1108     0.0000   624.0000 </r>
       <r>    14.3321     0.0000   624.0000 </r>
       <r>    14.5534     0.0000   624.0000 </r>
       <r>    14.7747     0.0000   624.0000 </r>
       <r>    14.9960     0.0000   624.0000 </r>
       <r>    15.2173     0.0000   624.0000 </r>
      </set>
     </set>
    </array>
   </total>
  </dos>
 </calculation>
 <structure name="finalpos" >
  <crystal>
   <varray name="basis" >
    <v>       8.64187037       0.00414035      -0.00114184 </v>
    <v>       0.00980692       8.67399447       0.02382034 </v>
    <v>       0.02986403       0.00861520       8.67089713 </v>
   </varray>
   <i name="volume">    649.96459649 </i>
   <varray name="rec_basis" >
    <v>       0.11571570      -0.00012974      -0.00039842 </v>
    <v>      -0.00005525       0.11528751      -0.00011436 </v>
    <v>       0.00001539      -0.00031673       0.11532858 </v>
   </varray>
  </crystal>
  <varray name="positions" >
   <v>       0.00673596       0.99673269       0.98915178 </v>
   <v>       0.25487276       0.99383029       0.25308760 </v>
   <v>       0.25064784       0.50711398       0.24530377 </v>
   <v>       0.50428549       0.49308053       0.99765936 </v>
   <v>       0.50313230       0.24244988       0.74985093 </v>
   <v>       0.00266498       0.50071768       0.50732754 </v>
   <v>       0.50157512       0.76022534       0.73968887 </v>
   <v>       0.99194609       0.23337632       0.25924455 </v>
   <v>       0.76361041       0.74661983       0.99719882 </v>
   <v>       0.01599131       0.23422901       0.74645219 </v>
   <v>       0.76181076       0.25629330       0.48326291 </v>
   <v>       0.00288862       0.73587535       0.75582078 </v>
   <v>       0.25425846       0.50399391       0.75287273 </v>
   <v>       0.25234692       0.24879053       0.99375384 </v>
   <v>       0.50146044       0.24659002       0.24914316 </v>
   <v>       0.73465333       0.99149414       0.25978824 </v>
   <v>       0.74833394       0.24562774       0.99531168 </v>
   <v>       0.25924535       0.75405958       0.99974291 </v>
   <v>       0.25626656       0.24960885       0.50626648 </v>
   <v>       0.25062049       0.75223385       0.49983261 </v>
   <v>       0.24935459       0.24989701       0.25097093 </v>
   <v>       0.26217030       0.00252173       0.99592262 </v>
   <v>       0.00163172       0.25112810       0.00547035 </v>
   <v>       0.74484865       0.23978498       0.24168378 </v>
   <v>       0.74510133       0.99650507       0.00387228 </v>
   <v>       0.50101354       0.00255020       0.24248444 </v>
   <v>       0.99875029       0.48840406       0.25033290 </v>
   <v>       0.50416313       0.75534976       0.99639536 </v>
   <v>       0.98539104       0.98776022       0.74241531 </v>
   <v>       0.75877557       0.22868881       0.74511099 </v>
   <v>       0.74278177       0.00822889       0.49303011 </v>
   <v>       0.50547589       0.24478910       0.49362210 </v>
   <v>       0.49395753       0.00062566       0.74821632 </v>
   <v>       0.99246945      -0.00006217       0.24659848 </v>
   <v>       0.50216947       0.24918829       0.00197717 </v>
   <v>       0.25976047       0.75175606       0.25017380 </v>
   <v>       0.24371207       0.50185675       0.99687120 </v>
   <v>       0.01072108       0.74461051       0.00519636 </v>
   <v>       0.74076063       0.74682352       0.24557619 </v>
   <v>       0.76361970       0.49492180       0.00961306 </v>
   <v>       0.49482492       0.50166773       0.24692518 </v>
   <v>       0.25690586       0.24708853       0.74973916 </v>
   <v>       0.25558365       0.00094072       0.51577737 </v>
   <v>       0.00816601       0.25027389       0.50363572 </v>
   <v>       0.24914850       0.76033467       0.75111477 </v>
   <v>       0.25125536       0.50106538       0.50109186 </v>
   <v>       0.00198537       0.75308862       0.50333750 </v>
   <v>       0.99953249       0.48551735       0.75755343 </v>
   <v>       0.75559571       0.77043008       0.74527093 </v>
   <v>       0.74843910       0.49305433       0.50975243 </v>
   <v>       0.49882993       0.76500534       0.49073958 </v>
   <v>       0.50176217       0.50163500       0.74550866 </v>
   <v>       0.50981258       0.02405234       0.98549032 </v>
   <v>       0.99078111       0.52288229       0.97605470 </v>
   <v>       0.50402897       0.73236749       0.27520969 </v>
   <v>       0.21622348       0.01266122       0.76320375 </v>
   <v>       0.47410949       0.00028233       0.49293153 </v>
   <v>       0.71736850       0.99577359       0.78372234 </v>
   <v>       0.99876606       0.76730649       0.25172753 </v>
   <v>       0.73147474       0.50442344       0.25513222 </v>
   <v>       0.01603958       0.00275781       0.49645522 </v>
   <v>       0.49658235       0.51294562       0.49265612 </v>
   <v>       0.74890066       0.52075790       0.76386818 </v>
   <v>       0.74990846       0.73541645       0.49680742 </v>
  </varray>
 </structure>
</modeling>
