 running   28 mpi-ranks, on    1 nodes
 distrk:  each k-point on   28 cores,    1 groups
 distr:  one band on    1 cores,   28 groups
 vasp.6.4.3 19Mar24 (build Sep 18 2024 11:30:23) complex                        
  
 POSCAR found type information on POSCAR TiMoHfN C W Nb
 POSCAR found :  7 types and      64 ions
 Reading from existing POTCAR
 scaLAPACK will be used
 -----------------------------------------------------------------------------
|                                                                             |
|           W    W    AA    RRRRR   N    N  II  N    N   GGGG   !!!           |
|           W    W   A  A   R    R  NN   N  II  NN   N  G    G  !!!           |
|           W    W  A    A  R    R  N N  N  II  N N  N  G       !!!           |
|           W WW W  AAAAAA  RRRRR   N  N N  II  N  N N  G  GGG   !            |
|           WW  WW  A    A  R   R   N   NN  II  N   NN  G    G                |
|           W    W  A    A  R    R  N    N  II  N    N   GGGG   !!!           |
|                                                                             |
|     For optimal performance we recommend to set                             |
|       NCORE = 2 up to number-of-cores-per-socket                            |
|     NCORE specifies how many cores store one orbital (NPAR=cpu/NCORE).      |
|     This setting can greatly improve the performance of VASP for DFT.       |
|     The default, NCORE=1 might be grossly inefficient on modern             |
|     multi-core architectures or massively parallel machines. Do your        |
|     own testing! More info at https://www.vasp.at/wiki/index.php/NCORE      |
|     Unfortunately you need to use the default for GW and RPA                |
|     calculations (for HF NCORE is supported but not extensively tested      |
|     yet).                                                                   |
|                                                                             |
 -----------------------------------------------------------------------------

 Reading from existing POTCAR
 -----------------------------------------------------------------------------
|                                                                             |
|               ----> ADVICE to this user running VASP <----                  |
|                                                                             |
|     You have a (more or less) 'large supercell' and for larger cells it     |
|     might be more efficient to use real-space projection operators.         |
|     Therefore, try LREAL= Auto in the INCAR file.                           |
|     Mind: If you want to do very accurate calculations, keep the            |
|     reciprocal projection scheme (i.e. LREAL=.FALSE.).                      |
|                                                                             |
 -----------------------------------------------------------------------------

 LDA part: xc-table for (Slater+PW92), standard interpolation
 POSCAR, INCAR and KPOINTS ok, starting setup
 FFT: planning ... GRIDC
 FFT: planning ... GRID_SOFT
 FFT: planning ... GRID
 WAVECAR not read
 entering main loop
       N       E                     dE             d eps       ncg     rms          rms(c)
DAV:   1     0.516877452541E+04    0.51688E+04   -0.20728E+05  8624   0.143E+03
DAV:   2     0.434225814028E+02   -0.51254E+04   -0.49179E+04  8624   0.538E+02
DAV:   3    -0.723529284999E+03   -0.76695E+03   -0.73202E+03 12852   0.165E+02
DAV:   4    -0.782167294606E+03   -0.58638E+02   -0.57163E+02 13328   0.503E+01
DAV:   5    -0.784806527225E+03   -0.26392E+01   -0.26012E+01 12712   0.103E+01    0.607E+01
RMM:   6    -0.645193810546E+03    0.13961E+03   -0.62952E+02 11840   0.428E+01    0.158E+01
RMM:   7    -0.652911318115E+03   -0.77175E+01   -0.15440E+02 11944   0.248E+01    0.117E+01
RMM:   8    -0.654617576162E+03   -0.17063E+01   -0.49354E+01 12616   0.100E+01    0.991E+00
RMM:   9    -0.653322234402E+03    0.12953E+01   -0.84421E+00 10389   0.637E+00    0.563E+00
RMM:  10    -0.653386513824E+03   -0.64279E-01   -0.51551E+00 12077   0.353E+00    0.291E+00
RMM:  11    -0.653374919356E+03    0.11594E-01   -0.20811E+00 11383   0.217E+00    0.174E+00
RMM:  12    -0.653381988356E+03   -0.70690E-02   -0.11722E+00 12027   0.133E+00    0.880E-01
RMM:  13    -0.653427354724E+03   -0.45366E-01   -0.64062E-01 13051   0.883E-01    0.457E-01
RMM:  14    -0.653456198291E+03   -0.28844E-01   -0.34044E-01 12071   0.502E-01    0.383E-01
RMM:  15    -0.653465994357E+03   -0.97961E-02   -0.13015E-01 11159   0.390E-01    0.207E-01
RMM:  16    -0.653475458672E+03   -0.94643E-02   -0.10123E-01 12536   0.217E-01    0.125E-01
RMM:  17    -0.653479762132E+03   -0.43035E-02   -0.45578E-02 12310   0.146E-01    0.802E-02
RMM:  18    -0.653483107488E+03   -0.33454E-02   -0.35278E-02 11447   0.105E-01    0.496E-02
RMM:  19    -0.653484645434E+03   -0.15379E-02   -0.15853E-02 11114   0.861E-02    0.373E-02
RMM:  20    -0.653485995818E+03   -0.13504E-02   -0.13728E-02 10267   0.586E-02    0.275E-02
RMM:  21    -0.653486601779E+03   -0.60596E-03   -0.62640E-03  9152   0.423E-02    0.109E-02
RMM:  22    -0.653487147688E+03   -0.54591E-03   -0.55029E-03  7308   0.328E-02    0.129E-02
RMM:  23    -0.653487389776E+03   -0.24209E-03   -0.24552E-03  7379   0.273E-02    0.686E-03
RMM:  24    -0.653487626032E+03   -0.23626E-03   -0.23642E-03  6456   0.217E-02    0.475E-03
RMM:  25    -0.653487730659E+03   -0.10463E-03   -0.10436E-03  6250   0.162E-02    0.310E-03
RMM:  26    -0.653487831835E+03   -0.10118E-03   -0.10116E-03  6128   0.147E-02    0.334E-03
RMM:  27    -0.653487878227E+03   -0.46391E-04   -0.46114E-04  6008   0.117E-02    0.138E-03
RMM:  28    -0.653487923670E+03   -0.45444E-04   -0.45244E-04  5878   0.110E-02    0.140E-03
RMM:  29    -0.653487944656E+03   -0.20985E-04   -0.20968E-04  5071   0.826E-03    0.104E-03
RMM:  30    -0.653487965204E+03   -0.20549E-04   -0.20600E-04  4900   0.712E-03    0.820E-04
RMM:  31    -0.653487974882E+03   -0.96780E-05   -0.96729E-05  4984   0.631E-03
   1 F= -.65348797E+03 E0= -.65344641E+03  d E =-.653488E+03
 curvature:   0.00 expect dE= 0.000E+00 dE for cont linesearch  0.000E+00
 trial: gam= 0.00000 g(F)=  0.626E-02 g(S)=  0.162E+00 ort = 0.000E+00 (trialstep = 0.100E+01)
 search vector abs. value=  0.168E+00
 bond charge predicted
       N       E                     dE             d eps       ncg     rms          rms(c)
DAV:   1    -0.654257465091E+03   -0.76950E+00   -0.25094E+01 10192   0.145E+01    0.525E+00
RMM:   2    -0.653616066434E+03    0.64140E+00   -0.29311E+00 12212   0.453E+00    0.263E+00
RMM:   3    -0.653487947596E+03    0.12812E+00   -0.58565E-01 11253   0.181E+00    0.186E+00
RMM:   4    -0.653418070144E+03    0.69877E-01   -0.28594E-01 10956   0.117E+00    0.935E-01
RMM:   5    -0.653408605944E+03    0.94642E-02   -0.93171E-02 11338   0.683E-01    0.573E-01
RMM:   6    -0.653405245290E+03    0.33607E-02   -0.27248E-02 12463   0.389E-01    0.236E-01
RMM:   7    -0.653405316142E+03   -0.70852E-04   -0.74568E-03 12774   0.173E-01    0.153E-01
RMM:   8    -0.653405471320E+03   -0.15518E-03   -0.25620E-03 12446   0.928E-02    0.946E-02
RMM:   9    -0.653405551297E+03   -0.79977E-04   -0.10876E-03 11439   0.558E-02    0.580E-02
RMM:  10    -0.653405650378E+03   -0.99081E-04   -0.59215E-04 10997   0.380E-02    0.236E-02
RMM:  11    -0.653405671816E+03   -0.21438E-04   -0.24060E-04  9891   0.263E-02    0.109E-02
RMM:  12    -0.653405682073E+03   -0.10258E-04   -0.14407E-04  7710   0.181E-02    0.741E-03
RMM:  13    -0.653405685347E+03   -0.32733E-05   -0.70089E-05  6589   0.141E-02
   2 F= -.65340569E+03 E0= -.65336554E+03  d E =0.822895E-01
 trial-energy change:    0.082290  1 .order    0.083235   -0.168136    0.334606
 step:   0.3370(harm=  0.3344)  dis= 0.00177  next Energy=  -653.516339 (dE=-0.284E-01)
 bond charge predicted
       N       E                     dE             d eps       ncg     rms          rms(c)
DAV:   1    -0.653900629446E+03   -0.49495E+00   -0.11188E+01  9492   0.974E+00    0.353E+00
RMM:   2    -0.653623607853E+03    0.27702E+00   -0.13400E+00 12142   0.296E+00    0.186E+00
RMM:   3    -0.653559689787E+03    0.63918E-01   -0.26045E-01 11362   0.123E+00    0.134E+00
RMM:   4    -0.653524940108E+03    0.34750E-01   -0.12698E-01 10845   0.785E-01    0.707E-01
RMM:   5    -0.653518595289E+03    0.63448E-02   -0.45933E-02 11172   0.475E-01    0.429E-01
RMM:   6    -0.653516600395E+03    0.19949E-02   -0.14195E-02 12327   0.275E-01    0.180E-01
RMM:   7    -0.653516435727E+03    0.16467E-03   -0.38061E-03 12736   0.125E-01    0.107E-01
RMM:   8    -0.653516441800E+03   -0.60732E-05   -0.12312E-03 11964   0.656E-02    0.692E-02
RMM:   9    -0.653516425322E+03    0.16478E-04   -0.48678E-04 10950   0.421E-02    0.426E-02
RMM:  10    -0.653516422925E+03    0.23968E-05   -0.25108E-04 10511   0.273E-02    0.197E-02
RMM:  11    -0.653516418822E+03    0.41038E-05   -0.97947E-05  8475   0.201E-02
   3 F= -.65351642E+03 E0= -.65347534E+03  d E =-.284439E-01
 curvature:  -0.17 expect dE=-0.163E-02 dE for cont linesearch -0.377E-06
 trial: gam= 0.05418 g(F)=  0.950E-02 g(S)=  0.228E-03 ort = 0.616E-03 (trialstep = 0.867E+00)
 search vector abs. value=  0.103E-01
 bond charge predicted
       N       E                     dE             d eps       ncg     rms          rms(c)
DAV:   1    -0.653510686528E+03    0.57364E-02   -0.13325E+00  9856   0.303E+00    0.220E-01
RMM:   2    -0.653521419577E+03   -0.10733E-01   -0.12229E-01 12815   0.891E-01    0.143E-01
RMM:   3    -0.653523146445E+03   -0.17269E-02   -0.18131E-02 12910   0.310E-01    0.112E-01
RMM:   4    -0.653523148807E+03   -0.23621E-05   -0.25571E-03 12837   0.113E-01    0.698E-02
RMM:   5    -0.653523152223E+03   -0.34160E-05   -0.10564E-03 11630   0.564E-02    0.507E-02
RMM:   6    -0.653523139401E+03    0.12822E-04   -0.70022E-04 10798   0.467E-02    0.274E-02
RMM:   7    -0.653523153567E+03   -0.14166E-04   -0.26692E-04  9927   0.278E-02    0.165E-02
RMM:   8    -0.653523157357E+03   -0.37897E-05   -0.13343E-04  7584   0.207E-02    0.952E-03
RMM:   9    -0.653523163884E+03   -0.65276E-05   -0.79641E-05  6765   0.146E-02
   4 F= -.65352316E+03 E0= -.65348198E+03  d E =-.674506E-02
 trial-energy change:   -0.006745  1 .order   -0.006666   -0.008465   -0.004867
 step:   1.7893(harm=  2.0407)  dis= 0.00942  next Energy=  -653.525845 (dE=-0.943E-02)
 bond charge predicted
       N       E                     dE             d eps       ncg     rms          rms(c)
DAV:   1    -0.653512630700E+03    0.10527E-01   -0.15074E+00  9800   0.322E+00    0.234E-01
RMM:   2    -0.653524811328E+03   -0.12181E-01   -0.13820E-01 12803   0.950E-01    0.155E-01
RMM:   3    -0.653526779382E+03   -0.19681E-02   -0.20753E-02 12900   0.330E-01    0.119E-01
RMM:   4    -0.653526796620E+03   -0.17238E-04   -0.30290E-03 12854   0.122E-01    0.744E-02
RMM:   5    -0.653526814125E+03   -0.17504E-04   -0.13201E-03 11672   0.606E-02    0.543E-02
RMM:   6    -0.653526806341E+03    0.77840E-05   -0.85283E-04 10830   0.497E-02    0.290E-02
RMM:   7    -0.653526827765E+03   -0.21425E-04   -0.35114E-04 10209   0.297E-02    0.178E-02
RMM:   8    -0.653526835389E+03   -0.76240E-05   -0.18018E-04  7800   0.216E-02    0.103E-02
RMM:   9    -0.653526844400E+03   -0.90105E-05   -0.10665E-04  6803   0.157E-02    0.659E-03
RMM:  10    -0.653526849775E+03   -0.53757E-05   -0.59558E-05  6263   0.134E-02
   5 F= -.65352685E+03 E0= -.65348554E+03  d E =-.104310E-01
 curvature:  -1.03 expect dE=-0.576E-02 dE for cont linesearch -0.332E-03
 ZBRENT: extrapolating
 opt :   2.2330  next Energy=  -653.527254 (dE=-0.108E-01)
 bond charge predicted
       N       E                     dE             d eps       ncg     rms          rms(c)
DAV:   1    -0.653524072124E+03    0.27723E-02   -0.34947E-01 10052   0.155E+00    0.113E-01
RMM:   2    -0.653526888226E+03   -0.28161E-02   -0.32078E-02 12800   0.457E-01    0.740E-02
RMM:   3    -0.653527352541E+03   -0.46432E-03   -0.48989E-03 12804   0.159E-01    0.572E-02
RMM:   4    -0.653527359316E+03   -0.67750E-05   -0.73761E-04 12211   0.596E-02    0.355E-02
RMM:   5    -0.653527364812E+03   -0.54956E-05   -0.32566E-04 10323   0.315E-02    0.260E-02
RMM:   6    -0.653527364595E+03    0.21671E-06   -0.21337E-04  9506   0.270E-02    0.136E-02
RMM:   7    -0.653527370309E+03   -0.57133E-05   -0.90612E-05  7438   0.195E-02
   6 F= -.65352737E+03 E0= -.65348599E+03  d E =-.109515E-01
 curvature:  -1.25 expect dE=-0.101E-01 dE for cont linesearch -0.996E-06
 trial: gam= 0.82021 g(F)=  0.773E-02 g(S)=  0.338E-03 ort = 0.904E-04 (trialstep = 0.775E+00)
 search vector abs. value=  0.151E-01
 bond charge predicted
       N       E                     dE             d eps       ncg     rms          rms(c)
DAV:   1    -0.653519137058E+03    0.82275E-02   -0.15737E+00 10136   0.322E+00    0.218E-01
RMM:   2    -0.653530561647E+03   -0.11425E-01   -0.12760E-01 12737   0.899E-01    0.119E-01
RMM:   3    -0.653532467547E+03   -0.19059E-02   -0.18410E-02 12954   0.298E-01    0.116E-01
RMM:   4    -0.653532477138E+03   -0.95904E-05   -0.24162E-03 12583   0.109E-01    0.667E-02
RMM:   5    -0.653532503147E+03   -0.26009E-04   -0.11579E-03 11889   0.561E-02    0.512E-02
RMM:   6    -0.653532494956E+03    0.81913E-05   -0.64728E-04 10617   0.448E-02    0.195E-02
RMM:   7    -0.653532516950E+03   -0.21994E-04   -0.29348E-04  9249   0.246E-02    0.142E-02
RMM:   8    -0.653532524455E+03   -0.75048E-05   -0.13545E-04  7233   0.191E-02    0.878E-03
RMM:   9    -0.653532532110E+03   -0.76553E-05   -0.93550E-05  6523   0.135E-02
   7 F= -.65353253E+03 E0= -.65349133E+03  d E =-.516180E-02
 trial-energy change:   -0.005162  1 .order   -0.004946   -0.006311   -0.003580
 step:   1.3341(harm=  1.7910)  dis= 0.00734  next Energy=  -653.533905 (dE=-0.653E-02)
 bond charge predicted
       N       E                     dE             d eps       ncg     rms          rms(c)
DAV:   1    -0.653527647826E+03    0.48766E-02   -0.82049E-01 10192   0.232E+00    0.156E-01
RMM:   2    -0.653533632019E+03   -0.59842E-02   -0.66663E-02 12736   0.650E-01    0.860E-02
RMM:   3    -0.653534634768E+03   -0.10027E-02   -0.97008E-03 12932   0.216E-01    0.832E-02
RMM:   4    -0.653534647348E+03   -0.12580E-04   -0.13188E-03 12416   0.800E-02    0.484E-02
RMM:   5    -0.653534664430E+03   -0.17082E-04   -0.64795E-04 11283   0.418E-02    0.373E-02
RMM:   6    -0.653534662056E+03    0.23742E-05   -0.36407E-04 10143   0.349E-02    0.144E-02
RMM:   7    -0.653534675494E+03   -0.13438E-04   -0.17338E-04  8245   0.205E-02    0.104E-02
RMM:   8    -0.653534680228E+03   -0.47338E-05   -0.80786E-05  6567   0.156E-02
   8 F= -.65353468E+03 E0= -.65349359E+03  d E =-.730992E-02
 curvature:  -1.33 expect dE=-0.610E-02 dE for cont linesearch -0.452E-03
 ZBRENT: increasing intervall
 opt :   2.4525  next Energy=  -653.534590 (dE=-0.722E-02)
 bond charge predicted
       N       E                     dE             d eps       ncg     rms          rms(c)
DAV:   1    -0.653506938339E+03    0.27737E-01   -0.32799E+00  9520   0.465E+00    0.313E-01
RMM:   2    -0.653530825124E+03   -0.23887E-01   -0.26645E-01 12735   0.130E+00    0.171E-01
RMM:   3    -0.653534797178E+03   -0.39721E-02   -0.38441E-02 12973   0.430E-01    0.165E-01
RMM:   4    -0.653534827220E+03   -0.30043E-04   -0.50503E-03 12670   0.158E-01    0.969E-02
RMM:   5    -0.653534881982E+03   -0.54762E-04   -0.24219E-03 12511   0.804E-02    0.751E-02
RMM:   6    -0.653534861708E+03    0.20274E-04   -0.13639E-03 10863   0.614E-02    0.282E-02
RMM:   7    -0.653534907541E+03   -0.45832E-04   -0.61414E-04 10847   0.342E-02    0.206E-02
RMM:   8    -0.653534923529E+03   -0.15989E-04   -0.28686E-04  8512   0.238E-02    0.127E-02
RMM:   9    -0.653534939722E+03   -0.16193E-04   -0.19352E-04  7165   0.182E-02    0.815E-03
RMM:  10    -0.653534948746E+03   -0.90235E-05   -0.96946E-05  6421   0.146E-02
   9 F= -.65353495E+03 E0= -.65349405E+03  d E =-.757844E-02
 curvature:   0.26 expect dE= 0.400E-02 dE for cont linesearch  0.118E-03
 ZBRENT: bracketing found
 ZBRENT: interpolating
 opt :   1.8547  next Energy=  -653.535271 (dE=-0.790E-02)
 bond charge predicted
       N       E                     dE             d eps       ncg     rms          rms(c)
DAV:   1    -0.653527640329E+03    0.72994E-02   -0.93526E-01 10136   0.248E+00    0.167E-01
RMM:   2    -0.653534388960E+03   -0.67486E-02   -0.75555E-02 12729   0.691E-01    0.908E-02
RMM:   3    -0.653535483023E+03   -0.10941E-02   -0.10587E-02 12929   0.228E-01    0.873E-02
RMM:   4    -0.653535479080E+03    0.39430E-05   -0.13221E-03 12439   0.833E-02    0.517E-02
RMM:   5    -0.653535483137E+03   -0.40568E-05   -0.57993E-04 11357   0.430E-02    0.400E-02
RMM:   6    -0.653535470380E+03    0.12757E-04   -0.33882E-04 10197   0.359E-02    0.151E-02
RMM:   7    -0.653535478956E+03   -0.85760E-05   -0.13531E-04  8270   0.204E-02    0.107E-02
RMM:   8    -0.653535480841E+03   -0.18852E-05   -0.59157E-05  6561   0.158E-02
  10 F= -.65353548E+03 E0= -.65349449E+03  d E =-.811053E-02
 curvature:  -1.32 expect dE=-0.103E-01 dE for cont linesearch -0.475E-04
 trial: gam= 0.96779 g(F)=  0.675E-02 g(S)=  0.107E-02 ort = 0.739E-03 (trialstep = 0.640E+00)
 search vector abs. value=  0.234E-01
 bond charge predicted
       N       E                     dE             d eps       ncg     rms          rms(c)
DAV:   1    -0.653524454020E+03    0.11025E-01   -0.16020E+00  9576   0.328E+00    0.242E-01
RMM:   2    -0.653537861715E+03   -0.13408E-01   -0.15249E-01 12708   0.940E-01    0.125E-01
RMM:   3    -0.653540003701E+03   -0.21420E-02   -0.20527E-02 12799   0.311E-01    0.112E-01
RMM:   4    -0.653540019396E+03   -0.15694E-04   -0.25821E-03 12384   0.116E-01    0.658E-02
RMM:   5    -0.653540028550E+03   -0.91545E-05   -0.11240E-03 11701   0.609E-02    0.488E-02
RMM:   6    -0.653540024138E+03    0.44119E-05   -0.54973E-04 10613   0.424E-02    0.216E-02
RMM:   7    -0.653540042662E+03   -0.18524E-04   -0.26051E-04  9515   0.256E-02    0.151E-02
RMM:   8    -0.653540049686E+03   -0.70245E-05   -0.12557E-04  7371   0.183E-02    0.891E-03
RMM:   9    -0.653540055715E+03   -0.60288E-05   -0.80806E-05  6442   0.130E-02
  11 F= -.65354006E+03 E0= -.65349910E+03  d E =-.457487E-02
 trial-energy change:   -0.004575  1 .order   -0.004526   -0.005466   -0.003587
 step:   1.5312(harm=  1.8620)  dis= 0.00801  next Energy=  -653.542683 (dE=-0.720E-02)
 bond charge predicted
       N       E                     dE             d eps       ncg     rms          rms(c)
DAV:   1    -0.653513364354E+03    0.26685E-01   -0.31108E+00  9408   0.457E+00    0.338E-01
RMM:   2    -0.653539587890E+03   -0.26224E-01   -0.29739E-01 12707   0.131E+00    0.175E-01
RMM:   3    -0.653543845176E+03   -0.42573E-02   -0.40664E-02 12839   0.434E-01    0.155E-01
RMM:   4    -0.653543906167E+03   -0.60991E-04   -0.52487E-03 12495   0.162E-01    0.924E-02
RMM:   5    -0.653543944258E+03   -0.38091E-04   -0.23863E-03 11971   0.856E-02    0.692E-02
RMM:   6    -0.653543947171E+03   -0.29128E-05   -0.11790E-03 11091   0.589E-02    0.306E-02
RMM:   7    -0.653543990998E+03   -0.43827E-04   -0.58179E-04 10781   0.344E-02    0.217E-02
RMM:   8    -0.653544008880E+03   -0.17883E-04   -0.28491E-04  8605   0.228E-02    0.129E-02
RMM:   9    -0.653544024056E+03   -0.15175E-04   -0.18777E-04  7154   0.170E-02    0.880E-03
RMM:  10    -0.653544032518E+03   -0.84629E-05   -0.95158E-05  6433   0.137E-02
  12 F= -.65354403E+03 E0= -.65350312E+03  d E =-.855168E-02
 curvature:  -2.37 expect dE=-0.123E-01 dE for cont linesearch -0.550E-03
 ZBRENT: increasing intervall
 opt :   3.3133  next Energy=  -653.542360 (dE=-0.688E-02)
 bond charge predicted
       N       E                     dE             d eps       ncg     rms          rms(c)
DAV:   1    -0.653418691279E+03    0.12533E+00   -0.12420E+01  9156   0.914E+00    0.680E-01
RMM:   2    -0.653525821450E+03   -0.10713E+00   -0.12137E+00 12857   0.266E+00    0.351E-01
RMM:   3    -0.653542338088E+03   -0.16517E-01   -0.15845E-01 12826   0.846E-01    0.306E-01
RMM:   4    -0.653542610101E+03   -0.27201E-03   -0.21151E-02 12678   0.325E-01    0.186E-01
RMM:   5    -0.653542731043E+03   -0.12094E-03   -0.93061E-03 12337   0.169E-01    0.139E-01
RMM:   6    -0.653542737009E+03   -0.59663E-05   -0.45867E-03 11541   0.115E-01    0.630E-02
RMM:   7    -0.653542904078E+03   -0.16707E-03   -0.22464E-03 11947   0.648E-02    0.437E-02
RMM:   8    -0.653542970824E+03   -0.66746E-04   -0.10851E-03 10647   0.397E-02    0.260E-02
RMM:   9    -0.653543030592E+03   -0.59768E-04   -0.72212E-04  9587   0.281E-02    0.183E-02
RMM:  10    -0.653543064022E+03   -0.33430E-04   -0.36948E-04  7988   0.226E-02    0.976E-03
RMM:  11    -0.653543087613E+03   -0.23591E-04   -0.24736E-04  6755   0.168E-02    0.610E-03
RMM:  12    -0.653543100115E+03   -0.12501E-04   -0.13350E-04  6373   0.119E-02    0.311E-03
RMM:  13    -0.653543109435E+03   -0.93208E-05   -0.93874E-05  6195   0.956E-03
  13 F= -.65354311E+03 E0= -.65350223E+03  d E =-.762859E-02
 curvature:   7.21 expect dE= 0.165E+00 dE for cont linesearch  0.595E-02
 ZBRENT: bracketing found
 ZBRENT: interpolating
 opt :   2.1488  next Energy=  -653.544753 (dE=-0.927E-02)
 bond charge predicted
       N       E                     dE             d eps       ncg     rms          rms(c)
DAV:   1    -0.653493266949E+03    0.49833E-01   -0.53071E+00  9408   0.597E+00    0.442E-01
RMM:   2    -0.653537888537E+03   -0.44622E-01   -0.50669E-01 12721   0.171E+00    0.230E-01
RMM:   3    -0.653544910815E+03   -0.70223E-02   -0.67262E-02 12844   0.559E-01    0.200E-01
RMM:   4    -0.653544955048E+03   -0.44233E-04   -0.84587E-03 12557   0.208E-01    0.119E-01
RMM:   5    -0.653544961612E+03   -0.65638E-05   -0.36840E-03 11987   0.110E-01    0.831E-02
RMM:   6    -0.653544973897E+03   -0.12285E-04   -0.17518E-03 11452   0.740E-02    0.342E-02
RMM:   7    -0.653545032836E+03   -0.58939E-04   -0.80375E-04 11408   0.419E-02    0.241E-02
RMM:   8    -0.653545058993E+03   -0.26157E-04   -0.38555E-04  9477   0.270E-02    0.161E-02
RMM:   9    -0.653545079514E+03   -0.20520E-04   -0.24800E-04  7745   0.193E-02    0.112E-02
RMM:  10    -0.653545090802E+03   -0.11288E-04   -0.12460E-04  6683   0.167E-02    0.581E-03
RMM:  11    -0.653545098355E+03   -0.75538E-05   -0.79448E-05  6324   0.113E-02
  14 F= -.65354510E+03 E0= -.65350420E+03  d E =-.961751E-02
 curvature:  -0.87 expect dE=-0.766E-02 dE for cont linesearch -0.350E-04
 trial: gam= 1.07385 g(F)=  0.508E-02 g(S)=  0.370E-02 ort = 0.969E-03 (trialstep = 0.583E+00)
 search vector abs. value=  0.379E-01
 bond charge predicted
       N       E                     dE             d eps       ncg     rms          rms(c)
DAV:   1    -0.653528973768E+03    0.16117E-01   -0.20830E+00  9184   0.380E+00    0.341E-01
RMM:   2    -0.653546714232E+03   -0.17740E-01   -0.21391E-01 12853   0.114E+00    0.177E-01
RMM:   3    -0.653549379567E+03   -0.26653E-02   -0.27784E-02 12982   0.361E-01    0.146E-01
RMM:   4    -0.653549273409E+03    0.10616E-03   -0.39400E-03 12591   0.141E-01    0.804E-02
RMM:   5    -0.653549290708E+03   -0.17299E-04   -0.16881E-03 12002   0.750E-02    0.601E-02
RMM:   6    -0.653549281649E+03    0.90594E-05   -0.72593E-04 11432   0.508E-02    0.223E-02
RMM:   7    -0.653549312000E+03   -0.30351E-04   -0.36188E-04 10272   0.291E-02    0.144E-02
RMM:   8    -0.653549325225E+03   -0.13225E-04   -0.17096E-04  7896   0.202E-02    0.967E-03
RMM:   9    -0.653549335041E+03   -0.98163E-05   -0.10166E-04  6725   0.144E-02    0.713E-03
RMM:  10    -0.653549339959E+03   -0.49178E-05   -0.50180E-05  6299   0.111E-02
  15 F= -.65354934E+03 E0= -.65350866E+03  d E =-.424160E-02
 trial-energy change:   -0.004242  1 .order   -0.004228   -0.005721   -0.002735
 step:   1.1164(harm=  1.1164)  dis= 0.00686  next Energy=  -653.550579 (dE=-0.548E-02)
 bond charge predicted
       N       E                     dE             d eps       ncg     rms          rms(c)
DAV:   1    -0.653533761696E+03    0.15573E-01   -0.17510E+00  9240   0.348E+00    0.313E-01
RMM:   2    -0.653548731738E+03   -0.14970E-01   -0.18029E-01 12872   0.105E+00    0.165E-01
RMM:   3    -0.653551021074E+03   -0.22893E-02   -0.23844E-02 12974   0.332E-01    0.135E-01
RMM:   4    -0.653550945582E+03    0.75492E-04   -0.35226E-03 12588   0.131E-01    0.740E-02
RMM:   5    -0.653550975885E+03   -0.30304E-04   -0.15702E-03 11982   0.701E-02    0.564E-02
RMM:   6    -0.653550974684E+03    0.12015E-05   -0.69069E-04 11297   0.477E-02    0.214E-02
RMM:   7    -0.653551007390E+03   -0.32706E-04   -0.37534E-04 10039   0.281E-02    0.142E-02
RMM:   8    -0.653551021812E+03   -0.14422E-04   -0.17925E-04  7757   0.195E-02    0.934E-03
RMM:   9    -0.653551032865E+03   -0.11053E-04   -0.11373E-04  6643   0.141E-02    0.679E-03
RMM:  10    -0.653551038642E+03   -0.57773E-05   -0.57714E-05  6282   0.109E-02
  16 F= -.65355104E+03 E0= -.65351055E+03  d E =-.594029E-02
 curvature:  -2.15 expect dE=-0.131E-01 dE for cont linesearch -0.247E-04
 trial: gam= 0.58263 g(F)=  0.410E-02 g(S)=  0.198E-02 ort = 0.659E-03 (trialstep = 0.689E+00)
 search vector abs. value=  0.197E-01
 bond charge predicted
       N       E                     dE             d eps       ncg     rms          rms(c)
DAV:   1    -0.653539565305E+03    0.11468E-01   -0.14884E+00  8624   0.339E+00    0.359E-01
RMM:   2    -0.653552313518E+03   -0.12748E-01   -0.16851E-01 12879   0.106E+00    0.189E-01
RMM:   3    -0.653554525128E+03   -0.22116E-02   -0.26409E-02 13001   0.358E-01    0.146E-01
RMM:   4    -0.653554435399E+03    0.89729E-04   -0.40521E-03 12613   0.138E-01    0.869E-02
RMM:   5    -0.653554421517E+03    0.13882E-04   -0.14952E-03 12210   0.715E-02    0.622E-02
RMM:   6    -0.653554388793E+03    0.32725E-04   -0.68954E-04 11176   0.490E-02    0.324E-02
RMM:   7    -0.653554405385E+03   -0.16592E-04   -0.34906E-04 10701   0.304E-02    0.186E-02
RMM:   8    -0.653554415951E+03   -0.10567E-04   -0.17786E-04  7882   0.208E-02    0.105E-02
RMM:   9    -0.653554423243E+03   -0.72912E-05   -0.10225E-04  6613   0.151E-02    0.701E-03
RMM:  10    -0.653554426810E+03   -0.35676E-05   -0.58399E-05  6256   0.105E-02
  17 F= -.65355443E+03 E0= -.65351396E+03  d E =-.338817E-02
 trial-energy change:   -0.003388  1 .order   -0.003153   -0.004458   -0.001849
 step:   0.9672(harm=  1.1778)  dis= 0.00403  next Energy=  -653.554815 (dE=-0.378E-02)
 bond charge predicted
       N       E                     dE             d eps       ncg     rms          rms(c)
DAV:   1    -0.653552647451E+03    0.17758E-02   -0.24212E-01  9464   0.137E+00    0.145E-01
RMM:   2    -0.653554741459E+03   -0.20940E-02   -0.27527E-02 12910   0.428E-01    0.778E-02
RMM:   3    -0.653555088531E+03   -0.34707E-03   -0.42885E-03 12818   0.144E-01    0.595E-02
RMM:   4    -0.653555074236E+03    0.14295E-04   -0.70217E-04 12055   0.575E-02    0.354E-02
RMM:   5    -0.653555072135E+03    0.21008E-05   -0.27321E-04 10621   0.317E-02    0.250E-02
RMM:   6    -0.653555065369E+03    0.67657E-05   -0.12839E-04  8376   0.234E-02    0.129E-02
RMM:   7    -0.653555068077E+03   -0.27070E-05   -0.67172E-05  6667   0.182E-02
  18 F= -.65355507E+03 E0= -.65351461E+03  d E =-.402943E-02
 curvature:  -1.46 expect dE=-0.912E-02 dE for cont linesearch -0.118E-03
 ZBRENT: increasing intervall
 opt :   1.5229  next Energy=  -653.554983 (dE=-0.394E-02)
 bond charge predicted
       N       E                     dE             d eps       ncg     rms          rms(c)
DAV:   1    -0.653545420342E+03    0.96450E-02   -0.96695E-01  8848   0.273E+00    0.290E-01
RMM:   2    -0.653553733835E+03   -0.83135E-02   -0.10989E-01 12892   0.850E-01    0.155E-01
RMM:   3    -0.653555165387E+03   -0.14316E-02   -0.17337E-02 12971   0.290E-01    0.118E-01
RMM:   4    -0.653555105060E+03    0.60327E-04   -0.26405E-03 12567   0.111E-01    0.706E-02
RMM:   5    -0.653555094675E+03    0.10385E-04   -0.98979E-04 11993   0.580E-02    0.496E-02
RMM:   6    -0.653555072543E+03    0.22132E-04   -0.45761E-04 10976   0.401E-02    0.256E-02
RMM:   7    -0.653555084162E+03   -0.11619E-04   -0.23582E-04  9873   0.259E-02    0.152E-02
RMM:   8    -0.653555090912E+03   -0.67503E-05   -0.12032E-04  7255   0.181E-02    0.864E-03
RMM:   9    -0.653555095443E+03   -0.45305E-05   -0.66472E-05  6376   0.127E-02
  19 F= -.65355510E+03 E0= -.65351467E+03  d E =-.405680E-02
 curvature:   1.05 expect dE= 0.176E-01 dE for cont linesearch  0.178E-03
 ZBRENT: bracketing found
 ZBRENT: interpolating
 opt :   1.1948  next Energy=  -653.555212 (dE=-0.417E-02)
 bond charge predicted
       N       E                     dE             d eps       ncg     rms          rms(c)
DAV:   1    -0.653551971085E+03    0.31198E-02   -0.33608E-01  9296   0.161E+00    0.171E-01
RMM:   2    -0.653554832665E+03   -0.28616E-02   -0.38008E-02 12872   0.503E-01    0.926E-02
RMM:   3    -0.653555296951E+03   -0.46429E-03   -0.57790E-03 12885   0.169E-01    0.698E-02
RMM:   4    -0.653555277204E+03    0.19747E-04   -0.85345E-04 12307   0.658E-02    0.417E-02
RMM:   5    -0.653555274984E+03    0.22196E-05   -0.29547E-04 11014   0.348E-02    0.294E-02
RMM:   6    -0.653555273437E+03    0.15475E-05   -0.13313E-04  8968   0.251E-02    0.154E-02
RMM:   7    -0.653555277588E+03   -0.41515E-05   -0.63789E-05  7032   0.189E-02
  20 F= -.65355528E+03 E0= -.65351483E+03  d E =-.423895E-02
 curvature:  -0.85 expect dE=-0.849E-02 dE for cont linesearch -0.116E-04
 trial: gam= 1.71309 g(F)=  0.352E-02 g(S)=  0.643E-02 ort = 0.517E-03 (trialstep = 0.224E+00)
 search vector abs. value=  0.696E-01
 bond charge predicted
       N       E                     dE             d eps       ncg     rms          rms(c)
DAV:   1    -0.653550489000E+03    0.47844E-02   -0.55759E-01  9072   0.209E+00    0.157E-01
RMM:   2    -0.653556510691E+03   -0.60217E-02   -0.66605E-02 13054   0.641E-01    0.937E-02
RMM:   3    -0.653557339609E+03   -0.82892E-03   -0.88097E-03 12653   0.194E-01    0.650E-02
RMM:   4    -0.653557362961E+03   -0.23351E-04   -0.10886E-03 12420   0.728E-02    0.425E-02
RMM:   5    -0.653557375723E+03   -0.12763E-04   -0.39513E-04 10917   0.365E-02    0.386E-02
RMM:   6    -0.653557366062E+03    0.96610E-05   -0.22132E-04  9559   0.293E-02    0.134E-02
RMM:   7    -0.653557373894E+03   -0.78318E-05   -0.96197E-05  7550   0.184E-02
  21 F= -.65355737E+03 E0= -.65351704E+03  d E =-.209631E-02
 trial-energy change:   -0.002096  1 .order   -0.002102   -0.002427   -0.001778
 step:   0.8379(harm=  0.8379)  dis= 0.00831  next Energy=  -653.559817 (dE=-0.454E-02)
 bond charge predicted
       N       E                     dE             d eps       ncg     rms          rms(c)
DAV:   1    -0.653508580112E+03    0.48786E-01   -0.41983E+00  8876   0.570E+00    0.431E-01
RMM:   2    -0.653553986899E+03   -0.45407E-01   -0.50322E-01 13036   0.175E+00    0.254E-01
RMM:   3    -0.653560613518E+03   -0.66266E-02   -0.68935E-02 12769   0.536E-01    0.180E-01
RMM:   4    -0.653560792592E+03   -0.17907E-03   -0.86060E-03 12842   0.199E-01    0.117E-01
RMM:   5    -0.653560897514E+03   -0.10492E-03   -0.33281E-03 12252   0.984E-02    0.105E-01
RMM:   6    -0.653560837605E+03    0.59909E-04   -0.17351E-03 10814   0.723E-02    0.404E-02
RMM:   7    -0.653560896580E+03   -0.58974E-04   -0.79640E-04 11353   0.415E-02    0.241E-02
RMM:   8    -0.653560914771E+03   -0.18191E-04   -0.35552E-04  9330   0.268E-02    0.154E-02
RMM:   9    -0.653560934734E+03   -0.19964E-04   -0.23641E-04  7585   0.190E-02    0.103E-02
RMM:  10    -0.653560946429E+03   -0.11694E-04   -0.12421E-04  6560   0.168E-02    0.549E-03
RMM:  11    -0.653560954273E+03   -0.78439E-05   -0.78349E-05  6269   0.114E-02
  22 F= -.65356095E+03 E0= -.65352098E+03  d E =-.567668E-02
 curvature:  -2.69 expect dE=-0.140E-01 dE for cont linesearch -0.247E-03
 ZBRENT: extrapolating
 opt :   1.1250  next Energy=  -653.561317 (dE=-0.604E-02)
 bond charge predicted
       N       E                     dE             d eps       ncg     rms          rms(c)
DAV:   1    -0.653550028857E+03    0.10918E-01   -0.91918E-01  9296   0.266E+00    0.202E-01
RMM:   2    -0.653559987294E+03   -0.99584E-02   -0.11023E-01 13023   0.817E-01    0.121E-01
RMM:   3    -0.653561382763E+03   -0.13955E-02   -0.14892E-02 12712   0.248E-01    0.837E-02
RMM:   4    -0.653561432753E+03   -0.49990E-04   -0.19322E-03 12638   0.934E-02    0.546E-02
RMM:   5    -0.653561463024E+03   -0.30271E-04   -0.76848E-04 11387   0.472E-02    0.498E-02
RMM:   6    -0.653561453247E+03    0.97769E-05   -0.40795E-04 10093   0.370E-02    0.182E-02
RMM:   7    -0.653561469764E+03   -0.16517E-04   -0.20226E-04  8445   0.212E-02    0.108E-02
RMM:   8    -0.653561474988E+03   -0.52236E-05   -0.90050E-05  6579   0.176E-02
  23 F= -.65356147E+03 E0= -.65352168E+03  d E =-.619740E-02
 curvature:  -3.95 expect dE=-0.281E-01 dE for cont linesearch -0.513E-05
 trial: gam= 0.56654 g(F)=  0.693E-02 g(S)=  0.185E-03 ort =-0.301E-03 (trialstep = 0.404E+00)
 search vector abs. value=  0.291E-01
 bond charge predicted
       N       E                     dE             d eps       ncg     rms          rms(c)
DAV:   1    -0.653553747739E+03    0.77220E-02   -0.76165E-01  9576   0.244E+00    0.172E-01
RMM:   2    -0.653562819766E+03   -0.90720E-02   -0.98050E-02 12995   0.758E-01    0.109E-01
RMM:   3    -0.653563996097E+03   -0.11763E-02   -0.12343E-02 12588   0.221E-01    0.727E-02
RMM:   4    -0.653564054533E+03   -0.58436E-04   -0.15788E-03 12360   0.830E-02    0.497E-02
RMM:   5    -0.653564072920E+03   -0.18388E-04   -0.60271E-04 11097   0.422E-02    0.428E-02
RMM:   6    -0.653564068180E+03    0.47404E-05   -0.33357E-04  9921   0.338E-02    0.178E-02
RMM:   7    -0.653564079803E+03   -0.11623E-04   -0.16026E-04  8144   0.197E-02    0.101E-02
RMM:   8    -0.653564082825E+03   -0.30219E-05   -0.72251E-05  6486   0.164E-02
  24 F= -.65356408E+03 E0= -.65352448E+03  d E =-.260784E-02
 trial-energy change:   -0.002608  1 .order   -0.002425   -0.002806   -0.002044
 step:   1.4888(harm=  1.4888)  dis= 0.01240  next Energy=  -653.566643 (dE=-0.517E-02)
 bond charge predicted
       N       E                     dE             d eps       ncg     rms          rms(c)
DAV:   1    -0.653492814706E+03    0.71265E-01   -0.54820E+00  9016   0.655E+00    0.459E-01
RMM:   2    -0.653557759528E+03   -0.64945E-01   -0.70349E-01 12980   0.204E+00    0.287E-01
RMM:   3    -0.653566606407E+03   -0.88469E-02   -0.90726E-02 12633   0.594E-01    0.195E-01
RMM:   4    -0.653566996565E+03   -0.39016E-03   -0.11351E-02 12778   0.222E-01    0.133E-01
RMM:   5    -0.653567081957E+03   -0.85391E-04   -0.41731E-03 12018   0.110E-01    0.111E-01
RMM:   6    -0.653567047550E+03    0.34407E-04   -0.22208E-03 10836   0.803E-02    0.485E-02
RMM:   7    -0.653567112376E+03   -0.64827E-04   -0.99253E-04 11597   0.455E-02    0.279E-02
RMM:   8    -0.653567130831E+03   -0.18454E-04   -0.45277E-04  9763   0.285E-02    0.166E-02
RMM:   9    -0.653567155011E+03   -0.24180E-04   -0.29865E-04  8037   0.205E-02    0.111E-02
RMM:  10    -0.653567168108E+03   -0.13097E-04   -0.14841E-04  6756   0.183E-02    0.585E-03
RMM:  11    -0.653567178028E+03   -0.99203E-05   -0.10062E-04  6308   0.113E-02    0.436E-03
RMM:  12    -0.653567183340E+03   -0.53120E-05   -0.55472E-05  6162   0.958E-03
  25 F= -.65356718E+03 E0= -.65352790E+03  d E =-.570835E-02
 curvature:  -3.12 expect dE=-0.144E-01 dE for cont linesearch -0.755E-05
 trial: gam= 0.54730 g(F)=  0.379E-02 g(S)=  0.821E-03 ort =-0.265E-03 (trialstep = 0.621E+00)
 search vector abs. value=  0.130E-01
 bond charge predicted
       N       E                     dE             d eps       ncg     rms          rms(c)
DAV:   1    -0.653559400312E+03    0.77777E-02   -0.79632E-01  9632   0.257E+00    0.272E-01
RMM:   2    -0.653567939295E+03   -0.85390E-02   -0.10960E-01 12820   0.821E-01    0.157E-01
RMM:   3    -0.653569320977E+03   -0.13817E-02   -0.17116E-02 12856   0.274E-01    0.111E-01
RMM:   4    -0.653569293479E+03    0.27498E-04   -0.24866E-03 12520   0.107E-01    0.705E-02
RMM:   5    -0.653569282696E+03    0.10783E-04   -0.92294E-04 11596   0.578E-02    0.474E-02
RMM:   6    -0.653569262755E+03    0.19941E-04   -0.46136E-04 10915   0.380E-02    0.231E-02
RMM:   7    -0.653569271361E+03   -0.86063E-05   -0.20351E-04  9217   0.248E-02    0.131E-02
RMM:   8    -0.653569277250E+03   -0.58885E-05   -0.10363E-04  6975   0.186E-02    0.871E-03
RMM:   9    -0.653569280992E+03   -0.37428E-05   -0.57443E-05  6294   0.117E-02
  26 F= -.65356928E+03 E0= -.65352994E+03  d E =-.209765E-02
 trial-energy change:   -0.002098  1 .order   -0.001939   -0.002775   -0.001102
 step:   0.8510(harm=  1.0304)  dis= 0.00524  next Energy=  -653.569493 (dE=-0.231E-02)
 bond charge predicted
       N       E                     dE             d eps       ncg     rms          rms(c)
DAV:   1    -0.653568276395E+03    0.10009E-02   -0.10942E-01 10472   0.951E-01    0.101E-01
RMM:   2    -0.653569470727E+03   -0.11943E-02   -0.15161E-02 12805   0.306E-01    0.593E-02
RMM:   3    -0.653569655512E+03   -0.18479E-03   -0.23813E-03 12584   0.102E-01    0.414E-02
RMM:   4    -0.653569653533E+03    0.19794E-05   -0.37082E-04 11213   0.413E-02    0.266E-02
RMM:   5    -0.653569652061E+03    0.14718E-05   -0.14998E-04  8926   0.252E-02    0.177E-02
RMM:   6    -0.653569647702E+03    0.43596E-05   -0.73647E-05  7231   0.189E-02
  27 F= -.65356965E+03 E0= -.65353027E+03  d E =-.246436E-02
 curvature:  -1.21 expect dE=-0.404E-02 dE for cont linesearch -0.772E-04
 ZBRENT: increasing intervall
 opt :   1.3108  next Energy=  -653.569669 (dE=-0.249E-02)
 bond charge predicted
       N       E                     dE             d eps       ncg     rms          rms(c)
DAV:   1    -0.653564278011E+03    0.53741E-02   -0.43664E-01  9632   0.190E+00    0.203E-01
RMM:   2    -0.653568981486E+03   -0.47035E-02   -0.60517E-02 12831   0.611E-01    0.117E-01
RMM:   3    -0.653569736132E+03   -0.75465E-03   -0.94170E-03 12847   0.203E-01    0.838E-02
RMM:   4    -0.653569720986E+03    0.15146E-04   -0.13649E-03 12437   0.793E-02    0.536E-02
RMM:   5    -0.653569714488E+03    0.64987E-05   -0.51429E-04 11157   0.435E-02    0.370E-02
RMM:   6    -0.653569701965E+03    0.12523E-04   -0.26422E-04 10111   0.296E-02    0.190E-02
RMM:   7    -0.653569706176E+03   -0.42119E-05   -0.12305E-04  8043   0.214E-02    0.101E-02
RMM:   8    -0.653569709121E+03   -0.29443E-05   -0.60886E-05  6422   0.156E-02
  28 F= -.65356971E+03 E0= -.65353024E+03  d E =-.252578E-02
 curvature:  -0.33 expect dE=-0.251E-02 dE for cont linesearch -0.327E-04
 ZBRENT: bracketing found
 ZBRENT: interpolating
 opt :   1.0553  next Energy=  -653.569741 (dE=-0.256E-02)
 bond charge predicted
       N       E                     dE             d eps       ncg     rms          rms(c)
DAV:   1    -0.653568148562E+03    0.15576E-02   -0.13439E-01  9800   0.106E+00    0.112E-01
RMM:   2    -0.653569577567E+03   -0.14290E-02   -0.18506E-02 12768   0.337E-01    0.655E-02
RMM:   3    -0.653569790564E+03   -0.21300E-03   -0.27594E-03 12599   0.112E-01    0.453E-02
RMM:   4    -0.653569785581E+03    0.49829E-05   -0.38856E-04 11369   0.445E-02    0.289E-02
RMM:   5    -0.653569784481E+03    0.10996E-05   -0.13405E-04  9212   0.262E-02    0.187E-02
RMM:   6    -0.653569784279E+03    0.20240E-06   -0.61750E-05  7269   0.191E-02
  29 F= -.65356978E+03 E0= -.65353037E+03  d E =-.260094E-02
 curvature:  -0.94 expect dE=-0.483E-02 dE for cont linesearch -0.759E-05
 trial: gam= 1.03318 g(F)=  0.181E-02 g(S)=  0.335E-02 ort = 0.325E-03 (trialstep = 0.467E+00)
 search vector abs. value=  0.198E-01
 bond charge predicted
       N       E                     dE             d eps       ncg     rms          rms(c)
DAV:   1    -0.653562855958E+03    0.69285E-02   -0.68132E-01  9296   0.241E+00    0.247E-01
RMM:   2    -0.653570519535E+03   -0.76636E-02   -0.94105E-02 12769   0.768E-01    0.149E-01
RMM:   3    -0.653571517385E+03   -0.99785E-03   -0.13289E-02 12911   0.254E-01    0.100E-01
RMM:   4    -0.653571465613E+03    0.51772E-04   -0.17966E-03 12372   0.943E-02    0.536E-02
RMM:   5    -0.653571475880E+03   -0.10267E-04   -0.71184E-04 11396   0.520E-02    0.422E-02
RMM:   6    -0.653571470434E+03    0.54460E-05   -0.30363E-04 10486   0.351E-02    0.147E-02
RMM:   7    -0.653571484652E+03   -0.14217E-04   -0.14513E-04  8275   0.226E-02    0.101E-02
RMM:   8    -0.653571490686E+03   -0.60345E-05   -0.67064E-05  6640   0.163E-02
  30 F= -.65357149E+03 E0= -.65353204E+03  d E =-.170641E-02
 trial-energy change:   -0.001706  1 .order   -0.001688   -0.002569   -0.000807
 step:   0.6814(harm=  0.6814)  dis= 0.00499  next Energy=  -653.571656 (dE=-0.187E-02)
 bond charge predicted
       N       E                     dE             d eps       ncg     rms          rms(c)
DAV:   1    -0.653569916308E+03    0.15683E-02   -0.14349E-01  9800   0.110E+00    0.112E-01
RMM:   2    -0.653571554306E+03   -0.16380E-02   -0.19943E-02 12782   0.352E-01    0.686E-02
RMM:   3    -0.653571777060E+03   -0.22275E-03   -0.29081E-03 12748   0.117E-01    0.462E-02
RMM:   4    -0.653571773393E+03    0.36668E-05   -0.42155E-04 11490   0.448E-02    0.265E-02
RMM:   5    -0.653571781666E+03   -0.82732E-05   -0.17947E-04  9663   0.266E-02    0.232E-02
RMM:   6    -0.653571781582E+03    0.83892E-07   -0.87547E-05  7709   0.212E-02
  31 F= -.65357178E+03 E0= -.65353231E+03  d E =-.199730E-02
 curvature:  -1.22 expect dE=-0.214E-02 dE for cont linesearch -0.109E-04
 ZBRENT: extrapolating
 opt :   0.7501  next Energy=  -653.571796 (dE=-0.201E-02)
 bond charge predicted
       N       E                     dE             d eps       ncg     rms          rms(c)
DAV:   1    -0.653571614356E+03    0.16731E-03   -0.14886E-02 10724   0.354E-01    0.376E-02
RMM:   2    -0.653571790062E+03   -0.17571E-03   -0.21513E-03 12596   0.116E-01    0.234E-02
RMM:   3    -0.653571813043E+03   -0.22982E-04   -0.31941E-04 11159   0.399E-02    0.157E-02
RMM:   4    -0.653571815531E+03   -0.24881E-05   -0.63088E-05  6795   0.194E-02
  32 F= -.65357182E+03 E0= -.65353233E+03  d E =-.203125E-02
 curvature:  -1.62 expect dE=-0.323E-02 dE for cont linesearch -0.696E-06
 trial: gam= 0.36111 g(F)=  0.180E-02 g(S)=  0.200E-03 ort =-0.922E-04 (trialstep = 0.524E+00)
 search vector abs. value=  0.450E-02
 bond charge predicted
       N       E                     dE             d eps       ncg     rms          rms(c)
DAV:   1    -0.653570191546E+03    0.16215E-02   -0.19702E-01  9016   0.129E+00    0.972E-02
RMM:   2    -0.653572469846E+03   -0.22783E-02   -0.25287E-02 13141   0.409E-01    0.662E-02
RMM:   3    -0.653572731140E+03   -0.26129E-03   -0.31679E-03 12650   0.121E-01    0.450E-02
RMM:   4    -0.653572736672E+03   -0.55323E-05   -0.43762E-04 11872   0.475E-02    0.308E-02
RMM:   5    -0.653572739595E+03   -0.29231E-05   -0.17626E-04  9586   0.244E-02    0.243E-02
RMM:   6    -0.653572733567E+03    0.60286E-05   -0.10620E-04  8216   0.212E-02    0.946E-03
RMM:   7    -0.653572735923E+03   -0.23560E-05   -0.47268E-05  6340   0.168E-02
  33 F= -.65357274E+03 E0= -.65353313E+03  d E =-.920391E-03
 trial-energy change:   -0.000920  1 .order   -0.000861   -0.001028   -0.000693
 step:   0.9049(harm=  1.6097)  dis= 0.00348  next Energy=  -653.573011 (dE=-0.120E-02)
 bond charge predicted
       N       E                     dE             d eps       ncg     rms          rms(c)
DAV:   1    -0.653571813789E+03    0.91978E-03   -0.10429E-01  9408   0.936E-01    0.714E-02
RMM:   2    -0.653573022138E+03   -0.12083E-02   -0.13522E-02 13127   0.298E-01    0.460E-02
RMM:   3    -0.653573165200E+03   -0.14306E-03   -0.17145E-03 12523   0.886E-02    0.308E-02
RMM:   4    -0.653573169665E+03   -0.44643E-05   -0.24432E-04 11004   0.353E-02    0.208E-02
RMM:   5    -0.653573172866E+03   -0.32017E-05   -0.10709E-04  7872   0.198E-02    0.174E-02
RMM:   6    -0.653573169693E+03    0.31731E-05   -0.55428E-05  6749   0.171E-02
  34 F= -.65357317E+03 E0= -.65353346E+03  d E =-.135416E-02
 curvature:  -1.07 expect dE=-0.786E-03 dE for cont linesearch -0.163E-03
 ZBRENT: increasing intervall
 opt :   1.6668  next Energy=  -653.573425 (dE=-0.161E-02)
 bond charge predicted
       N       E                     dE             d eps       ncg     rms          rms(c)
DAV:   1    -0.653568081971E+03    0.50909E-02   -0.41600E-01  8848   0.187E+00    0.143E-01
RMM:   2    -0.653572844969E+03   -0.47630E-02   -0.53424E-02 13131   0.593E-01    0.927E-02
RMM:   3    -0.653573419304E+03   -0.57433E-03   -0.68682E-03 12892   0.177E-01    0.611E-02
RMM:   4    -0.653573432311E+03   -0.13007E-04   -0.90324E-04 12390   0.656E-02    0.411E-02
RMM:   5    -0.653573441842E+03   -0.95319E-05   -0.36693E-04 10683   0.345E-02    0.349E-02
RMM:   6    -0.653573431369E+03    0.10474E-04   -0.21238E-04  9312   0.269E-02    0.142E-02
RMM:   7    -0.653573436283E+03   -0.49144E-05   -0.96473E-05  7611   0.193E-02
  35 F= -.65357344E+03 E0= -.65353353E+03  d E =-.162075E-02
 curvature:  -1.67 expect dE=-0.259E-02 dE for cont linesearch -0.292E-04
 trial: gam= 0.92835 g(F)=  0.116E-02 g(S)=  0.392E-03 ort =-0.280E-03 (trialstep = 0.690E+00)
 search vector abs. value=  0.491E-02
 bond charge predicted
       N       E                     dE             d eps       ncg     rms          rms(c)
DAV:   1    -0.653569617272E+03    0.38141E-02   -0.37327E-01  8960   0.171E+00    0.144E-01
RMM:   2    -0.653573654247E+03   -0.40370E-02   -0.46317E-02 13042   0.551E-01    0.911E-02
RMM:   3    -0.653574152219E+03   -0.49797E-03   -0.60816E-03 12911   0.168E-01    0.612E-02
RMM:   4    -0.653574152216E+03    0.26193E-08   -0.83375E-04 12312   0.624E-02    0.378E-02
RMM:   5    -0.653574154238E+03   -0.20213E-05   -0.34274E-04 10390   0.347E-02    0.290E-02
RMM:   6    -0.653574151101E+03    0.31367E-05   -0.16972E-04  9068   0.255E-02    0.121E-02
RMM:   7    -0.653574156738E+03   -0.56373E-05   -0.88171E-05  7134   0.189E-02
  36 F= -.65357416E+03 E0= -.65353408E+03  d E =-.720455E-03
 trial-energy change:   -0.000720  1 .order   -0.000623   -0.000890   -0.000355
 step:   0.8811(harm=  1.1480)  dis= 0.00423  next Energy=  -653.574208 (dE=-0.772E-03)
 bond charge predicted
       N       E                     dE             d eps       ncg     rms          rms(c)
DAV:   1    -0.653573912140E+03    0.23896E-03   -0.28885E-02 10192   0.476E-01    0.402E-02
RMM:   2    -0.653574233362E+03   -0.32122E-03   -0.36584E-03 12937   0.154E-01    0.258E-02
RMM:   3    -0.653574271419E+03   -0.38057E-04   -0.50310E-04 11906   0.491E-02    0.177E-02
RMM:   4    -0.653574274308E+03   -0.28891E-05   -0.93920E-05  7728   0.221E-02
  37 F= -.65357427E+03 E0= -.65353416E+03  d E =-.838025E-03
 curvature:  -1.44 expect dE=-0.980E-03 dE for cont linesearch -0.185E-04
 ZBRENT: increasing intervall
 opt :   1.2632  next Energy=  -653.574269 (dE=-0.833E-03)
 bond charge predicted
       N       E                     dE             d eps       ncg     rms          rms(c)
DAV:   1    -0.653572983615E+03    0.12878E-02   -0.11449E-01  9072   0.948E-01    0.810E-02
RMM:   2    -0.653574231016E+03   -0.12474E-02   -0.14225E-02 13054   0.306E-01    0.538E-02
RMM:   3    -0.653574378823E+03   -0.14781E-03   -0.18967E-03 12603   0.941E-02    0.369E-02
RMM:   4    -0.653574378391E+03    0.43178E-06   -0.27620E-04 11230   0.373E-02    0.226E-02
RMM:   5    -0.653574380637E+03   -0.22460E-05   -0.12210E-04  8375   0.218E-02    0.193E-02
RMM:   6    -0.653574377975E+03    0.26621E-05   -0.58083E-05  6888   0.181E-02
  38 F= -.65357438E+03 E0= -.65353416E+03  d E =-.941692E-03
 curvature:   0.39 expect dE= 0.302E-03 dE for cont linesearch  0.428E-08
 trial: gam= 0.23445 g(F)=  0.689E-03 g(S)=  0.907E-04 ort =-0.737E-05 (trialstep = 0.805E+00)
 search vector abs. value=  0.105E-02
 bond charge predicted
       N       E                     dE             d eps       ncg     rms          rms(c)
DAV:   1    -0.653573532230E+03    0.84841E-03   -0.10675E-01  9576   0.977E-01    0.951E-02
RMM:   2    -0.653574690630E+03   -0.11584E-02   -0.14052E-02 12913   0.313E-01    0.623E-02
RMM:   3    -0.653574828294E+03   -0.13766E-03   -0.19207E-03 12919   0.101E-01    0.453E-02
RMM:   4    -0.653574821031E+03    0.72636E-05   -0.32652E-04 11448   0.410E-02    0.253E-02
RMM:   5    -0.653574825131E+03   -0.40999E-05   -0.14072E-04  8938   0.239E-02    0.204E-02
RMM:   6    -0.653574824519E+03    0.61216E-06   -0.67639E-05  7163   0.201E-02
  39 F= -.65357482E+03 E0= -.65353458E+03  d E =-.446544E-03
 trial-energy change:   -0.000447  1 .order   -0.000424   -0.000626   -0.000221
 step:   1.2447(harm=  1.2447)  dis= 0.00185  next Energy=  -653.574862 (dE=-0.484E-03)
 bond charge predicted
       N       E                     dE             d eps       ncg     rms          rms(c)
DAV:   1    -0.653574504996E+03    0.32013E-03   -0.31924E-02  9856   0.534E-01    0.527E-02
RMM:   2    -0.653574861021E+03   -0.35602E-03   -0.43010E-03 12852   0.173E-01    0.345E-02
RMM:   3    -0.653574904327E+03   -0.43306E-04   -0.60456E-04 12570   0.569E-02    0.252E-02
RMM:   4    -0.653574905975E+03   -0.16477E-05   -0.12143E-04  8756   0.248E-02    0.144E-02
RMM:   5    -0.653574908107E+03   -0.21320E-05   -0.52337E-05  6544   0.169E-02
  40 F= -.65357491E+03 E0= -.65353465E+03  d E =-.530132E-03
 curvature:  -0.84 expect dE=-0.507E-03 dE for cont linesearch -0.140E-07
 trial: gam= 0.77554 g(F)=  0.323E-03 g(S)=  0.283E-03 ort = 0.418E-05 (trialstep = 0.752E+00)
 search vector abs. value=  0.124E-02
 bond charge predicted
       N       E                     dE             d eps       ncg     rms          rms(c)
DAV:   1    -0.653574335201E+03    0.57077E-03   -0.10786E-01  9352   0.101E+00    0.133E-01
RMM:   2    -0.653575143672E+03   -0.80847E-03   -0.13970E-02 12705   0.324E-01    0.714E-02
RMM:   3    -0.653575276599E+03   -0.13293E-03   -0.23781E-03 12925   0.113E-01    0.500E-02
RMM:   4    -0.653575246978E+03    0.29621E-04   -0.39473E-04 11592   0.461E-02    0.279E-02
RMM:   5    -0.653575241483E+03    0.54949E-05   -0.15884E-04  9936   0.277E-02    0.191E-02
RMM:   6    -0.653575235466E+03    0.60169E-05   -0.67928E-05  7361   0.201E-02
  41 F= -.65357524E+03 E0= -.65353489E+03  d E =-.327359E-03
 trial-energy change:   -0.000327  1 .order   -0.000259   -0.000458   -0.000060
 step:   0.8063(harm=  0.8661)  dis= 0.00130  next Energy=  -653.575238 (dE=-0.330E-03)
 bond charge predicted
       N       E                     dE             d eps       ncg     rms          rms(c)
DAV:   1    -0.653575240035E+03    0.14482E-05   -0.62152E-04 10752   0.748E-02    0.116E-02
RMM:   2    -0.653575247482E+03   -0.74475E-05   -0.11087E-04  9135   0.264E-02    0.101E-02
RMM:   3    -0.653575245249E+03    0.22337E-05   -0.17060E-05  5643   0.138E-02
  42 F= -.65357525E+03 E0= -.65353490E+03  d E =-.337142E-03
 curvature:  -0.64 expect dE=-0.213E-03 dE for cont linesearch -0.107E-05
 trial: gam= 0.50366 g(F)=  0.183E-03 g(S)=  0.150E-03 ort = 0.455E-04 (trialstep = 0.763E+00)
 search vector abs. value=  0.694E-03
 bond charge predicted
       N       E                     dE             d eps       ncg     rms          rms(c)
DAV:   1    -0.653574749904E+03    0.49758E-03   -0.61894E-02  9296   0.746E-01    0.712E-02
RMM:   2    -0.653575391359E+03   -0.64145E-03   -0.77514E-03 12701   0.235E-01    0.481E-02
RMM:   3    -0.653575472802E+03   -0.81443E-04   -0.11388E-03 12854   0.763E-02    0.338E-02
RMM:   4    -0.653575464238E+03    0.85641E-05   -0.17211E-04 10313   0.300E-02    0.191E-02
RMM:   5    -0.653575465646E+03   -0.14081E-05   -0.76245E-05  7469   0.199E-02
  43 F= -.65357547E+03 E0= -.65353510E+03  d E =-.220397E-03
 trial-energy change:   -0.000220  1 .order   -0.000197   -0.000271   -0.000123
 step:   1.3940(harm=  1.3940)  dis= 0.00209  next Energy=  -653.575493 (dE=-0.248E-03)
 bond charge predicted
       N       E                     dE             d eps       ncg     rms          rms(c)
DAV:   1    -0.653575031298E+03    0.43294E-03   -0.42040E-02  9632   0.613E-01    0.602E-02
RMM:   2    -0.653575473237E+03   -0.44194E-03   -0.53480E-03 12714   0.195E-01    0.419E-02
RMM:   3    -0.653575527032E+03   -0.53795E-04   -0.80548E-04 12730   0.635E-02    0.279E-02
RMM:   4    -0.653575523926E+03    0.31059E-05   -0.14286E-04  9089   0.259E-02    0.153E-02
RMM:   5    -0.653575526328E+03   -0.24024E-05   -0.61425E-05  6823   0.187E-02
  44 F= -.65357553E+03 E0= -.65353514E+03  d E =-.281080E-03
 curvature:  -1.36 expect dE=-0.253E-03 dE for cont linesearch -0.417E-06
 trial: gam= 0.70344 g(F)=  0.165E-03 g(S)=  0.205E-04 ort =-0.146E-04 (trialstep = 0.889E+00)
 search vector abs. value=  0.509E-03
 bond charge predicted
       N       E                     dE             d eps       ncg     rms          rms(c)
DAV:   1    -0.653574729785E+03    0.79414E-03   -0.64888E-02  9352   0.771E-01    0.529E-02
RMM:   2    -0.653575561458E+03   -0.83167E-03   -0.89559E-03 12979   0.243E-01    0.361E-02
RMM:   3    -0.653575664688E+03   -0.10323E-03   -0.11979E-03 12386   0.727E-02    0.226E-02
RMM:   4    -0.653575671395E+03   -0.67068E-05   -0.16150E-04  9729   0.288E-02    0.152E-02
RMM:   5    -0.653575673890E+03   -0.24948E-05   -0.70616E-05  7001   0.178E-02
  45 F= -.65357567E+03 E0= -.65353525E+03  d E =-.147562E-03
 trial-energy change:   -0.000148  1 .order   -0.000108   -0.000156   -0.000059
 step:   1.4357(harm=  1.4357)  dis= 0.00237  next Energy=  -653.575652 (dE=-0.126E-03)
 bond charge predicted
       N       E                     dE             d eps       ncg     rms          rms(c)
DAV:   1    -0.653575361454E+03    0.30994E-03   -0.24344E-02  9744   0.472E-01    0.339E-02
RMM:   2    -0.653575675967E+03   -0.31451E-03   -0.34171E-03 12843   0.150E-01    0.236E-02
RMM:   3    -0.653575714939E+03   -0.38971E-04   -0.48032E-04 11733   0.465E-02    0.143E-02
RMM:   4    -0.653575719256E+03   -0.43176E-05   -0.81534E-05  7260   0.205E-02
  46 F= -.65357572E+03 E0= -.65353527E+03  d E =-.192928E-03
 curvature:  -2.08 expect dE=-0.260E-03 dE for cont linesearch -0.155E-05
 trial: gam= 0.49259 g(F)=  0.812E-04 g(S)=  0.440E-04 ort =-0.195E-04 (trialstep = 0.998E+00)
 search vector abs. value=  0.229E-03
 bond charge predicted
       N       E                     dE             d eps       ncg     rms          rms(c)
DAV:   1    -0.653575562009E+03    0.15293E-03   -0.35858E-02  9464   0.546E-01    0.760E-02
RMM:   2    -0.653575795021E+03   -0.23301E-03   -0.41421E-03 12532   0.174E-01    0.434E-02
RMM:   3    -0.653575834389E+03   -0.39369E-04   -0.74779E-04 12523   0.629E-02    0.348E-02
RMM:   4    -0.653575819184E+03    0.15205E-04   -0.14143E-04  9555   0.287E-02    0.201E-02
RMM:   5    -0.653575814985E+03    0.41988E-05   -0.64057E-05  6980   0.185E-02
  47 F= -.65357581E+03 E0= -.65353532E+03  d E =-.957289E-04
 trial-energy change:   -0.000096  1 .order   -0.000059   -0.000115   -0.000002
 step:   1.0173(harm=  1.0173)  dis= 0.00100  next Energy=  -653.575778 (dE=-0.588E-04)
 reached required accuracy - stopping structural energy minimisation
