  64  64   0   0
  0.1131763E+02  0.8958998E-09  0.9030616E-09  0.8952829E-09  0.5000000E-15
  1.000000000000000E-004
  CAR 
 HECN                                    
     13.85950252    -52.80526543  301      7.90494803      1.00000000
    -52.805  0.0000E+00  0.0000E+00
    -52.583  0.0000E+00  0.0000E+00
    -52.361  0.0000E+00  0.0000E+00
    -52.139  0.0000E+00  0.0000E+00
    -51.916  0.0000E+00  0.0000E+00
    -51.694  0.0000E+00  0.0000E+00
    -51.472  0.0000E+00  0.0000E+00
    -51.250  0.0000E+00  0.0000E+00
    -51.028  0.0000E+00  0.0000E+00
    -50.805  0.0000E+00  0.0000E+00
    -50.583  0.0000E+00  0.0000E+00
    -50.361  0.4996E-17  0.1110E-17
    -50.139  0.1217E-07  0.2705E-08
    -49.916  0.2077E-02  0.4615E-03
    -49.694  0.1232E+00  0.2784E-01
    -49.472  0.3685E+00  0.1097E+00
    -49.250  0.1359E+00  0.1399E+00
    -49.028  0.3627E-03  0.1400E+00
    -48.805  0.2164E-09  0.1400E+00
    -48.583  0.0000E+00  0.1400E+00
    -48.361  0.0000E+00  0.1400E+00
    -48.139  0.0000E+00  0.1400E+00
    -47.917  0.0000E+00  0.1400E+00
    -47.694  0.0000E+00  0.1400E+00
    -47.472  0.0000E+00  0.1400E+00
    -47.250  0.0000E+00  0.1400E+00
    -47.028  0.0000E+00  0.1400E+00
    -46.805  0.0000E+00  0.1400E+00
    -46.583  0.0000E+00  0.1400E+00
    -46.361  0.0000E+00  0.1400E+00
    -46.139  0.0000E+00  0.1400E+00
    -45.917  0.0000E+00  0.1400E+00
    -45.694  0.0000E+00  0.1400E+00
    -45.472  0.0000E+00  0.1400E+00
    -45.250  0.0000E+00  0.1400E+00
    -45.028  0.0000E+00  0.1400E+00
    -44.805  0.0000E+00  0.1400E+00
    -44.583  0.0000E+00  0.1400E+00
    -44.361  0.0000E+00  0.1400E+00
    -44.139  0.0000E+00  0.1400E+00
    -43.917  0.0000E+00  0.1400E+00
    -43.694  0.0000E+00  0.1400E+00
    -43.472  0.0000E+00  0.1400E+00
    -43.250  0.0000E+00  0.1400E+00
    -43.028  0.0000E+00  0.1400E+00
    -42.806  0.0000E+00  0.1400E+00
    -42.583  0.0000E+00  0.1400E+00
    -42.361  0.0000E+00  0.1400E+00
    -42.139  0.0000E+00  0.1400E+00
    -41.917  0.4990E-08  0.1400E+00
    -41.694  0.1367E-02  0.1403E+00
    -41.472  0.8075E-01  0.1582E+00
    -41.250  0.1182E+00  0.1845E+00
    -41.028  0.1302E+00  0.2134E+00
    -40.806  0.1994E+00  0.2577E+00
    -40.583  0.1758E-01  0.2616E+00
    -40.361  0.7902E-01  0.2792E+00
    -40.139  0.3594E-02  0.2800E+00
    -39.917  0.4443E-07  0.2800E+00
    -39.695  0.3997E-16  0.2800E+00
    -39.472  0.0000E+00  0.2800E+00
    -39.250  0.0000E+00  0.2800E+00
    -39.028  0.0000E+00  0.2800E+00
    -38.806  0.0000E+00  0.2800E+00
    -38.583  0.0000E+00  0.2800E+00
    -38.361  0.0000E+00  0.2800E+00
    -38.139  0.0000E+00  0.2800E+00
    -37.917  0.0000E+00  0.2800E+00
    -37.695  0.0000E+00  0.2800E+00
    -37.472  0.0000E+00  0.2800E+00
    -37.250  0.0000E+00  0.2800E+00
    -37.028  0.0000E+00  0.2800E+00
    -36.806  0.0000E+00  0.2800E+00
    -36.584  0.0000E+00  0.2800E+00
    -36.361  0.0000E+00  0.2800E+00
    -36.139  0.0000E+00  0.2800E+00
    -35.917  0.0000E+00  0.2800E+00
    -35.695  0.0000E+00  0.2800E+00
    -35.472  0.0000E+00  0.2800E+00
    -35.250  0.0000E+00  0.2800E+00
    -35.028  0.0000E+00  0.2800E+00
    -34.806  0.0000E+00  0.2800E+00
    -34.584  0.0000E+00  0.2800E+00
    -34.361  0.0000E+00  0.2800E+00
    -34.139  0.0000E+00  0.2800E+00
    -33.917  0.0000E+00  0.2800E+00
    -33.695  0.0000E+00  0.2800E+00
    -33.472  0.0000E+00  0.2800E+00
    -33.250  0.0000E+00  0.2800E+00
    -33.028  0.0000E+00  0.2800E+00
    -32.806  0.0000E+00  0.2800E+00
    -32.584  0.0000E+00  0.2800E+00
    -32.361  0.0000E+00  0.2800E+00
    -32.139  0.4996E-17  0.2800E+00
    -31.917  0.1028E-07  0.2800E+00
    -31.695  0.2241E-02  0.2805E+00
    -31.473  0.2431E+00  0.3345E+00
    -31.250  0.9704E+00  0.5502E+00
    -31.028  0.4029E+00  0.6397E+00
    -30.806  0.1322E-02  0.6400E+00
    -30.584  0.1173E-08  0.6400E+00
    -30.361  0.0000E+00  0.6400E+00
    -30.139  0.0000E+00  0.6400E+00
    -29.917  0.0000E+00  0.6400E+00
    -29.695  0.0000E+00  0.6400E+00
    -29.473  0.0000E+00  0.6400E+00
    -29.250  0.0000E+00  0.6400E+00
    -29.028  0.0000E+00  0.6400E+00
    -28.806  0.0000E+00  0.6400E+00
    -28.584  0.0000E+00  0.6400E+00
    -28.362  0.2933E-15  0.6400E+00
    -28.139  0.1504E-06  0.6400E+00
    -27.917  0.7043E-02  0.6416E+00
    -27.695  0.2845E+00  0.7048E+00
    -27.473  0.4788E+00  0.8112E+00
    -27.250  0.5076E+00  0.9240E+00
    -27.028  0.2598E+00  0.9817E+00
    -26.806  0.8218E-01  0.1000E+01
    -26.584  0.1245E-03  0.1000E+01
    -26.362  0.2597E-02  0.1001E+01
    -26.139  0.1762E+00  0.1040E+01
    -25.917  0.8787E+00  0.1235E+01
    -25.695  0.7903E+00  0.1411E+01
    -25.473  0.4222E-01  0.1420E+01
    -25.250  0.1093E-04  0.1420E+01
    -25.028  0.4206E-12  0.1420E+01
    -24.806  0.0000E+00  0.1420E+01
    -24.584  0.0000E+00  0.1420E+01
    -24.362  0.0000E+00  0.1420E+01
    -24.139  0.0000E+00  0.1420E+01
    -23.917  0.7625E-12  0.1420E+01
    -23.695  0.1503E-04  0.1420E+01
    -23.473  0.3194E-01  0.1427E+01
    -23.251  0.3265E+00  0.1500E+01
    -23.028  0.4103E+00  0.1591E+01
    -22.806  0.9312E-01  0.1612E+01
    -22.584  0.5270E+00  0.1729E+01
    -22.362  0.2297E+00  0.1780E+01
    -22.139  0.1492E-02  0.1780E+01
    -21.917  0.2483E-08  0.1780E+01
    -21.695  0.0000E+00  0.1780E+01
    -21.473  0.0000E+00  0.1780E+01
    -21.251  0.0000E+00  0.1780E+01
    -21.028  0.0000E+00  0.1780E+01
    -20.806  0.0000E+00  0.1780E+01
    -20.584  0.0000E+00  0.1780E+01
    -20.362  0.3685E-09  0.1780E+01
    -20.140  0.5094E-03  0.1780E+01
    -19.917  0.1318E+00  0.1809E+01
    -19.695  0.2754E+00  0.1871E+01
    -19.473  0.3385E+00  0.1946E+01
    -19.251  0.4869E+00  0.2054E+01
    -19.028  0.3772E+00  0.2138E+01
    -18.806  0.1265E+00  0.2166E+01
    -18.584  0.1518E+00  0.2200E+01
    -18.362  0.1470E-02  0.2200E+01
    -18.140  0.2830E-08  0.2200E+01
    -17.917  0.0000E+00  0.2200E+01
    -17.695  0.0000E+00  0.2200E+01
    -17.473  0.0000E+00  0.2200E+01
    -17.251  0.0000E+00  0.2200E+01
    -17.029  0.0000E+00  0.2200E+01
    -16.806  0.0000E+00  0.2200E+01
    -16.584  0.0000E+00  0.2200E+01
    -16.362  0.0000E+00  0.2200E+01
    -16.140  0.0000E+00  0.2200E+01
    -15.917  0.0000E+00  0.2200E+01
    -15.695  0.0000E+00  0.2200E+01
    -15.473  0.0000E+00  0.2200E+01
    -15.251  0.0000E+00  0.2200E+01
    -15.029  0.0000E+00  0.2200E+01
    -14.806  0.0000E+00  0.2200E+01
    -14.584  0.0000E+00  0.2200E+01
    -14.362  0.0000E+00  0.2200E+01
    -14.140  0.0000E+00  0.2200E+01
    -13.917  0.0000E+00  0.2200E+01
    -13.695  0.0000E+00  0.2200E+01
    -13.473  0.0000E+00  0.2200E+01
    -13.251  0.0000E+00  0.2200E+01
    -13.029  0.0000E+00  0.2200E+01
    -12.806  0.0000E+00  0.2200E+01
    -12.584  0.0000E+00  0.2200E+01
    -12.362  0.0000E+00  0.2200E+01
    -12.140  0.0000E+00  0.2200E+01
    -11.918  0.0000E+00  0.2200E+01
    -11.695  0.0000E+00  0.2200E+01
    -11.473  0.0000E+00  0.2200E+01
    -11.251  0.0000E+00  0.2200E+01
    -11.029  0.0000E+00  0.2200E+01
    -10.806  0.0000E+00  0.2200E+01
    -10.584  0.0000E+00  0.2200E+01
    -10.362  0.0000E+00  0.2200E+01
    -10.140  0.0000E+00  0.2200E+01
     -9.918  0.0000E+00  0.2200E+01
     -9.695  0.0000E+00  0.2200E+01
     -9.473  0.0000E+00  0.2200E+01
     -9.251  0.0000E+00  0.2200E+01
     -9.029  0.1295E-17  0.2200E+01
     -8.807  0.1577E-08  0.2200E+01
     -8.584  0.2034E-03  0.2200E+01
     -8.362  0.2012E-01  0.2205E+01
     -8.140  0.6081E-01  0.2218E+01
     -7.918  0.1374E-01  0.2221E+01
     -7.695  0.9261E-01  0.2242E+01
     -7.473  0.1860E+00  0.2283E+01
     -7.251  0.1883E+00  0.2325E+01
     -7.029  0.2806E+00  0.2387E+01
     -6.807  0.2310E+00  0.2439E+01
     -6.584  0.4538E-01  0.2449E+01
     -6.362  0.4686E-01  0.2459E+01
     -6.140  0.4464E-02  0.2460E+01
     -5.918  0.1975E-05  0.2460E+01
     -5.695  0.8934E-11  0.2460E+01
     -5.473  0.1747E-04  0.2460E+01
     -5.251  0.9751E-02  0.2462E+01
     -5.029  0.5978E-01  0.2475E+01
     -4.807  0.2147E-01  0.2480E+01
     -4.584  0.6600E-01  0.2495E+01
     -4.362  0.8576E-01  0.2514E+01
     -4.140  0.1305E+00  0.2543E+01
     -3.918  0.1468E+00  0.2576E+01
     -3.696  0.1919E+00  0.2618E+01
     -3.473  0.1791E+00  0.2658E+01
     -3.251  0.2054E+00  0.2704E+01
     -3.029  0.1887E+00  0.2746E+01
     -2.807  0.1736E+00  0.2784E+01
     -2.584  0.1280E+00  0.2813E+01
     -2.362  0.1002E+00  0.2835E+01
     -2.140  0.2199E-01  0.2840E+01
     -1.918  0.1198E-02  0.2840E+01
     -1.696  0.5631E-06  0.2840E+01
     -1.473  0.2886E-13  0.2840E+01
     -1.251  0.0000E+00  0.2840E+01
     -1.029  0.0000E+00  0.2840E+01
     -0.807  0.1190E-14  0.2840E+01
     -0.585  0.9564E-07  0.2840E+01
     -0.362  0.9085E-03  0.2840E+01
     -0.140  0.9641E-02  0.2842E+01
      0.082  0.4084E-01  0.2851E+01
      0.304  0.9382E-01  0.2872E+01
      0.527  0.9364E-01  0.2893E+01
      0.749  0.1222E+00  0.2920E+01
      0.971  0.1620E+00  0.2956E+01
      1.193  0.2552E+00  0.3013E+01
      1.415  0.2620E+00  0.3071E+01
      1.638  0.2416E+00  0.3125E+01
      1.860  0.2494E+00  0.3180E+01
      2.082  0.3571E+00  0.3260E+01
      2.304  0.3243E+00  0.3332E+01
      2.526  0.3888E+00  0.3418E+01
      2.749  0.5203E+00  0.3534E+01
      2.971  0.6455E+00  0.3677E+01
      3.193  0.6415E+00  0.3820E+01
      3.415  0.6201E+00  0.3957E+01
      3.638  0.5933E+00  0.4089E+01
      3.860  0.5772E+00  0.4218E+01
      4.082  0.5033E+00  0.4329E+01
      4.304  0.4236E+00  0.4424E+01
      4.526  0.3628E+00  0.4504E+01
      4.749  0.2864E+00  0.4568E+01
      4.971  0.2815E+00  0.4630E+01
      5.193  0.2346E+00  0.4683E+01
      5.415  0.1613E+00  0.4718E+01
      5.638  0.1461E+00  0.4751E+01
      5.860  0.5854E-01  0.4764E+01
      6.082  0.1115E+00  0.4789E+01
      6.304  0.1328E+00  0.4818E+01
      6.526  0.1802E+00  0.4858E+01
      6.749  0.1366E+00  0.4888E+01
      6.971  0.9784E-01  0.4910E+01
      7.193  0.1645E+00  0.4947E+01
      7.415  0.1478E+00  0.4980E+01
      7.637  0.1818E+00  0.5020E+01
      7.860  0.1783E+00  0.5060E+01
      8.082  0.2344E+00  0.5112E+01
      8.304  0.2486E+00  0.5167E+01
      8.526  0.2251E+00  0.5217E+01
      8.749  0.3028E+00  0.5284E+01
      8.971  0.3941E+00  0.5372E+01
      9.193  0.3957E+00  0.5460E+01
      9.415  0.4188E+00  0.5553E+01
      9.637  0.4520E+00  0.5653E+01
      9.860  0.4889E+00  0.5762E+01
     10.082  0.4872E+00  0.5870E+01
     10.304  0.4975E+00  0.5981E+01
     10.526  0.4482E+00  0.6080E+01
     10.748  0.3049E+00  0.6148E+01
     10.971  0.5306E-01  0.6160E+01
     11.193  0.4103E-03  0.6160E+01
     11.415  0.1666E-08  0.6160E+01
     11.637  0.0000E+00  0.6160E+01
     11.860  0.0000E+00  0.6160E+01
     12.082  0.0000E+00  0.6160E+01
     12.304  0.0000E+00  0.6160E+01
     12.526  0.0000E+00  0.6160E+01
     12.748  0.0000E+00  0.6160E+01
     12.971  0.0000E+00  0.6160E+01
     13.193  0.0000E+00  0.6160E+01
     13.415  0.0000E+00  0.6160E+01
     13.637  0.0000E+00  0.6160E+01
     13.860  0.0000E+00  0.6160E+01
