 running   28 mpi-ranks, on    1 nodes
 distrk:  each k-point on   28 cores,    1 groups
 distr:  one band on    1 cores,   28 groups
 vasp.6.4.3 19Mar24 (build Sep 18 2024 11:30:23) complex                        
  
 POSCAR found type information on POSCAR TiTaHfN C ZrW 
 POSCAR found :  7 types and      64 ions
 Reading from existing POTCAR
 scaLAPACK will be used
 -----------------------------------------------------------------------------
|                                                                             |
|           W    W    AA    RRRRR   N    N  II  N    N   GGGG   !!!           |
|           W    W   A  A   R    R  NN   N  II  NN   N  G    G  !!!           |
|           W    W  A    A  R    R  N N  N  II  N N  N  G       !!!           |
|           W WW W  AAAAAA  RRRRR   N  N N  II  N  N N  G  GGG   !            |
|           WW  WW  A    A  R   R   N   NN  II  N   NN  G    G                |
|           W    W  A    A  R    R  N    N  II  N    N   GGGG   !!!           |
|                                                                             |
|     For optimal performance we recommend to set                             |
|       NCORE = 2 up to number-of-cores-per-socket                            |
|     NCORE specifies how many cores store one orbital (NPAR=cpu/NCORE).      |
|     This setting can greatly improve the performance of VASP for DFT.       |
|     The default, NCORE=1 might be grossly inefficient on modern             |
|     multi-core architectures or massively parallel machines. Do your        |
|     own testing! More info at https://www.vasp.at/wiki/index.php/NCORE      |
|     Unfortunately you need to use the default for GW and RPA                |
|     calculations (for HF NCORE is supported but not extensively tested      |
|     yet).                                                                   |
|                                                                             |
 -----------------------------------------------------------------------------

 Reading from existing POTCAR
 -----------------------------------------------------------------------------
|                                                                             |
|               ----> ADVICE to this user running VASP <----                  |
|                                                                             |
|     You have a (more or less) 'large supercell' and for larger cells it     |
|     might be more efficient to use real-space projection operators.         |
|     Therefore, try LREAL= Auto in the INCAR file.                           |
|     Mind: If you want to do very accurate calculations, keep the            |
|     reciprocal projection scheme (i.e. LREAL=.FALSE.).                      |
|                                                                             |
 -----------------------------------------------------------------------------

 LDA part: xc-table for (Slater+PW92), standard interpolation
 POSCAR, INCAR and KPOINTS ok, starting setup
 FFT: planning ... GRIDC
 FFT: planning ... GRID_SOFT
 FFT: planning ... GRID
 WAVECAR not read
 entering main loop
       N       E                     dE             d eps       ncg     rms          rms(c)
DAV:   1     0.483632294952E+04    0.48363E+04   -0.22049E+05  8624   0.148E+03
DAV:   2    -0.475754961760E+02   -0.48839E+04   -0.47224E+04  8624   0.496E+02
DAV:   3    -0.733969059520E+03   -0.68639E+03   -0.66291E+03 12152   0.154E+02
DAV:   4    -0.791370807853E+03   -0.57402E+02   -0.56719E+02 14812   0.484E+01
DAV:   5    -0.794725743619E+03   -0.33549E+01   -0.33425E+01 13664   0.910E+00    0.594E+01
RMM:   6    -0.665046755740E+03    0.12968E+03   -0.72169E+02 12104   0.415E+01    0.165E+01
RMM:   7    -0.665128937194E+03   -0.82181E-01   -0.10121E+02 13055   0.191E+01    0.932E+00
RMM:   8    -0.666318919603E+03   -0.11900E+01   -0.26460E+01 13896   0.710E+00    0.769E+00
RMM:   9    -0.665833154694E+03    0.48576E+00   -0.56342E+00 13080   0.431E+00    0.385E+00
RMM:  10    -0.666053097132E+03   -0.21994E+00   -0.37615E+00 14207   0.272E+00    0.229E+00
RMM:  11    -0.666033372872E+03    0.19724E-01   -0.17513E+00 13822   0.201E+00    0.148E+00
RMM:  12    -0.666159902386E+03   -0.12653E+00   -0.16731E+00 14452   0.155E+00    0.153E+00
RMM:  13    -0.666215347624E+03   -0.55445E-01   -0.68964E-01 14977   0.115E+00    0.132E+00
RMM:  14    -0.666211902914E+03    0.34447E-02   -0.41948E-01 14223   0.982E-01    0.556E-01
RMM:  15    -0.666232194849E+03   -0.20292E-01   -0.31448E-01 14873   0.747E-01    0.248E-01
RMM:  16    -0.666247129726E+03   -0.14935E-01   -0.16894E-01 15530   0.541E-01    0.238E-01
RMM:  17    -0.666255274432E+03   -0.81447E-02   -0.99888E-02 15433   0.433E-01    0.157E-01
RMM:  18    -0.666261193176E+03   -0.59187E-02   -0.70743E-02 15406   0.356E-01    0.165E-01
RMM:  19    -0.666265329963E+03   -0.41368E-02   -0.46222E-02 15440   0.293E-01    0.671E-02
RMM:  20    -0.666268318817E+03   -0.29889E-02   -0.32636E-02 15561   0.246E-01    0.297E-02
RMM:  21    -0.666270456926E+03   -0.21381E-02   -0.22964E-02 15228   0.211E-01    0.167E-01
RMM:  22    -0.666271882921E+03   -0.14260E-02   -0.16012E-02 14972   0.172E-01    0.159E-01
WARNING in EDDRMM: call to ZHEGV failed, returncode =   6  3      4
RMM:  23    -0.666272991201E+03   -0.11083E-02   -0.11589E-02 14913   0.149E-01    0.246E-01
RMM:  24    -0.666273681245E+03   -0.69004E-03   -0.81551E-03 14838   0.124E-01    0.231E-01
RMM:  25    -0.666274019836E+03   -0.33859E-03   -0.53335E-03 14878   0.111E-01    0.110E-01
RMM:  26    -0.666274393066E+03   -0.37323E-03   -0.41434E-03 14669   0.893E-02    0.116E-01
RMM:  27    -0.666274636029E+03   -0.24296E-03   -0.27089E-03 14220   0.749E-02    0.126E-01
RMM:  28    -0.666274837797E+03   -0.20177E-03   -0.21144E-03 13884   0.645E-02    0.157E-01
RMM:  29    -0.666274973537E+03   -0.13574E-03   -0.14924E-03 13644   0.549E-02    0.169E-01
RMM:  30    -0.666275077086E+03   -0.10355E-03   -0.11309E-03 13306   0.476E-02    0.179E-01
RMM:  31    -0.666275155249E+03   -0.78162E-04   -0.82741E-04 12936   0.413E-02    0.190E-01
RMM:  32    -0.666275176037E+03   -0.20788E-04   -0.60444E-04 12740   0.370E-02    0.161E-01
RMM:  33    -0.666275193733E+03   -0.17696E-04   -0.49489E-04 12443   0.344E-02    0.132E-01
RMM:  34    -0.666275197481E+03   -0.37478E-05   -0.35990E-04 12197   0.315E-02    0.912E-02
RMM:  35    -0.666275209508E+03   -0.12027E-04   -0.28952E-04 11471   0.270E-02    0.625E-02
RMM:  36    -0.666275224076E+03   -0.14568E-04   -0.18190E-04  9605   0.223E-02    0.595E-02
RMM:  37    -0.666275236959E+03   -0.12882E-04   -0.15485E-04  9648   0.202E-02    0.611E-02
RMM:  38    -0.666275241783E+03   -0.48245E-05   -0.12425E-04 10326   0.209E-02    0.361E-02
WARNING in EDDRMM: call to ZHEGV failed, returncode =   8  4      7
RMM:  39    -0.666275248375E+03   -0.65920E-05   -0.11748E-04 10213   0.201E-02    0.200E-02
RMM:  40    -0.666275253331E+03   -0.49561E-05   -0.66833E-05  8547   0.172E-02
   1 F= -.66627525E+03 E0= -.66621377E+03  d E =-.666275E+03
 curvature:   0.00 expect dE= 0.000E+00 dE for cont linesearch  0.000E+00
 trial: gam= 0.00000 g(F)=  0.180E+00 g(S)=  0.652E-01 ort = 0.000E+00 (trialstep = 0.100E+01)
 search vector abs. value=  0.245E+00
 bond charge predicted
       N       E                     dE             d eps       ncg     rms          rms(c)
DAV:   1    -0.666249215535E+03    0.26033E-01   -0.38863E+01  9940   0.189E+01    0.326E+00
RMM:   2    -0.666378623268E+03   -0.12941E+00   -0.46307E+00 12801   0.573E+00    0.189E+00
RMM:   3    -0.666393162496E+03   -0.14539E-01   -0.10836E+00 13747   0.245E+00    0.159E+00
RMM:   4    -0.666362106538E+03    0.31056E-01   -0.25333E-01 13884   0.119E+00    0.842E-01
RMM:   5    -0.666354510267E+03    0.75963E-02   -0.94365E-02 14357   0.665E-01    0.531E-01
RMM:   6    -0.666353107734E+03    0.14025E-02   -0.40115E-02 15036   0.412E-01    0.278E-01
RMM:   7    -0.666353048900E+03    0.58834E-04   -0.18353E-02 15357   0.248E-01    0.100E-01
RMM:   8    -0.666354071052E+03   -0.10222E-02   -0.11890E-02 15609   0.177E-01    0.798E-02
RMM:   9    -0.666354630271E+03   -0.55922E-03   -0.67399E-03 15445   0.137E-01    0.441E-02
RMM:  10    -0.666355065173E+03   -0.43490E-03   -0.46207E-03 15399   0.110E-01    0.346E-02
RMM:  11    -0.666355353224E+03   -0.28805E-03   -0.29875E-03 15101   0.902E-02    0.244E-02
RMM:  12    -0.666355552370E+03   -0.19915E-03   -0.20289E-03 15075   0.759E-02    0.154E-02
RMM:  13    -0.666355686322E+03   -0.13395E-03   -0.14302E-03 14860   0.635E-02    0.770E-03
RMM:  14    -0.666355777213E+03   -0.90891E-04   -0.10100E-03 14621   0.538E-02    0.524E-03
RMM:  15    -0.666355843544E+03   -0.66331E-04   -0.72808E-04 14398   0.452E-02    0.445E-03
RMM:  16    -0.666355892625E+03   -0.49081E-04   -0.53621E-04 14078   0.387E-02    0.432E-03
RMM:  17    -0.666355929289E+03   -0.36664E-04   -0.40270E-04 13599   0.333E-02    0.664E-03
RMM:  18    -0.666355956686E+03   -0.27397E-04   -0.30386E-04 12575   0.293E-02    0.108E-02
RMM:  19    -0.666355976849E+03   -0.20163E-04   -0.22574E-04 11110   0.260E-02    0.120E-02
RMM:  20    -0.666355991974E+03   -0.15125E-04   -0.17576E-04 10271   0.239E-02    0.124E-02
RMM:  21    -0.666356003591E+03   -0.11617E-04   -0.14064E-04  9549   0.221E-02    0.136E-02
RMM:  22    -0.666356013116E+03   -0.95251E-05   -0.12242E-04  9527   0.212E-02    0.151E-02
RMM:  23    -0.666356020944E+03   -0.78279E-05   -0.98825E-05  8836   0.199E-02
   2 F= -.66635602E+03 E0= -.66629494E+03  d E =-.807676E-01
 trial-energy change:   -0.080768  1 .order   -0.079373   -0.244998    0.086252
 step:   0.7444(harm=  0.7396)  dis= 0.01468  next Energy=  -666.367020 (dE=-0.918E-01)
 bond charge predicted
       N       E                     dE             d eps       ncg     rms          rms(c)
DAV:   1    -0.666360632471E+03   -0.46194E-02   -0.25278E+00 10192   0.482E+00    0.833E-01
RMM:   2    -0.666369300852E+03   -0.86684E-02   -0.29958E-01 12796   0.146E+00    0.503E-01
RMM:   3    -0.666369725154E+03   -0.42430E-03   -0.69199E-02 13484   0.612E-01    0.419E-01
RMM:   4    -0.666367711959E+03    0.20132E-02   -0.17188E-02 14003   0.311E-01    0.228E-01
RMM:   5    -0.666367074513E+03    0.63745E-03   -0.59532E-03 14000   0.168E-01    0.149E-01
RMM:   6    -0.666366905541E+03    0.16897E-03   -0.26992E-03 14753   0.106E-01    0.782E-02
RMM:   7    -0.666366859709E+03    0.45832E-04   -0.11774E-03 14881   0.636E-02    0.271E-02
RMM:   8    -0.666366910142E+03   -0.50433E-04   -0.74226E-04 14156   0.439E-02    0.220E-02
WARNING in EDDRMM: call to ZHEGV failed, returncode =   8  4      4
RMM:   9    -0.666366933162E+03   -0.23020E-04   -0.41491E-04 13429   0.342E-02    0.112E-02
RMM:  10    -0.666366953900E+03   -0.20738E-04   -0.27855E-04 12837   0.267E-02    0.870E-03
RMM:  11    -0.666366966837E+03   -0.12936E-04   -0.17534E-04 12165   0.223E-02    0.611E-03
RMM:  12    -0.666366974601E+03   -0.77644E-05   -0.11106E-04 11228   0.188E-02    0.391E-03
RMM:  13    -0.666366978579E+03   -0.39777E-05   -0.62563E-05  9564   0.163E-02
   3 F= -.66636698E+03 E0= -.66630580E+03  d E =-.917252E-01
 curvature:  -0.37 expect dE=-0.432E-01 dE for cont linesearch -0.302E-05
 trial: gam= 0.47130 g(F)=  0.426E-01 g(S)=  0.743E-01 ort = 0.141E-02 (trialstep = 0.949E+00)
 search vector abs. value=  0.173E+00
 bond charge predicted
       N       E                     dE             d eps       ncg     rms          rms(c)
DAV:   1    -0.666195620510E+03    0.17135E+00   -0.24685E+01  9408   0.154E+01    0.202E+00
RMM:   2    -0.666368442038E+03   -0.17282E+00   -0.29793E+00 12539   0.455E+00    0.119E+00
RMM:   3    -0.666409192340E+03   -0.40750E-01   -0.73593E-01 13585   0.194E+00    0.108E+00
RMM:   4    -0.666399683661E+03    0.95087E-02   -0.14574E-01 14040   0.883E-01    0.588E-01
RMM:   5    -0.666396327058E+03    0.33566E-02   -0.47135E-02 13932   0.453E-01    0.381E-01
RMM:   6    -0.666395497440E+03    0.82962E-03   -0.23503E-02 14448   0.299E-01    0.210E-01
RMM:   7    -0.666395583824E+03   -0.86385E-04   -0.11838E-02 14989   0.190E-01    0.741E-02
RMM:   8    -0.666396201802E+03   -0.61798E-03   -0.73266E-03 15323   0.126E-01    0.572E-02
RMM:   9    -0.666396540451E+03   -0.33865E-03   -0.40745E-03 14940   0.947E-02    0.466E-02
RMM:  10    -0.666396770355E+03   -0.22990E-03   -0.25947E-03 14391   0.739E-02    0.332E-02
RMM:  11    -0.666396909141E+03   -0.13879E-03   -0.15513E-03 14207   0.599E-02    0.251E-02
RMM:  12    -0.666396991694E+03   -0.82553E-04   -0.10117E-03 14112   0.496E-02    0.102E-02
RMM:  13    -0.666397053609E+03   -0.61916E-04   -0.70563E-04 13683   0.410E-02    0.859E-03
RMM:  14    -0.666397094296E+03   -0.40687E-04   -0.44839E-04 13286   0.335E-02    0.663E-03
RMM:  15    -0.666397122045E+03   -0.27749E-04   -0.30937E-04 12840   0.279E-02    0.413E-03
RMM:  16    -0.666397139577E+03   -0.17532E-04   -0.20601E-04 12184   0.237E-02    0.160E-03
RMM:  17    -0.666397151863E+03   -0.12286E-04   -0.14050E-04 11047   0.203E-02    0.187E-03
RMM:  18    -0.666397159590E+03   -0.77274E-05   -0.92738E-05  9789   0.180E-02
   4 F= -.66639716E+03 E0= -.66633543E+03  d E =-.301810E-01
 trial-energy change:   -0.030181  1 .order   -0.030847   -0.111540    0.049846
 step:   0.6507(harm=  0.6558)  dis= 0.01257  next Energy=  -666.405011 (dE=-0.380E-01)
 bond charge predicted
       N       E                     dE             d eps       ncg     rms          rms(c)
DAV:   1    -0.666385426342E+03    0.11726E-01   -0.24356E+00  9408   0.483E+00    0.641E-01
RMM:   2    -0.666401854922E+03   -0.16429E-01   -0.29008E-01 12454   0.142E+00    0.364E-01
RMM:   3    -0.666406092309E+03   -0.42374E-02   -0.73145E-02 13590   0.615E-01    0.333E-01
RMM:   4    -0.666405095680E+03    0.99663E-03   -0.13846E-02 13796   0.272E-01    0.178E-01
RMM:   5    -0.666404790147E+03    0.30553E-03   -0.44397E-03 13760   0.140E-01    0.115E-01
RMM:   6    -0.666404738411E+03    0.51736E-04   -0.21234E-03 14245   0.897E-02    0.639E-02
RMM:   7    -0.666404754475E+03   -0.16064E-04   -0.10422E-03 14322   0.564E-02    0.219E-02
RMM:   8    -0.666404818795E+03   -0.64321E-04   -0.64652E-04 12969   0.372E-02    0.163E-02
RMM:   9    -0.666404851734E+03   -0.32939E-04   -0.34131E-04 12325   0.282E-02    0.120E-02
RMM:  10    -0.666404876055E+03   -0.24321E-04   -0.21270E-04 11753   0.215E-02    0.754E-03
RMM:  11    -0.666404891498E+03   -0.15443E-04   -0.12282E-04 11242   0.176E-02    0.391E-03
RMM:  12    -0.666404898717E+03   -0.72194E-05   -0.70564E-05 10105   0.148E-02
   5 F= -.66640490E+03 E0= -.66634334E+03  d E =-.379201E-01
 curvature:  -0.48 expect dE=-0.167E-01 dE for cont linesearch -0.205E-07
 trial: gam= 0.30445 g(F)=  0.294E-01 g(S)=  0.528E-02 ort = 0.858E-04 (trialstep = 0.889E+00)
 search vector abs. value=  0.507E-01
 bond charge predicted
       N       E                     dE             d eps       ncg     rms          rms(c)
DAV:   1    -0.666336801126E+03    0.68090E-01   -0.64464E+00  9464   0.739E+00    0.580E-01
RMM:   2    -0.666402872541E+03   -0.66071E-01   -0.77329E-01 11330   0.211E+00    0.261E-01
RMM:   3    -0.666425692232E+03   -0.22820E-01   -0.22001E-01 13930   0.107E+00    0.241E-01
RMM:   4    -0.666426952915E+03   -0.12607E-02   -0.26616E-02 14099   0.294E-01    0.174E-01
RMM:   5    -0.666426577453E+03    0.37546E-03   -0.70561E-03 14016   0.151E-01    0.107E-01
WARNING in EDDRMM: call to ZHEGV failed, returncode =   6  3      4
WARNING in EDDRMM: call to ZHEGV failed, returncode =   8  4      4
RMM:   6    -0.666426746036E+03   -0.16858E-03   -0.49719E-03 13351   0.126E-01    0.705E-02
RMM:   7    -0.666426757672E+03   -0.11636E-04   -0.20031E-03 13863   0.748E-02    0.380E-02
RMM:   8    -0.666426826525E+03   -0.68853E-04   -0.14982E-03 13192   0.551E-02    0.269E-02
RMM:   9    -0.666426886183E+03   -0.59658E-04   -0.77914E-04 12861   0.399E-02    0.138E-02
RMM:  10    -0.666426924139E+03   -0.37956E-04   -0.44020E-04 12151   0.292E-02    0.115E-02
RMM:  11    -0.666426949642E+03   -0.25503E-04   -0.28536E-04 11471   0.234E-02    0.682E-03
RMM:  12    -0.666426964555E+03   -0.14913E-04   -0.15957E-04 10861   0.186E-02    0.412E-03
RMM:  13    -0.666426973836E+03   -0.92804E-05   -0.10461E-04 10450   0.156E-02    0.306E-03
RMM:  14    -0.666426978155E+03   -0.43199E-05   -0.55219E-05  9162   0.133E-02
   6 F= -.66642698E+03 E0= -.66636608E+03  d E =-.220794E-01
 trial-energy change:   -0.022079  1 .order   -0.021911   -0.030850   -0.012972
 step:   1.4791(harm=  1.5345)  dis= 0.02476  next Energy=  -666.431329 (dE=-0.264E-01)
 bond charge predicted
       N       E                     dE             d eps       ncg     rms          rms(c)
DAV:   1    -0.666392411696E+03    0.34562E-01   -0.28384E+00  9408   0.490E+00    0.381E-01
RMM:   2    -0.666420923945E+03   -0.28512E-01   -0.33379E-01 11426   0.140E+00    0.177E-01
RMM:   3    -0.666431095008E+03   -0.10171E-01   -0.97818E-02 14023   0.709E-01    0.166E-01
RMM:   4    -0.666431594852E+03   -0.49984E-03   -0.11814E-02 14049   0.196E-01    0.114E-01
RMM:   5    -0.666431471864E+03    0.12299E-03   -0.32819E-03 13904   0.102E-01    0.743E-02
RMM:   6    -0.666431537714E+03   -0.65850E-04   -0.23480E-03 13334   0.872E-02    0.480E-02
RMM:   7    -0.666431566266E+03   -0.28552E-04   -0.10278E-03 13428   0.518E-02    0.271E-02
RMM:   8    -0.666431598158E+03   -0.31893E-04   -0.70535E-04 12442   0.382E-02    0.179E-02
RMM:   9    -0.666431626546E+03   -0.28388E-04   -0.38298E-04 12076   0.288E-02    0.925E-03
RMM:  10    -0.666431645769E+03   -0.19223E-04   -0.22017E-04 11361   0.217E-02    0.801E-03
RMM:  11    -0.666431658050E+03   -0.12281E-04   -0.13750E-04 10693   0.167E-02    0.515E-03
RMM:  12    -0.666431665210E+03   -0.71597E-05   -0.78791E-05 10356   0.142E-02
   7 F= -.66643167E+03 E0= -.66637125E+03  d E =-.267665E-01
 curvature:  -1.11 expect dE=-0.195E-01 dE for cont linesearch -0.111E-04
 trial: gam= 0.47327 g(F)=  0.127E-01 g(S)=  0.479E-02 ort = 0.711E-03 (trialstep = 0.101E+01)
 search vector abs. value=  0.295E-01
 bond charge predicted
       N       E                     dE             d eps       ncg     rms          rms(c)
DAV:   1    -0.666389853886E+03    0.41804E-01   -0.47138E+00  9296   0.619E+00    0.698E-01
RMM:   2    -0.666428995094E+03   -0.39141E-01   -0.55092E-01 11820   0.181E+00    0.366E-01
RMM:   3    -0.666443091103E+03   -0.14096E-01   -0.15533E-01 13949   0.876E-01    0.359E-01
RMM:   4    -0.666442364886E+03    0.72622E-03   -0.20628E-02 14099   0.294E-01    0.179E-01
RMM:   5    -0.666442115650E+03    0.24924E-03   -0.63476E-03 14155   0.148E-01    0.135E-01
RMM:   6    -0.666442052543E+03    0.63107E-04   -0.39553E-03 13903   0.115E-01    0.838E-02
RMM:   7    -0.666442087929E+03   -0.35386E-04   -0.19649E-03 14495   0.736E-02    0.327E-02
RMM:   8    -0.666442158261E+03   -0.70332E-04   -0.11901E-03 13585   0.527E-02    0.208E-02
RMM:   9    -0.666442217056E+03   -0.58796E-04   -0.75287E-04 13073   0.404E-02    0.148E-02
RMM:  10    -0.666442251261E+03   -0.34205E-04   -0.43392E-04 12323   0.313E-02    0.104E-02
RMM:  11    -0.666442276209E+03   -0.24947E-04   -0.29988E-04 11865   0.255E-02    0.788E-03
RMM:  12    -0.666442290429E+03   -0.14220E-04   -0.18315E-04 11379   0.214E-02    0.340E-03
RMM:  13    -0.666442300571E+03   -0.10142E-04   -0.12198E-04 10708   0.180E-02    0.222E-03
RMM:  14    -0.666442307266E+03   -0.66959E-05   -0.80517E-05  9832   0.158E-02
   8 F= -.66644231E+03 E0= -.66638257E+03  d E =-.106421E-01
 trial-energy change:   -0.010642  1 .order   -0.010413   -0.017977   -0.002849
 step:   1.1787(harm=  1.1969)  dis= 0.01478  next Energy=  -666.442551 (dE=-0.109E-01)
 bond charge predicted
       N       E                     dE             d eps       ncg     rms          rms(c)
DAV:   1    -0.666441070693E+03    0.12299E-02   -0.13610E-01 10220   0.106E+00    0.119E-01
RMM:   2    -0.666442228715E+03   -0.11580E-02   -0.16171E-02 12114   0.309E-01    0.629E-02
RMM:   3    -0.666442631089E+03   -0.40237E-03   -0.45060E-03 13982   0.150E-01    0.601E-02
WARNING in EDDRMM: call to ZHEGV failed, returncode =   8  4      4
RMM:   4    -0.666442620632E+03    0.10457E-04   -0.73486E-04 13400   0.537E-02    0.302E-02
RMM:   5    -0.666442617962E+03    0.26693E-05   -0.25388E-04 11390   0.308E-02    0.224E-02
RMM:   6    -0.666442619352E+03   -0.13893E-05   -0.15620E-04 11285   0.245E-02    0.138E-02
RMM:   7    -0.666442621205E+03   -0.18529E-05   -0.73953E-05  9314   0.172E-02
   9 F= -.66644262E+03 E0= -.66638300E+03  d E =-.109560E-01
 curvature:  -0.98 expect dE=-0.660E-02 dE for cont linesearch -0.525E-05
 trial: gam= 0.35727 g(F)=  0.419E-02 g(S)=  0.254E-02 ort = 0.398E-03 (trialstep = 0.104E+01)
 search vector abs. value=  0.108E-01
 bond charge predicted
       N       E                     dE             d eps       ncg     rms          rms(c)
DAV:   1    -0.666432704015E+03    0.99153E-02   -0.17940E+00  9408   0.387E+00    0.420E-01
RMM:   2    -0.666442921192E+03   -0.10217E-01   -0.15782E-01 12254   0.103E+00    0.230E-01
RMM:   3    -0.666445945297E+03   -0.30241E-02   -0.41292E-02 13844   0.464E-01    0.215E-01
RMM:   4    -0.666445759488E+03    0.18581E-03   -0.78587E-03 13964   0.191E-01    0.112E-01
RMM:   5    -0.666445714974E+03    0.44514E-04   -0.23728E-03 13962   0.965E-02    0.774E-02
WARNING in EDDRMM: call to ZHEGV failed, returncode =   8  4      9
RMM:   6    -0.666445720427E+03   -0.54524E-05   -0.13062E-03 13901   0.673E-02    0.456E-02
RMM:   7    -0.666445750961E+03   -0.30535E-04   -0.73022E-04 13571   0.452E-02    0.169E-02
RMM:   8    -0.666445791183E+03   -0.40222E-04   -0.44565E-04 12498   0.330E-02    0.147E-02
RMM:   9    -0.666445815225E+03   -0.24042E-04   -0.26298E-04 12028   0.249E-02    0.940E-03
RMM:  10    -0.666445831109E+03   -0.15884E-04   -0.15908E-04 11319   0.195E-02    0.672E-03
RMM:  11    -0.666445840666E+03   -0.95567E-05   -0.92776E-05 10455   0.160E-02
  10 F= -.66644584E+03 E0= -.66638683E+03  d E =-.321946E-02
 trial-energy change:   -0.003219  1 .order   -0.003141   -0.007152    0.000870
 step:   0.9342(harm=  0.9285)  dis= 0.00775  next Energy=  -666.445885 (dE=-0.326E-02)
 bond charge predicted
       N       E                     dE             d eps       ncg     rms          rms(c)
DAV:   1    -0.666445780407E+03    0.50702E-04   -0.19398E-02 10248   0.401E-01    0.439E-02
RMM:   2    -0.666445886570E+03   -0.10616E-03   -0.16702E-03 12037   0.107E-01    0.244E-02
RMM:   3    -0.666445916518E+03   -0.29948E-04   -0.42222E-04 13183   0.482E-02    0.232E-02
RMM:   4    -0.666445911345E+03    0.51727E-05   -0.70751E-05  9708   0.201E-02
  11 F= -.66644591E+03 E0= -.66638682E+03  d E =-.329014E-02
 curvature:  -0.73 expect dE=-0.331E-02 dE for cont linesearch -0.582E-06
 trial: gam= 0.71028 g(F)=  0.192E-02 g(S)=  0.263E-02 ort = 0.929E-04 (trialstep = 0.102E+01)
 search vector abs. value=  0.101E-01
 bond charge predicted
       N       E                     dE             d eps       ncg     rms          rms(c)
DAV:   1    -0.666438676165E+03    0.72404E-02   -0.16496E+00  9296   0.374E+00    0.481E-01
RMM:   2    -0.666446077505E+03   -0.74013E-02   -0.14535E-01 12517   0.100E+00    0.281E-01
RMM:   3    -0.666447731742E+03   -0.16542E-02   -0.35290E-02 13685   0.435E-01    0.249E-01
RMM:   4    -0.666447185088E+03    0.54665E-03   -0.74123E-03 13889   0.199E-01    0.130E-01
RMM:   5    -0.666447040451E+03    0.14464E-03   -0.25062E-03 13926   0.103E-01    0.891E-02
RMM:   6    -0.666446999870E+03    0.40582E-04   -0.12873E-03 14365   0.699E-02    0.504E-02
RMM:   7    -0.666446997572E+03    0.22979E-05   -0.64164E-04 13972   0.446E-02    0.169E-02
RMM:   8    -0.666447029311E+03   -0.31739E-04   -0.41860E-04 12594   0.316E-02    0.148E-02
RMM:   9    -0.666447044211E+03   -0.14900E-04   -0.23019E-04 12051   0.243E-02    0.827E-03
RMM:  10    -0.666447055428E+03   -0.11217E-04   -0.14869E-04 11444   0.191E-02    0.658E-03
RMM:  11    -0.666447060802E+03   -0.53743E-05   -0.83142E-05 10582   0.158E-02
  12 F= -.66644706E+03 E0= -.66638819E+03  d E =-.114946E-02
 trial-energy change:   -0.001149  1 .order   -0.001238   -0.004713    0.002238
 step:   0.6742(harm=  0.6916)  dis= 0.00600  next Energy=  -666.447444 (dE=-0.153E-02)
 bond charge predicted
       N       E                     dE             d eps       ncg     rms          rms(c)
DAV:   1    -0.666446459442E+03    0.59599E-03   -0.19038E-01  9408   0.127E+00    0.163E-01
RMM:   2    -0.666447298996E+03   -0.83955E-03   -0.16574E-02 12440   0.340E-01    0.944E-02
RMM:   3    -0.666447490390E+03   -0.19139E-03   -0.40088E-03 13500   0.148E-01    0.839E-02
WARNING in EDDRMM: call to ZHEGV failed, returncode =   8  4      8
RMM:   4    -0.666447427191E+03    0.63198E-04   -0.79525E-04 13511   0.657E-02    0.435E-02
RMM:   5    -0.666447412454E+03    0.14737E-04   -0.25614E-04 12711   0.335E-02    0.304E-02
RMM:   6    -0.666447410031E+03    0.24229E-05   -0.12255E-04 11061   0.235E-02    0.178E-02
WARNING in EDDRMM: call to ZHEGV failed, returncode =   6  3      7
RMM:   7    -0.666447409928E+03    0.10328E-06   -0.51007E-05  8979   0.158E-02
  13 F= -.66644741E+03 E0= -.66638846E+03  d E =-.149858E-02
 curvature:  -0.76 expect dE=-0.140E-02 dE for cont linesearch -0.151E-05
 trial: gam= 0.36295 g(F)=  0.126E-02 g(S)=  0.594E-03 ort = 0.142E-03 (trialstep = 0.951E+00)
 search vector abs. value=  0.329E-02
 bond charge predicted
       N       E                     dE             d eps       ncg     rms          rms(c)
DAV:   1    -0.666444453506E+03    0.29565E-02   -0.48559E-01  9408   0.194E+00    0.167E-01
RMM:   2    -0.666447388249E+03   -0.29347E-02   -0.37947E-02 11795   0.511E-01    0.857E-02
RMM:   3    -0.666448394632E+03   -0.10064E-02   -0.10929E-02 13909   0.241E-01    0.817E-02
RMM:   4    -0.666448436824E+03   -0.42192E-04   -0.17418E-03 13507   0.816E-02    0.508E-02
RMM:   5    -0.666448424296E+03    0.12528E-04   -0.50913E-04 12676   0.424E-02    0.330E-02
RMM:   6    -0.666448425098E+03   -0.80185E-06   -0.32904E-04 12307   0.345E-02    0.187E-02
RMM:   7    -0.666448432740E+03   -0.76424E-05   -0.16223E-04 10934   0.218E-02    0.828E-03
RMM:   8    -0.666448438474E+03   -0.57340E-05   -0.89217E-05 10046   0.168E-02
  14 F= -.66644844E+03 E0= -.66638954E+03  d E =-.102855E-02
 trial-energy change:   -0.001029  1 .order   -0.001042   -0.001815   -0.000269
 step:   1.1161(harm=  1.1161)  dis= 0.00608  next Energy=  -666.448475 (dE=-0.107E-02)
 bond charge predicted
       N       E                     dE             d eps       ncg     rms          rms(c)
DAV:   1    -0.666448341004E+03    0.91737E-04   -0.14809E-02 10248   0.339E-01    0.283E-02
RMM:   2    -0.666448443403E+03   -0.10240E-03   -0.12405E-03 12399   0.910E-02    0.154E-02
RMM:   3    -0.666448477341E+03   -0.33938E-04   -0.36787E-04 12499   0.418E-02    0.151E-02
RMM:   4    -0.666448480554E+03   -0.32133E-05   -0.80089E-05  9320   0.192E-02
  15 F= -.66644848E+03 E0= -.66638960E+03  d E =-.107063E-02
 curvature:  -0.96 expect dE=-0.535E-03 dE for cont linesearch -0.129E-06
 trial: gam= 0.25416 g(F)=  0.502E-03 g(S)=  0.540E-04 ort = 0.210E-04 (trialstep = 0.984E+00)
 search vector abs. value=  0.779E-03
 bond charge predicted
       N       E                     dE             d eps       ncg     rms          rms(c)
DAV:   1    -0.666448067285E+03    0.41006E-03   -0.12374E-01  9352   0.895E-01    0.627E-02
RMM:   2    -0.666448706023E+03   -0.63874E-03   -0.76099E-03 12151   0.222E-01    0.338E-02
RMM:   3    -0.666448877647E+03   -0.17162E-03   -0.18598E-03 13773   0.958E-02    0.313E-02
RMM:   4    -0.666448883508E+03   -0.58615E-05   -0.27694E-04 12053   0.323E-02    0.200E-02
RMM:   5    -0.666448881854E+03    0.16539E-05   -0.10676E-04 10575   0.208E-02    0.133E-02
WARNING in EDDRMM: call to ZHEGV failed, returncode =   6  3      9
RMM:   6    -0.666448882841E+03   -0.98646E-06   -0.59850E-05  9316   0.147E-02
  16 F= -.66644888E+03 E0= -.66639009E+03  d E =-.402287E-03
 trial-energy change:   -0.000402  1 .order   -0.000374   -0.000552   -0.000196
 step:   1.5240(harm=  1.5240)  dis= 0.00414  next Energy=  -666.448908 (dE=-0.428E-03)
 bond charge predicted
       N       E                     dE             d eps       ncg     rms          rms(c)
DAV:   1    -0.666448690340E+03    0.19151E-03   -0.37267E-02  9408   0.492E-01    0.366E-02
RMM:   2    -0.666448885655E+03   -0.19532E-03   -0.23910E-03 12259   0.123E-01    0.188E-02
RMM:   3    -0.666448940700E+03   -0.55044E-04   -0.61098E-04 13153   0.536E-02    0.165E-02
RMM:   4    -0.666448944013E+03   -0.33133E-05   -0.10314E-04  9954   0.203E-02    0.112E-02
RMM:   5    -0.666448944734E+03   -0.72100E-06   -0.49740E-05  8712   0.144E-02
  17 F= -.66644894E+03 E0= -.66639019E+03  d E =-.464180E-03
 curvature:  -1.06 expect dE=-0.180E-03 dE for cont linesearch -0.169E-06
 trial: gam= 0.35827 g(F)=  0.161E-03 g(S)=  0.902E-05 ort =-0.112E-04 (trialstep = 0.109E+01)
 search vector abs. value=  0.262E-03
 bond charge predicted
       N       E                     dE             d eps       ncg     rms          rms(c)
DAV:   1    -0.666448706746E+03    0.23727E-03   -0.51885E-02  9296   0.581E-01    0.468E-02
RMM:   2    -0.666448978240E+03   -0.27149E-03   -0.34023E-03 12120   0.150E-01    0.243E-02
RMM:   3    -0.666449062711E+03   -0.84471E-04   -0.94065E-04 13456   0.672E-02    0.222E-02
RMM:   4    -0.666449066908E+03   -0.41968E-05   -0.15493E-04 11041   0.248E-02    0.142E-02
WARNING in EDDRMM: call to ZHEGV failed, returncode =   8  4      7
WARNING in EDDRMM: call to ZHEGV failed, returncode =   6  3      9
RMM:   5    -0.666449065918E+03    0.99011E-06   -0.49411E-05  9014   0.150E-02
  18 F= -.66644907E+03 E0= -.66639030E+03  d E =-.121184E-03
 trial-energy change:   -0.000121  1 .order   -0.000101   -0.000181   -0.000021
 step:   1.2327(harm=  1.2327)  dis= 0.00198  next Energy=  -666.449047 (dE=-0.102E-03)
 bond charge predicted
       N       E                     dE             d eps       ncg     rms          rms(c)
DAV:   1    -0.666449065506E+03    0.14021E-05   -0.87147E-04 10360   0.728E-02    0.100E-02
RMM:   2    -0.666449070822E+03   -0.53164E-05   -0.72801E-05 11446   0.210E-02
  19 F= -.66644907E+03 E0= -.66639030E+03  d E =-.126088E-03
 curvature:  -0.97 expect dE=-0.116E-03 dE for cont linesearch -0.955E-06
 trial: gam= 0.70432 g(F)=  0.519E-04 g(S)=  0.672E-04 ort =-0.160E-04 (trialstep = 0.112E+01)
 search vector abs. value=  0.226E-03
 bond charge predicted
       N       E                     dE             d eps       ncg     rms          rms(c)
DAV:   1    -0.666449037524E+03    0.27982E-04   -0.46147E-02  9408   0.561E-01    0.896E-02
RMM:   2    -0.666449111116E+03   -0.73592E-04   -0.31785E-03 12721   0.151E-01    0.528E-02
RMM:   3    -0.666449116444E+03   -0.53276E-05   -0.75888E-04 13469   0.635E-02    0.472E-02
RMM:   4    -0.666449093077E+03    0.23367E-04   -0.20720E-04 12936   0.339E-02    0.252E-02
RMM:   5    -0.666449087751E+03    0.53259E-05   -0.82206E-05 10923   0.201E-02
  20 F= -.66644909E+03 E0= -.66639033E+03  d E =-.169289E-04
 trial-energy change:   -0.000017  1 .order   -0.000018   -0.000121    0.000085
 step:   0.6568(harm=  0.6568)  dis= 0.00107  next Energy=  -666.449106 (dE=-0.354E-04)
 bond charge predicted
       N       E                     dE             d eps       ncg     rms          rms(c)
DAV:   1    -0.666449115217E+03   -0.22140E-04   -0.80417E-03  9408   0.235E-01    0.370E-02
RMM:   2    -0.666449127357E+03   -0.12141E-04   -0.54338E-04 12550   0.625E-02    0.257E-02
RMM:   3    -0.666449127758E+03   -0.40081E-06   -0.12683E-04 11792   0.269E-02    0.222E-02
RMM:   4    -0.666449119646E+03    0.81125E-05   -0.30147E-05  5686   0.154E-02
  21 F= -.66644912E+03 E0= -.66639037E+03  d E =-.488235E-04
 curvature:  -0.69 expect dE=-0.956E-04 dE for cont linesearch -0.606E-06
 trial: gam= 1.54052 g(F)=  0.424E-04 g(S)=  0.963E-04 ort =-0.141E-04 (trialstep = 0.368E+00)
 search vector abs. value=  0.633E-03
 reached required accuracy - stopping structural energy minimisation
