HECN                                    
           1
     8.958996   -0.004317   -0.002841
    -0.004354    9.030608   -0.010643
    -0.002830   -0.010621    8.952822
   Ti   Ta   Hf   N    C    Zr   W 
     7     6     6    13    19     7     6
Direct configuration=     1
   0.00052027  0.99584486  0.01420181
   0.23822774  0.99306572  0.25232622
   0.26362725  0.50499450  0.25022861
   0.50123458  0.49902508  0.99867207
   0.49345553  0.26096529  0.75126962
   0.00502794  0.49703494  0.49847275
   0.50334828  0.73673335  0.74726506
   0.99861103  0.23956906  0.26158129
   0.75279223  0.74420551  0.99960572
   0.00490993  0.26271021  0.73776127
   0.75756755  0.26736729  0.50290019
   0.99698511  0.73681273  0.74700479
   0.25923175  0.50007944  0.74993556
   0.24626746  0.25228740  0.00195609
   0.50058692  0.25215300  0.25071492
   0.75591573  0.99196181  0.25358068
   0.75160016  0.25470963  0.99527122
   0.24826081  0.74828488  0.99874497
   0.24677589  0.25283587  0.49788827
   0.24657372  0.25012716  0.24998441
   0.24346503  0.00037555  0.00802339
   0.99940537  0.24288912  0.00155770
   0.75206514  0.24979822  0.25249117
   0.75699069  0.00024187  0.00275436
   0.50138319  0.00545962  0.24909170
   0.99913534  0.49541918  0.25848210
   0.50316514  0.74478192  0.99365831
   0.99684336  0.00102774  0.75180310
   0.74864272  0.25201686  0.74650145
   0.75370382  0.00426603  0.49709297
   0.50530410  0.25334395  0.50233508
   0.50225462  0.00115934  0.74968578
   0.00437217  0.00051746  0.24575418
   0.50124721  0.25481633  0.99667750
   0.24224621  0.74869038  0.24830676
   0.25504095  0.49983785  0.00369005
   0.99765059  0.75657533  0.00116057
   0.75504235  0.74335113  0.25050056
   0.74371992  0.50179944  0.00103917
   0.49796388  0.49879161  0.25015449
   0.25158887  0.25413542  0.74971387
   0.24351824  0.00123729  0.49228178
   0.00037852  0.25289501  0.50078395
   0.25040187  0.74488073  0.75188210
   0.25137236  0.49888314  0.49655056
   0.99237071  0.75210396  0.49817241
   0.99841347  0.49919456  0.74227931
   0.74647294  0.74501021  0.75039552
   0.75366010  0.49928452  0.49892130
   0.50373900  0.74447548  0.50733526
   0.50258187  0.49923646  0.74920972
   0.49962401  0.00239094  0.99765697
   0.00043931  0.50068044  0.00488614
   0.50039363  0.74744715  0.25201164
   0.24616296  0.99979876  0.74936219
   0.49280246  0.99506706  0.50220750
   0.75231579  0.99143518  0.74595261
   0.24568394  0.74622676  0.50156756
   0.00242427  0.76865314  0.25207082
   0.73130584  0.50896910  0.24167763
   0.00977390  0.00531893  0.48319384
   0.50262167  0.50843677  0.50199781
   0.74053154  0.51082226  0.75844701
   0.75026172  0.72749075  0.50131727
HECN                                    
           1
     8.941172    0.001051   -0.004073
     0.001050    8.992281   -0.006570
    -0.004074   -0.006594    8.907164
   Ti   Ta   Hf   N    C    Zr   W 
     7     6     6    13    19     7     6
Direct configuration=     2
   0.00049034  0.99594890  0.01225012
   0.24005485  0.99299033  0.25161322
   0.26336842  0.50495255  0.25061004
   0.50093765  0.49855543  0.99883481
   0.49328700  0.26013570  0.75103594
   0.00655991  0.49732612  0.49682063
   0.50300473  0.73802636  0.74702818
   0.99896586  0.24175214  0.26052519
   0.75399412  0.74364184  0.00007226
   0.00515479  0.26304725  0.73970690
   0.75687995  0.26872121  0.50291217
   0.99665794  0.73624128  0.74622108
   0.25868234  0.49959371  0.74945840
   0.24721864  0.25139659  0.00180294
   0.50054122  0.25363087  0.24995092
   0.75512124  0.99280787  0.25426430
   0.75122483  0.25343128  0.99516244
   0.24836669  0.74882579  0.00025659
   0.24896406  0.25281277  0.49827764
   0.24728320  0.24992323  0.25000017
   0.24441345  0.00039574  0.00701958
   0.99939069  0.24331738  0.00164741
   0.75181638  0.24943411  0.25224119
   0.75604061  0.00034344  0.00211139
   0.50150456  0.00517399  0.24919772
   0.99837590  0.49467651  0.25775806
   0.50256859  0.74596568  0.99420852
   0.99697872  0.00157901  0.75071035
   0.74901216  0.25145967  0.74664285
   0.75385717  0.00521595  0.49769423
   0.50530607  0.25268447  0.50226051
   0.50209529  0.00149549  0.75003885
   0.00312943  0.00192038  0.24640090
   0.50085140  0.25413276  0.99722068
   0.24271794  0.74900805  0.24780439
   0.25482102  0.49988307  0.00334079
   0.99741155  0.75585160  0.00141721
   0.75559691  0.74356683  0.25077686
   0.74386525  0.50191640  0.00079724
   0.49771619  0.49836084  0.24996365
   0.25142956  0.25411726  0.74971570
   0.24402767  0.00191063  0.49295106
   0.99912459  0.25216042  0.50009431
   0.25018321  0.74521281  0.75226880
   0.25217763  0.49826778  0.49691000
   0.99187798  0.75304036  0.49811168
   0.99831585  0.49930798  0.74326466
   0.74675917  0.74494046  0.75021067
   0.75460145  0.49889171  0.49907480
   0.50426039  0.74457419  0.50730643
   0.50218476  0.49890209  0.75007460
   0.49878543  0.00267600  0.99631565
   0.00063248  0.50134052  0.00626293
   0.49874755  0.74697366  0.25147430
   0.24547960  0.99996529  0.75046837
   0.49360603  0.99561012  0.50335840
   0.75289192  0.99158898  0.74511545
   0.24555218  0.74656045  0.50031384
   0.00189388  0.76637454  0.25351918
   0.73194350  0.50817668  0.24125981
   0.00949986  0.00437037  0.48448743
   0.50121873  0.50797047  0.50147244
   0.74023265  0.51008329  0.75925814
   0.75034753  0.72684205  0.50065572
HECN                                    
           1
     8.945727   -0.000321   -0.003758
    -0.000331    9.002076   -0.007611
    -0.003756   -0.007623    8.918834
   Ti   Ta   Hf   N    C    Zr   W 
     7     6     6    13    19     7     6
Direct configuration=     3
   0.00049809  0.99592197  0.01275150
   0.23958696  0.99300987  0.25179631
   0.26343469  0.50496332  0.25051206
   0.50101361  0.49867595  0.99879296
   0.49333004  0.26034858  0.75109588
   0.00616770  0.49725143  0.49724502
   0.50309292  0.73769441  0.74708919
   0.99887537  0.24119175  0.26079673
   0.75368623  0.74378675  0.99995230
   0.00509207  0.26296100  0.73920712
   0.75705625  0.26837360  0.50290927
   0.99674166  0.73638781  0.74642235
   0.25882297  0.49971824  0.74958094
   0.24697492  0.25162536  0.00184215
   0.50055318  0.25325146  0.25014735
   0.75532481  0.99259067  0.25408882
   0.75132075  0.25375932  0.99519025
   0.24833960  0.74868715  0.99986834
   0.24840368  0.25281907  0.49817753
   0.24710148  0.24997568  0.24999607
   0.24417061  0.00039059  0.00727742
   0.99939451  0.24320747  0.00162442
   0.75188003  0.24952750  0.25230537
   0.75628395  0.00031715  0.00227661
   0.50147343  0.00524733  0.24917045
   0.99857029  0.49486693  0.25794400
   0.50272152  0.74566182  0.99406734
   0.99694418  0.00143741  0.75099112
   0.74891746  0.25160275  0.74660645
   0.75381803  0.00497223  0.49753988
   0.50530547  0.25285373  0.50227959
   0.50213613  0.00140923  0.74994819
   0.00344787  0.00156018  0.24623497
   0.50095264  0.25430822  0.99708108
   0.24259720  0.74892653  0.24793346
   0.25487736  0.49987139  0.00343052
   0.99747264  0.75603735  0.00135120
   0.75545492  0.74351158  0.25070588
   0.74382805  0.50188637  0.00085940
   0.49777956  0.49847135  0.25001263
   0.25147036  0.25412190  0.74971523
   0.24389729  0.00173796  0.49277919
   0.99944562  0.25234869  0.50027143
   0.25023925  0.74512758  0.75216951
   0.25197130  0.49842589  0.49681757
   0.99200431  0.75279994  0.49812741
   0.99834083  0.49927897  0.74301156
   0.74668587  0.74495839  0.75025813
   0.75436032  0.49899269  0.49903529
   0.50412688  0.74454893  0.50731383
   0.50228637  0.49898795  0.74985240
   0.49900027  0.00260255  0.99666028
   0.00058307  0.50117128  0.00590932
   0.49916904  0.74709488  0.25161234
   0.24565459  0.99992257  0.75018425
   0.49340029  0.99547099  0.50306278
   0.75274444  0.99154950  0.74533050
   0.24558602  0.74647464  0.50063595
   0.00202930  0.76695946  0.25314687
   0.73178010  0.50838012  0.24136702
   0.00956985  0.00461394  0.48415502
   0.50157795  0.50808988  0.50160740
   0.74030905  0.51027301  0.75904970
   0.75032548  0.72700849  0.50082558
HECN                                    
           1
     8.969714    0.003280   -0.003397
     0.003293    9.021852   -0.005371
    -0.003401   -0.005405    8.939229
   Ti   Ta   Hf   N    C    Zr   W 
     7     6     6    13    19     7     6
Direct configuration=     4
   0.00027800  0.99600739  0.01117423
   0.24081648  0.99324944  0.25120090
   0.26329367  0.50462729  0.25073193
   0.50059885  0.49829639  0.99895390
   0.49312441  0.25930619  0.75088333
   0.00821660  0.49740248  0.49576693
   0.50271766  0.73894567  0.74716629
   0.99921749  0.24308262  0.25952278
   0.75470862  0.74383245  0.00057788
   0.00533968  0.26330490  0.74080934
   0.75610459  0.26963288  0.50289665
   0.99656397  0.73579254  0.74542882
   0.25835969  0.49963825  0.74945746
   0.24759986  0.25097999  0.00176537
   0.50053245  0.25416117  0.24941322
   0.75445782  0.99344666  0.25460617
   0.75100488  0.25239778  0.99512508
   0.24809556  0.74908901  0.00067455
   0.24977319  0.25238771  0.49847105
   0.24796311  0.24982527  0.24999930
   0.24504328  0.00037821  0.00646251
   0.99947967  0.24365435  0.00148064
   0.75160469  0.24922048  0.25200129
   0.75532471  0.00036535  0.00160134
   0.50143970  0.00493831  0.24926556
   0.99782859  0.49440858  0.25749397
   0.50211733  0.74682248  0.99452850
   0.99702948  0.00209146  0.74997135
   0.74917795  0.25099558  0.74678661
   0.75393950  0.00611055  0.49803682
   0.50526107  0.25219115  0.50232775
   0.50204276  0.00176576  0.75021144
   0.00279862  0.00235559  0.24642325
   0.50065919  0.25387774  0.99741192
   0.24311177  0.74917585  0.24769738
   0.25475544  0.49986828  0.00325408
   0.99740194  0.75544591  0.00149426
   0.75539347  0.74384107  0.25094548
   0.74388012  0.50164355  0.00066283
   0.49745475  0.49837603  0.24964960
   0.25141296  0.25405170  0.74984292
   0.24446541  0.00231592  0.49334762
   0.99890669  0.25168581  0.50019111
   0.25000615  0.74545577  0.75242709
   0.25266678  0.49801603  0.49697028
   0.99176206  0.75346208  0.49842850
   0.99819558  0.49939805  0.74389159
   0.74676432  0.74489285  0.75014112
   0.75531605  0.49915539  0.49925189
   0.50449688  0.74478509  0.50726076
   0.50185451  0.49874974  0.75065339
   0.49843848  0.00256239  0.99568447
   0.00085255  0.50144920  0.00696187
   0.49827972  0.74681070  0.25101840
   0.24495177  0.99989362  0.75089361
   0.49402219  0.99595868  0.50394194
   0.75341234  0.99165254  0.74463019
   0.24555223  0.74721285  0.49999227
   0.00131761  0.76587814  0.25468891
   0.73220080  0.50720719  0.24078058
   0.00981714  0.00383691  0.48533932
   0.50023583  0.50720407  0.50137259
   0.74002307  0.50929220  0.76006257
   0.75053894  0.72614137  0.49989591
HECN                                    
           1
     8.962177    0.002149   -0.003510
     0.002154    9.015638   -0.006075
    -0.003513   -0.006102    8.932821
   Ti   Ta   Hf   N    C    Zr   W 
     7     6     6    13    19     7     6
Direct configuration=     5
   0.00034696  0.99598046  0.01166868
   0.24043122  0.99317444  0.25138758
   0.26333782  0.50473264  0.25066297
   0.50072877  0.49841534  0.99890341
   0.49318871  0.25963294  0.75094987
   0.00757456  0.49735527  0.49623032
   0.50283541  0.73855335  0.74714221
   0.99911051  0.24248976  0.25992229
   0.75438826  0.74381830  0.00038179
   0.00526215  0.26319724  0.74030711
   0.75640296  0.26923797  0.50290070
   0.99661956  0.73597906  0.74574022
   0.25850485  0.49966326  0.74949615
   0.24740395  0.25118239  0.00178939
   0.50053905  0.25387591  0.24964343
   0.75472961  0.99317823  0.25444404
   0.75110369  0.25282459  0.99514539
   0.24817209  0.74896306  0.00042185
   0.24934400  0.25252314  0.49837902
   0.24769309  0.24987253  0.24999829
   0.24476981  0.00038214  0.00671798
   0.99945304  0.24351425  0.00152575
   0.75169093  0.24931667  0.25209658
   0.75562529  0.00035007  0.00181301
   0.50145023  0.00503519  0.24923572
   0.99806094  0.49455215  0.25763500
   0.50230681  0.74645857  0.99438402
   0.99700282  0.00188635  0.75029108
   0.74909625  0.25118598  0.74673009
   0.75390159  0.00575373  0.49788113
   0.50527490  0.25239887  0.50231260
   0.50207207  0.00165399  0.75012895
   0.00300217  0.00210616  0.24636428
   0.50075110  0.25401268  0.99730817
   0.24295056  0.74909773  0.24777141
   0.25479364  0.49986923  0.00330939
   0.99742402  0.75563133  0.00144937
   0.75541277  0.74373779  0.25087040
   0.74386377  0.50171967  0.00072443
   0.49755652  0.49840585  0.24976339
   0.25143094  0.25407371  0.74980288
   0.24428747  0.00213484  0.49316948
   0.99907548  0.25189355  0.50021623
   0.25007923  0.74535288  0.75234636
   0.25244880  0.49814462  0.49692239
   0.99183806  0.75325449  0.49833416
   0.99824112  0.49936077  0.74361573
   0.74673973  0.74491340  0.75017779
   0.75501659  0.49910452  0.49918402
   0.50438097  0.74471110  0.50727742
   0.50198982  0.49882443  0.75040227
   0.49861450  0.00257483  0.99599036
   0.00076816  0.50136218  0.00663194
   0.49855835  0.74689964  0.25120455
   0.24517201  0.99990266  0.75067123
   0.49382738  0.99580593  0.50366639
   0.75320305  0.99162026  0.74484974
   0.24556291  0.74698136  0.50019411
   0.00154051  0.76621717  0.25420542
   0.73206881  0.50757492  0.24096433
   0.00973956  0.00408064  0.48496801
   0.50065628  0.50748159  0.50144611
   0.74011257  0.50959974  0.75974498
   0.75047193  0.72641317  0.50018728
HECN                                    
           1
     8.954686    0.002499   -0.002264
     0.002504    9.016212   -0.006681
    -0.002266   -0.006702    8.934818
   Ti   Ta   Hf   N    C    Zr   W 
     7     6     6    13    19     7     6
Direct configuration=     6
   0.00006143  0.99587348  0.01146195
   0.24032970  0.99344394  0.25133580
   0.26361035  0.50445264  0.25059687
   0.50046556  0.49827076  0.99890360
   0.49298007  0.25917359  0.75100529
   0.00923544  0.49719986  0.49577688
   0.50270939  0.73881453  0.74733170
   0.99922207  0.24269584  0.25968283
   0.75487843  0.74415591  0.00086718
   0.00547290  0.26374964  0.74042080
   0.75593300  0.27017823  0.50296374
   0.99653402  0.73528151  0.74497336
   0.25849888  0.49997160  0.74971473
   0.24740047  0.25116278  0.00176970
   0.50058879  0.25386724  0.24932039
   0.75449675  0.99358944  0.25470724
   0.75100771  0.25220239  0.99506013
   0.24756725  0.74897814  0.00023839
   0.24920436  0.25205761  0.49848367
   0.24821810  0.24983127  0.24998785
   0.24512445  0.00035857  0.00649127
   0.99958020  0.24381666  0.00125413
   0.75155771  0.24919286  0.25194067
   0.75511939  0.00029100  0.00153153
   0.50140831  0.00489478  0.24924610
   0.99768618  0.49448583  0.25768116
   0.50201196  0.74701923  0.99455432
   0.99695404  0.00234652  0.74981152
   0.74917995  0.25083909  0.74681457
   0.75393247  0.00669222  0.49787444
   0.50520050  0.25208678  0.50231469
   0.50215742  0.00183202  0.75017113
   0.00309017  0.00208981  0.24626281
   0.50072182  0.25395312  0.99731227
   0.24305532  0.74921113  0.24788116
   0.25478013  0.49981257  0.00332183
   0.99741615  0.75545302  0.00143294
   0.75489828  0.74386593  0.25089098
   0.74381296  0.50136712  0.00075567
   0.49750120  0.49862996  0.24954934
   0.25138718  0.25405075  0.74996149
   0.24455259  0.00233004  0.49332492
   0.99922263  0.25156212  0.50058683
   0.24986329  0.74545488  0.75237279
   0.25274915  0.49813795  0.49689046
   0.99194729  0.75335409  0.49882183
   0.99812558  0.49939218  0.74389646
   0.74665840  0.74466290  0.75021937
   0.75540376  0.49973054  0.49933066
   0.50454817  0.74471346  0.50720475
   0.50180931  0.49883355  0.75058167
   0.49859146  0.00231749  0.99585286
   0.00088177  0.50129595  0.00680197
   0.49883617  0.74675744  0.25104756
   0.24475902  0.99973236  0.75056394
   0.49385177  0.99591203  0.50384403
   0.75369121  0.99146264  0.74450010
   0.24568073  0.74753782  0.50038098
   0.00101505  0.76720543  0.25524896
   0.73170325  0.50696319  0.24029345
   0.01057923  0.00396144  0.48482452
   0.50003523  0.50698923  0.50170561
   0.73977787  0.50928210  0.76063583
   0.75072727  0.72517249  0.49941498
HECN                                    
           1
     8.949718    0.002731   -0.001437
     0.002735    9.016592   -0.007082
    -0.001440   -0.007099    8.936143
   Ti   Ta   Hf   N    C    Zr   W 
     7     6     6    13    19     7     6
Direct configuration=     7
   0.99987193  0.99580252  0.01132489
   0.24026230  0.99362268  0.25130149
   0.26379127  0.50426693  0.25055300
   0.50029084  0.49817488  0.99890374
   0.49284158  0.25886895  0.75104204
   0.01033800  0.49709673  0.49547604
   0.50262571  0.73898776  0.74745737
   0.99929615  0.24283250  0.25952404
   0.75520375  0.74437983  0.00118901
   0.00561277  0.26411599  0.74049620
   0.75562101  0.27080184  0.50300562
   0.99647732  0.73481886  0.74446482
   0.25849489  0.50017610  0.74985969
   0.24739816  0.25114978  0.00175664
   0.50062184  0.25386147  0.24910617
   0.75434214  0.99386218  0.25488181
   0.75094402  0.25178974  0.99500357
   0.24716576  0.74898815  0.00011680
   0.24911167  0.25174887  0.49855305
   0.24856661  0.24980388  0.24998087
   0.24535989  0.00034292  0.00634090
   0.99966463  0.24401720  0.00107402
   0.75146929  0.24911074  0.25183729
   0.75478360  0.00025183  0.00134491
   0.50138048  0.00480166  0.24925299
   0.99743740  0.49444185  0.25771181
   0.50181620  0.74739109  0.99466731
   0.99692170  0.00265170  0.74949354
   0.74923552  0.25060903  0.74687057
   0.75395294  0.00731464  0.49787004
   0.50515112  0.25187980  0.50231608
   0.50221407  0.00195008  0.75019910
   0.00314860  0.00207896  0.24619551
   0.50070239  0.25391361  0.99731498
   0.24312485  0.74928634  0.24795393
   0.25477116  0.49977499  0.00333008
   0.99741093  0.75533476  0.00142203
   0.75455675  0.74395093  0.25090468
   0.74377924  0.50113330  0.00077638
   0.49746450  0.49877858  0.24940743
   0.25135811  0.25403553  0.75006666
   0.24472856  0.00245950  0.49342797
   0.99932028  0.25134232  0.50083255
   0.24971994  0.74552254  0.75239034
   0.25294853  0.49813351  0.49686927
   0.99201975  0.75342017  0.49914520
   0.99804886  0.49941303  0.74408264
   0.74660442  0.74449677  0.75024694
   0.75566074  0.50014572  0.49942790
   0.50465917  0.74471502  0.50715655
   0.50168948  0.49883962  0.75070065
   0.49857618  0.00214681  0.99576168
   0.00095717  0.50125202  0.00691471
   0.49902062  0.74666311  0.25094343
   0.24448489  0.99961941  0.75049282
   0.49386794  0.99598241  0.50396182
   0.75401530  0.99135808  0.74426820
   0.24575891  0.74790687  0.50050491
   0.00066613  0.76786091  0.25594103
   0.73146066  0.50655746  0.23984858
   0.01113662  0.00388236  0.48472929
   0.49962296  0.50666272  0.50187773
   0.73955561  0.50907149  0.76122658
   0.75089687  0.72434961  0.49890277
HECN                                    
           1
     8.959863    0.002745   -0.002154
     0.002750    9.023436   -0.008815
    -0.002158   -0.008827    8.930652
   Ti   Ta   Hf   N    C    Zr   W 
     7     6     6    13    19     7     6
Direct configuration=     8
   0.99967250  0.99569294  0.01137834
   0.24030167  0.99366259  0.25130795
   0.26403265  0.50424714  0.25042177
   0.50006468  0.49827264  0.99865678
   0.49275878  0.25878373  0.75124400
   0.01174935  0.49690161  0.49549147
   0.50265275  0.73878029  0.74757210
   0.99930766  0.24224478  0.25992526
   0.75538514  0.74466983  0.00167683
   0.00550231  0.26467895  0.74032213
   0.75536185  0.27153238  0.50324915
   0.99620733  0.73424643  0.74394828
   0.25866112  0.50031802  0.74996815
   0.24712850  0.25113906  0.00172449
   0.50056229  0.25368499  0.24917265
   0.75436599  0.99434985  0.25520818
   0.75124955  0.25156828  0.99473861
   0.24665368  0.74916061  0.00025651
   0.24916557  0.25180999  0.49855302
   0.24871449  0.24972698  0.24996978
   0.24519968  0.00037425  0.00643754
   0.99968686  0.24405184  0.00091348
   0.75152555  0.24913347  0.25181192
   0.75471573  0.00009050  0.00135532
   0.50136904  0.00475438  0.24921838
   0.99733167  0.49437831  0.25798141
   0.50166048  0.74743278  0.99456251
   0.99690808  0.00305336  0.74922411
   0.74913284  0.25044296  0.74689436
   0.75405575  0.00855469  0.49755384
   0.50502906  0.25183851  0.50232306
   0.50242645  0.00199549  0.75015440
   0.00316809  0.00260928  0.24590186
   0.50068934  0.25389032  0.99710463
   0.24273425  0.74946394  0.24801065
   0.25489122  0.49977033  0.00347379
   0.99723237  0.75549280  0.00147476
   0.75457238  0.74387475  0.25077489
   0.74352989  0.50094442  0.00103500
   0.49734465  0.49865735  0.24939659
   0.25138649  0.25403291  0.75013754
   0.24507243  0.00247235  0.49323270
   0.99916175  0.25119514  0.50076856
   0.24962302  0.74557164  0.75239228
   0.25315782  0.49822187  0.49676949
   0.99235577  0.75335320  0.49928430
   0.99795439  0.49932547  0.74382344
   0.74647272  0.74420368  0.75034867
   0.75595786  0.50007219  0.49943032
   0.50493490  0.74444291  0.50728846
   0.50168695  0.49886109  0.75069169
   0.49853264  0.00177793  0.99591441
   0.00078347  0.50123089  0.00699330
   0.49911603  0.74682178  0.25102873
   0.24429703  0.99954213  0.75050356
   0.49386233  0.99604649  0.50376689
   0.75430724  0.99098591  0.74373935
   0.24619114  0.74773171  0.50051732
   0.00021798  0.76873463  0.25701678
   0.73120149  0.50617754  0.23923540
   0.01148020  0.00393032  0.48433467
   0.49914082  0.50636643  0.50226471
   0.73926996  0.50884458  0.76196199
   0.75113503  0.72378307  0.49816812
HECN                                    
           1
     8.961590    0.002747   -0.002276
     0.002753    9.024602   -0.009111
    -0.002281   -0.009121    8.929717
   Ti   Ta   Hf   N    C    Zr   W 
     7     6     6    13    19     7     6
Direct configuration=     9
   0.99963858  0.99567429  0.01138744
   0.24030837  0.99366938  0.25130906
   0.26407370  0.50424377  0.25039941
   0.50002621  0.49828926  0.99861470
   0.49274469  0.25876924  0.75127841
   0.01198939  0.49686842  0.49549412
   0.50265735  0.73874499  0.74759164
   0.99930962  0.24214480  0.25999360
   0.75541600  0.74471919  0.00175996
   0.00548352  0.26477472  0.74029249
   0.75531778  0.27165669  0.50329067
   0.99616140  0.73414901  0.74386025
   0.25868939  0.50034217  0.74998664
   0.24708263  0.25113724  0.00171901
   0.50055216  0.25365496  0.24918398
   0.75437005  0.99443284  0.25526380
   0.75130151  0.25153059  0.99469346
   0.24656659  0.74918996  0.00028031
   0.24917473  0.25182039  0.49855302
   0.24873964  0.24971389  0.24996789
   0.24517243  0.00037958  0.00645401
   0.99969064  0.24405773  0.00088612
   0.75153512  0.24913734  0.25180760
   0.75470419  0.00006305  0.00135708
   0.50136709  0.00474633  0.24921248
   0.99731369  0.49436750  0.25802735
   0.50163399  0.74743987  0.99454465
   0.99690576  0.00312169  0.74917822
   0.74911538  0.25041470  0.74689841
   0.75407324  0.00876568  0.49750000
   0.50500830  0.25183149  0.50232424
   0.50246257  0.00200321  0.75014679
   0.00317140  0.00269951  0.24585185
   0.50068712  0.25388635  0.99706879
   0.24266782  0.74949416  0.24802032
   0.25491164  0.49976954  0.00349828
   0.99720200  0.75551969  0.00148375
   0.75457503  0.74386178  0.25075277
   0.74348748  0.50091229  0.00107906
   0.49732426  0.49863672  0.24939473
   0.25139131  0.25403247  0.75014962
   0.24513092  0.00247453  0.49319944
   0.99913478  0.25117010  0.50075766
   0.24960653  0.74558000  0.75239261
   0.25319342  0.49823690  0.49675250
   0.99241292  0.75334181  0.49930801
   0.99793832  0.49931056  0.74377927
   0.74645032  0.74415381  0.75036599
   0.75600840  0.50005968  0.49943073
   0.50498180  0.74439661  0.50731093
   0.50168653  0.49886475  0.75069017
   0.49852523  0.00171517  0.99594042
   0.00075392  0.50122730  0.00700669
   0.49913225  0.74684878  0.25104327
   0.24426508  0.99952898  0.75050538
   0.49386138  0.99605738  0.50373368
   0.75435689  0.99092257  0.74364923
   0.24626465  0.74770191  0.50051944
   0.00014177  0.76888332  0.25720009
   0.73115740  0.50611288  0.23913091
   0.01153863  0.00393847  0.48426744
   0.49905882  0.50631603  0.50233063
   0.73922139  0.50880599  0.76208728
   0.75117552  0.72368665  0.49804294
HECN                                    
           1
     8.954156    0.003081   -0.003060
     0.003088    9.020918   -0.009455
    -0.003060   -0.009458    8.929269
   Ti   Ta   Hf   N    C    Zr   W 
     7     6     6    13    19     7     6
Direct configuration=    10
   0.99951924  0.99561897  0.01121417
   0.24033632  0.99354187  0.25127967
   0.26415686  0.50437487  0.25019999
   0.49993091  0.49840924  0.99839046
   0.49271645  0.25894435  0.75143781
   0.01254862  0.49684410  0.49557502
   0.50281709  0.73841745  0.74766269
   0.99923995  0.24205144  0.26012418
   0.75551937  0.74467846  0.00207917
   0.00533164  0.26491975  0.74017195
   0.75524175  0.27172573  0.50360726
   0.99592408  0.73392362  0.74362326
   0.25885295  0.50027465  0.75009093
   0.24690013  0.25113334  0.00172184
   0.50051854  0.25374389  0.24919897
   0.75449757  0.99469565  0.25530331
   0.75147836  0.25151658  0.99442459
   0.24621015  0.74930851  0.00048253
   0.24935839  0.25204776  0.49855860
   0.24855659  0.24958883  0.24997994
   0.24490970  0.00044447  0.00660949
   0.99961686  0.24395693  0.00091939
   0.75171033  0.24919451  0.25187400
   0.75482011  0.99998894  0.00137783
   0.50143523  0.00475115  0.24920404
   0.99735424  0.49427952  0.25824294
   0.50155126  0.74721881  0.99438638
   0.99692993  0.00328501  0.74909501
   0.74898635  0.25037186  0.74692123
   0.75416279  0.00972293  0.49734925
   0.50490533  0.25192857  0.50238413
   0.50262154  0.00193075  0.75007649
   0.00306458  0.00299048  0.24559705
   0.50069133  0.25372969  0.99690979
   0.24229882  0.74962690  0.24805791
   0.25482770  0.49985742  0.00361918
   0.99692138  0.75572681  0.00159159
   0.75490728  0.74377036  0.25066229
   0.74325449  0.50094972  0.00120291
   0.49738857  0.49846859  0.24951365
   0.25134458  0.25403733  0.75012186
   0.24520174  0.00244550  0.49301563
   0.99897486  0.25117706  0.50055787
   0.24955554  0.74557727  0.75249504
   0.25342029  0.49816166  0.49669837
   0.99273639  0.75323425  0.49919849
   0.99788875  0.49932815  0.74344564
   0.74644891  0.74399989  0.75045106
   0.75604338  0.50011556  0.49934131
   0.50525073  0.74422081  0.50750413
   0.50175118  0.49878109  0.75072650
   0.49851883  0.00158694  0.99595084
   0.00059737  0.50141672  0.00721111
   0.49909543  0.74670404  0.25108486
   0.24419583  0.99955018  0.75049225
   0.49384243  0.99598897  0.50361658
   0.75444871  0.99051381  0.74324491
   0.24664324  0.74740251  0.50047444
   0.99994857  0.76924181  0.25776224
   0.73093917  0.50614436  0.23905803
   0.01171646  0.00393838  0.48442928
   0.49889443  0.50632666  0.50246437
   0.73918323  0.50880939  0.76231222
   0.75134783  0.72334586  0.49762271
HECN                                    
           1
     8.954922    0.003046   -0.002979
     0.003053    9.021297   -0.009419
    -0.002980   -0.009423    8.929315
   Ti   Ta   Hf   N    C    Zr   W 
     7     6     6    13    19     7     6
Direct configuration=    11
   0.99953155  0.99562468  0.01123203
   0.24033344  0.99355501  0.25128270
   0.26414828  0.50436135  0.25022054
   0.49994074  0.49839687  0.99841357
   0.49271936  0.25892630  0.75142138
   0.01249094  0.49684661  0.49556668
   0.50280061  0.73845122  0.74765537
   0.99924714  0.24206106  0.26011073
   0.75550871  0.74468266  0.00204627
   0.00534730  0.26490480  0.74018437
   0.75524959  0.27171861  0.50357463
   0.99594856  0.73394686  0.74364768
   0.25883608  0.50028161  0.75008018
   0.24691896  0.25113374  0.00172155
   0.50052201  0.25373472  0.24919742
   0.75448442  0.99466856  0.25529923
   0.75146012  0.25151803  0.99445230
   0.24624691  0.74929629  0.00046169
   0.24933945  0.25202432  0.49855802
   0.24857547  0.24960172  0.24997870
   0.24493680  0.00043778  0.00659347
   0.99962447  0.24396732  0.00091596
   0.75169226  0.24918861  0.25186715
   0.75480815  0.99999658  0.00137569
   0.50142820  0.00475065  0.24920491
   0.99735006  0.49428859  0.25822072
   0.50155980  0.74724160  0.99440270
   0.99692744  0.00326818  0.74910358
   0.74899966  0.25037628  0.74691888
   0.75415356  0.00962424  0.49736479
   0.50491595  0.25191856  0.50237796
   0.50260515  0.00193822  0.75008373
   0.00307560  0.00296049  0.24562331
   0.50069089  0.25374584  0.99692618
   0.24233688  0.74961322  0.24805404
   0.25483636  0.49984836  0.00360672
   0.99695032  0.75570546  0.00158048
   0.75487301  0.74377979  0.25067162
   0.74327852  0.50094586  0.00119015
   0.49738193  0.49848592  0.24950140
   0.25134940  0.25403683  0.75012472
   0.24519444  0.00244850  0.49303458
   0.99899135  0.25117634  0.50057847
   0.24956080  0.74557755  0.75248449
   0.25339689  0.49816942  0.49670395
   0.99270303  0.75324534  0.49920978
   0.99789386  0.49932634  0.74348002
   0.74644906  0.74401576  0.75044230
   0.75603977  0.50010980  0.49935053
   0.50522299  0.74423893  0.50748422
   0.50174451  0.49878972  0.75072275
   0.49851949  0.00160016  0.99594976
   0.00061352  0.50139719  0.00719004
   0.49909922  0.74671896  0.25108057
   0.24420297  0.99954800  0.75049361
   0.49384438  0.99599602  0.50362865
   0.75443924  0.99055596  0.74328659
   0.24660419  0.74743338  0.50047907
   0.99996849  0.76920485  0.25770430
   0.73096168  0.50614111  0.23906555
   0.01169812  0.00393839  0.48441260
   0.49891139  0.50632556  0.50245059
   0.73918716  0.50880904  0.76228904
   0.75133006  0.72338099  0.49766602
HECN                                    
           1
     8.956803    0.003368   -0.003141
     0.003376    9.026847   -0.009337
    -0.003140   -0.009341    8.936095
   Ti   Ta   Hf   N    C    Zr   W 