 vasp.6.4.3 19Mar24 (build Sep 18 2024 11:30:23) complex                        
  
 executed on             LinuxIFC date 2025.11.17  18:46:53
 running   28 mpi-ranks, on    1 nodes
 distrk:  each k-point on   28 cores,    1 groups
 distr:  one band on NCORE=   1 cores,   28 groups


--------------------------------------------------------------------------------------------------------


 INCAR:
   SYSTEM = HEBCN
   ISTART = 1
   ICHARG = 11
   PREC = Normal
   LREAL = .F.
   IBRION = -1
   ISIF = 2
   NSW = 0
   POTIM = 0.5
   EDIFFG = -0.01
   ENCUT = 400
   NELM = 60
   EDIFF = 1E-5
   LCHARG = .T.
   LWAVE = .F.
   ISMEAR = 0
   SIGMA = 0.1
   ALGO = Fast
   NEDOS = 1000
   LORBIT = 10
   NBANDS = 312
   EMIN = -58
   EMAX = 14

 POTCAR:   PAW_PBE Hf_pv 06Sep2000                
 POTCAR:   PAW_PBE Nb_sv 17Jan2003                
 POTCAR:   PAW_PBE V_sv 07Sep2000                 
 POTCAR:   PAW_PBE N 08Apr2002                    
 POTCAR:   PAW_PBE C 08Apr2002                    
 POTCAR:   PAW_PBE W_pv 06Sep2000                 
 POTCAR:   PAW_PBE Ta_pv 07Sep2000                
 -----------------------------------------------------------------------------
|                                                                             |
|           W    W    AA    RRRRR   N    N  II  N    N   GGGG   !!!           |
|           W    W   A  A   R    R  NN   N  II  NN   N  G    G  !!!           |
|           W    W  A    A  R    R  N N  N  II  N N  N  G       !!!           |
|           W WW W  AAAAAA  RRRRR   N  N N  II  N  N N  G  GGG   !            |
|           WW  WW  A    A  R   R   N   NN  II  N   NN  G    G                |
|           W    W  A    A  R    R  N    N  II  N    N   GGGG   !!!           |
|                                                                             |
|     For optimal performance we recommend to set                             |
|       NCORE = 2 up to number-of-cores-per-socket                            |
|     NCORE specifies how many cores store one orbital (NPAR=cpu/NCORE).      |
|     This setting can greatly improve the performance of VASP for DFT.       |
|     The default, NCORE=1 might be grossly inefficient on modern             |
|     multi-core architectures or massively parallel machines. Do your        |
|     own testing! More info at https://www.vasp.at/wiki/index.php/NCORE      |
|     Unfortunately you need to use the default for GW and RPA                |
|     calculations (for HF NCORE is supported but not extensively tested      |
|     yet).                                                                   |
|                                                                             |
 -----------------------------------------------------------------------------

 POTCAR:   PAW_PBE Hf_pv 06Sep2000                
   VRHFIN =Hf: 5p6s5d                                                                               
   LEXCH  = PE                                                                                      
   EATOM  =   859.6195 eV,   63.1803 Ry                                                             
                                                                                                    
   TITEL  = PAW_PBE Hf_pv 06Sep2000                                                                 
   LULTRA =        F    use ultrasoft PP ?                                                          
   IUNSCR =        1    unscreen: 0-lin 1-nonlin 2-no                                               
   RPACOR =    2.500    partial core radius                                                         
   POMASS =  178.490; ZVAL   =   10.000    mass and valenz                                          
   RCORE  =    2.600    outmost cutoff radius                                                       
   RWIGS  =    3.050; RWIGS  =    1.614    wigner-seitz radius (au A)                               
   ENMAX  =  220.342; ENMIN  =  165.256 eV                                                          
   RCLOC  =    2.212    cutoff for local pot                                                        
   LCOR   =        T    correct aug charges                                                         
   LPAW   =        T    paw PP                                                                      
   EAUG   =  380.878                                                                                
   DEXC   =    -.057                                                                                
   RMAX   =    3.106    core radius for proj-oper                                                   
   RAUG   =    1.300    factor for augmentation sphere                                              
   RDEP   =    2.681    radius for radial grids                                                     
   QCUT   =   -4.024; QGAM   =    8.049    optimization parameters                                  
                                                                                                    
   Description                                                                                      
     l     E      TYP  RCUT    TYP  RCUT                                                            
     1   .000     23  2.500                                                                         
     1   .000     23  2.500                                                                         
     2   .000     23  2.500                                                                         
     2   .000     23  2.500                                                                         
     0   .000     23  2.600                                                                         
     0   .000     23  2.600                                                                         
     3   .000      7   .000                                                                         
  local pseudopotential read in
  partial core-charges read in
  atomic valenz-charges read in
  non local Contribution for L=           1  read in
    real space projection operators read in
  non local Contribution for L=           1  read in
    real space projection operators read in
  non local Contribution for L=           2  read in
    real space projection operators read in
  non local Contribution for L=           2  read in
    real space projection operators read in
  non local Contribution for L=           0  read in
    real space projection operators read in
  non local Contribution for L=           0  read in
    real space projection operators read in
    PAW grid and wavefunctions read in
 
   number of l-projection  operators is LMAX  =           6
   number of lm-projection operators is LMMAX =          18
 
 POTCAR:   PAW_PBE Nb_sv 17Jan2003                
   VRHFIN =Nb: 4p5s4d                                                                               
   LEXCH  = PE                                                                                      
   EATOM  =  1555.1913 eV,  114.3033 Ry                                                             
                                                                                                    
   TITEL  = PAW_PBE Nb_sv 17Jan2003                                                                 
   LULTRA =        F    use ultrasoft PP ?                                                          
   IUNSCR =        1    unscreen: 0-lin 1-nonlin 2-no                                               
   RPACOR =    1.800    partial core radius                                                         
   POMASS =   92.910; ZVAL   =   13.000    mass and valenz                                          
   RCORE  =    2.200    outmost cutoff radius                                                       
   RWIGS  =    2.400; RWIGS  =    1.270    wigner-seitz radius (au A)                               
   ENMAX  =  293.235; ENMIN  =  219.927 eV                                                          
   RCLOC  =    1.411    cutoff for local pot                                                        
   LCOR   =        T    correct aug charges                                                         
   LPAW   =        T    paw PP                                                                      
   EAUG   =  455.659                                                                                
   DEXC   =     .000                                                                                
   RMAX   =    2.693    core radius for proj-oper                                                   
   RAUG   =    1.300    factor for augmentation sphere                                              
   RDEP   =    2.299    radius for radial grids                                                     
   QCUT   =   -4.642; QGAM   =    9.285    optimization parameters                                  
                                                                                                    
   Description                                                                                      
     l     E      TYP  RCUT    TYP  RCUT                                                            
     0   .000     23  2.200                                                                         
     0   .000     23  2.200                                                                         
     0   .000     23  2.200                                                                         
     0   .000     23  2.200                                                                         
     1   .000     23  2.200                                                                         
     1  1.000     23  2.200                                                                         
     2   .000     23  2.200                                                                         
     2   .000     23  2.200                                                                         
     3   .000      7   .000                                                                         
  local pseudopotential read in
  partial core-charges read in
  atomic valenz-charges read in
  non local Contribution for L=           0  read in
    real space projection operators read in
  non local Contribution for L=           0  read in
    real space projection operators read in
  non local Contribution for L=           1  read in
    real space projection operators read in
  non local Contribution for L=           1  read in
    real space projection operators read in
  non local Contribution for L=           2  read in
    real space projection operators read in
  non local Contribution for L=           2  read in
    real space projection operators read in
    PAW grid and wavefunctions read in
 
   number of l-projection  operators is LMAX  =           6
   number of lm-projection operators is LMMAX =          18
 
 POTCAR:   PAW_PBE V_sv 07Sep2000                 
   VRHFIN =V: p6 d4 s1                                                                              
   LEXCH  = PE                                                                                      
   EATOM  =  1951.3925 eV,  143.4233 Ry                                                             
                                                                                                    
   TITEL  = PAW_PBE V_sv 07Sep2000                                                                  
   LULTRA =        F    use ultrasoft PP ?                                                          
   IUNSCR =        1    unscreen: 0-lin 1-nonlin 2-no                                               
   RPACOR =    2.000    partial core radius                                                         
   POMASS =   50.941; ZVAL   =   13.000    mass and valenz                                          
   RCORE  =    2.300    outmost cutoff radius                                                       
   RWIGS  =    2.300; RWIGS  =    1.217    wigner-seitz radius (au A)                               
   ENMAX  =  263.675; ENMIN  =  197.756 eV                                                          
   RCLOC  =    1.779    cutoff for local pot                                                        
   LCOR   =        T    correct aug charges                                                         
   LPAW   =        T    paw PP                                                                      
   EAUG   =  526.568                                                                                
   DEXC   =     .000                                                                                
   RMAX   =    2.839    core radius for proj-oper                                                   
   RAUG   =    1.300    factor for augmentation sphere                                              
   RDEP   =    2.430    radius for radial grids                                                     
   QCUT   =   -4.402; QGAM   =    8.804    optimization parameters                                  
                                                                                                    
   Description                                                                                      
     l     E      TYP  RCUT    TYP  RCUT                                                            
     0   .000     23  1.800                                                                         
     0   .000     23  2.300                                                                         
     0   .000     23  1.800                                                                         
     0   .000     23  2.300                                                                         
     1   .000     23  2.000                                                                         
     1   .400     23  2.000                                                                         
     2   .000     23  2.300                                                                         
     2   .000     23  2.300                                                                         
     3   .000      7   .000                                                                         
  local pseudopotential read in
  partial core-charges read in
  atomic valenz-charges read in
  non local Contribution for L=           0  read in
    real space projection operators read in
  non local Contribution for L=           0  read in
    real space projection operators read in
  non local Contribution for L=           1  read in
    real space projection operators read in
  non local Contribution for L=           1  read in
    real space projection operators read in
  non local Contribution for L=           2  read in
    real space projection operators read in
  non local Contribution for L=           2  read in
    real space projection operators read in
    PAW grid and wavefunctions read in
 
   number of l-projection  operators is LMAX  =           6
   number of lm-projection operators is LMMAX =          18
 
 POTCAR:   PAW_PBE N 08Apr2002                    
   VRHFIN =N: s2p3                                                                                  
   LEXCH  = PE                                                                                      
   EATOM  =   264.5486 eV,   19.4438 Ry                                                             
                                                                                                    
   TITEL  = PAW_PBE N 08Apr2002                                                                     
   LULTRA =        F    use ultrasoft PP ?                                                          
   IUNSCR =        0    unscreen: 0-lin 1-nonlin 2-no                                               
   RPACOR =     .000    partial core radius                                                         
   POMASS =   14.001; ZVAL   =    5.000    mass and valenz                                          
   RCORE  =    1.500    outmost cutoff radius                                                       
   RWIGS  =    1.400; RWIGS  =     .741    wigner-seitz radius (au A)                               
   ENMAX  =  400.000; ENMIN  =  300.000 eV                                                          
   ICORE  =        2    local potential                                                             
   LCOR   =        T    correct aug charges                                                         
   LPAW   =        T    paw PP                                                                      
   EAUG   =  627.112                                                                                
   DEXC   =     .000                                                                                
   RMAX   =    2.247    core radius for proj-oper                                                   
   RAUG   =    1.300    factor for augmentation sphere                                              
   RDEP   =    1.514    radius for radial grids                                                     
   QCUT   =   -5.562; QGAM   =   11.124    optimization parameters                                  
                                                                                                    
   Description                                                                                      
     l     E      TYP  RCUT    TYP  RCUT                                                            
     0   .000     23  1.200                                                                         
     0   .000     23  1.200                                                                         
     1   .000     23  1.500                                                                         
     1   .700     23  1.500                                                                         
     2   .000      7  1.500                                                                         
  local pseudopotential read in
  atomic valenz-charges read in
  non local Contribution for L=           0  read in
    real space projection operators read in
  non local Contribution for L=           0  read in
    real space projection operators read in
  non local Contribution for L=           1  read in
    real space projection operators read in
  non local Contribution for L=           1  read in
    real space projection operators read in
    PAW grid and wavefunctions read in
 
   number of l-projection  operators is LMAX  =           4
   number of lm-projection operators is LMMAX =           8
 
 POTCAR:   PAW_PBE C 08Apr2002                    
   VRHFIN =C: s2p2                                                                                  
   LEXCH  = PE                                                                                      
   EATOM  =   147.1560 eV,   10.8157 Ry                                                             
                                                                                                    
   TITEL  = PAW_PBE C 08Apr2002                                                                     
   LULTRA =        F    use ultrasoft PP ?                                                          
   IUNSCR =        0    unscreen: 0-lin 1-nonlin 2-no                                               
   RPACOR =     .000    partial core radius                                                         
   POMASS =   12.011; ZVAL   =    4.000    mass and valenz                                          
   RCORE  =    1.500    outmost cutoff radius                                                       
   RWIGS  =    1.630; RWIGS  =     .863    wigner-seitz radius (au A)                               
   ENMAX  =  400.000; ENMIN  =  300.000 eV                                                          
   ICORE  =        2    local potential                                                             
   LCOR   =        T    correct aug charges                                                         
   LPAW   =        T    paw PP                                                                      
   EAUG   =  644.873                                                                                
   DEXC   =     .000                                                                                
   RMAX   =    2.266    core radius for proj-oper                                                   
   RAUG   =    1.300    factor for augmentation sphere                                              
   RDEP   =    1.501    radius for radial grids                                                     
   RDEPT  =    1.300    core radius for aug-charge                                                  
   QCUT   =   -5.516; QGAM   =   11.032    optimization parameters                                  
                                                                                                    
   Description                                                                                      
     l     E      TYP  RCUT    TYP  RCUT                                                            
     0   .000     23  1.200                                                                         
     0   .000     23  1.200                                                                         
     1   .000     23  1.500                                                                         
     1  2.500     23  1.500                                                                         
     2   .000      7  1.500                                                                         
  local pseudopotential read in
  atomic valenz-charges read in
  non local Contribution for L=           0  read in
    real space projection operators read in
  non local Contribution for L=           0  read in
    real space projection operators read in
  non local Contribution for L=           1  read in
    real space projection operators read in
  non local Contribution for L=           1  read in
    real space projection operators read in
    PAW grid and wavefunctions read in
 
   number of l-projection  operators is LMAX  =           4
   number of lm-projection operators is LMMAX =           8
 
 POTCAR:   PAW_PBE W_pv 06Sep2000                 
   VRHFIN =W : 5p6s5d                                                                               
   LEXCH  = PE                                                                                      
   EATOM  =  1260.0376 eV,   92.6101 Ry                                                             
                                                                                                    
   TITEL  = PAW_PBE W_pv 06Sep2000                                                                  
   LULTRA =        F    use ultrasoft PP ?                                                          
   IUNSCR =        1    unscreen: 0-lin 1-nonlin 2-no                                               
   RPACOR =    2.330    partial core radius                                                         
   POMASS =  183.850; ZVAL   =   12.000    mass and valenz                                          
   RCORE  =    2.500    outmost cutoff radius                                                       
   RWIGS  =    2.750; RWIGS  =    1.455    wigner-seitz radius (au A)                               
   ENMAX  =  223.065; ENMIN  =  167.299 eV                                                          
   RCLOC  =    2.147    cutoff for local pot                                                        
   LCOR   =        T    correct aug charges                                                         
   LPAW   =        T    paw PP                                                                      
   EAUG   =  373.438                                                                                
   DEXC   =    -.018                                                                                
   RMAX   =    3.087    core radius for proj-oper                                                   
   RAUG   =    1.300    factor for augmentation sphere                                              
   RDEP   =    2.539    radius for radial grids                                                     
   QCUT   =   -4.049; QGAM   =    8.098    optimization parameters                                  
                                                                                                    
   Description                                                                                      
     l     E      TYP  RCUT    TYP  RCUT                                                            
     1   .000     23  2.500                                                                         
     1  -.200     23  2.500                                                                         
     2   .000     23  2.500                                                                         
     2   .000     23  2.500                                                                         
     0   .000     23  2.500                                                                         
     0   .000     23  2.500                                                                         
     3   .000      7   .000                                                                         
  local pseudopotential read in
  partial core-charges read in
  atomic valenz-charges read in
  non local Contribution for L=           1  read in
    real space projection operators read in
  non local Contribution for L=           1  read in
    real space projection operators read in
  non local Contribution for L=           2  read in
    real space projection operators read in
  non local Contribution for L=           2  read in
    real space projection operators read in
  non local Contribution for L=           0  read in
    real space projection operators read in
  non local Contribution for L=           0  read in
    real space projection operators read in
    PAW grid and wavefunctions read in
 
   number of l-projection  operators is LMAX  =           6
   number of lm-projection operators is LMMAX =          18
 
 POTCAR:   PAW_PBE Ta_pv 07Sep2000                
   VRHFIN =Ta:  5p6s5d                                                                              
   LEXCH  = PE                                                                                      
   EATOM  =  1045.8051 eV,   76.8645 Ry                                                             
                                                                                                    
   TITEL  = PAW_PBE Ta_pv 07Sep2000                                                                 
   LULTRA =        F    use ultrasoft PP ?                                                          
   IUNSCR =        1    unscreen: 0-lin 1-nonlin 2-no                                               
   RPACOR =    2.330    partial core radius                                                         
   POMASS =  180.948; ZVAL   =   11.000    mass and valenz                                          
   RCORE  =    2.500    outmost cutoff radius                                                       
   RWIGS  =    2.840; RWIGS  =    1.503    wigner-seitz radius (au A)                               
   ENMAX  =  223.675; ENMIN  =  167.756 eV                                                          
   RCLOC  =    2.205    cutoff for local pot                                                        
   LCOR   =        T    correct aug charges                                                         
   LPAW   =        T    paw PP                                                                      
   EAUG   =  377.421                                                                                
   DEXC   =    -.043                                                                                
   RMAX   =    3.083    core radius for proj-oper                                                   
   RAUG   =    1.300    factor for augmentation sphere                                              
   RDEP   =    2.526    radius for radial grids                                                     
   QCUT   =   -4.055; QGAM   =    8.109    optimization parameters                                  
                                                                                                    
   Description                                                                                      
     l     E      TYP  RCUT    TYP  RCUT                                                            
     1   .000     23  2.500                                                                         
     1   .100     23  2.500                                                                         
     2   .000     23  2.500                                                                         
     2   .000     23  2.500                                                                         
     0   .000     23  2.500                                                                         
     0   .000     23  2.500                                                                         
     3   .000      7   .000                                                                         
  local pseudopotential read in
  partial core-charges read in
  atomic valenz-charges read in
  non local Contribution for L=           1  read in
    real space projection operators read in
  non local Contribution for L=           1  read in
    real space projection operators read in
  non local Contribution for L=           2  read in
    real space projection operators read in
  non local Contribution for L=           2  read in
    real space projection operators read in
  non local Contribution for L=           0  read in
    real space projection operators read in
  non local Contribution for L=           0  read in
    real space projection operators read in
    PAW grid and wavefunctions read in
 
   number of l-projection  operators is LMAX  =           6
   number of lm-projection operators is LMMAX =          18
 
 -----------------------------------------------------------------------------
|                                                                             |
|               ----> ADVICE to this user running VASP <----                  |
|                                                                             |
|     You have a (more or less) 'large supercell' and for larger cells it     |
|     might be more efficient to use real-space projection operators.         |
|     Therefore, try LREAL= Auto in the INCAR file.                           |
|     Mind: If you want to do very accurate calculations, keep the            |
|     reciprocal projection scheme (i.e. LREAL=.FALSE.).                      |
|                                                                             |
 -----------------------------------------------------------------------------

 PAW_PBE Hf_pv 06Sep2000                :
 energy of atom  1       EATOM= -859.6195
 kinetic energy error for atom=    0.0038 (will be added to EATOM!!)
 PAW_PBE Nb_sv 17Jan2003                :
 energy of atom  2       EATOM=-1555.1913
 kinetic energy error for atom=    0.0212 (will be added to EATOM!!)
 PAW_PBE V_sv 07Sep2000                 :
 energy of atom  3       EATOM=-1951.3925
 kinetic energy error for atom=    0.0321 (will be added to EATOM!!)
 PAW_PBE N 08Apr2002                    :
 energy of atom  4       EATOM= -264.5486
 kinetic energy error for atom=    0.0736 (will be added to EATOM!!)
 PAW_PBE C 08Apr2002                    :
 energy of atom  5       EATOM= -147.1560
 kinetic energy error for atom=    0.0288 (will be added to EATOM!!)
 PAW_PBE W_pv 06Sep2000                 :
 energy of atom  6       EATOM=-1260.0376
 kinetic energy error for atom=    0.0051 (will be added to EATOM!!)
 PAW_PBE Ta_pv 07Sep2000                :
 energy of atom  7       EATOM=-1045.8051
 kinetic energy error for atom=    0.0046 (will be added to EATOM!!)
 
 
 POSCAR: 52-HfVNbTaW
  positions in direct lattice
  velocities in cartesian coordinates


 exchange-correlation table for PE
   RHO(1)=    0.500       N(1)  =     2000
   RHO(2)=  100.500       N(2)  =     4000
 


--------------------------------------------------------------------------------------------------------


 ion  position               nearest neighbor table
   1  0.006  0.007  0.997-  23 2.18  29 2.21  25 2.21  22 2.23  34 2.27  38 2.29   8 3.06  56 3.06
                            58 3.11   9 3.13  59 3.14  10 3.14  12 3.14   2 3.15  18 3.17  14 3.18
   2  0.261  0.007  0.242-  21 2.14  22 2.21  26 2.23  43 2.26  36 2.26  34 2.31  57 3.01   8 3.11
                            20 3.13  59 3.14  55 3.14   1 3.15  15 3.16  61 3.18  53 3.20  19 3.21
   3  0.248  0.492  0.251-  21 2.15  46 2.21  27 2.22  37 2.23  41 2.23  36 2.28  18 3.05  14 3.08
                            15 3.08   6 3.10  55 3.10  62 3.13   4 3.13   8 3.17  20 3.20  54 3.21
   4  0.499  0.499  1.000-  35 2.22  41 2.24  37 2.24  52 2.25  40 2.25  28 2.28  14 2.98  15 2.98
                            17 3.02  63 3.09  18 3.12  60 3.13  55 3.13   3 3.13  13 3.15   7 3.15
   5  0.500  0.244  0.747-  33 2.15  30 2.21  42 2.23  52 2.26  35 2.27  32 2.28  53 2.98  14 3.02
                            58 3.09  17 3.11  19 3.12   4 3.17  56 3.17  13 3.18  62 3.18  63 3.20
   6  0.002  0.501  0.503-  48 2.19  46 2.23  44 2.23  47 2.24  50 2.26  27 2.27  10 3.07  19 3.08
                             3 3.10  12 3.10  13 3.11  11 3.14  63 3.14  64 3.19   8 3.19  60 3.20
   7  0.493  0.757  0.756-  33 2.16  45 2.19  28 2.21  51 2.25  49 2.25  52 2.27  58 2.95  53 3.05
                            56 3.10  20 3.12  13 3.13   4 3.15  63 3.16  64 3.18  62 3.18  18 3.19
   8  0.996  0.237  0.256-  34 2.10  44 2.18  24 2.22  21 2.25  23 2.26  27 2.32  11 2.92  61 3.03
                             1 3.06   2 3.11   3 3.17  60 3.18   6 3.19
   9  0.760  0.752  0.004-  38 2.15  39 2.20  49 2.24  25 2.27  40 2.29  28 2.34  58 2.91  54 3.07
                            63 3.09  59 3.10  60 3.12  53 3.12   1 3.13   4 3.21  55 3.24   7 3.24
  10  0.002  0.259  0.748-  48 2.16  42 2.17  44 2.18  30 2.22  29 2.25  23 2.25  19 2.88  54 3.02
                             6 3.07  56 3.11  61 3.12  63 3.13   1 3.14
  11  0.757  0.245  0.487-  31 2.18  24 2.19  44 2.19  50 2.25  32 2.27  30 2.34  16 2.87   8 2.92
                            60 3.10  61 3.12   6 3.14  57 3.19   5 3.22  62 3.24  63 3.30
  12  0.002  0.747  0.754-  45 2.16  48 2.16  38 2.22  49 2.24  47 2.25  29 2.28  54 3.02  56 3.05
                            63 3.08   6 3.10   1 3.14  58 3.17  61 3.17  64 3.24
  13  0.249  0.501  0.750-  48 2.21  46 2.21  37 2.21  52 2.22  45 2.24  42 2.25  14 2.92  54 3.03
                            62 3.10   6 3.11   7 3.13   4 3.15   5 3.18
  14  0.253  0.269  0.983-  37 2.03  42 2.07  35 2.12  23 2.27  21 2.34  13 2.92   4 2.98  54 3.02
                             5 3.02   3 3.08   1 3.18   2 3.27
  15  0.511  0.263  0.239-  41 2.06  24 2.07  35 2.11  32 2.24  21 2.31  26 2.33  17 2.74  60 2.96
                             4 2.98   3 3.08  62 3.13  53 3.14   2 3.16
  16  0.748  0.998  0.276-  26 2.11  39 2.16  31 2.17  24 2.21  34 2.23  25 2.28  57 2.76  11 2.87
                            64 2.92  59 3.08  61 3.11  55 3.19   1 3.34
  17  0.726  0.243  0.014-  24 2.02  35 2.09  25 2.09  40 2.22  30 2.34  53 2.74  15 2.74   4 3.02
                            60 3.07  58 3.08   5 3.11   1 3.23
  18  0.231  0.728  0.003-  38 2.01  37 2.03  36 2.18  45 2.23  54 2.85  59 2.98   3 3.05   4 3.12
                             1 3.17   7 3.19   2 3.25
  19  0.235  0.242  0.518-  44 2.04  42 2.07  43 2.14  46 2.26  10 2.88  61 2.89  56 2.93   6 3.08
                             5 3.12   2 3.21   3 3.25
  20  0.260  0.761  0.494-  51 2.08  43 2.14  36 2.21  47 2.27  45 2.30  46 2.33  55 2.94  57 2.96
                            56 3.02  61 3.05  62 3.09   7 3.12   2 3.13  59 3.13   3 3.20   6 3.23
  21  0.250  0.249  0.246-   2 2.14   3 2.15   8 2.25  15 2.31  14 2.34
  22  0.258  0.003  0.992-   2 2.21   1 2.23  56 2.25  53 2.33
  23  0.997  0.254  0.002-   1 2.18  54 2.19  10 2.25   8 2.26  14 2.27
  24  0.745  0.245  0.241-  17 2.02  15 2.07  11 2.19  16 2.21   8 2.22  60 2.24
  25  0.756  0.008  0.019-  53 2.09  17 2.09  58 2.17   1 2.21   9 2.27  16 2.28
  26  0.513  0.999  0.235-  16 2.11  57 2.13  53 2.20   2 2.23  55 2.30  15 2.33
  27  0.997  0.499  0.247-  60 2.20   3 2.22   6 2.27  54 2.29   8 2.32  59 2.32
  28  0.496  0.757  0.005-   7 2.21  55 2.26  53 2.26   4 2.28   9 2.34
  29  0.988  0.005  0.749-  61 2.18   1 2.21  56 2.22  10 2.25  58 2.25  12 2.28
  30  0.751  0.244  0.751-   5 2.21  10 2.22  58 2.29  63 2.32  17 2.34  11 2.34
  31  0.754  0.000  0.520-  16 2.17  11 2.18  64 2.19  57 2.23  58 2.28  61 2.30
  32  0.500  0.243  0.490-  15 2.24  11 2.27  57 2.27   5 2.28  62 2.30
  33  0.494  0.000  0.734-   5 2.15   7 2.16  58 2.17  56 2.25  53 2.26  57 2.31
  34  1.000  0.999  0.253-   8 2.10  59 2.10  16 2.23  61 2.23   1 2.27   2 2.31
  35  0.490  0.247  0.002-  17 2.09  53 2.11  15 2.11  14 2.12   4 2.22   5 2.27
  36  0.254  0.750  0.246-  55 2.14  18 2.18  20 2.21  59 2.21   2 2.26   3 2.28
  37  0.246  0.498  1.000-  18 2.03  14 2.03  54 2.16  13 2.21   3 2.23   4 2.24
  38  0.004  0.748  0.003-  18 2.01   9 2.15  54 2.18  59 2.21  12 2.22   1 2.29
  39  0.750  0.755  0.252-  16 2.16  64 2.17   9 2.20  55 2.25  59 2.25  60 2.26
  40  0.754  0.492  0.001-  54 2.19  60 2.19  63 2.19  17 2.22   4 2.25   9 2.29
  41  0.501  0.495  0.252-  15 2.06  55 2.17  60 2.19  62 2.20   3 2.23   4 2.24
  42  0.248  0.247  0.751-  19 2.07  14 2.07  10 2.17  56 2.20   5 2.23  13 2.25
  43  0.263  0.003  0.497-  19 2.14  20 2.14  57 2.16  56 2.16  61 2.21   2 2.26
  44  0.004  0.249  0.502-  19 2.04  61 2.18   8 2.18  10 2.18  11 2.19   6 2.23
  45  0.246  0.755  0.753-  56 2.15  12 2.16   7 2.19  18 2.23  13 2.24  20 2.30
  46  0.254  0.497  0.501-  62 2.14   3 2.21  13 2.21   6 2.23  19 2.26  20 2.33
  47  0.004  0.755  0.501-  61 2.19  59 2.20   6 2.24  12 2.25  20 2.27  64 2.29
  48  0.999  0.503  0.750-  54 2.12  10 2.16  12 2.16   6 2.19  63 2.20  13 2.21
  49  0.748  0.751  0.752-  58 2.10  63 2.16  12 2.24   9 2.24   7 2.25  64 2.27
  50  0.747  0.499  0.498-  62 2.21  60 2.22  11 2.25  64 2.25   6 2.26  63 2.28
  51  0.495  0.748  0.503-  20 2.08  57 2.12  55 2.16  62 2.16  64 2.20   7 2.25
  52  0.501  0.500  0.746-  62 2.18  63 2.20  13 2.22   4 2.25   5 2.26   7 2.27
  53  0.521  0.011  0.988-  25 2.09  35 2.11  26 2.20  28 2.26  33 2.26  22 2.33  58 2.65  17 2.74
                             5 2.98   7 3.05   9 3.12  15 3.14   2 3.20  56 3.34  55 3.41
  54  0.001  0.502  0.989-  48 2.12  37 2.16  38 2.18  40 2.19  23 2.19  27 2.29  18 2.85  10 3.02
                            12 3.02  14 3.02  13 3.03  63 3.06   9 3.07  60 3.19   3 3.21  59 3.27
  55  0.496  0.740  0.259-  36 2.14  51 2.16  41 2.17  39 2.25  28 2.26  26 2.30  57 2.89  20 2.94
                            62 3.00  64 3.06  60 3.09   3 3.10   4 3.13   2 3.14  16 3.19   9 3.24
  56  0.239  0.998  0.740-  45 2.15  43 2.16  42 2.20  29 2.22  22 2.25  33 2.25  61 2.91  19 2.93
                            20 3.02  12 3.05   1 3.06   7 3.10  10 3.11   5 3.17  57 3.32  53 3.34
  57  0.506  0.986  0.475-  51 2.12  26 2.13  43 2.16  31 2.23  32 2.27  33 2.31  16 2.76  55 2.89
                            64 2.95  20 2.96   2 3.01  11 3.19   7 3.22   5 3.31  56 3.32  58 3.37
  58  0.735  0.987  0.776-  49 2.10  25 2.17  33 2.17  29 2.25  31 2.28  30 2.29  53 2.65   9 2.91
                             7 2.95  17 3.08   5 3.09   1 3.11  12 3.17  64 3.22  57 3.37  61 3.43
  59  0.004  0.762  0.252-  34 2.10  47 2.20  38 2.21  36 2.21  39 2.25  27 2.32  18 2.98  61 3.07
                            16 3.08   9 3.10  20 3.13   2 3.14   1 3.14  64 3.14   6 3.21   3 3.21
  60  0.748  0.499  0.248-  41 2.19  40 2.19  27 2.20  50 2.22  24 2.24  39 2.26  15 2.96  17 3.07
                            55 3.09  11 3.10   9 3.12   4 3.13  62 3.14  64 3.14   8 3.18  54 3.19
  61  0.013  0.002  0.504-  29 2.18  44 2.18  47 2.19  43 2.21  34 2.23  31 2.30  19 2.89  56 2.91
                             8 3.03  20 3.05  59 3.07  16 3.11  11 3.12  10 3.12  12 3.17   2 3.18
  62  0.497  0.503  0.500-  46 2.14  51 2.16  52 2.18  41 2.20  50 2.21  32 2.30  55 3.00  20 3.09
                            13 3.10  64 3.11   3 3.13  15 3.13  60 3.14   7 3.18   5 3.18  63 3.19
  63  0.749  0.506  0.754-  49 2.16  40 2.19  52 2.20  48 2.20  50 2.28  30 2.32  54 3.06  12 3.08
                             4 3.09   9 3.09  10 3.13   6 3.14   7 3.16  64 3.17  62 3.19   5 3.20
  64  0.744  0.754  0.496-  39 2.17  31 2.19  51 2.20  50 2.25  49 2.27  47 2.29  16 2.92  57 2.95
                            55 3.06  62 3.11  60 3.14  59 3.14  63 3.17   7 3.18   6 3.19  58 3.22
 
  LATTYP: Found a triclinic cell.
 ALAT       =     8.8687641184
 B/A-ratio  =     1.4042446471
 C/A-ratio  =     1.7302520360
 COS(alpha) =     0.0002343183
 COS(beta)  =     0.5802570221
 COS(gamma) =     0.7048223221
  
  Lattice vectors:
  
 A1 = (  -0.0615465534,   0.0354293336,  -8.8684797892)
 A2 = (   8.7734782429,   0.0357862082,  -8.8388226722)
 A3 = (  -8.9029371961,  -8.7975778835,  -8.8778042858)


Analysis of symmetry for initial positions (statically):
=====================================================================
 Subroutine PRICEL returns:
 Original cell was already a primitive cell.
 

 Routine SETGRP: Setting up the symmetry group for a 
 triclinic supercell.


 Subroutine GETGRP returns: Found  1 space group operations
 (whereof  1 operations were pure point group operations)
 out of a pool of  2 trial point group operations.


The static configuration has the point symmetry C_1 .


Analysis of symmetry for dynamics (positions and initial velocities):
=====================================================================
 Subroutine PRICEL returns:
 Original cell was already a primitive cell.
 

 Routine SETGRP: Setting up the symmetry group for a 
 triclinic supercell.


 Subroutine GETGRP returns: Found  1 space group operations
 (whereof  1 operations were pure point group operations)
 out of a pool of  2 trial point group operations.


The dynamic configuration has the point symmetry C_1 .


 Subroutine INISYM returns: Found  1 space group operations
 (whereof  1 operations are pure point group operations),
 and found     1 'primitive' translations


----------------------------------------------------------------------------------------

                                     Primitive cell                                     

  volume of cell :     692.0442

  direct lattice vectors                    reciprocal lattice vectors
     8.835024796  0.000356875  0.029657117     0.113188515 -0.000083386 -0.000785853
     0.006365846  8.832650343 -0.020332620    -0.000006092  0.113217347  0.000452342
     0.061546553 -0.035429334  8.868479789    -0.000378528  0.000259850  0.112762562

  length of vectors
     8.835074579  8.832676039  8.868764118     0.113191274  0.113218250  0.112763497

  position of ions in fractional coordinates (direct lattice)
     0.005692937  0.007159380  0.997480491
     0.261335021  0.006654623  0.241921334
     0.248026938  0.492260516  0.251362802
     0.499296224  0.498774762  0.999789516
     0.500459505  0.243534402  0.746980681
     0.002411891  0.501492287  0.502939001
     0.493387298  0.757022055  0.755782415
     0.995560650  0.236853877  0.256402344
     0.760160889  0.751534343  0.003937172
     0.002047175  0.258546093  0.748373254
     0.756977653  0.244974682  0.487191453
     0.001728125  0.747186674  0.753654228
     0.248996650  0.500984117  0.749977892
     0.252500757  0.268952326  0.983194932
     0.511325085  0.263032334  0.239045796
     0.748444079  0.997916056  0.276062747
     0.725869144  0.243221057  0.013871084
     0.230729077  0.727698710  0.002683943
     0.234512880  0.242309441  0.518255237
     0.260063373  0.760560271  0.494257689
     0.249904769  0.248738095  0.246293488
     0.258257724  0.002886198  0.992382405
     0.996503202  0.254257601  0.002202314
     0.744793227  0.245396550  0.241136872
     0.755724209  0.008320405  0.019098298
     0.513476334  0.999082728  0.235143690
     0.997199230  0.498908264  0.246892658
     0.495548412  0.757002757  0.005087496
     0.987980533  0.004715670  0.749098408
     0.750878229  0.244005136  0.751054850
     0.753711154  0.000285234  0.520444089
     0.500151200  0.243232165  0.490048382
     0.494159334  0.000491219  0.734127340
     0.999690369  0.999457378  0.253173399
     0.490104379  0.247485852  0.002304700
     0.254276813  0.750381446  0.245739274
     0.245641871  0.498414684  0.999643322
     0.003671991  0.748410955  0.003472184
     0.749591515  0.754635879  0.251961790
     0.754221591  0.492226789  0.001065858
     0.500933142  0.495242529  0.252015120
     0.247816962  0.246581414  0.750905998
     0.263376600  0.002809979  0.496966295
     0.004003901  0.249221329  0.502183304
     0.245633759  0.754609862  0.752999909
     0.254249195  0.496610415  0.500594709
     0.003703747  0.755233815  0.500573983
     0.998812384  0.502806325  0.750391984
     0.748391216  0.750754844  0.751808498
     0.747155999  0.499060183  0.497736025
     0.495125874  0.748010231  0.502575638
     0.500626378  0.499749531  0.745828821
     0.521463974  0.011124032  0.987527301
     0.001424533  0.501578544  0.988888854
     0.495732454  0.740259850  0.259305510
     0.239349024  0.997692745  0.740003670
     0.506243335  0.986292947  0.474657234
     0.735122927  0.986643772  0.776484160
     0.004161742  0.761994038  0.252302750
     0.748311789  0.498930307  0.247844897
     0.013124963  0.002439002  0.504243505
     0.496540740  0.503321675  0.499827294
     0.749380164  0.506471791  0.754370198
     0.744304139  0.753557581  0.496429653

  ion indices of the primitive-cell ions
   primitive index   ion index
                 1           1
                 2           2
                 3           3
                 4           4
                 5           5
                 6           6
                 7           7
                 8           8
                 9           9
                10          10
                11          11
                12          12
                13          13
                14          14
                15          15
                16          16
                17          17
                18          18
                19          19
                20          20
                21          21
                22          22
                23          23
                24          24
                25          25
                26          26
                27          27
                28          28
                29          29
                30          30
                31          31
                32          32
                33          33
                34          34
                35          35
                36          36
                37          37
                38          38
                39          39
                40          40
                41          41
                42          42
                43          43
                44          44
                45          45
                46          46
                47          47
                48          48
                49          49
                50          50
                51          51
                52          52
                53          53
                54          54
                55          55
                56          56
                57          57
                58          58
                59          59
                60          60
                61          61
                62          62
                63          63
                64          64

----------------------------------------------------------------------------------------

 
 
 KPOINTS: HECN                                    

Automatic generation of k-mesh.
 Grid dimensions read from file:
 generate k-points for:    6    6    6

 Generating k-lattice:

  Cartesian coordinates                     Fractional coordinates (reciprocal lattice)
     0.018864752 -0.000013898 -0.000130975     0.166666667  0.000000000  0.000000000
    -0.000001015  0.018869558  0.000075390    -0.000000000  0.166666667  0.000000000
    -0.000063088  0.000043308  0.018793760    -0.000000000  0.000000000  0.166666667

  Length of vectors
     0.018865212  0.018869708  0.018793916

  Shift w.r.t. Gamma in fractional coordinates (k-lattice)
     0.000000000  0.000000000  0.000000000

 
 Subroutine IBZKPT returns following result:
 ===========================================
 
 Found    112 irreducible k-points:
 
 Following reciprocal coordinates:
            Coordinates               Weight
  0.000000  0.000000  0.000000      1.000000
  0.166667  0.000000  0.000000      2.000000
  0.333333  0.000000 -0.000000      2.000000
  0.500000  0.000000  0.000000      1.000000
 -0.000000  0.166667 -0.000000      2.000000
  0.166667  0.166667  0.000000      2.000000
  0.333333  0.166667 -0.000000      2.000000
  0.500000  0.166667  0.000000      2.000000
 -0.333333  0.166667  0.000000      2.000000
 -0.166667  0.166667 -0.000000      2.000000
 -0.000000  0.333333 -0.000000      2.000000
  0.166667  0.333333  0.000000      2.000000
  0.333333  0.333333 -0.000000      2.000000
  0.500000  0.333333 -0.000000      2.000000
 -0.333333  0.333333  0.000000      2.000000
 -0.166667  0.333333 -0.000000      2.000000
 -0.000000  0.500000 -0.000000      1.000000
  0.166667  0.500000  0.000000      2.000000
  0.333333  0.500000 -0.000000      2.000000
  0.500000  0.500000 -0.000000      1.000000
 -0.000000 -0.000000  0.166667      2.000000
  0.166667  0.000000  0.166667      2.000000
  0.333333 -0.000000  0.166667      2.000000
  0.500000 -0.000000  0.166667      2.000000
 -0.333333 -0.000000  0.166667      2.000000
 -0.166667  0.000000  0.166667      2.000000
 -0.000000  0.166667  0.166667      2.000000
  0.166667  0.166667  0.166667      2.000000
  0.333333  0.166667  0.166667      2.000000
  0.500000  0.166667  0.166667      2.000000
 -0.333333  0.166667  0.166667      2.000000
 -0.166667  0.166667  0.166667      2.000000
 -0.000000  0.333333  0.166667      2.000000
  0.166667  0.333333  0.166667      2.000000
  0.333333  0.333333  0.166667      2.000000
  0.500000  0.333333  0.166667      2.000000
 -0.333333  0.333333  0.166667      2.000000
 -0.166667  0.333333  0.166667      2.000000
 -0.000000  0.500000  0.166667      2.000000
  0.166667  0.500000  0.166667      2.000000
  0.333333  0.500000  0.166667      2.000000
  0.500000  0.500000  0.166667      2.000000
 -0.333333  0.500000  0.166667      2.000000
 -0.166667  0.500000  0.166667      2.000000
 -0.000000 -0.333333  0.166667      2.000000
  0.166667 -0.333333  0.166667      2.000000
  0.333333 -0.333333  0.166667      2.000000
  0.500000 -0.333333  0.166667      2.000000
 -0.333333 -0.333333  0.166667      2.000000
 -0.166667 -0.333333  0.166667      2.000000
 -0.000000 -0.166667  0.166667      2.000000
  0.166667 -0.166667  0.166667      2.000000
  0.333333 -0.166667  0.166667      2.000000
  0.500000 -0.166667  0.166667      2.000000
 -0.333333 -0.166667  0.166667      2.000000
 -0.166667 -0.166667  0.166667      2.000000
 -0.000000 -0.000000  0.333333      2.000000
  0.166667 -0.000000  0.333333      2.000000
  0.333333 -0.000000  0.333333      2.000000
  0.500000 -0.000000  0.333333      2.000000
 -0.333333 -0.000000  0.333333      2.000000
 -0.166667 -0.000000  0.333333      2.000000
 -0.000000  0.166667  0.333333      2.000000
  0.166667  0.166667  0.333333      2.000000
  0.333333  0.166667  0.333333      2.000000
  0.500000  0.166667  0.333333      2.000000
 -0.333333  0.166667  0.333333      2.000000
 -0.166667  0.166667  0.333333      2.000000
  0.000000  0.333333  0.333333      2.000000
  0.166667  0.333333  0.333333      2.000000
  0.333333  0.333333  0.333333      2.000000
  0.500000  0.333333  0.333333      2.000000
 -0.333333  0.333333  0.333333      2.000000
 -0.166667  0.333333  0.333333      2.000000
 -0.000000  0.500000  0.333333      2.000000
  0.166667  0.500000  0.333333      2.000000
  0.333333  0.500000  0.333333      2.000000
  0.500000  0.500000  0.333333      2.000000
 -0.333333  0.500000  0.333333      2.000000
 -0.166667  0.500000  0.333333      2.000000
 -0.000000 -0.333333  0.333333      2.000000
  0.166667 -0.333333  0.333333      2.000000
  0.333333 -0.333333  0.333333      2.000000
  0.500000 -0.333333  0.333333      2.000000
 -0.333333 -0.333333  0.333333      2.000000
 -0.166667 -0.333333  0.333333      2.000000
  0.000000 -0.166667  0.333333      2.000000
  0.166667 -0.166667  0.333333      2.000000
  0.333333 -0.166667  0.333333      2.000000
  0.500000 -0.166667  0.333333      2.000000
 -0.333333 -0.166667  0.333333      2.000000
 -0.166667 -0.166667  0.333333      2.000000
 -0.000000 -0.000000  0.500000      1.000000
  0.166667 -0.000000  0.500000      2.000000
  0.333333 -0.000000  0.500000      2.000000
  0.500000 -0.000000  0.500000      1.000000
 -0.000000  0.166667  0.500000      2.000000
  0.166667  0.166667  0.500000      2.000000
  0.333333  0.166667  0.500000      2.000000
  0.500000  0.166667  0.500000      2.000000
 -0.333333  0.166667  0.500000      2.000000
 -0.166667  0.166667  0.500000      2.000000
 -0.000000  0.333333  0.500000      2.000000
  0.166667  0.333333  0.500000      2.000000
  0.333333  0.333333  0.500000      2.000000
  0.500000  0.333333  0.500000      2.000000
 -0.333333  0.333333  0.500000      2.000000
 -0.166667  0.333333  0.500000      2.000000
 -0.000000  0.500000  0.500000      1.000000
  0.166667  0.500000  0.500000      2.000000
  0.333333  0.500000  0.500000      2.000000
  0.500000  0.500000  0.500000      1.000000
 
 Following cartesian coordinates:
            Coordinates               Weight
  0.000000  0.000000  0.000000      1.000000
  0.018865 -0.000014 -0.000131      2.000000
  0.037730 -0.000028 -0.000262      2.000000
  0.056594 -0.000042 -0.000393      1.000000
 -0.000001  0.018870  0.000075      2.000000
  0.018864  0.018856 -0.000056      2.000000
  0.037728  0.018842 -0.000187      2.000000
  0.056593  0.018828 -0.000318      2.000000
 -0.037731  0.018897  0.000337      2.000000
 -0.018866  0.018883  0.000206      2.000000
 -0.000002  0.037739  0.000151      2.000000
  0.018863  0.037725  0.000020      2.000000
  0.037727  0.037711 -0.000111      2.000000
  0.056592  0.037697 -0.000242      2.000000
 -0.037732  0.037767  0.000413      2.000000
 -0.018867  0.037753  0.000282      2.000000
 -0.000003  0.056609  0.000226      1.000000
  0.018862  0.056595  0.000095      2.000000
  0.037726  0.056581 -0.000036      2.000000
  0.056591  0.056567 -0.000167      1.000000
 -0.000063  0.000043  0.018794      2.000000
  0.018802  0.000029  0.018663      2.000000
  0.037666  0.000016  0.018532      2.000000
  0.056531  0.000002  0.018401      2.000000
 -0.037793  0.000071  0.019056      2.000000
 -0.018928  0.000057  0.018925      2.000000
 -0.000064  0.018913  0.018869      2.000000
  0.018801  0.018899  0.018738      2.000000
  0.037665  0.018885  0.018607      2.000000
  0.056530  0.018871  0.018476      2.000000
 -0.037794  0.018941  0.019131      2.000000
 -0.018929  0.018927  0.019000      2.000000
 -0.000065  0.037782  0.018945      2.000000
  0.018800  0.037769  0.018814      2.000000
  0.037664  0.037755  0.018683      2.000000
  0.056529  0.037741  0.018552      2.000000
 -0.037795  0.037810  0.019206      2.000000
 -0.018930  0.037796  0.019076      2.000000
 -0.000066  0.056652  0.019020      2.000000
  0.018799  0.056638  0.018889      2.000000
  0.037663  0.056624  0.018758      2.000000
  0.056528  0.056610  0.018627      2.000000
 -0.037796  0.056680  0.019282      2.000000
 -0.018931  0.056666  0.019151      2.000000
 -0.000061 -0.037696  0.018643      2.000000
  0.018804 -0.037710  0.018512      2.000000
  0.037668 -0.037724  0.018381      2.000000
  0.056533 -0.037738  0.018250      2.000000
 -0.037791 -0.037668  0.018905      2.000000
 -0.018926 -0.037682  0.018774      2.000000
 -0.000062 -0.018826  0.018718      2.000000
  0.018803 -0.018840  0.018587      2.000000
  0.037667 -0.018854  0.018456      2.000000
  0.056532 -0.018868  0.018325      2.000000
 -0.037792 -0.018798  0.018980      2.000000
 -0.018927 -0.018812  0.018849      2.000000
 -0.000126  0.000087  0.037588      2.000000
  0.018739  0.000073  0.037457      2.000000
  0.037603  0.000059  0.037326      2.000000
  0.056468  0.000045  0.037195      2.000000
 -0.037856  0.000114  0.037849      2.000000
 -0.018991  0.000101  0.037718      2.000000
 -0.000127  0.018956  0.037663      2.000000
  0.018738  0.018942  0.037532      2.000000
  0.037602  0.018928  0.037401      2.000000
  0.056467  0.018914  0.037270      2.000000
 -0.037857  0.018984  0.037925      2.000000
 -0.018992  0.018970  0.037794      2.000000
 -0.000128  0.037826  0.037738      2.000000
  0.018737  0.037812  0.037607      2.000000
  0.037601  0.037798  0.037476      2.000000
  0.056466  0.037784  0.037345      2.000000
 -0.037858  0.037854  0.038000      2.000000
 -0.018993  0.037840  0.037869      2.000000
 -0.000129  0.056695  0.037814      2.000000
  0.018736  0.056681  0.037683      2.000000
  0.037600  0.056667  0.037552      2.000000
  0.056465  0.056654  0.037421      2.000000
 -0.037859  0.056723  0.038076      2.000000
 -0.018994  0.056709  0.037945      2.000000
 -0.000124 -0.037652  0.037437      2.000000
  0.018741 -0.037666  0.037306      2.000000
  0.037605 -0.037680  0.037175      2.000000
  0.056470 -0.037694  0.037044      2.000000
 -0.037854 -0.037625  0.037699      2.000000
 -0.018989 -0.037639  0.037568      2.000000
 -0.000125 -0.018783  0.037512      2.000000
  0.018740 -0.018797  0.037381      2.000000
  0.037604 -0.018811  0.037250      2.000000
  0.056469 -0.018825  0.037119      2.000000
 -0.037855 -0.018755  0.037774      2.000000
 -0.018990 -0.018769  0.037643      2.000000
 -0.000189  0.000130  0.056381      1.000000
  0.018675  0.000116  0.056250      2.000000
  0.037540  0.000102  0.056119      2.000000
  0.056405  0.000088  0.055988      1.000000
 -0.000190  0.018999  0.056457      2.000000
  0.018674  0.018986  0.056326      2.000000
  0.037539  0.018972  0.056195      2.000000
  0.056404  0.018958  0.056064      2.000000
 -0.037920  0.019027  0.056719      2.000000
 -0.019055  0.019013  0.056588      2.000000
 -0.000191  0.037869  0.056532      2.000000
  0.018673  0.037855  0.056401      2.000000
  0.037538  0.037841  0.056270      2.000000
  0.056403  0.037827  0.056139      2.000000
 -0.037921  0.037897  0.056794      2.000000
 -0.019056  0.037883  0.056663      2.000000
 -0.000192  0.056739  0.056607      1.000000
  0.018672  0.056725  0.056476      2.000000
  0.037537  0.056711  0.056346      2.000000
  0.056402  0.056697  0.056215      1.000000
 
 -----------------------------------------------------------------------------
|                                                                             |
|           W    W    AA    RRRRR   N    N  II  N    N   GGGG   !!!           |
|           W    W   A  A   R    R  NN   N  II  NN   N  G    G  !!!           |
|           W    W  A    A  R    R  N N  N  II  N N  N  G       !!!           |
|           W WW W  AAAAAA  RRRRR   N  N N  II  N  N N  G  GGG   !            |
|           WW  WW  A    A  R   R   N   NN  II  N   NN  G    G                |
|           W    W  A    A  R    R  N    N  II  N    N   GGGG   !!!           |
|                                                                             |
|     The number of bands has been changed from the values supplied in        |
|     the INCAR file. This is a result of running the parallel version.       |
|     The orbitals not found in the WAVECAR file will be initialized with     |
|     random numbers, which is usually adequate. For correlated               |
|     calculations, however, you should redo the groundstate calculation.     |
|     I found NBANDS = 312. Now, NBANDS = 336.                                |
|                                                                             |
 -----------------------------------------------------------------------------



--------------------------------------------------------------------------------------------------------




 Dimension of arrays:
   k-points           NKPTS =    112   k-points in BZ     NKDIM =    112   number of bands    NBANDS=    336
   number of dos      NEDOS =   1000   number of ions     NIONS =     64
   non local maximal  LDIM  =      6   non local SUM 2l+1 LMDIM =     18
   total plane-waves  NPLWV = 110592
   max r-space proj   IRMAX =      1   max aug-charges    IRDMAX=   9320
   dimension x,y,z NGX =    48 NGY =   48 NGZ =   48
   dimension x,y,z NGXF=    96 NGYF=   96 NGZF=   96
   support grid    NGXF=    96 NGYF=   96 NGZF=   96
   ions per type =               7   6   7  13  19   6   6
   NGX,Y,Z   is equivalent  to a cutoff of   9.03,  9.03,  9.00 a.u.
   NGXF,Y,Z  is equivalent  to a cutoff of  18.06, 18.07, 18.00 a.u.

 SYSTEM =  HEBCN                                   
 POSCAR =  52-HfVNbTaW                             

 Startparameter for this run:
   NWRITE =      2    write-flag & timer
   PREC   = normal    normal or accurate (medium, high low for compatibility)
   ISTART =      1    job   : 0-new  1-cont  2-samecut
   ICHARG =     11    charge: 1-file 2-atom 10-const
   ISPIN  =      1    spin polarized calculation?
   LNONCOLLINEAR =      F non collinear calculations
   LSORBIT =      F    spin-orbit coupling
   INIWAV =      1    electr: 0-lowe 1-rand  2-diag
   LASPH  =      F    aspherical Exc in radial PAW
 Electronic Relaxation 1
   ENCUT  =  400.0 eV  29.40 Ry    5.42 a.u.  14.41 14.40 14.46*2*pi/ulx,y,z
   ENINI  =  400.0     initial cutoff
   ENAUG  =  644.9 eV  augmentation charge cutoff
   NELM   =     60;   NELMIN=  2; NELMDL=  0     # of ELM steps 
   EDIFF  = 0.1E-04   stopping-criterion for ELM
   LREAL  =      F    real-space projection
   NLSPLINE    = F    spline interpolate recip. space projectors
   LCOMPAT=      F    compatible to vasp.4.4
   GGA_COMPAT  = T    GGA compatible to vasp.4.4-vasp.4.6
   LMAXPAW     = -100 max onsite density
   LMAXMIX     =    2 max onsite mixed and CHGCAR
   VOSKOWN=      0    Vosko Wilk Nusair interpolation
   ROPT   =    0.00000   0.00000   0.00000   0.00000
   ROPT   =    0.00000   0.00000   0.00000
 Ionic relaxation
   EDIFFG = -.1E-01   stopping-criterion for IOM
   NSW    =      0    number of steps for IOM
   NBLOCK =      1;   KBLOCK =      1    inner block; outer block 
   IBRION =     -1    ionic relax: 0-MD 1-quasi-New 2-CG
   NFREE  =      0    steps in history (QN), initial steepest desc. (CG)
   ISIF   =      2    stress and relaxation
   IWAVPR =     10    prediction:  0-non 1-charg 2-wave 3-comb
   ISYM   =      2    0-nonsym 1-usesym 2-fastsym
   LCORR  =      T    Harris-Foulkes like correction to forces

   POTIM  = 0.5000    time-step for ionic-motion
   TEIN   =    0.0    initial temperature
   TEBEG  =    0.0;   TEEND  =   0.0 temperature during run
   SMASS  =  -3.00    Nose mass-parameter (am)
   estimated Nose-frequenzy (Omega)   =  0.10E-29 period in steps = 0.13E+47 mass=  -0.178E-26a.u.
   SCALEE = 1.0000    scale energy and forces
   NPACO  =    256;   APACO  = 10.0  distance and # of slots for P.C.
   PSTRESS=    0.0 pullay stress

  Mass of Ions in am
   POMASS = 178.49 92.91 50.94 14.00 12.01183.85180.95
  Ionic Valenz
   ZVAL   =  10.00 13.00 13.00  5.00  4.00 12.00 11.00
  Atomic Wigner-Seitz radii
   RWIGS  =  -1.00 -1.00 -1.00 -1.00 -1.00 -1.00 -1.00
  virtual crystal weights 
   VCA    =   1.00  1.00  1.00  1.00  1.00  1.00  1.00
   NELECT =     518.0000    total number of electrons
   NUPDOWN=      -1.0000    fix difference up-down

 DOS related values:
   EMIN   = -58.00;   EMAX   = 14.00  energy-range for DOS
   EFERMI =   0.00;   METHOD = LEGACY      
   ISMEAR =     0;   SIGMA  =   0.10  broadening in eV -4-tet -1-fermi 0-gaus

 Electronic relaxation 2 (details)
   IALGO  =     68    algorithm
   LDIAG  =      T    sub-space diagonalisation (order eigenvalues)
   LSUBROT=      F    optimize rotation matrix (better conditioning)
   TURBO    =      0    0=normal 1=particle mesh
   IRESTART =      0    0=no restart 2=restart with 2 vectors
   NREBOOT  =      0    no. of reboots
   NMIN     =      0    reboot dimension
   EREF     =   0.00    reference energy to select bands
   IMIX   =      4    mixing-type and parameters
     AMIX     =   0.40;   BMIX     =  1.00
     AMIX_MAG =   1.60;   BMIX_MAG =  1.00
     AMIN     =   0.10
     WC   =   100.;   INIMIX=   1;  MIXPRE=   1;  MAXMIX= -45

 Intra band minimization:
   WEIMIN = 0.0000     energy-eigenvalue tresh-hold
   EBREAK =  0.74E-08  absolut break condition
   DEPER  =   0.30     relativ break condition  

   TIME   =   0.40     timestep for ELM

  volume/ion in A,a.u.               =      10.81        72.97
  Fermi-wavevector in a.u.,A,eV,Ry     =   1.486415  2.808917 30.061121  2.209430
  Thomas-Fermi vector in A             =   2.599704
 
 Write flags
   LWAVE        =      F    write WAVECAR
   LDOWNSAMPLE  =      F    k-point downsampling of WAVECAR
   LCHARG       =      T    write CHGCAR
   LVTOT        =      F    write LOCPOT, total local potential
   LVHAR        =      F    write LOCPOT, Hartree potential only
   WRT_POTENTIAL= false  ! write potential to hdf5 file
   LELF         =      F    write electronic localiz. function (ELF)
   LORBIT       =     10    0 simple, 1 ext, 2 COOP (PROOUT), +10 PAW based schemes


 Dipole corrections
   LMONO      =      F    monopole corrections only (constant potential shift)
   LDIPOL     =      F    correct potential (dipole corrections)
   IDIPOL     =      0    1-x, 2-y, 3-z, 4-all directions 
   EPSILON    =  1.0000000 bulk dielectric constant
   LVACPOTAV  =      F  vacuum potentials using an averaging scheme for the charge density
   VACPOTFLAT =  0.1000000 required flatness to determine vacuum potential
 Exchange correlation treatment:
   GGA     = PE    functional components
   XC_C    = 1    coefficients multiplying the functional components
   LIBXC   =     F    Libxc                    
   VOSKOWN =     0    Vosko Wilk Nusair interpolation
   LHFCALC =     F    Hartree Fock is set to
   LHFONE  =     F    Hartree Fock one center treatment
   AEXX    =    0.0000 exact exchange contribution

 Parameters of functionals:
   PE:
     No parameter
 
 Van der Waals corrections
   IVDW    =     0    specifies the selected vdW correction

 Linear response parameters
   LEPSILON=     F    determine dielectric tensor
   LRPA    =     F    only Hartree local field effects (RPA)
   LNABLA  =     F    use nabla operator in PAW spheres
   LVEL    =     F    velocity operator in full k-point grid
   CSHIFT  =0.1000    complex shift for real part using Kramers Kronig
   OMEGAMAX=  -1.0    maximum frequency
   DEG_THRESHOLD= 0.2000000E-02 threshold for treating states as degnerate
   RTIME   =   -0.100 relaxation time in fs
  (WPLASMAI=    0.000 imaginary part of plasma frequency in eV, 0.658/RTIME)
   DFIELD  = 0.0000000 0.0000000 0.0000000 field for delta impulse in time
 
  Optional k-point grid parameters
   LKPOINTS_OPT  =     F    use optional k-point grid
   KPOINTS_OPT_MODE=     1    mode for optional k-point grid
 
 Orbital magnetization related:
   ORBITALMAG=     F  switch on orbital magnetization
   LCHIMAG   =     F  perturbation theory with respect to B field
   DQ        =  0.001000  dq finite difference perturbation B field
   LLRAUG    =     F  two centre corrections for induced B field
   LBONE     =     F  B-component reconstruction in AE one-centre
   LVGVCALC  =     T  calculate vGv susceptibility
   LVGVAPPL  =     F  apply vGv susceptibility instead of pGv for G=0

 Random number generation:
   RANDOM_GENERATOR = DEFAULT
   PCG_SEED         = not used


--------------------------------------------------------------------------------------------------------


 Static calculation
 charge density and potential remain constant during run
 non-spin polarized calculation
 RMM-DIIS sequential band-by-band and
  variant of blocked Davidson during initial phase
 perform sub-space diagonalisation
    before iterative eigenvector-optimisation
 no mixing
 using additional bands           77
 reciprocal scheme for non local part
 use partial core corrections
 calculate Harris-corrections to forces 
   (improved forces if not selfconsistent)
 use gradient corrections 
 WARNING: stress and forces are not correct
  (second derivative of E(xc) not defined)
 use of overlap-Matrix (Vanderbilt PP)
 Gauss-broadening in eV      SIGMA  =   0.10


--------------------------------------------------------------------------------------------------------


  energy-cutoff  :      400.00
  volume of cell :      692.04
      direct lattice vectors                 reciprocal lattice vectors
     8.835024796  0.000356875  0.029657117     0.113188515 -0.000083386 -0.000785853
     0.006365846  8.832650343 -0.020332620    -0.000006092  0.113217347  0.000452342
     0.061546553 -0.035429334  8.868479789    -0.000378528  0.000259850  0.112762562

  length of vectors
     8.835074579  8.832676039  8.868764118     0.113191274  0.113218250  0.112763497


 
 old parameters found on file WAVECAR:
  energy-cutoff  :      400.00
  volume of cell :      692.04
      direct lattice vectors                 reciprocal lattice vectors
     8.835024796  0.000356875  0.029657117     0.113188515 -0.000083386 -0.000785853
     0.006365846  8.832650343 -0.020332620    -0.000006092  0.113217347  0.000452342
     0.061546553 -0.035429334  8.868479789    -0.000378528  0.000259850  0.112762562

  length of vectors

 
 k-points in units of 2pi/SCALE and weight: HECN                                    
   0.00000000  0.00000000  0.00000000       0.005
   0.01886475 -0.00001390 -0.00013098       0.009
   0.03772950 -0.00002780 -0.00026195       0.009
   0.05659426 -0.00004169 -0.00039293       0.005
  -0.00000102  0.01886956  0.00007539       0.009
   0.01886374  0.01885566 -0.00005559       0.009
   0.03772849  0.01884176 -0.00018656       0.009
   0.05659324  0.01882786 -0.00031754       0.009
  -0.03773052  0.01889735  0.00033734       0.009
  -0.01886577  0.01888346  0.00020637       0.009
  -0.00000203  0.03773912  0.00015078       0.009
   0.01886272  0.03772522  0.00001981       0.009
   0.03772747  0.03771132 -0.00011117       0.009
   0.05659223  0.03769742 -0.00024215       0.009
  -0.03773154  0.03776691  0.00041273       0.009
  -0.01886678  0.03775301  0.00028176       0.009
  -0.00000305  0.05660867  0.00022617       0.005
   0.01886171  0.05659478  0.00009520       0.009
   0.03772646  0.05658088 -0.00003578       0.009
   0.05659121  0.05656698 -0.00016676       0.005
  -0.00006309  0.00004331  0.01879376       0.009
   0.01880166  0.00002941  0.01866278       0.009
   0.03766642  0.00001551  0.01853181       0.009
   0.05653117  0.00000162  0.01840083       0.009
  -0.03779259  0.00007110  0.01905571       0.009
  -0.01892784  0.00005721  0.01892474       0.009
  -0.00006410  0.01891287  0.01886915       0.009
   0.01880065  0.01889897  0.01873818       0.009
   0.03766540  0.01888507  0.01860720       0.009
   0.05653015  0.01887117  0.01847622       0.009
  -0.03779361  0.01894066  0.01913110       0.009
  -0.01892886  0.01892676  0.01900013       0.009
  -0.00006512  0.03778242  0.01894454       0.009
   0.01879963  0.03776853  0.01881357       0.009
   0.03766439  0.03775463  0.01868259       0.009
   0.05652914  0.03774073  0.01855161       0.009
  -0.03779462  0.03781022  0.01920649       0.009
  -0.01892987  0.03779632  0.01907552       0.009
  -0.00006613  0.05665198  0.01901993       0.009
   0.01879862  0.05663808  0.01888896       0.009
   0.03766337  0.05662419  0.01875798       0.009
   0.05652812  0.05661029  0.01862701       0.009
  -0.03779564  0.05667978  0.01928188       0.009
  -0.01893089  0.05666588  0.01915091       0.009
  -0.00006106 -0.03769581  0.01864298       0.009
   0.01880370 -0.03770970  0.01851200       0.009
   0.03766845 -0.03772360  0.01838103       0.009
   0.05653320 -0.03773750  0.01825005       0.009
  -0.03779056 -0.03766801  0.01890493       0.009
  -0.01892581 -0.03768191  0.01877395       0.009
  -0.00006207 -0.01882625  0.01871837       0.009
   0.01880268 -0.01884015  0.01858739       0.009
   0.03766743 -0.01885404  0.01845642       0.009
   0.05653218 -0.01886794  0.01832544       0.009
  -0.03779158 -0.01879845  0.01898032       0.009
  -0.01892683 -0.01881235  0.01884935       0.009
  -0.00012618  0.00008662  0.03758752       0.009
   0.01873858  0.00007272  0.03745655       0.009
   0.03760333  0.00005882  0.03732557       0.009
   0.05646808  0.00004492  0.03719459       0.009
  -0.03785568  0.00011441  0.03784947       0.009
  -0.01899093  0.00010051  0.03771850       0.009
  -0.00012719  0.01895617  0.03766291       0.009
   0.01873756  0.01894228  0.03753194       0.009
   0.03760231  0.01892838  0.03740096       0.009
   0.05646707  0.01891448  0.03726998       0.009
  -0.03785670  0.01898397  0.03792486       0.009
  -0.01899194  0.01897007  0.03779389       0.009
  -0.00012821  0.03782573  0.03773830       0.009
   0.01873655  0.03781183  0.03760733       0.009
   0.03760130  0.03779794  0.03747635       0.009
   0.05646605  0.03778404  0.03734538       0.009
  -0.03785771  0.03785353  0.03800025       0.009
  -0.01899296  0.03783963  0.03786928       0.009
  -0.00012922  0.05669529  0.03781369       0.009
   0.01873553  0.05668139  0.03768272       0.009
   0.03760028  0.05666749  0.03755174       0.009
   0.05646504  0.05665360  0.03742077       0.009
  -0.03785873  0.05672309  0.03807564       0.009
  -0.01899397  0.05670919  0.03794467       0.009
  -0.00012415 -0.03765250  0.03743674       0.009
   0.01874061 -0.03766640  0.03730576       0.009
   0.03760536 -0.03768029  0.03717479       0.009
   0.05647011 -0.03769419  0.03704381       0.009
  -0.03785365 -0.03762470  0.03769869       0.009
  -0.01898890 -0.03763860  0.03756772       0.009
  -0.00012516 -0.01878294  0.03751213       0.009
   0.01873959 -0.01879684  0.03738115       0.009
   0.03760434 -0.01881074  0.03725018       0.009
   0.05646910 -0.01882463  0.03711920       0.009
  -0.03785467 -0.01875515  0.03777408       0.009
  -0.01898991 -0.01876904  0.03764311       0.009
  -0.00018926  0.00012993  0.05638128       0.005
   0.01867549  0.00011603  0.05625031       0.009
   0.03754024  0.00010213  0.05611933       0.009
   0.05640499  0.00008823  0.05598835       0.005
  -0.00019028  0.01899948  0.05645667       0.009
   0.01867447  0.01898559  0.05632570       0.009
   0.03753923  0.01897169  0.05619472       0.009
   0.05640398  0.01895779  0.05606375       0.009
  -0.03791978  0.01902728  0.05671862       0.009
  -0.01905503  0.01901338  0.05658765       0.009
  -0.00019129  0.03786904  0.05653206       0.009
   0.01867346  0.03785514  0.05640109       0.009
   0.03753821  0.03784125  0.05627011       0.009
   0.05640296  0.03782735  0.05613914       0.009
  -0.03792080  0.03789684  0.05679401       0.009
  -0.01905605  0.03788294  0.05666304       0.009
  -0.00019231  0.05673860  0.05660745       0.005
   0.01867244  0.05672470  0.05647648       0.009
   0.03753720  0.05671080  0.05634550       0.009
   0.05640195  0.05669691  0.05621453       0.005
 
 k-points in reciprocal lattice and weights: HECN                                    
   0.00000000  0.00000000  0.00000000       0.005
   0.16666667  0.00000000  0.00000000       0.009
   0.33333333  0.00000000 -0.00000000       0.009
   0.50000000  0.00000000  0.00000000       0.005
  -0.00000000  0.16666667 -0.00000000       0.009
   0.16666667  0.16666667  0.00000000       0.009
   0.33333333  0.16666667 -0.00000000       0.009
   0.50000000  0.16666667  0.00000000       0.009
  -0.33333333  0.16666667  0.00000000       0.009
  -0.16666667  0.16666667 -0.00000000       0.009
  -0.00000000  0.33333333 -0.00000000       0.009
   0.16666667  0.33333333  0.00000000       0.009
   0.33333333  0.33333333 -0.00000000       0.009
   0.50000000  0.33333333 -0.00000000       0.009
  -0.33333333  0.33333333  0.00000000       0.009
  -0.16666667  0.33333333 -0.00000000       0.009
  -0.00000000  0.50000000 -0.00000000       0.005
   0.16666667  0.50000000  0.00000000       0.009
   0.33333333  0.50000000 -0.00000000       0.009
   0.50000000  0.50000000 -0.00000000       0.005
  -0.00000000 -0.00000000  0.16666667       0.009
   0.16666667  0.00000000  0.16666667       0.009
   0.33333333 -0.00000000  0.16666667       0.009
   0.50000000 -0.00000000  0.16666667       0.009
  -0.33333333 -0.00000000  0.16666667       0.009
  -0.16666667  0.00000000  0.16666667       0.009
  -0.00000000  0.16666667  0.16666667       0.009
   0.16666667  0.16666667  0.16666667       0.009
   0.33333333  0.16666667  0.16666667       0.009
   0.50000000  0.16666667  0.16666667       0.009
  -0.33333333  0.16666667  0.16666667       0.009
  -0.16666667  0.16666667  0.16666667       0.009
  -0.00000000  0.33333333  0.16666667       0.009
   0.16666667  0.33333333  0.16666667       0.009
   0.33333333  0.33333333  0.16666667       0.009
   0.50000000  0.33333333  0.16666667       0.009
  -0.33333333  0.33333333  0.16666667       0.009
  -0.16666667  0.33333333  0.16666667       0.009
  -0.00000000  0.50000000  0.16666667       0.009
   0.16666667  0.50000000  0.16666667       0.009
   0.33333333  0.50000000  0.16666667       0.009
   0.50000000  0.50000000  0.16666667       0.009
  -0.33333333  0.50000000  0.16666667       0.009
  -0.16666667  0.50000000  0.16666667       0.009
  -0.00000000 -0.33333333  0.16666667       0.009
   0.16666667 -0.33333333  0.16666667       0.009
   0.33333333 -0.33333333  0.16666667       0.009
   0.50000000 -0.33333333  0.16666667       0.009
  -0.33333333 -0.33333333  0.16666667       0.009
  -0.16666667 -0.33333333  0.16666667       0.009
  -0.00000000 -0.16666667  0.16666667       0.009
   0.16666667 -0.16666667  0.16666667       0.009
   0.33333333 -0.16666667  0.16666667       0.009
   0.50000000 -0.16666667  0.16666667       0.009
  -0.33333333 -0.16666667  0.16666667       0.009
  -0.16666667 -0.16666667  0.16666667       0.009
  -0.00000000 -0.00000000  0.33333333       0.009
   0.16666667 -0.00000000  0.33333333       0.009
   0.33333333 -0.00000000  0.33333333       0.009
   0.50000000 -0.00000000  0.33333333       0.009
  -0.33333333 -0.00000000  0.33333333       0.009
  -0.16666667 -0.00000000  0.33333333       0.009
  -0.00000000  0.16666667  0.33333333       0.009
   0.16666667  0.16666667  0.33333333       0.009
   0.33333333  0.16666667  0.33333333       0.009
   0.50000000  0.16666667  0.33333333       0.009
  -0.33333333  0.16666667  0.33333333       0.009
  -0.16666667  0.16666667  0.33333333       0.009
   0.00000000  0.33333333  0.33333333       0.009
   0.16666667  0.33333333  0.33333333       0.009
[...]
  in kB       4.00885    -8.47086     0.69271     0.07975    -0.41061    -0.36767
  external pressure =       -1.26 kB  Pullay stress =        0.00 kB


 VOLUME and BASIS-vectors are now :
 -----------------------------------------------------------------------------
  energy-cutoff  :      400.00
  volume of cell :      692.04
      direct lattice vectors                 reciprocal lattice vectors
     8.835024796  0.000356875  0.029657117     0.113188515 -0.000083386 -0.000785853
     0.006365846  8.832650343 -0.020332620    -0.000006092  0.113217347  0.000452342
     0.061546553 -0.035429334  8.868479789    -0.000378528  0.000259850  0.112762562

  length of vectors
     8.835074579  8.832676039  8.868764118     0.113191274  0.113218250  0.112763497


 FORCES acting on ions
    electron-ion (+dipol)            ewald-force                    non-local-force                 convergence-correction
 -----------------------------------------------------------------------------------------------
   -.600E+02 0.495E+02 -.430E+02   0.596E+02 -.492E+02 0.442E+02   -.207E+00 0.768E-01 -.123E+01   0.512E+00 -.333E+00 -.167E-02
   0.525E+02 0.532E+02 0.231E+02   -.526E+02 -.526E+02 -.230E+02   0.865E+00 -.207E+00 -.270E+00   -.695E+00 -.406E+00 0.284E+00
   0.884E+01 -.568E+02 -.545E+02   -.736E+01 0.562E+02 0.549E+02   -.891E+00 0.216E+00 -.600E+00   -.529E+00 0.372E+00 0.273E+00
   -.230E+02 -.814E+02 0.482E+02   0.235E+02 0.794E+02 -.486E+02   0.807E-01 0.141E+01 0.528E+00   -.613E+00 0.658E+00 -.221E+00
   -.158E+02 -.967E+02 0.490E+02   0.157E+02 0.974E+02 -.476E+02   0.673E+00 -.116E+01 -.820E+00   -.453E+00 0.352E+00 -.525E+00
   0.310E+02 -.823E+02 0.509E+02   -.306E+02 0.824E+02 -.500E+02   -.819E+00 -.320E+00 -.102E+01   0.380E+00 0.243E+00 0.142E+00
   -.177E+02 0.100E+03 0.110E+02   0.173E+02 -.101E+03 -.108E+02   0.803E+00 0.132E+01 0.134E+00   -.390E+00 -.383E+00 -.363E+00
   -.110E+03 -.692E+02 0.890E+01   0.110E+03 0.687E+02 -.977E+01   -.309E+00 0.275E+00 0.318E+00   0.806E+00 0.333E+00 0.504E+00
   0.434E+02 0.112E+03 -.179E+02   -.440E+02 -.112E+03 0.185E+02   -.286E+00 0.988E-01 -.313E+00   0.758E+00 -.406E+00 -.183E+00
   0.880E+02 -.226E+02 0.104E+02   -.888E+02 0.220E+02 -.991E+01   0.235E+00 -.153E+00 -.765E-03   0.483E+00 0.616E+00 -.436E+00
   0.200E+02 -.156E+03 -.156E+03   -.211E+02 0.155E+03 0.156E+03   0.233E+00 0.295E-01 -.152E+00   0.832E+00 0.574E+00 0.449E+00
   0.533E+02 0.102E+02 0.979E+02   -.533E+02 -.976E+01 -.978E+02   -.349E+00 0.267E+00 0.142E+00   0.422E+00 -.632E+00 -.249E+00
   -.117E+03 -.632E+02 0.900E+02   0.117E+03 0.629E+02 -.898E+02   -.990E-01 -.114E+00 0.102E+00   -.653E+00 0.438E+00 -.386E+00
   -.233E+02 0.586E+02 -.740E+02   0.266E+02 -.578E+02 0.731E+02   -.235E+01 -.126E+01 0.101E+01   -.895E+00 0.480E+00 -.129E+00
   0.186E+03 -.756E+02 -.831E+02   -.186E+03 0.771E+02 0.814E+02   0.860E+00 -.213E+01 0.805E+00   -.951E+00 0.644E+00 0.853E+00
   -.109E+03 0.141E+03 0.159E+02   0.109E+03 -.141E+03 -.176E+02   -.692E+00 0.146E+01 0.130E+01   0.925E+00 -.639E+00 0.477E+00
   -.864E+02 -.158E+03 0.167E+03   0.839E+02 0.159E+03 -.166E+03   0.152E+01 -.100E+01 -.909E+00   0.920E+00 0.403E+00 -.523E+00
   -.113E+03 -.961E+02 -.627E+02   0.113E+03 0.955E+02 0.632E+02   0.479E+00 0.102E+01 -.450E+00   -.592E+00 -.374E+00 -.249E-01
   -.105E+03 -.836E+02 0.106E+03   0.105E+03 0.837E+02 -.106E+03   0.669E+00 -.506E+00 -.924E+00   -.700E+00 0.446E+00 0.441E-01
   0.749E+02 0.106E+03 0.250E+02   -.756E+02 -.106E+03 -.252E+02   0.102E+01 0.480E+00 0.221E+00   -.444E+00 -.458E+00 0.640E-02
   -.101E+01 -.757E+01 -.167E+02   0.329E+01 0.722E+01 0.171E+02   -.175E+01 0.210E+00 -.509E+00   -.545E+00 0.135E+00 0.802E-01
   -.155E+01 0.331E+02 -.254E+02   0.223E+01 -.341E+02 0.265E+02   -.343E+00 0.112E+01 -.110E+01   -.315E+00 -.162E+00 0.304E-01
   0.104E+02 0.111E+02 -.158E+02   -.121E+02 -.129E+02 0.166E+02   0.128E+01 0.161E+01 -.812E+00   0.485E+00 0.197E+00 0.356E-01
   -.491E+02 -.585E+02 -.320E+02   0.485E+02 0.559E+02 0.299E+02   -.317E-01 0.231E+01 0.148E+01   0.700E+00 0.280E+00 0.603E+00
   -.709E+02 0.542E+02 -.879E+01   0.749E+02 -.528E+02 0.150E+02   -.435E+01 -.927E+00 -.621E+01   0.430E+00 -.523E+00 -.113E+00
   0.850E+02 0.349E+02 0.302E+02   -.837E+02 -.326E+02 -.332E+02   -.979E+00 -.189E+01 0.278E+01   -.373E+00 -.432E+00 0.212E+00
   -.122E+02 -.439E+02 -.363E+02   0.129E+02 0.437E+02 0.374E+02   -.971E+00 0.194E+00 -.121E+01   0.248E+00 0.548E-01 0.147E+00
   0.180E+02 0.358E+02 0.830E+01   -.197E+02 -.355E+02 -.913E+01   0.196E+01 -.817E-01 0.904E+00   -.271E+00 -.236E+00 -.334E-01
   0.204E+02 0.184E+02 -.668E+01   -.230E+02 -.176E+02 0.637E+01   0.223E+01 -.793E+00 0.428E+00   0.125E+00 -.179E+00 -.124E+00
   0.289E+02 -.438E+02 0.243E+02   -.286E+02 0.438E+02 -.232E+02   -.635E+00 -.116E+00 -.641E+00   0.302E+00 0.131E+00 -.440E+00
   -.269E+02 0.367E+02 -.752E+02   0.284E+02 -.352E+02 0.773E+02   -.171E+01 -.135E+01 -.226E+01   0.288E+00 -.985E-01 0.192E+00
   0.269E+02 -.390E+02 -.524E+02   -.294E+02 0.393E+02 0.508E+02   0.264E+01 -.418E+00 0.138E+01   -.127E+00 0.193E+00 0.329E+00
   0.274E+02 0.917E+01 0.284E+02   -.292E+02 -.859E+01 -.313E+02   0.189E+01 -.441E+00 0.315E+01   -.150E+00 -.166E+00 -.204E+00
   -.507E+02 0.428E+02 0.163E+02   0.503E+02 -.427E+02 -.172E+02   0.633E-01 -.103E-01 0.878E+00   0.278E+00 -.567E-01 0.120E+00
   0.401E+02 -.386E+02 0.491E+02   -.406E+02 0.400E+02 -.488E+02   0.979E+00 -.156E+01 -.230E-01   -.550E+00 0.181E+00 -.297E+00
   0.208E+02 0.562E+01 -.105E+01   -.212E+02 -.541E+01 0.470E+00   0.568E+00 -.187E+00 0.392E+00   -.173E+00 -.925E-01 0.161E+00
   -.419E+02 -.135E+02 -.423E+02   0.439E+02 0.134E+02 0.430E+02   -.180E+01 -.565E-01 -.695E+00   -.187E+00 0.111E+00 -.154E-01
   0.198E+02 -.295E+02 -.346E+02   -.195E+02 0.312E+02 0.347E+02   -.471E+00 -.159E+01 -.679E-01   0.175E+00 -.135E+00 -.929E-01
   -.187E+02 0.573E+02 -.951E+01   0.191E+02 -.562E+02 0.874E+01   -.548E+00 -.101E+01 0.768E+00   0.155E+00 -.222E+00 0.652E-01
   0.242E+02 -.258E+02 0.126E+02   -.258E+02 0.244E+02 -.127E+02   0.134E+01 0.943E+00 0.183E+00   0.242E+00 0.395E+00 -.838E-01
   0.212E+02 -.473E+02 -.261E+01   -.220E+02 0.454E+02 0.163E+01   0.108E+01 0.154E+01 0.827E+00   -.207E+00 0.390E+00 0.173E+00
   -.505E+02 0.391E+01 0.157E+01   0.515E+02 -.329E+01 -.137E+01   -.806E+00 -.749E+00 -.158E+00   -.177E+00 0.155E+00 -.108E-01
   0.225E+00 0.577E+01 0.341E+02   0.809E-01 -.505E+01 -.353E+02   -.236E-01 -.429E+00 0.133E+01   -.215E+00 -.254E+00 -.284E-01
   0.203E+02 -.388E+02 0.870E+01   -.199E+02 0.397E+02 -.877E+01   -.431E+00 -.107E+01 0.362E-01   0.418E-01 0.112E+00 -.452E-01
   -.407E+02 0.405E+01 0.996E+01   0.415E+02 -.480E+01 -.953E+01   -.632E+00 0.925E+00 -.270E+00   -.207E+00 -.167E+00 -.161E+00
   0.755E+01 -.194E+02 0.331E+02   -.807E+01 0.191E+02 -.336E+02   0.643E+00 0.109E+00 0.614E+00   -.172E+00 0.235E+00 0.325E-01
   0.206E+02 0.370E+02 0.205E+02   -.201E+02 -.379E+02 -.203E+02   -.732E+00 0.982E+00 -.275E+00   0.239E+00 -.128E+00 0.882E-01
   0.372E+02 -.140E+02 0.487E+02   -.369E+02 0.140E+02 -.507E+02   -.510E+00 -.170E+00 0.218E+01   0.173E+00 0.198E+00 -.116E+00
   0.278E+02 0.442E+02 0.409E+02   -.284E+02 -.451E+02 -.408E+02   0.376E+00 0.107E+01 0.366E-01   0.238E+00 -.121E+00 -.102E+00
   -.790E+01 -.323E+02 -.221E+02   0.853E+01 0.319E+02 0.223E+02   -.780E+00 0.195E+00 -.141E+00   0.162E+00 0.853E-01 0.437E-01
   -.316E+02 0.458E+02 -.452E+02   0.309E+02 -.468E+02 0.475E+02   0.103E+01 0.113E+01 -.241E+01   -.278E+00 -.174E+00 0.529E-01
   -.302E+02 -.996E+01 0.594E+00   0.299E+02 0.986E+01 0.568E+00   0.483E+00 -.581E-01 -.980E+00   -.179E+00 0.141E+00 -.151E+00
   0.184E+03 0.111E+03 0.217E+02   -.184E+03 -.109E+03 -.201E+02   0.607E+00 -.101E+01 -.125E+01   -.725E+00 -.830E+00 -.342E+00
   0.698E+02 -.207E+02 -.851E+02   -.707E+02 0.204E+02 0.848E+02   0.212E+00 -.100E+00 0.527E+00   0.649E+00 0.408E+00 -.232E+00
   0.179E+02 0.877E+02 0.558E+02   -.184E+02 -.885E+02 -.567E+02   0.118E+01 0.124E+01 0.448E+00   -.657E+00 -.429E+00 0.399E+00
   -.526E+02 0.495E+02 -.518E+02   0.535E+02 -.497E+02 0.516E+02   -.698E+00 0.642E+00 0.551E+00   -.425E+00 -.443E+00 -.356E+00
   0.627E+02 -.241E+01 -.102E+03   -.637E+02 0.302E+01 0.101E+03   0.170E+01 0.568E-01 0.433E+00   -.631E+00 -.556E+00 0.353E+00
   -.368E+02 0.275E+02 0.112E+03   0.365E+02 -.279E+02 -.111E+03   -.135E+00 0.956E+00 0.207E+00   0.526E+00 -.542E+00 -.614E+00
   -.212E+02 0.611E+02 -.526E+02   0.213E+02 -.591E+02 0.528E+02   -.720E+00 -.169E+01 -.353E+00   0.612E+00 -.273E+00 0.217E+00
   -.317E+02 -.128E+03 -.507E+02   0.304E+02 0.129E+03 0.500E+02   0.652E+00 -.852E+00 0.125E+00   0.608E+00 0.548E+00 0.551E+00
   0.438E+01 0.943E+02 0.408E+02   -.350E+01 -.946E+02 -.417E+02   -.110E+01 0.504E+00 0.102E+01   0.386E+00 -.240E+00 -.618E-01
   -.310E+02 -.842E+01 -.538E+02   0.304E+02 0.821E+01 0.540E+02   0.113E+01 -.267E+00 -.446E+00   -.459E+00 0.454E+00 0.233E+00
   0.836E+02 -.155E+02 0.668E+02   -.852E+02 0.159E+02 -.662E+02   0.912E+00 -.876E+00 -.244E+00   0.581E+00 0.414E+00 -.456E+00
   -.534E+02 0.139E+03 -.525E+02   0.538E+02 -.140E+03 0.519E+02   -.718E+00 0.104E+01 0.327E+00   0.374E+00 -.493E+00 0.228E+00
 -----------------------------------------------------------------------------------------------
   -.361E+01 0.129E+01 0.935E+00   0.760E-12 0.313E-12 0.789E-12   0.352E+01 -.113E+01 -.119E+01   0.115E+00 -.212E+00 0.256E+00
 
 
 POSITION                                       TOTAL-FORCE (eV/Angst)
 -----------------------------------------------------------------------------------
      0.11173      0.02790      8.84616        -0.014206     -0.011993      0.013978
      2.32383      0.05030      2.15309         0.073050      0.045864      0.040655
      2.20993      4.33915      2.22655         0.057969     -0.037240      0.070265
      4.47600      4.37026      8.87128         0.038977     -0.004705     -0.027996
      4.46910      2.12477      6.63447         0.023527     -0.120876      0.027138
      0.05546      4.41169      4.45018        -0.007383      0.054565     -0.031104
      4.41042      6.65991      6.70188        -0.029249      0.073323      0.013864
      8.81309      2.08332      2.29861        -0.059795      0.042683     -0.043224
      6.72107      6.63817      0.04218        -0.136842     -0.058694      0.014569
      0.06579      2.25713      6.63174        -0.052915     -0.137284      0.027181
      6.71946      2.14678      4.33812        -0.095067     -0.034817      0.042144
      0.06641      6.57294      6.66863         0.053270      0.063122     -0.087748
      2.24924      4.39854      6.64836        -0.054864      0.035199     -0.042202
      2.29307      2.34082      8.72146         0.039352      0.030840     -0.016728
      4.53396      2.31499      2.12979         0.069965      0.051653     -0.093334
      6.63587      8.80473      2.45016        -0.163320     -0.001513     -0.001633
      6.41547      2.14805      0.13960        -0.050114      0.137368      0.038678
      2.04329      6.42750      0.01585         0.012646      0.059223     -0.035689
      2.10537      2.12196      4.59816         0.033575      0.021632     -0.063723
      2.33293      6.70034      4.37556        -0.101773     -0.022835      0.054494
      2.22466      2.18838      2.18660        -0.010097     -0.003076     -0.017737
      2.34281     -0.00957      8.80852         0.021407     -0.019495      0.024677
      8.80588      2.24605      0.04391         0.064136     -0.001073      0.033474
      6.59667      2.15922      2.15562         0.033002     -0.087805     -0.030106
      6.67807      0.07308      0.19162         0.088343     -0.036855     -0.071759
      4.55741      8.81640      2.08028         0.004941      0.011878     -0.028935
      8.82865      4.39829      2.20899         0.008222      0.031158      0.022692
      4.38331      6.68634      0.04442        -0.015955     -0.057668      0.040678
      8.77497      0.01546      6.67257        -0.198483     -0.086782     -0.003089
      6.68181      2.12887      6.67802        -0.049474      0.068105     -0.027706
      6.69109     -0.01565      4.63789         0.075785      0.062710      0.042936
      4.45056      2.13120      4.35587        -0.000692      0.111775      0.114240
      4.41110     -0.02149      6.52524        -0.061391     -0.026146     -0.024324
      8.85423      8.81924      2.25459        -0.081691      0.002326      0.032973
      4.33180      2.18605      0.02994        -0.016271     -0.017974     -0.011626
      2.26644      6.61924      2.17162        -0.006415     -0.067478     -0.026092
      2.23495      4.36699      8.86247         0.027099     -0.050134     -0.046689
      0.03742      6.61033      0.01568         0.030858      0.010518     -0.028567
      6.64297      6.65678      2.24141        -0.001186     -0.072394      0.068395
      6.66677      4.34790      0.02181        -0.009793     -0.022656      0.008422
      4.44442      4.36555      2.23978         0.067563     -0.046302      0.016147
      2.23725      2.15145      6.66173         0.038379      0.035651      0.028312
      2.35754      0.00731      4.41509         0.066962      0.032265      0.067514
      0.06787      2.18349      4.44865         0.004702     -0.032668     -0.084505
      2.22133      6.63861      6.66991        -0.051728      0.006575     -0.001236
      2.28027      4.36874      4.43696        -0.048077     -0.008201      0.055678
      0.06834      6.65298      4.42408        -0.015591     -0.029605     -0.000141
      8.87392      4.41488      6.67423        -0.031135     -0.036236      0.026789
      6.66311      6.60479      6.67433         0.011313     -0.021215     -0.049270
      6.63495      4.39066      4.42617         0.016444     -0.107162      0.036847
      4.41014      6.58928      4.45656         0.018736     -0.008775     -0.046324
      4.47213      4.38787      6.61905         0.030389     -0.017559      0.031567
      4.66800      0.06345      8.77310         0.040090      0.070800      0.042954
      0.07664      4.39523      8.75978        -0.016634     -0.007615      0.020454
      4.40048      6.52945      2.29930         0.059930     -0.011566     -0.023381
      2.16655      8.78614      6.54952        -0.132699      0.043099     -0.018048
      4.50816      8.69494      4.20445         0.123048      0.118741     -0.019041
      6.54890      8.68743      6.88797         0.012665      0.046219      0.029057
      0.05715      6.72149      2.22217         0.021111      0.035422      0.047824
      6.62978      4.39836      2.21006        -0.022205      0.085308     -0.011340
      0.14701      0.00368      4.47221         0.172180     -0.059770      0.060034
      4.42092      4.42813      4.43720         0.051206     -0.030770     -0.048568
      6.67045      4.44703      6.70204        -0.017213     -0.041777     -0.075673
      6.61130      6.63859      4.40933         0.061414      0.050691     -0.057089
 -----------------------------------------------------------------------------------
    total drift:                                0.024882     -0.043787     -0.000871


--------------------------------------------------------------------------------------------------------



  FREE ENERGIE OF THE ION-ELECTRON SYSTEM (eV)
  ---------------------------------------------------
  free  energy   TOTEN  =      -669.44712154 eV

  energy  without entropy=     -669.33461816  energy(sigma->0) =     -669.39086985
 


--------------------------------------------------------------------------------------------------------


    POTLOK:  cpu time      0.0346: real time      0.0349


--------------------------------------------------------------------------------------------------------


     LOOP+:  cpu time  12244.0626: real time  12532.8828
    4ORBIT:  cpu time      0.0000: real time      0.0000



 total charge

# of ion       s       p       d       tot
------------------------------------------
    1        0.309   6.631   1.736   8.677
    2        0.315   6.651   1.738   8.705
    3        0.326   6.698   1.811   8.835
    4        0.320   6.685   1.833   8.839
    5        0.317   6.664   1.783   8.763
    6        0.324   6.698   1.843   8.864
    7        0.321   6.695   1.840   8.856
    8        2.115   5.956   2.183  10.255
    9        2.111   5.956   2.212  10.279
   10        2.116   5.966   2.185  10.268
   11        2.110   5.952   2.180  10.242
   12        2.118   5.970   2.205  10.293
   13        2.119   5.974   2.198  10.292
   14        2.240   6.256   3.056  11.552
   15        2.227   6.247   3.070  11.544
   16        2.214   6.234   3.096  11.544
   17        2.228   6.250   3.101  11.579
   18        2.241   6.266   3.087  11.594
   19        2.235   6.260   3.078  11.573
   20        2.223   6.260   3.025  11.509
   21        1.258   2.403   0.000   3.660
   22        1.249   2.394   0.000   3.643
   23        1.251   2.411   0.000   3.662
   24        1.256   2.430   0.000   3.686
   25        1.252   2.446   0.000   3.699
   26        1.245   2.431   0.000   3.676
   27        1.249   2.445   0.000   3.694
   28        1.248   2.411   0.000   3.659
   29        1.246   2.452   0.000   3.698
   30        1.249   2.411   0.000   3.660
   31        1.247   2.436   0.000   3.683
   32        1.246   2.389   0.000   3.635
   33        1.246   2.468   0.000   3.715
   34        0.883   1.596   0.000   2.478
   35        0.882   1.570   0.000   2.453
   36        0.876   1.550   0.000   2.427
   37        0.892   1.580   0.000   2.472
   38        0.885   1.584   0.000   2.469
   39        0.871   1.564   0.000   2.435
   40        0.873   1.566   0.000   2.440
   41        0.882   1.598   0.000   2.480
   42        0.886   1.566   0.000   2.452
   43        0.872   1.565   0.000   2.437
   44        0.890   1.583   0.000   2.474
   45        0.881   1.544   0.000   2.425
   46        0.881   1.554   0.000   2.435
   47        0.872   1.562   0.000   2.434
   48        0.888   1.607   0.000   2.495
   49        0.881   1.588   0.000   2.469
   50        0.874   1.576   0.000   2.450
   51        0.880   1.602   0.000   2.482
   52        0.879   1.599   0.000   2.478
   53        0.354   6.332   3.461  10.147
   54        0.366   6.378   3.425  10.170
   55        0.359   6.357   3.418  10.134
   56        0.349   6.340   3.426  10.115
   57        0.352   6.332   3.436  10.119
   58        0.349   6.324   3.470  10.143
   59        0.310   6.269   2.393   8.971
   60        0.300   6.265   2.366   8.931
   61        0.301   6.266   2.410   8.977
   62        0.316   6.286   2.378   8.980
   63        0.307   6.267   2.379   8.953
   64        0.299   6.263   2.392   8.955
--------------------------------------------------
tot         67.464 263.433  82.213 413.110
 

 total amount of memory used by VASP MPI-rank0  1768931. kBytes
=======================================================================

   base      :      30000. kBytes
   nonl-proj :    1438581. kBytes
   fftplans  :       1680. kBytes
   grid      :       8060. kBytes
   one-center:        995. kBytes
   wavefun   :     289615. kBytes
 
  
  
 General timing and accounting informations for this job:
 ========================================================
  
                  Total CPU time used (sec):    12393.092
                            User time (sec):    12224.034
                          System time (sec):      169.058
                         Elapsed time (sec):    12691.923
  
                   Maximum memory used (kb):     1671228.
                   Average memory used (kb):          N/A
  
                          Minor page faults:     28380279
                          Major page faults:           15
                 Voluntary context switches:         4133
