 running   28 mpi-ranks, on    1 nodes
 distrk:  each k-point on   28 cores,    1 groups
 distr:  one band on    1 cores,   28 groups
 vasp.6.4.3 19Mar24 (build Sep 18 2024 11:30:23) complex                        
  
 POSCAR found type information on POSCAR HfNbV N C W Ta
 POSCAR found :  7 types and      64 ions
 Reading from existing POTCAR
 scaLAPACK will be used
 -----------------------------------------------------------------------------
|                                                                             |
|           W    W    AA    RRRRR   N    N  II  N    N   GGGG   !!!           |
|           W    W   A  A   R    R  NN   N  II  NN   N  G    G  !!!           |
|           W    W  A    A  R    R  N N  N  II  N N  N  G       !!!           |
|           W WW W  AAAAAA  RRRRR   N  N N  II  N  N N  G  GGG   !            |
|           WW  WW  A    A  R   R   N   NN  II  N   NN  G    G                |
|           W    W  A    A  R    R  N    N  II  N    N   GGGG   !!!           |
|                                                                             |
|     For optimal performance we recommend to set                             |
|       NCORE = 2 up to number-of-cores-per-socket                            |
|     NCORE specifies how many cores store one orbital (NPAR=cpu/NCORE).      |
|     This setting can greatly improve the performance of VASP for DFT.       |
|     The default, NCORE=1 might be grossly inefficient on modern             |
|     multi-core architectures or massively parallel machines. Do your        |
|     own testing! More info at https://www.vasp.at/wiki/index.php/NCORE      |
|     Unfortunately you need to use the default for GW and RPA                |
|     calculations (for HF NCORE is supported but not extensively tested      |
|     yet).                                                                   |
|                                                                             |
 -----------------------------------------------------------------------------

 Reading from existing POTCAR
 -----------------------------------------------------------------------------
|                                                                             |
|               ----> ADVICE to this user running VASP <----                  |
|                                                                             |
|     You have a (more or less) 'large supercell' and for larger cells it     |
|     might be more efficient to use real-space projection operators.         |
|     Therefore, try LREAL= Auto in the INCAR file.                           |
|     Mind: If you want to do very accurate calculations, keep the            |
|     reciprocal projection scheme (i.e. LREAL=.FALSE.).                      |
|                                                                             |
 -----------------------------------------------------------------------------

 LDA part: xc-table for (Slater+PW92), standard interpolation
 -----------------------------------------------------------------------------
|                                                                             |
|           W    W    AA    RRRRR   N    N  II  N    N   GGGG   !!!           |
|           W    W   A  A   R    R  NN   N  II  NN   N  G    G  !!!           |
|           W    W  A    A  R    R  N N  N  II  N N  N  G       !!!           |
|           W WW W  AAAAAA  RRRRR   N  N N  II  N  N N  G  GGG   !            |
|           WW  WW  A    A  R   R   N   NN  II  N   NN  G    G                |
|           W    W  A    A  R    R  N    N  II  N    N   GGGG   !!!           |
|                                                                             |
|     The number of bands has been changed from the values supplied in        |
|     the INCAR file. This is a result of running the parallel version.       |
|     The orbitals not found in the WAVECAR file will be initialized with     |
|     random numbers, which is usually adequate. For correlated               |
|     calculations, however, you should redo the groundstate calculation.     |
|     I found NBANDS = 312. Now, NBANDS = 336.                                |
|                                                                             |
 -----------------------------------------------------------------------------

 found WAVECAR, reading the header
  number of bands has changed, file:   312 present:   336
  trying to continue reading WAVECAR, but it might fail
  number of k-points has changed, file:    14 present:   112
  trying to continue reading WAVECAR, but it might fail
 WARNING: stress and forces are not correct
 POSCAR, INCAR and KPOINTS ok, starting setup
 FFT: planning ... GRIDC
 FFT: planning ... GRID_SOFT
 FFT: planning ... GRID
 reading WAVECAR
 random initialization beyond band          312
 the WAVECAR file was read successfully
 charge-density read from file: HEBCN                                   
 entering main loop
       N       E                     dE             d eps       ncg     rms          rms(c)
DAV:   1    -0.566064326718E+03   -0.56606E+03   -0.36086E+03 88172   0.173E+02
RMM:   2    -0.637953601582E+03   -0.71889E+02   -0.71669E+02123024   0.695E+01
RMM:   3    -0.656510276539E+03   -0.18557E+02   -0.17123E+02138056   0.272E+01
RMM:   4    -0.661321927353E+03   -0.48117E+01   -0.44580E+01136996   0.106E+01
RMM:   5    -0.664130930647E+03   -0.28090E+01   -0.26375E+01141857   0.658E+00
RMM:   6    -0.665647170920E+03   -0.15162E+01   -0.14356E+01144456   0.474E+00
RMM:   7    -0.666688054615E+03   -0.10409E+01   -0.99848E+00148097   0.371E+00
RMM:   8    -0.667335648663E+03   -0.64759E+00   -0.62989E+00148468   0.312E+00
RMM:   9    -0.667803774918E+03   -0.46813E+00   -0.45834E+00148263   0.265E+00
RMM:  10    -0.668125724195E+03   -0.32195E+00   -0.31971E+00147573   0.232E+00
RMM:  11    -0.668362423369E+03   -0.23670E+00   -0.23604E+00146785   0.205E+00
RMM:  12    -0.668539514084E+03   -0.17709E+00   -0.17884E+00145686   0.183E+00
RMM:  13    -0.668670404953E+03   -0.13089E+00   -0.13249E+00144565   0.165E+00
RMM:  14    -0.668775862617E+03   -0.10546E+00   -0.10786E+00143858   0.149E+00
RMM:  15    -0.668854426289E+03   -0.78564E-01   -0.80351E-01143684   0.136E+00
RMM:  16    -0.668921905557E+03   -0.67479E-01   -0.69622E-01143565   0.124E+00
RMM:  17    -0.668973024105E+03   -0.51119E-01   -0.52591E-01143389   0.114E+00
RMM:  18    -0.669019255352E+03   -0.46231E-01   -0.47951E-01143262   0.105E+00
RMM:  19    -0.669055176727E+03   -0.35921E-01   -0.37045E-01143093   0.972E-01
RMM:  20    -0.669088918813E+03   -0.33742E-01   -0.35086E-01142957   0.903E-01
RMM:  21    -0.669115931463E+03   -0.27013E-01   -0.27861E-01142774   0.840E-01
RMM:  22    -0.669141947841E+03   -0.26016E-01   -0.27064E-01142584   0.787E-01
RMM:  23    -0.669163397606E+03   -0.21450E-01   -0.22099E-01142428   0.736E-01
RMM:  24    -0.669184367901E+03   -0.20970E-01   -0.21794E-01142215   0.693E-01
RMM:  25    -0.669202103279E+03   -0.17735E-01   -0.18242E-01141978   0.652E-01
RMM:  26    -0.669219583364E+03   -0.17480E-01   -0.18133E-01141670   0.617E-01
RMM:  27    -0.669234664321E+03   -0.15081E-01   -0.15481E-01141401   0.583E-01
RMM:  28    -0.669249591317E+03   -0.14927E-01   -0.15449E-01140917   0.554E-01
RMM:  29    -0.669262657597E+03   -0.13066E-01   -0.13385E-01140634   0.525E-01
RMM:  30    -0.669275616451E+03   -0.12959E-01   -0.13379E-01139977   0.502E-01
RMM:  31    -0.669287075047E+03   -0.11459E-01   -0.11713E-01139513   0.477E-01
RMM:  32    -0.669298449953E+03   -0.11375E-01   -0.11713E-01138639   0.457E-01
RMM:  33    -0.669308577407E+03   -0.10127E-01   -0.10329E-01137996   0.436E-01
RMM:  34    -0.669318632285E+03   -0.10055E-01   -0.10328E-01136882   0.419E-01
RMM:  35    -0.669327627406E+03   -0.89951E-02   -0.91545E-02135957   0.401E-01
RMM:  36    -0.669336554578E+03   -0.89272E-02   -0.91474E-02134575   0.386E-01
RMM:  37    -0.669344568631E+03   -0.80141E-02   -0.81390E-02133190   0.370E-01
RMM:  38    -0.669352514849E+03   -0.79462E-02   -0.81236E-02131516   0.357E-01
RMM:  39    -0.669359668695E+03   -0.71538E-02   -0.72511E-02129972   0.343E-01
WARNING in EDDRMM: call to ZHEGV failed, returncode =   6  3     10
RMM:  40    -0.669366751329E+03   -0.70826E-02   -0.72253E-02128029   0.332E-01
RMM:  41    -0.669373144425E+03   -0.63931E-02   -0.64684E-02126363   0.320E-01
RMM:  42    -0.669379461181E+03   -0.63168E-02   -0.64316E-02124222   0.309E-01
RMM:  43    -0.669385177128E+03   -0.57159E-02   -0.57743E-02122294   0.298E-01
RMM:  44    -0.669390811619E+03   -0.56345E-02   -0.57270E-02119850   0.289E-01
RMM:  45    -0.669395923059E+03   -0.51114E-02   -0.51568E-02117570   0.279E-01
RMM:  46    -0.669400948378E+03   -0.50253E-02   -0.51003E-02115283   0.271E-01
RMM:  47    -0.669405518237E+03   -0.45699E-02   -0.46058E-02112374   0.261E-01
RMM:  48    -0.669409999546E+03   -0.44813E-02   -0.45428E-02110505   0.254E-01
RMM:  49    -0.669414083648E+03   -0.40841E-02   -0.41133E-02106580   0.245E-01
RMM:  50    -0.669418078746E+03   -0.39951E-02   -0.40463E-02105273   0.238E-01
WARNING in EDDRMM: call to ZHEGV failed, returncode =   8  4     11
RMM:  51    -0.669421727273E+03   -0.36485E-02   -0.36731E-02100511   0.230E-01
RMM:  52    -0.669425286443E+03   -0.35592E-02   -0.36029E-02 99475   0.224E-01
RMM:  53    -0.669428544812E+03   -0.32584E-02   -0.32803E-02 94630   0.217E-01
RMM:  54    -0.669431714839E+03   -0.31700E-02   -0.32081E-02 93422   0.211E-01
RMM:  55    -0.669434624500E+03   -0.29097E-02   -0.29300E-02 89384   0.205E-01
RMM:  56    -0.669437447907E+03   -0.28234E-02   -0.28574E-02 87982   0.199E-01
WARNING in EDDRMM: call to ZHEGV failed, returncode =   8  4     11
RMM:  57    -0.669440045930E+03   -0.25980E-02   -0.26176E-02 85032   0.193E-01
RMM:  58    -0.669442560992E+03   -0.25151E-02   -0.25460E-02 83400   0.188E-01
WARNING in EDDRMM: call to ZHEGV failed, returncode =   8  4     11
RMM:  59    -0.669444880660E+03   -0.23197E-02   -0.23389E-02 81333   0.182E-01
RMM:  60    -0.669447121537E+03   -0.22409E-02   -0.22695E-02 79444   0.177E-01
 -----------------------------------------------------------------------------
|                                                                             |
|           W    W    AA    RRRRR   N    N  II  N    N   GGGG   !!!           |
|           W    W   A  A   R    R  NN   N  II  NN   N  G    G  !!!           |
|           W    W  A    A  R    R  N N  N  II  N N  N  G       !!!           |
|           W WW W  AAAAAA  RRRRR   N  N N  II  N  N N  G  GGG   !            |
|           WW  WW  A    A  R   R   N   NN  II  N   NN  G    G                |
|           W    W  A    A  R    R  N    N  II  N    N   GGGG   !!!           |
|                                                                             |
|     The electronic self-consistency was not achieved in the given           |
|     number of steps (NELM). The forces and other quantities evaluated       |
|     might not be reliable so examine the results carefully. If you find     |
|     spurious results, we suggest increasing NELM, if you were close to      |
|     convergence or switching to a different ALGO or adjusting the           |
|     density mixing parameters otherwise.                                    |
|                                                                             |
 -----------------------------------------------------------------------------

   1 F= -.66944712E+03 E0= -.66939087E+03  d E =-.112503E+00
