       N       E                     dE             d eps       ncg     rms          rms(c)
DAV:   1     0.346760055744E+04    0.34676E+04   -0.17755E+05  8932   0.117E+03
DAV:   2     0.168595690320E+02   -0.34507E+04   -0.33472E+04  8260   0.361E+02
DAV:   3    -0.588891821600E+03   -0.60575E+03   -0.58665E+03 11536   0.107E+02
DAV:   4    -0.640526971716E+03   -0.51635E+02   -0.49777E+02 11032   0.322E+01
DAV:   5    -0.643863886803E+03   -0.33369E+01   -0.32108E+01 11536   0.748E+00    0.644E+01
RMM:   6    -0.536786756248E+03    0.10708E+03   -0.13743E+03 10732   0.470E+01    0.551E+01
RMM:   7    -0.520482808268E+03    0.16304E+02   -0.26012E+02  9972   0.241E+01    0.366E+01
RMM:   8    -0.486397148726E+03    0.34086E+02   -0.57672E+01 11228   0.104E+01    0.159E+01
RMM:   9    -0.485983393437E+03    0.41376E+00   -0.26612E+01 11064   0.607E+00    0.166E+01
RMM:  10    -0.484466253869E+03    0.15171E+01   -0.11349E+01 10993   0.382E+00    0.134E+01
RMM:  11    -0.483859856121E+03    0.60640E+00   -0.10415E+01 10880   0.392E+00    0.123E+01
RMM:  12    -0.484689250258E+03   -0.82939E+00   -0.53614E+00 10950   0.290E+00    0.145E+01
RMM:  13    -0.483254368691E+03    0.14349E+01   -0.28330E+00 10777   0.225E+00    0.826E+00
RMM:  14    -0.482683393925E+03    0.57097E+00   -0.11165E+00 10830   0.148E+00    0.456E+00
RMM:  15    -0.482693918342E+03   -0.10524E-01   -0.11266E+00 10897   0.109E+00    0.482E+00
RMM:  16    -0.482687873955E+03    0.60444E-02   -0.76477E-01 11120   0.877E-01    0.417E+00
RMM:  17    -0.482647899789E+03    0.39974E-01   -0.50483E-01 11075   0.698E-01    0.322E+00
RMM:  18    -0.482611768970E+03    0.36131E-01   -0.42011E-01 11079   0.573E-01    0.220E+00
RMM:  19    -0.482621668603E+03   -0.98996E-02   -0.27339E-01 11428   0.461E-01    0.212E+00
RMM:  20    -0.482607725903E+03    0.13943E-01   -0.12262E-01 10887   0.364E-01    0.154E+00
RMM:  21    -0.482595926267E+03    0.11800E-01   -0.82591E-02 10979   0.293E-01    0.617E-01
RMM:  22    -0.482604661182E+03   -0.87349E-02   -0.72777E-02 11176   0.238E-01    0.103E+00
RMM:  23    -0.482605851490E+03   -0.11903E-02   -0.45603E-02 11489   0.187E-01    0.895E-01
RMM:  24    -0.482602099014E+03    0.37525E-02   -0.32348E-02 11322   0.140E-01    0.417E-01
RMM:  25    -0.482602668293E+03   -0.56928E-03   -0.20694E-02 11155   0.103E-01    0.179E-01
RMM:  26    -0.482603432137E+03   -0.76384E-03   -0.13567E-02 10722   0.668E-02    0.136E-01
RMM:  27    -0.482604127208E+03   -0.69507E-03   -0.93400E-03 10924   0.507E-02    0.107E-01
RMM:  28    -0.482604749341E+03   -0.62213E-03   -0.80568E-03 11016   0.506E-02    0.914E-02
RMM:  29    -0.482605296764E+03   -0.54742E-03   -0.59158E-03 10620   0.418E-02    0.819E-02
RMM:  30    -0.482605660744E+03   -0.36398E-03   -0.40965E-03 10079   0.302E-02    0.676E-02
RMM:  31    -0.482605903458E+03   -0.24271E-03   -0.28993E-03  8192   0.200E-02    0.422E-02
RMM:  32    -0.482606081720E+03   -0.17826E-03   -0.22303E-03  9993   0.194E-02    0.165E-02
RMM:  33    -0.482606254576E+03   -0.17286E-03   -0.17518E-03  9909   0.178E-02    0.208E-02
RMM:  34    -0.482606370233E+03   -0.11566E-03   -0.12292E-03  5909   0.114E-02    0.150E-02
RMM:  35    -0.482606458192E+03   -0.87959E-04   -0.95056E-04  5909   0.956E-03    0.815E-03
RMM:  36    -0.482606530990E+03   -0.72798E-04   -0.74513E-04  5937   0.928E-03    0.310E-03
RMM:  37    -0.482606587041E+03   -0.56050E-04   -0.55848E-04  5031   0.723E-03    0.415E-03
RMM:  38    -0.482606630735E+03   -0.43695E-04   -0.43596E-04  4493   0.533E-03    0.449E-03
RMM:  39    -0.482606663721E+03   -0.32986E-04   -0.33169E-04  5026   0.466E-03    0.236E-03
RMM:  40    -0.482606690319E+03   -0.26598E-04   -0.26435E-04  4557   0.400E-03    0.142E-03
RMM:  41    -0.482606710821E+03   -0.20502E-04   -0.20237E-04  4469   0.371E-03    0.141E-03
RMM:  42    -0.482606727332E+03   -0.16510E-04   -0.16385E-04  4018   0.329E-03    0.662E-04
RMM:  43    -0.482606739943E+03   -0.12611E-04   -0.12550E-04  3611   0.290E-03    0.110E-03
RMM:  44    -0.482606750224E+03   -0.10280E-04   -0.10224E-04  3301   0.258E-03    0.178E-03
RMM:  45    -0.482606758356E+03   -0.81323E-05   -0.80609E-05  3017   0.229E-03
   1 F= -.48260676E+03 E0= -.48239998E+03  d E =-.482607E+03
       N       E                     dE             d eps       ncg     rms          rms(c)
DAV:   1    -0.257506942461E+04   -0.20925E+04   -0.49344E+04  8008   0.600E+02    0.272E+02
RMM:   2    -0.964518369852E+03    0.16106E+04   -0.47779E+03 11877   0.187E+02    0.132E+02
RMM:   3    -0.604726289202E+03    0.35979E+03   -0.12614E+03  9725   0.883E+01    0.549E+01
RMM:   4    -0.561142811615E+03    0.43583E+02   -0.42494E+02  8581   0.552E+01    0.171E+01
RMM:   5    -0.570423878380E+03   -0.92811E+01   -0.13135E+02 10898   0.299E+01    0.116E+01
RMM:   6    -0.569862958925E+03    0.56092E+00   -0.17813E+01 10391   0.102E+01    0.592E+00
RMM:   7    -0.569897917004E+03   -0.34958E-01   -0.42494E+00 10334   0.475E+00    0.327E+00
RMM:   8    -0.569975542577E+03   -0.77626E-01   -0.12210E+00 10484   0.216E+00    0.165E+00
RMM:   9    -0.569974132655E+03    0.14099E-02   -0.38241E-01 11460   0.120E+00    0.731E-01
RMM:  10    -0.569978454685E+03   -0.43220E-02   -0.10170E-01 10916   0.568E-01    0.361E-01
RMM:  11    -0.569979842002E+03   -0.13873E-02   -0.30380E-02 11435   0.304E-01    0.163E-01
RMM:  12    -0.569980318632E+03   -0.47663E-03   -0.86308E-03 11398   0.143E-01    0.894E-02
RMM:  13    -0.569980416888E+03   -0.98256E-04   -0.25788E-03 10881   0.692E-02    0.484E-02
RMM:  14    -0.569980450368E+03   -0.33480E-04   -0.10027E-03 10453   0.395E-02    0.227E-02
RMM:  15    -0.569980462296E+03   -0.11928E-04   -0.35703E-04  7896   0.225E-02    0.108E-02
RMM:  16    -0.569980469382E+03   -0.70857E-05   -0.14092E-04  5641   0.127E-02    0.592E-03
RMM:  17    -0.569980472459E+03   -0.30778E-05   -0.55802E-05  5367   0.896E-03
   2 F= -.56998047E+03 E0= -.56992407E+03  d E =-.873737E+02
       N       E                     dE             d eps       ncg     rms          rms(c)
DAV:   1    -0.984113198280E+03   -0.41413E+03   -0.76410E+03  8848   0.288E+02    0.154E+02
RMM:   2    -0.105998299785E+04   -0.75870E+02   -0.16129E+03  8134   0.970E+01    0.824E+01
RMM:   3    -0.785383503316E+03    0.27460E+03   -0.42729E+02 10334   0.410E+01    0.490E+01
RMM:   4    -0.708435545392E+03    0.76948E+02   -0.10367E+02 10395   0.194E+01    0.375E+01
RMM:   5    -0.657065851897E+03    0.51370E+02   -0.17323E+02 10594   0.235E+01    0.160E+01
RMM:   6    -0.668656696425E+03   -0.11591E+02   -0.76843E+01 10660   0.129E+01    0.337E+01
RMM:   7    -0.653520463877E+03    0.15136E+02   -0.22162E+01  8137   0.109E+01    0.992E+00
RMM:   8    -0.652522853733E+03    0.99761E+00   -0.80886E+00 10152   0.405E+00    0.533E+00
RMM:   9    -0.653284109300E+03   -0.76126E+00   -0.44931E+00 10489   0.294E+00    0.731E+00
RMM:  10    -0.652576803856E+03    0.70731E+00   -0.84808E-01  9285   0.206E+00    0.426E+00
RMM:  11    -0.652216728400E+03    0.36008E+00   -0.90812E-01  9698   0.171E+00    0.148E+00
RMM:  12    -0.652200339776E+03    0.16389E-01   -0.21518E-01 10521   0.708E-01    0.887E-01
RMM:  13    -0.652195204569E+03    0.51352E-02   -0.11528E-01 10532   0.495E-01    0.531E-01
RMM:  14    -0.652196828305E+03   -0.16237E-02   -0.55458E-02 10844   0.337E-01    0.345E-01
RMM:  15    -0.652196742416E+03    0.85889E-04   -0.11582E-02  8188   0.240E-01    0.362E-01
RMM:  16    -0.652194969006E+03    0.17734E-02   -0.52618E-03  8567   0.139E-01    0.105E-01
RMM:  17    -0.652195609142E+03   -0.64014E-03   -0.48618E-03  9645   0.943E-02    0.174E-01
RMM:  18    -0.652195120380E+03    0.48876E-03   -0.87536E-04  7931   0.591E-02    0.744E-02
RMM:  19    -0.652195051605E+03    0.68775E-04   -0.75250E-04  8655   0.393E-02    0.392E-02
RMM:  20    -0.652195041738E+03    0.98667E-05   -0.20651E-04  8836   0.223E-02    0.144E-02
RMM:  21    -0.652195054156E+03   -0.12418E-04   -0.90197E-05  7267   0.130E-02    0.233E-02
RMM:  22    -0.652195047219E+03    0.69364E-05   -0.26120E-05  5287   0.805E-03
   3 F= -.65219505E+03 E0= -.65211244E+03  d E =-.169588E+03
       N       E                     dE             d eps       ncg     rms          rms(c)
DAV:   1    -0.654698478145E+03   -0.25034E+01   -0.39316E+01  8792   0.182E+01    0.781E+00
RMM:   2    -0.653970132047E+03    0.72835E+00   -0.76529E+00  8175   0.662E+00    0.505E+00
RMM:   3    -0.653220209005E+03    0.74992E+00   -0.10291E+00  7874   0.263E+00    0.258E+00
RMM:   4    -0.653160722457E+03    0.59487E-01   -0.57305E-01  8608   0.151E+00    0.225E+00
RMM:   5    -0.653073023988E+03    0.87698E-01   -0.24337E-01  8267   0.118E+00    0.882E-01
RMM:   6    -0.653077211359E+03   -0.41874E-02   -0.11588E-01 10260   0.659E-01    0.872E-01
RMM:   7    -0.653070262269E+03    0.69491E-02   -0.28622E-02 10512   0.352E-01    0.401E-01
RMM:   8    -0.653069263898E+03    0.99837E-03   -0.94834E-03 11181   0.177E-01    0.224E-01
RMM:   9    -0.653068847418E+03    0.41648E-03   -0.21102E-03 10222   0.874E-02    0.117E-01
RMM:  10    -0.653069036768E+03   -0.18935E-03   -0.10776E-03  9801   0.619E-02    0.105E-01
RMM:  11    -0.653068971416E+03    0.65353E-04   -0.49655E-04  9129   0.457E-02    0.351E-02
RMM:  12    -0.653068984760E+03   -0.13344E-04   -0.17336E-04  8971   0.240E-02    0.224E-02
RMM:  13    -0.653068981911E+03    0.28488E-05   -0.49542E-05  6080   0.124E-02
   4 F= -.65306898E+03 E0= -.65298886E+03  d E =-.170462E+03
       N       E                     dE             d eps       ncg     rms          rms(c)
DAV:   1    -0.653660497803E+03   -0.59151E+00   -0.11484E+01  8624   0.992E+00    0.423E+00
RMM:   2    -0.653454029051E+03    0.20647E+00   -0.22207E+00  8073   0.362E+00    0.278E+00
RMM:   3    -0.653231999709E+03    0.22203E+00   -0.29556E-01  7857   0.143E+00    0.140E+00
RMM:   4    -0.653215821465E+03    0.16178E-01   -0.16197E-01  8438   0.821E-01    0.126E+00
RMM:   5    -0.653190770945E+03    0.25051E-01   -0.71835E-02  8304   0.638E-01    0.567E-01
RMM:   6    -0.653190900522E+03   -0.12958E-03   -0.33462E-02 10167   0.363E-01    0.471E-01
RMM:   7    -0.653188679481E+03    0.22210E-02   -0.84372E-03 10261   0.189E-01    0.186E-01
RMM:   8    -0.653188547375E+03    0.13211E-03   -0.28983E-03 10963   0.968E-02    0.120E-01
RMM:   9    -0.653188446429E+03    0.10095E-03   -0.62659E-04  9637   0.480E-02    0.611E-02
RMM:  10    -0.653188513506E+03   -0.67077E-04   -0.30671E-04  9051   0.336E-02    0.548E-02
RMM:  11    -0.653188506715E+03    0.67910E-05   -0.14788E-04  8493   0.246E-02    0.191E-02
RMM:  12    -0.653188512079E+03   -0.53635E-05   -0.48355E-05  6231   0.133E-02
   5 F= -.65318851E+03 E0= -.65310974E+03  d E =-.170582E+03
       N       E                     dE             d eps       ncg     rms          rms(c)
DAV:   1    -0.652041534141E+03    0.11470E+01   -0.34506E+02  8232   0.526E+01    0.284E+00
RMM:   2    -0.654265569574E+03   -0.22240E+01   -0.24527E+01  9128   0.134E+01    0.295E+00
RMM:   3    -0.654858241924E+03   -0.59267E+00   -0.66081E+00 11292   0.606E+00    0.154E+00
RMM:   4    -0.654881007032E+03   -0.22765E-01   -0.84742E-01 11807   0.198E+00    0.122E+00
RMM:   5    -0.654871872118E+03    0.91349E-02   -0.14476E-01 10832   0.697E-01    0.105E+00
RMM:   6    -0.654856701779E+03    0.15170E-01   -0.98644E-02  8874   0.584E-01    0.493E-01
RMM:   7    -0.654855536698E+03    0.11651E-02   -0.32843E-02 10752   0.320E-01    0.262E-01
RMM:   8    -0.654854078332E+03    0.14584E-02   -0.81575E-03  9758   0.160E-01    0.147E-01
RMM:   9    -0.654854265145E+03   -0.18681E-03   -0.55516E-03 10456   0.113E-01    0.109E-01
RMM:  10    -0.654854148186E+03    0.11696E-03   -0.12565E-03 10111   0.655E-02    0.540E-02
RMM:  11    -0.654854137791E+03    0.10395E-04   -0.51498E-04  9636   0.342E-02    0.367E-02
RMM:  12    -0.654854167616E+03   -0.29825E-04   -0.35298E-04  9348   0.249E-02    0.295E-02
RMM:  13    -0.654854153392E+03    0.14224E-04   -0.86393E-05  6823   0.171E-02    0.170E-02
RMM:  14    -0.654854150658E+03    0.27339E-05   -0.68560E-05  6772   0.117E-02
   6 F= -.65485415E+03 E0= -.65478747E+03  d E =-.166564E+01
       N       E                     dE             d eps       ncg     rms          rms(c)
DAV:   1    -0.654500545837E+03    0.35361E+00   -0.61276E+01  8064   0.223E+01    0.124E+00
RMM:   2    -0.654911601785E+03   -0.41106E+00   -0.45321E+00  9145   0.589E+00    0.134E+00
RMM:   3    -0.655023810542E+03   -0.11221E+00   -0.12618E+00 11135   0.264E+00    0.688E-01
RMM:   4    -0.655030590048E+03   -0.67795E-02   -0.17874E-01 11732   0.889E-01    0.519E-01
RMM:   5    -0.655029032857E+03    0.15572E-02   -0.27355E-02 10868   0.306E-01    0.431E-01
RMM:   6    -0.655026212011E+03    0.28208E-02   -0.16508E-02  8780   0.244E-01    0.161E-01
RMM:   7    -0.655026241741E+03   -0.29730E-04   -0.54351E-03 10634   0.130E-01    0.102E-01
RMM:   8    -0.655026062843E+03    0.17890E-03   -0.14340E-03  9948   0.657E-02    0.554E-02
RMM:   9    -0.655026093747E+03   -0.30904E-04   -0.74246E-04 10341   0.428E-02    0.422E-02
RMM:  10    -0.655026079978E+03    0.13769E-04   -0.19299E-04  8798   0.244E-02    0.201E-02
RMM:  11    -0.655026082135E+03   -0.21570E-05   -0.88445E-05  6849   0.138E-02
   7 F= -.65502608E+03 E0= -.65496263E+03  d E =-.183757E+01
       N       E                     dE             d eps       ncg     rms          rms(c)
DAV:   1    -0.654927573268E+03    0.98507E-01   -0.15584E+02  7840   0.386E+01    0.759E+00
RMM:   2    -0.655441249348E+03   -0.51368E+00   -0.19936E+01  9002   0.125E+01    0.469E+00
RMM:   3    -0.655391670611E+03    0.49579E-01   -0.57538E+00  9993   0.588E+00    0.228E+00
RMM:   4    -0.655398607788E+03   -0.69372E-02   -0.11764E+00 11064   0.243E+00    0.184E+00
RMM:   5    -0.655361848705E+03    0.36759E-01   -0.24971E-01 10587   0.112E+00    0.997E-01
RMM:   6    -0.655353014753E+03    0.88340E-02   -0.99995E-02 10305   0.624E-01    0.632E-01
RMM:   7    -0.655348912630E+03    0.41021E-02   -0.34309E-02 10817   0.368E-01    0.291E-01
RMM:   8    -0.655348410636E+03    0.50199E-03   -0.92186E-03 10871   0.176E-01    0.165E-01
RMM:   9    -0.655348542292E+03   -0.13166E-03   -0.39960E-03 11044   0.102E-01    0.125E-01
RMM:  10    -0.655348415943E+03    0.12635E-03   -0.11077E-03 10079   0.588E-02    0.559E-02
RMM:  11    -0.655348394445E+03    0.21498E-04   -0.43949E-04  9571   0.322E-02    0.390E-02
RMM:  12    -0.655348387275E+03    0.71700E-05   -0.33700E-04  9321   0.260E-02    0.169E-02
RMM:  13    -0.655348384079E+03    0.31957E-05   -0.76015E-05  6638   0.151E-02
   8 F= -.65534838E+03 E0= -.65528665E+03  d E =-.322302E+00
       N       E                     dE             d eps       ncg     rms          rms(c)
DAV:   1    -0.655349436937E+03   -0.10497E-02   -0.45541E+00  8624   0.660E+00    0.129E+00
RMM:   2    -0.655365828881E+03   -0.16392E-01   -0.59288E-01  9073   0.214E+00    0.785E-01
RMM:   3    -0.655364057609E+03    0.17713E-02   -0.17711E-01  9780   0.103E+00    0.400E-01
RMM:   4    -0.655364293742E+03   -0.23613E-03   -0.34257E-02 10838   0.414E-01    0.329E-01
RMM:   5    -0.655362887625E+03    0.14061E-02   -0.77363E-03 10271   0.202E-01    0.162E-01
RMM:   6    -0.655362781381E+03    0.10624E-03   -0.32392E-03 10368   0.112E-01    0.117E-01
RMM:   7    -0.655362641046E+03    0.14033E-03   -0.10448E-03 10342   0.648E-02    0.488E-02
RMM:   8    -0.655362643235E+03   -0.21888E-05   -0.28377E-04  9757   0.304E-02    0.310E-02
RMM:   9    -0.655362651183E+03   -0.79480E-05   -0.12203E-04  8730   0.174E-02    0.212E-02
RMM:  10    -0.655362656002E+03   -0.48192E-05   -0.35825E-05  5643   0.107E-02
   9 F= -.65536266E+03 E0= -.65530059E+03  d E =-.336574E+00
       N       E                     dE             d eps       ncg     rms          rms(c)
DAV:   1    -0.653821566673E+03    0.15411E+01   -0.12786E+02  7840   0.350E+01    0.293E+00
RMM:   2    -0.655219032489E+03   -0.13975E+01   -0.16323E+01  9205   0.106E+01    0.186E+00
RMM:   3    -0.655598404345E+03   -0.37937E+00   -0.44145E+00 10824   0.474E+00    0.126E+00
RMM:   4    -0.655628621957E+03   -0.30218E-01   -0.57074E-01 11502   0.167E+00    0.967E-01
RMM:   5    -0.655619861143E+03    0.87608E-02   -0.85357E-02 10643   0.593E-01    0.603E-01
RMM:   6    -0.655616468045E+03    0.33931E-02   -0.41097E-02  9611   0.389E-01    0.413E-01
RMM:   7    -0.655614691446E+03    0.17766E-02   -0.14661E-02 10452   0.241E-01    0.152E-01
RMM:   8    -0.655614839106E+03   -0.14766E-03   -0.49969E-03 11065   0.121E-01    0.101E-01
RMM:   9    -0.655614800478E+03    0.38628E-04   -0.15512E-03 10824   0.639E-02    0.534E-02
RMM:  10    -0.655614818105E+03   -0.17627E-04   -0.55224E-04 10224   0.360E-02    0.334E-02
RMM:  11    -0.655614832744E+03   -0.14639E-04   -0.21117E-04  8109   0.197E-02    0.221E-02
RMM:  12    -0.655614840462E+03   -0.77178E-05   -0.76416E-05  5731   0.118E-02
  10 F= -.65561484E+03 E0= -.65555774E+03  d E =-.252184E+00
       N       E                     dE             d eps       ncg     rms          rms(c)
DAV:   1    -0.655605258277E+03    0.95745E-02   -0.84183E-01  8792   0.286E+00    0.243E-01
RMM:   2    -0.655613941671E+03   -0.86834E-02   -0.10453E-01  9150   0.860E-01    0.134E-01
RMM:   3    -0.655616865851E+03   -0.29242E-02   -0.30949E-02 11036   0.391E-01    0.101E-01
RMM:   4    -0.655617054030E+03   -0.18818E-03   -0.37897E-03 11395   0.137E-01    0.704E-02
RMM:   5    -0.655617006756E+03    0.47275E-04   -0.52273E-04 10283   0.459E-02    0.471E-02
RMM:   6    -0.655616972729E+03    0.34027E-04   -0.25467E-04  8830   0.297E-02    0.315E-02
RMM:   7    -0.655616958528E+03    0.14201E-04   -0.92572E-05  7984   0.184E-02    0.131E-02
RMM:   8    -0.655616954078E+03    0.44497E-05   -0.23700E-05  5224   0.100E-02
  11 F= -.65561695E+03 E0= -.65555944E+03  d E =-.254298E+00
       N       E                     dE             d eps       ncg     rms          rms(c)
DAV:   1    -0.655433644044E+03    0.18331E+00   -0.26675E+01  7924   0.153E+01    0.107E+00
RMM:   2    -0.655660038413E+03   -0.22639E+00   -0.25424E+00  9150   0.428E+00    0.823E-01
RMM:   3    -0.655725550079E+03   -0.65512E-01   -0.68665E-01 10934   0.193E+00    0.558E-01
RMM:   4    -0.655730007820E+03   -0.44577E-02   -0.10076E-01 11806   0.683E-01    0.325E-01
RMM:   5    -0.655729872543E+03    0.13528E-03   -0.13860E-02 10914   0.227E-01    0.269E-01
RMM:   6    -0.655728995405E+03    0.87714E-03   -0.60604E-03  9716   0.146E-01    0.133E-01
RMM:   7    -0.655728895487E+03    0.99918E-04   -0.20801E-03 10533   0.846E-02    0.708E-02
RMM:   8    -0.655728852339E+03    0.43148E-04   -0.68860E-04 10237   0.473E-02    0.397E-02
RMM:   9    -0.655728850642E+03    0.16967E-05   -0.28661E-04  9807   0.273E-02    0.261E-02
RMM:  10    -0.655728848209E+03    0.24339E-05   -0.93986E-05  6967   0.157E-02
  12 F= -.65572885E+03 E0= -.65567283E+03  d E =-.111894E+00
       N       E                     dE             d eps       ncg     rms          rms(c)
DAV:   1    -0.655656729855E+03    0.72121E-01   -0.83355E+00  8624   0.853E+00    0.595E-01
RMM:   2    -0.655726712912E+03   -0.69983E-01   -0.78763E-01  9163   0.236E+00    0.458E-01
RMM:   3    -0.655746206716E+03   -0.19494E-01   -0.20481E-01 11039   0.105E+00    0.312E-01
RMM:   4    -0.655747245494E+03   -0.10388E-02   -0.28486E-02 11713   0.365E-01    0.182E-01
RMM:   5    -0.655747209306E+03    0.36187E-04   -0.43813E-03 10856   0.127E-01    0.150E-01
RMM:   6    -0.655746938891E+03    0.27042E-03   -0.19240E-03  9762   0.818E-02    0.751E-02
RMM:   7    -0.655746905003E+03    0.33888E-04   -0.66277E-04 10315   0.472E-02    0.392E-02
RMM:   8    -0.655746893627E+03    0.11376E-04   -0.22751E-04  9549   0.262E-02    0.228E-02
RMM:   9    -0.655746891937E+03    0.16891E-05   -0.94702E-05  7332   0.154E-02
  13 F= -.65574689E+03 E0= -.65569176E+03  d E =-.129938E+00
       N       E                     dE             d eps       ncg     rms          rms(c)
DAV:   1    -0.655682548729E+03    0.64345E-01   -0.93312E+00  8232   0.907E+00    0.667E-01
RMM:   2    -0.655758473491E+03   -0.75925E-01   -0.88585E-01  9153   0.249E+00    0.413E-01
RMM:   3    -0.655783898604E+03   -0.25425E-01   -0.25591E-01 11483   0.113E+00    0.358E-01
RMM:   4    -0.655784585109E+03   -0.68650E-03   -0.28951E-02 11861   0.383E-01    0.222E-01
RMM:   5    -0.655784224985E+03    0.36012E-03   -0.50226E-03 10983   0.131E-01    0.141E-01
RMM:   6    -0.655784004075E+03    0.22091E-03   -0.22597E-03  9467   0.867E-02    0.923E-02
RMM:   7    -0.655783934450E+03    0.69625E-04   -0.87824E-04  9820   0.549E-02    0.397E-02
RMM:   8    -0.655783927970E+03    0.64792E-05   -0.29176E-04  9623   0.314E-02    0.253E-02
RMM:   9    -0.655783923719E+03    0.42514E-05   -0.11426E-04  7865   0.170E-02    0.148E-02
RMM:  10    -0.655783921293E+03    0.24259E-05   -0.32591E-05  5397   0.981E-03
  14 F= -.65578392E+03 E0= -.65572921E+03  d E =-.370294E-01
       N       E                     dE             d eps       ncg     rms          rms(c)
DAV:   1    -0.655761946541E+03    0.21977E-01   -0.25387E+00  9016   0.472E+00    0.349E-01
RMM:   2    -0.655782799806E+03   -0.20853E-01   -0.24253E-01  9167   0.130E+00    0.221E-01
RMM:   3    -0.655789569082E+03   -0.67693E-02   -0.68847E-02 11476   0.585E-01    0.188E-01
RMM:   4    -0.655789756517E+03   -0.18743E-03   -0.79494E-03 11850   0.200E-01    0.117E-01
RMM:   5    -0.655789653593E+03    0.10292E-03   -0.13850E-03 10813   0.681E-02    0.742E-02
RMM:   6    -0.655789593501E+03    0.60093E-04   -0.63273E-04  9300   0.454E-02    0.493E-02
RMM:   7    -0.655789570466E+03    0.23034E-04   -0.24542E-04  9294   0.288E-02    0.205E-02
RMM:   8    -0.655789568382E+03    0.20839E-05   -0.84559E-05  7210   0.167E-02
  15 F= -.65578957E+03 E0= -.65573512E+03  d E =-.426764E-01
       N       E                     dE             d eps       ncg     rms          rms(c)
DAV:   1    -0.655756140673E+03    0.33430E-01   -0.70790E+00  8232   0.795E+00    0.125E+00
RMM:   2    -0.655791918888E+03   -0.35778E-01   -0.78237E-01  9117   0.236E+00    0.703E-01
RMM:   3    -0.655799831424E+03   -0.79125E-02   -0.22066E-01  9516   0.111E+00    0.404E-01
RMM:   4    -0.655800220707E+03   -0.38928E-03   -0.40445E-02 10845   0.450E-01    0.298E-01
RMM:   5    -0.655799269957E+03    0.95075E-03   -0.96053E-03 10851   0.220E-01    0.138E-01
RMM:   6    -0.655799219029E+03    0.50927E-04   -0.30296E-03 10623   0.108E-01    0.102E-01
RMM:   7    -0.655799148358E+03    0.70671E-04   -0.93266E-04 10801   0.575E-02    0.477E-02
RMM:   8    -0.655799155595E+03   -0.72367E-05   -0.27014E-04  9572   0.275E-02    0.274E-02
RMM:   9    -0.655799165212E+03   -0.96173E-05   -0.11015E-04  7710   0.162E-02    0.166E-02
RMM:  10    -0.655799171290E+03   -0.60780E-05   -0.34462E-05  5438   0.101E-02
  16 F= -.65579917E+03 E0= -.65574596E+03  d E =-.960291E-02
       N       E                     dE             d eps       ncg     rms          rms(c)
DAV:   1    -0.655797766709E+03    0.13985E-02   -0.47467E-01  9016   0.208E+00    0.325E-01
RMM:   2    -0.655800100486E+03   -0.23338E-02   -0.52301E-02  9108   0.608E-01    0.184E-01
RMM:   3    -0.655800615861E+03   -0.51537E-03   -0.14700E-02  9493   0.289E-01    0.105E-01
RMM:   4    -0.655800623338E+03   -0.74766E-05   -0.26712E-03 10780   0.116E-01    0.756E-02
RMM:   5    -0.655800552523E+03    0.70816E-04   -0.65012E-04 10426   0.568E-02    0.355E-02
RMM:   6    -0.655800533485E+03    0.19037E-04   -0.21012E-04  9442   0.276E-02    0.233E-02
RMM:   7    -0.655800524762E+03    0.87230E-05   -0.56524E-05  6504   0.147E-02
  17 F= -.65580052E+03 E0= -.65574699E+03  d E =-.109564E-01
       N       E                     dE             d eps       ncg     rms          rms(c)
DAV:   1    -0.655747107252E+03    0.53426E-01   -0.64075E+00  8232   0.744E+00    0.721E-01
RMM:   2    -0.655793017295E+03   -0.45910E-01   -0.61253E-01  9119   0.206E+00    0.401E-01
RMM:   3    -0.655808836844E+03   -0.15820E-01   -0.18330E-01 11167   0.954E-01    0.268E-01
RMM:   4    -0.655809544689E+03   -0.70785E-03   -0.21240E-02 11752   0.326E-01    0.198E-01
RMM:   5    -0.655809199993E+03    0.34470E-03   -0.39364E-03 10816   0.126E-01    0.125E-01
RMM:   6    -0.655809065278E+03    0.13472E-03   -0.17933E-03  9913   0.794E-02    0.961E-02
RMM:   7    -0.655808961295E+03    0.10398E-03   -0.66126E-04 10118   0.495E-02    0.356E-02
RMM:   8    -0.655808952563E+03    0.87320E-05   -0.21322E-04  9344   0.258E-02    0.212E-02
RMM:   9    -0.655808948844E+03    0.37192E-05   -0.85257E-05  7183   0.144E-02
  18 F= -.65580895E+03 E0= -.65575609E+03  d E =-.842408E-02
       N       E                     dE             d eps       ncg     rms          rms(c)
DAV:   1    -0.655808308884E+03    0.64368E-03   -0.76349E-02  9464   0.817E-01    0.803E-02
RMM:   2    -0.655808850263E+03   -0.54138E-03   -0.73460E-03  9127   0.225E-01    0.448E-02
RMM:   3    -0.655809030477E+03   -0.18021E-03   -0.21502E-03 11011   0.104E-01    0.295E-02
RMM:   4    -0.655809038544E+03   -0.80667E-05   -0.26728E-04 10100   0.358E-02    0.217E-02
RMM:   5    -0.655809032771E+03    0.57733E-05   -0.41525E-05  5866   0.142E-02
  19 F= -.65580903E+03 E0= -.65575612E+03  d E =-.850801E-02
       N       E                     dE             d eps       ncg     rms          rms(c)
DAV:   1    -0.655805823903E+03    0.32146E-02   -0.87334E-01  8960   0.262E+00    0.187E-01
RMM:   2    -0.655810872618E+03   -0.50487E-02   -0.59146E-02  9237   0.647E-01    0.129E-01
RMM:   3    -0.655812197672E+03   -0.13251E-02   -0.14377E-02 11476   0.278E-01    0.106E-01
RMM:   4    -0.655812150353E+03    0.47319E-04   -0.20338E-03 11500   0.989E-02    0.552E-02
RMM:   5    -0.655812129956E+03    0.20397E-04   -0.42473E-04  9982   0.372E-02    0.457E-02
RMM:   6    -0.655812104641E+03    0.25315E-04   -0.19418E-04  8919   0.242E-02    0.235E-02
RMM:   7    -0.655812096985E+03    0.76558E-05   -0.60279E-05  6562   0.138E-02
  20 F= -.65581210E+03 E0= -.65575915E+03  d E =-.306421E-02
       N       E                     dE             d eps       ncg     rms          rms(c)
DAV:   1    -0.655811190893E+03    0.91375E-03   -0.17307E-01  9016   0.117E+00    0.844E-02
RMM:   2    -0.655812199505E+03   -0.10086E-02   -0.11849E-02  9238   0.289E-01    0.581E-02
RMM:   3    -0.655812469952E+03   -0.27045E-03   -0.29393E-03 11443   0.125E-01    0.474E-02
RMM:   4    -0.655812460287E+03    0.96654E-05   -0.42803E-04 11027   0.443E-02    0.245E-02
RMM:   5    -0.655812454467E+03    0.58204E-05   -0.96889E-05  7712   0.174E-02
  21 F= -.65581245E+03 E0= -.65575947E+03  d E =-.342170E-02
       N       E                     dE             d eps       ncg     rms          rms(c)
DAV:   1    -0.655811327276E+03    0.11330E-02   -0.59497E-01  8176   0.205E+00    0.240E-01
RMM:   2    -0.655813206702E+03   -0.18794E-02   -0.33755E-02  9098   0.515E-01    0.147E-01
RMM:   3    -0.655813679757E+03   -0.47306E-03   -0.10130E-02 10560   0.247E-01    0.909E-02
RMM:   4    -0.655813722068E+03   -0.42311E-04   -0.20224E-03 11291   0.991E-02    0.711E-02
RMM:   5    -0.655813651931E+03    0.70137E-04   -0.38311E-04  9608   0.419E-02    0.327E-02
RMM:   6    -0.655813657534E+03   -0.56024E-05   -0.17921E-04  9037   0.256E-02    0.289E-02
RMM:   7    -0.655813651451E+03    0.60832E-05   -0.61666E-05  6720   0.155E-02
  22 F= -.65581365E+03 E0= -.65576077E+03  d E =-.119698E-02
       N       E                     dE             d eps       ncg     rms          rms(c)
DAV:   1    -0.655813645489E+03    0.12044E-04   -0.25152E-03  9800   0.133E-01    0.181E-02
RMM:   2    -0.655813657686E+03   -0.12197E-04   -0.15986E-04  9074   0.351E-02    0.154E-02
RMM:   3    -0.655813659483E+03   -0.17966E-05   -0.51936E-05  6555   0.178E-02
  23 F= -.65581366E+03 E0= -.65576076E+03  d E =-.120502E-02
       N       E                     dE             d eps       ncg     rms          rms(c)
DAV:   1    -0.655813065401E+03    0.59229E-03   -0.55151E-01  8120   0.194E+00    0.286E-01
RMM:   2    -0.655814088648E+03   -0.10232E-02   -0.32903E-02  9071   0.505E-01    0.155E-01
RMM:   3    -0.655814306500E+03   -0.21785E-03   -0.97580E-03 10243   0.242E-01    0.885E-02
RMM:   4    -0.655814282977E+03    0.23523E-04   -0.19273E-03 10806   0.988E-02    0.584E-02
RMM:   5    -0.655814245706E+03    0.37271E-04   -0.47627E-04 10277   0.468E-02    0.331E-02
RMM:   6    -0.655814227458E+03    0.18248E-04   -0.16518E-04  9036   0.241E-02    0.160E-02
RMM:   7    -0.655814223755E+03    0.37035E-05   -0.43145E-05  5870   0.126E-02
  24 F= -.65581422E+03 E0= -.65576126E+03  d E =-.564272E-03
       N       E                     dE             d eps       ncg     rms          rms(c)
DAV:   1    -0.655814227275E+03    0.18292E-06   -0.28722E-02  8624   0.444E-01    0.662E-02
RMM:   2    -0.655814275242E+03   -0.47967E-04   -0.16935E-03  9062   0.114E-01    0.360E-02
RMM:   3    -0.655814283840E+03   -0.85971E-05   -0.48750E-04  9604   0.549E-02    0.207E-02
RMM:   4    -0.655814284738E+03   -0.89866E-06   -0.11038E-04  8342   0.231E-02    0.150E-02
RMM:   5    -0.655814282148E+03    0.25907E-05   -0.20951E-05  4935   0.116E-02
  25 F= -.65581428E+03 E0= -.65576134E+03  d E =-.622665E-03
       N       E                     dE             d eps       ncg     rms          rms(c)
DAV:   1    -0.655813366572E+03    0.91817E-03   -0.17072E-01  8512   0.113E+00    0.734E-02
RMM:   2    -0.655814325765E+03   -0.95919E-03   -0.10967E-02  9199   0.271E-01    0.458E-02
RMM:   3    -0.655814607503E+03   -0.28174E-03   -0.28471E-03 11177   0.118E-01    0.406E-02
RMM:   4    -0.655814605232E+03    0.22706E-05   -0.33052E-04 10351   0.381E-02    0.234E-02
RMM:   5    -0.655814601793E+03    0.34395E-05   -0.75676E-05  7201   0.162E-02
  26 F= -.65581460E+03 E0= -.65576171E+03  d E =-.319645E-03
       N       E                     dE             d eps       ncg     rms          rms(c)
DAV:   1    -0.655814574580E+03    0.30653E-04   -0.50036E-03  9884   0.191E-01    0.174E-02
RMM:   2    -0.655814601425E+03   -0.26846E-04   -0.32551E-04  9092   0.466E-02    0.171E-02
RMM:   3    -0.655814608216E+03   -0.67903E-05   -0.10163E-04  7742   0.223E-02    0.937E-03
RMM:   4    -0.655814608397E+03   -0.18113E-06   -0.14748E-05  4973   0.871E-03
  27 F= -.65581461E+03 E0= -.65576170E+03  d E =-.326249E-03
       N       E                     dE             d eps       ncg     rms          rms(c)
DAV:   1    -0.655814556173E+03    0.52043E-04   -0.28971E-02  8624   0.452E-01    0.496E-02
RMM:   2    -0.655814670216E+03   -0.11404E-03   -0.17951E-03  9130   0.118E-01    0.277E-02
RMM:   3    -0.655814708908E+03   -0.38693E-04   -0.56645E-04 10399   0.561E-02    0.182E-02
RMM:   4    -0.655814712000E+03   -0.30914E-05   -0.10211E-04  8012   0.221E-02    0.138E-02
RMM:   5    -0.655814710604E+03    0.13960E-05   -0.16858E-05  5051   0.101E-02
  28 F= -.65581471E+03 E0= -.65576184E+03  d E =-.102207E-03
