<?xml version="1.0" encoding="ISO-8859-1"?>
<modeling>
 <generator>
  <i name="program" type="string">vasp </i>
  <i name="version" type="string">6.4.3  </i>
  <i name="subversion" type="string">19Mar24 (build Sep 18 2024 11:30:23) complex                          parallel </i>
  <i name="platform" type="string">LinuxIFC </i>
  <i name="date" type="string">2026 07 07 </i>
  <i name="time" type="string">19:58:17 </i>
 </generator>
 <incar>
  <i type="string" name="SYSTEM">HECN</i>
  <i type="int" name="ISTART">     0</i>
  <i type="string" name="PREC">Normal</i>
  <i type="string" name="ALGO">Fast</i>
  <i type="int" name="ICHARG">     2</i>
  <i type="int" name="NELM">    60</i>
  <i type="int" name="IBRION">     2</i>
  <i name="EDIFF">      0.00001000</i>
  <i name="EDIFFG">     -0.01000000</i>
  <i type="int" name="NSW">   100</i>
  <i type="int" name="ISIF">     3</i>
  <i name="ENCUT">    400.00000000</i>
  <i name="POTIM">      0.50000000</i>
  <i type="logical" name="LREAL"> F  </i>
  <i type="int" name="ISMEAR">     0</i>
  <i name="SIGMA">      0.10000000</i>
  <i type="logical" name="LWAVE"> F  </i>
  <i type="logical" name="LCHARG"> F  </i>
 </incar>
 <primitive_cell>
  <structure name="primitive_cell" >
   <crystal>
    <varray name="basis" >
     <v>      11.23999977       0.00000000       0.00000000 </v>
     <v>       0.00000000      11.23999977       0.00000000 </v>
     <v>       0.00000000       0.00000000      11.23999977 </v>
    </varray>
    <i name="volume">   1420.03453724 </i>
    <varray name="rec_basis" >
     <v>       0.08896797       0.00000000       0.00000000 </v>
     <v>       0.00000000       0.08896797       0.00000000 </v>
     <v>       0.00000000       0.00000000       0.08896797 </v>
    </varray>
   </crystal>
   <varray name="positions" >
    <v>       0.00000000       0.00000000       0.00000000 </v>
    <v>       0.25000000       0.00000000       0.25000000 </v>
    <v>       0.25000000       0.50000000       0.25000000 </v>
    <v>       0.50000000       0.50000000       0.00000000 </v>
    <v>       0.50000000       0.25000000       0.75000004 </v>
    <v>       0.00000000       0.50000000       0.50000000 </v>
    <v>       0.50000000       0.75000004       0.75000004 </v>
    <v>       0.00000000       0.25000000       0.25000000 </v>
    <v>       0.75000004       0.75000004       0.00000000 </v>
    <v>       0.00000000       0.25000000       0.75000004 </v>
    <v>       0.75000004       0.25000000       0.50000000 </v>
    <v>       0.00000000       0.75000004       0.75000004 </v>
    <v>       0.25000000       0.50000000       0.75000004 </v>
    <v>       0.25000000       0.25000000       0.00000000 </v>
    <v>       0.50000000       0.25000000       0.25000000 </v>
    <v>       0.75000004       0.00000000       0.25000000 </v>
    <v>       0.75000004       0.25000000       0.00000000 </v>
    <v>       0.25000000       0.75000004       0.00000000 </v>
    <v>       0.25000000       0.25000000       0.50000000 </v>
    <v>       0.25000000       0.25000000       0.25000000 </v>
    <v>       0.25000000       0.00000000       0.00000000 </v>
    <v>       0.00000000       0.25000000       0.00000000 </v>
    <v>       0.75000004       0.25000000       0.25000000 </v>
    <v>       0.75000004       0.00000000       0.00000000 </v>
    <v>       0.50000000       0.00000000       0.25000000 </v>
    <v>       0.00000000       0.50000000       0.25000000 </v>
    <v>       0.50000000       0.75000004       0.00000000 </v>
    <v>       0.00000000       0.00000000       0.75000004 </v>
    <v>       0.75000004       0.25000000       0.75000004 </v>
    <v>       0.75000004       0.00000000       0.50000000 </v>
    <v>       0.50000000       0.25000000       0.50000000 </v>
    <v>       0.50000000       0.00000000       0.75000004 </v>
    <v>       0.00000000       0.00000000       0.25000000 </v>
    <v>       0.50000000       0.25000000       0.00000000 </v>
    <v>       0.25000000       0.75000004       0.25000000 </v>
    <v>       0.25000000       0.50000000       0.00000000 </v>
    <v>       0.00000000       0.75000004       0.00000000 </v>
    <v>       0.75000004       0.75000004       0.25000000 </v>
    <v>       0.75000004       0.50000000       0.00000000 </v>
    <v>       0.50000000       0.50000000       0.25000000 </v>
    <v>       0.25000000       0.25000000       0.75000004 </v>
    <v>       0.25000000       0.00000000       0.50000000 </v>
    <v>       0.00000000       0.25000000       0.50000000 </v>
    <v>       0.25000000       0.75000004       0.75000004 </v>
    <v>       0.25000000       0.50000000       0.50000000 </v>
    <v>       0.00000000       0.75000004       0.50000000 </v>
    <v>       0.00000000       0.50000000       0.75000004 </v>
    <v>       0.75000004       0.75000004       0.75000004 </v>
    <v>       0.75000004       0.50000000       0.50000000 </v>
    <v>       0.50000000       0.75000004       0.50000000 </v>
    <v>       0.50000000       0.50000000       0.75000004 </v>
    <v>       0.50000000       0.00000000       0.00000000 </v>
    <v>       0.00000000       0.50000000       0.00000000 </v>
    <v>       0.50000000       0.75000004       0.25000000 </v>
    <v>       0.25000000       0.00000000       0.75000004 </v>
    <v>       0.50000000       0.00000000       0.50000000 </v>
    <v>       0.75000004       0.00000000       0.75000004 </v>
    <v>       0.25000000       0.75000004       0.50000000 </v>
    <v>       0.00000000       0.75000004       0.25000000 </v>
    <v>       0.75000004       0.50000000       0.25000000 </v>
    <v>       0.00000000       0.00000000       0.50000000 </v>
    <v>       0.50000000       0.50000000       0.50000000 </v>
    <v>       0.75000004       0.50000000       0.75000004 </v>
    <v>       0.75000004       0.75000004       0.50000000 </v>
   </varray>
  </structure>
  <varray name="primitive_index" >
   <v type="int" >        1 </v>
   <v type="int" >        2 </v>
   <v type="int" >        3 </v>
   <v type="int" >        4 </v>
   <v type="int" >        5 </v>
   <v type="int" >        6 </v>
   <v type="int" >        7 </v>
   <v type="int" >        8 </v>
   <v type="int" >        9 </v>
   <v type="int" >       10 </v>
   <v type="int" >       11 </v>
   <v type="int" >       12 </v>
   <v type="int" >       13 </v>
   <v type="int" >       14 </v>
   <v type="int" >       15 </v>
   <v type="int" >       16 </v>
   <v type="int" >       17 </v>
   <v type="int" >       18 </v>
   <v type="int" >       19 </v>
   <v type="int" >       20 </v>
   <v type="int" >       21 </v>
   <v type="int" >       22 </v>
   <v type="int" >       23 </v>
   <v type="int" >       24 </v>
   <v type="int" >       25 </v>
   <v type="int" >       26 </v>
   <v type="int" >       27 </v>
   <v type="int" >       28 </v>
   <v type="int" >       29 </v>
   <v type="int" >       30 </v>
   <v type="int" >       31 </v>
   <v type="int" >       32 </v>
   <v type="int" >       33 </v>
   <v type="int" >       34 </v>
   <v type="int" >       35 </v>
   <v type="int" >       36 </v>
   <v type="int" >       37 </v>
   <v type="int" >       38 </v>
   <v type="int" >       39 </v>
   <v type="int" >       40 </v>
   <v type="int" >       41 </v>
   <v type="int" >       42 </v>
   <v type="int" >       43 </v>
   <v type="int" >       44 </v>
   <v type="int" >       45 </v>
   <v type="int" >       46 </v>
   <v type="int" >       47 </v>
   <v type="int" >       48 </v>
   <v type="int" >       49 </v>
   <v type="int" >       50 </v>
   <v type="int" >       51 </v>
   <v type="int" >       52 </v>
   <v type="int" >       53 </v>
   <v type="int" >       54 </v>
   <v type="int" >       55 </v>
   <v type="int" >       56 </v>
   <v type="int" >       57 </v>
   <v type="int" >       58 </v>
   <v type="int" >       59 </v>
   <v type="int" >       60 </v>
   <v type="int" >       61 </v>
   <v type="int" >       62 </v>
   <v type="int" >       63 </v>
   <v type="int" >       64 </v>
  </varray>
 </primitive_cell>
 <kpoints>
  <generation param="Gamma">
   <v type="int" name="divisions">       3        3        3 </v>
   <v name="usershift">      0.00000000       0.00000000       0.00000000 </v>
   <v name="genvec1">      0.33333333       0.00000000       0.00000000 </v>
   <v name="genvec2">      0.00000000       0.33333333       0.00000000 </v>
   <v name="genvec3">      0.00000000       0.00000000       0.33333333 </v>
   <v name="shift">      0.00000000       0.00000000       0.00000000 </v>
  </generation>
  <varray name="kpointlist" >
   <v>       0.00000000       0.00000000       0.00000000 </v>
   <v>       0.33333333       0.00000000       0.00000000 </v>
   <v>       0.00000000       0.33333333       0.00000000 </v>
   <v>       0.00000000       0.00000000       0.33333333 </v>
   <v>       0.33333333       0.33333333       0.00000000 </v>
   <v>       0.00000000       0.33333333       0.33333333 </v>
   <v>       0.33333333       0.00000000       0.33333333 </v>
   <v>      -0.33333333       0.33333333       0.00000000 </v>
   <v>      -0.33333333       0.00000000       0.33333333 </v>
   <v>       0.00000000      -0.33333333       0.33333333 </v>
   <v>       0.33333333       0.33333333       0.33333333 </v>
   <v>      -0.33333333       0.33333333       0.33333333 </v>
   <v>      -0.33333333      -0.33333333       0.33333333 </v>
   <v>       0.33333333      -0.33333333       0.33333333 </v>
  </varray>
  <varray name="weights" >
   <v>       0.03703704 </v>
   <v>       0.07407407 </v>
   <v>       0.07407407 </v>
   <v>       0.07407407 </v>
   <v>       0.07407407 </v>
   <v>       0.07407407 </v>
   <v>       0.07407407 </v>
   <v>       0.07407407 </v>
   <v>       0.07407407 </v>
   <v>       0.07407407 </v>
   <v>       0.07407407 </v>
   <v>       0.07407407 </v>
   <v>       0.07407407 </v>
   <v>       0.07407407 </v>
  </varray>
 </kpoints>
 <parameters>
  <separator name="general" >
   <i type="string" name="SYSTEM">HECN</i>
   <i type="logical" name="LCOMPAT"> F  </i>
  </separator>
  <separator name="electronic" >
   <i type="string" name="PREC">normal</i>
   <i name="ENMAX">    400.00000000</i>
   <i name="ENAUG">    644.87300000</i>
   <i name="EDIFF">      0.00001000</i>
   <i type="int" name="IALGO">    68</i>
   <i type="int" name="IWAVPR">    11</i>
   <i type="int" name="NBANDS">   280</i>
   <i type="int" name="NBANDSLOW">    -1</i>
   <i type="int" name="NBANDSHIGH">    -1</i>
   <i name="NELECT">    437.00000000</i>
   <i type="int" name="TURBO">     0</i>
   <i type="int" name="IRESTART">     0</i>
   <i type="int" name="NREBOOT">     0</i>
   <i type="int" name="NMIN">     0</i>
   <i name="EREF">      0.00000000</i>
   <separator name="electronic smearing" >
    <i type="int" name="ISMEAR">     0</i>
    <i name="SIGMA">      0.10000000</i>
    <i name="KSPACING">      0.50000000</i>
    <i type="logical" name="KGAMMA"> T  </i>
    <i type="logical" name="KBLOWUP"> T  </i>
   </separator>
   <separator name="electronic projectors" >
    <i type="logical" name="LREAL"> F  </i>
    <v name="ROPT">      0.00000000      0.00000000      0.00000000      0.00000000      0.00000000      0.00000000      0.00000000</v>
    <i type="int" name="LMAXPAW">  -100</i>
    <i type="int" name="LMAXMIX">     2</i>
    <i type="logical" name="NLSPLINE"> F  </i>
   </separator>
   <separator name="electronic startup" >
    <i type="int" name="ISTART">     0</i>
    <i type="int" name="ICHARG">     2</i>
    <i type="int" name="INIWAV">     1</i>
   </separator>
   <separator name="electronic spin" >
    <i type="int" name="ISPIN">     1</i>
    <i type="logical" name="LNONCOLLINEAR"> F  </i>
    <v name="MAGMOM">      1.00000000      1.00000000      1.00000000      1.00000000      1.00000000      1.00000000      1.00000000      1.00000000      1.00000000      1.00000000      1.00000000      1.00000000      1.00000000      1.00000000      1.00000000      1.00000000      1.00000000      1.00000000      1.00000000      1.00000000
      1.00000000      1.00000000      1.00000000      1.00000000      1.00000000      1.00000000      1.00000000      1.00000000      1.00000000      1.00000000      1.00000000      1.00000000      1.00000000      1.00000000      1.00000000      1.00000000      1.00000000      1.00000000      1.00000000      1.00000000
      1.00000000      1.00000000      1.00000000      1.00000000      1.00000000      1.00000000      1.00000000      1.00000000      1.00000000      1.00000000      1.00000000      1.00000000      1.00000000      1.00000000      1.00000000      1.00000000      1.00000000      1.00000000      1.00000000      1.00000000
      1.00000000      1.00000000      1.00000000      1.00000000</v>
    <i name="NUPDOWN">     -1.00000000</i>
    <i type="logical" name="LSORBIT"> F  </i>
    <v name="SAXIS">      0.00000000      0.00000000      1.00000000</v>
    <i type="logical" name="LSPIRAL"> F  </i>
    <v name="QSPIRAL">      0.00000000      0.00000000      0.00000000</v>
    <i type="logical" name="LZEROZ"> F  </i>
   </separator>
   <separator name="electronic exchange-correlation" >
    <i type="logical" name="LASPH"> F  </i>
   </separator>
   <separator name="electronic convergence" >
    <i type="int" name="NELM">    60</i>
    <i type="int" name="NELMDL">    -5</i>
    <i type="int" name="NELMIN">     2</i>
    <i name="ENINI">    400.00000000</i>
    <separator name="electronic convergence detail" >
     <i type="logical" name="LDIAG"> T  </i>
     <i type="logical" name="LSUBROT"> F  </i>
     <i name="WEIMIN">      0.00100000</i>
     <i name="EBREAK">      0.00000001</i>
     <i name="DEPER">      0.30000000</i>
     <i type="int" name="NRMM">     4</i>
     <i name="TIME">      0.40000000</i>
    </separator>
   </separator>
   <separator name="electronic mixer" >
    <i name="AMIX">      0.40000000</i>
    <i name="BMIX">      1.00000000</i>
    <i name="AMIN">      0.10000000</i>
    <i name="AMIX_MAG">      1.60000000</i>
    <i name="BMIX_MAG">      1.00000000</i>
    <separator name="electronic mixer details" >
     <i type="int" name="IMIX">     4</i>
     <i type="logical" name="MIXFIRST"> F  </i>
     <i type="int" name="MAXMIX">   -45</i>
     <i name="WC">    100.00000000</i>
     <i type="int" name="INIMIX">     1</i>
     <i type="int" name="MIXPRE">     1</i>
     <i type="int" name="MREMOVE">     5</i>
    </separator>
   </separator>
   <separator name="electronic dipolcorrection" >
    <i type="logical" name="LDIPOL"> F  </i>
    <i type="logical" name="LMONO"> F  </i>
    <i type="int" name="IDIPOL">     0</i>
    <i name="EPSILON">      1.00000000</i>
    <v name="DIPOL">   -100.00000000   -100.00000000   -100.00000000</v>
    <i name="EFIELD">      0.00000000</i>
    <i type="logical" name="LVACPOTAV"> F  </i>
   </separator>
  </separator>
  <separator name="grids" >
   <i type="int" name="NGX">    56</i>
   <i type="int" name="NGY">    56</i>
   <i type="int" name="NGZ">    56</i>
   <i type="int" name="NGXF">   112</i>
   <i type="int" name="NGYF">   112</i>
   <i type="int" name="NGZF">   112</i>
   <i type="logical" name="ADDGRID"> F  </i>
  </separator>
  <separator name="ionic" >
   <i type="int" name="NSW">   100</i>
   <i type="int" name="IBRION">     2</i>
   <i type="int" name="MDALGO">     0</i>
   <i type="int" name="ISIF">     3</i>
   <i name="PSTRESS">      0.00000000</i>
   <i name="EDIFFG">     -0.01000000</i>
   <i type="int" name="NFREE">     1</i>
   <i name="POTIM">      0.50000000</i>
   <i name="SMASS">     -3.00000000</i>
   <i name="SCALEE">      1.00000000</i>
  </separator>
  <separator name="ionic md" >
   <i name="TEBEG">      0.00010000</i>
   <i name="TEEND">      0.00010000</i>
   <i type="int" name="NBLOCK">     1</i>
   <i type="int" name="KBLOCK">   100</i>
   <i type="int" name="NPACO">   256</i>
   <i name="APACO">     10.00000000</i>
  </separator>
  <separator name="symmetry" >
   <i type="int" name="ISYM">     2</i>
   <i name="SYMPREC">      0.00001000</i>
  </separator>
  <separator name="dos" >
   <i type="int" name="LORBIT">     0</i>
   <v name="RWIGS">     -1.00000000     -1.00000000     -1.00000000     -1.00000000     -1.00000000     -1.00000000     -1.00000000</v>
   <i type="int" name="NEDOS">   301</i>
   <i name="EMIN">     10.00000000</i>
   <i name="EMAX">    -10.00000000</i>
   <i name="EFERMI">      0.00000000</i>
  </separator>
  <separator name="writing" >
   <i type="int" name="NWRITE">     2</i>
   <i type="logical" name="LWAVE"> F  </i>
   <i type="logical" name="LDOWNSAMPLE"> F  </i>
   <i type="logical" name="LCHARG"> F  </i>
   <i type="logical" name="LPARD"> F  </i>
   <i type="logical" name="LVTOT"> F  </i>
   <i type="logical" name="LVHAR"> F  </i>
   <i type="logical" name="LELF"> F  </i>
   <i type="logical" name="LOPTICS"> F  </i>
   <v name="STM">      0.00000000      0.00000000      0.00000000      0.00000000      0.00000000      0.00000000      0.00000000</v>
  </separator>
  <separator name="performance" >
   <i type="int" name="NPAR">    28</i>
   <i type="int" name="NSIM">     4</i>
   <i type="int" name="NBLK">    -1</i>
   <i type="logical" name="LPLANE"> T  </i>
   <i type="logical" name="LSCALAPACK"> T  </i>
   <i type="logical" name="LSCAAWARE"> F  </i>
   <i type="logical" name="LSCALU"> F  </i>
   <i type="logical" name="LASYNC"> F  </i>
   <i type="logical" name="LORBITALREAL"> F  </i>
  </separator>
  <separator name="miscellaneous" >
   <i type="int" name="IDIOT">     3</i>
   <i type="int" name="PHON_NSTRUCT">    -1</i>
   <i type="logical" name="LMUSIC"> F  </i>
   <v name="POMASS">     47.88000000    180.94800000    178.49000000     14.00100000     12.01100000     91.22400000     95.94000000</v>
   <v name="DARWINR">      0.00000000      0.00000000      0.00000000      0.00000000      0.00000000      0.00000000      0.00000000</v>
   <v name="DARWINV">      1.00000000      1.00000000      1.00000000      1.00000000      1.00000000      1.00000000      1.00000000</v>
   <i type="logical" name="LCORR"> T  </i>
  </separator>
  <i type="logical" name="GGA_COMPAT"> T  </i>
  <i type="logical" name="LBERRY"> F  </i>
  <i type="int" name="ICORELEVEL">     0</i>
  <i type="logical" name="LDAU"> F  </i>
  <i type="int" name="I_CONSTRAINED_M">     0</i>
  <separator name="electronic exchange-correlation" >
   <i type="string" name="GGA    ">PE</i>
   <i type="string" name="XC_C">1</i>
   <i type="int" name="VOSKOWN">     0</i>
   <i type="logical" name="LHFCALC"> F  </i>
   <i type="string" name="PRECFOCK"></i>
   <i type="logical" name="LSYMGRAD"> F  </i>
   <i type="logical" name="LHFONE"> F  </i>
   <i type="logical" name="LRHFCALC"> F  </i>
   <i type="logical" name="LTHOMAS"> F  </i>
   <i type="logical" name="LMODELHF"> F  </i>
   <i type="logical" name="LFOCKACE"> F  </i>
   <i name="ENCUT4O">     -1.00000000</i>
   <i type="int" name="EXXOEP">     0</i>
   <i type="int" name="FOURORBIT">     0</i>
   <i name="AEXX">      0.00000000</i>
   <i name="HFALPHA">      0.00000000</i>
   <i name="MCALPHA">      0.00000000</i>
   <i name="ALDAX">      1.00000000</i>
   <i name="AGGAX">      1.00000000</i>
   <i name="AMGGAX">      1.00000000</i>
   <i name="ALDAC">      1.00000000</i>
   <i name="AGGAC">      1.00000000</i>
   <i name="AMGGAC">      1.00000000</i>
   <i type="int" name="NKREDX">     1</i>
   <i type="int" name="NKREDY">     1</i>
   <i type="int" name="NKREDZ">     1</i>
   <i type="logical" name="SHIFTRED"> F  </i>
   <i type="logical" name="ODDONLY"> F  </i>
   <i type="logical" name="EVENONLY"> F  </i>
   <i type="int" name="LMAXFOCK">     0</i>
   <i type="int" name="NMAXFOCKAE">     0</i>
   <i type="logical" name="LFOCKAEDFT"> F  </i>
   <i name="HFSCREEN">      0.00000000</i>
   <i name="HFSCREENC">      0.00000000</i>
   <i type="int" name="NBANDSGWLOW">     0</i>
  </separator>
  <separator name="vdW DFT" >
   <i type="logical" name="LUSE_VDW"> F  </i>
   <i type="int" name="IVDW_NL">    -1</i>
   <i type="logical" name="LSPIN_VDW"> F  </i>
   <i name="ZAB_VDW">     -0.84910000</i>
   <i name="GAMMA_VDW">      1.39626340</i>
   <i name="ALPHA_VDW">      0.00000000</i>
   <i name="PARAM1">      0.12340000</i>
   <i name="PARAM2">      1.00000000</i>
   <i name="BPARAM">      6.30000000</i>
   <i name="CPARAM">      0.00930000</i>
  </separator>
  <separator name="model GW" >
   <i type="int" name="MODEL_GW">     0</i>
   <i name="MODEL_EPS0">     13.31282379</i>
   <i name="MODEL_ALPHA">      1.00000000</i>
  </separator>
  <separator name="linear response parameters" >
   <i type="logical" name="LEPSILON"> F  </i>
   <i type="logical" name="LRPA"> F  </i>
   <i type="logical" name="LNABLA"> F  </i>
   <i type="logical" name="LVEL"> F  </i>
   <i name="CSHIFT">      0.10000000</i>
   <i name="OMEGAMAX">     -1.00000000</i>
   <i name="DEG_THRESHOLD">      0.00200000</i>
   <i name="RTIME">     -0.10000000</i>
   <i name="WPLASMAI">      0.00000000</i>
   <v name="DFIELD">      0.00000000      0.00000000      0.00000000</v>
   <v name="WPLASMA">      0.00000000      0.00000000      0.00000000      0.00000000      0.00000000      0.00000000      0.00000000      0.00000000      0.00000000</v>
  </separator>
  <separator name="orbital magnetization" >
   <i type="logical" name="NUCIND"> F  </i>
   <v name="MAGPOS">      0.00000000      0.00000000      0.00000000</v>
   <i type="logical" name="LNICSALL"> T  </i>
   <i type="logical" name="ORBITALMAG"> F  </i>
   <i type="logical" name="LMAGBLOCH"> F  </i>
   <i type="logical" name="LCHIMAG"> F  </i>
   <i type="logical" name="LGAUGE"> T  </i>
   <i type="int" name="MAGATOM">     0</i>
   <v name="MAGDIPOL">      0.00000000      0.00000000      0.00000000</v>
   <v name="AVECCONST">      0.00000000      0.00000000      0.00000000</v>
  </separator>
  <separator name="response functions" >
   <i type="logical" name="LALL_IN_ONE"> F  </i>
   <i type="int" name="IALL_IN_ONE">    -1</i>
   <i type="int" name="NBANDS_WAVE">    -1</i>
   <i type="logical" name="LFINITE_TEMPERATURE"> F  </i>
   <i type="logical" name="LADDER"> F  </i>
   <i type="logical" name="LRPAFORCE"> F  </i>
   <i type="logical" name="LFXC"> F  </i>
   <i type="logical" name="LHARTREE"> T  </i>
   <i type="int" name="IBSE">     0</i>
   <v type="int" name="KPOINT">    -1     0     0     0</v>
   <i type="logical" name="LTCTC"> F  </i>
   <i type="logical" name="LTCTE"> F  </i>
   <i type="logical" name="LTETE"> F  </i>
   <i type="logical" name="LTRIPLET"> F  </i>
   <i type="logical" name="LFXCEPS"> F  </i>
   <i type="logical" name="LFXHEG"> F  </i>
   <i type="int" name="NATURALO">     2</i>
   <i type="logical" name="LHOLEGF"> F  </i>
   <i type="logical" name="L2ORDER"> F  </i>
   <i type="logical" name="LDMP1"> F  </i>
   <i type="logical" name="LMP2LT"> F  </i>
   <i type="logical" name="LSMP2LT"> F  </i>
   <i type="logical" name="LGWLF"> F  </i>
   <i name="ENCUTGW">     -1.60000002</i>
   <i name="ENCUTGWSOFT">     -1.60000002</i>
   <i name="ENCUTLF">     -1.00000000</i>
   <i type="logical" name="ESF_SPLINES"> F  </i>
   <i name="ESF_CONV">      0.01000000</i>
   <i type="int" name="ESF_NINTER">    15</i>
   <i type="int" name="LMAXMP2">    -1</i>
   <i name="SCISSOR">      0.00000000</i>
   <i type="int" name="NOMEGA">     0</i>
   <i type="int" name="NOMEGAR">     0</i>
   <i type="int" name="NBANDSGW">    -1</i>
   <i type="int" name="NBANDSO">    -1</i>
   <i type="int" name="NBANDSV">    -1</i>
   <i type="int" name="NELMGW">     1</i>
   <i type="int" name="NELMHF">     1</i>
   <i type="int" name="DIM">     3</i>
   <i type="int" name="IESPILON">     4</i>
   <i type="int" name="ANTIRES">     0</i>
   <i name="OMEGAMAX">    -30.00000000</i>
   <i name="OMEGAMIN">    -30.00000000</i>
   <i name="OMEGATL">   -200.00000000</i>
   <i type="int" name="OMEGAGRID">     0</i>
   <i name="CSHIFT">     -0.10000000</i>
   <i type="logical" name="LSELFENERGY"> F  </i>
   <i type="logical" name="LSPECTRAL"> F  </i>
   <i type="logical" name="LSPECTRALGW"> F  </i>
   <i type="logical" name="LSINGLES"> F  </i>
   <i type="logical" name="LFERMIGW"> F  </i>
   <i type="logical" name="ODDONLYGW"> F  </i>
   <i type="logical" name="EVENONLYGW"> F  </i>
   <i type="int" name="NKREDLFX">     1</i>
   <i type="int" name="NKREDLFY">     1</i>
   <i type="int" name="NKREDLFZ">     1</i>
   <i type="int" name="MAXMEM">  2800</i>
   <i type="int" name="TELESCOPE">     0</i>
   <i type="int" name="NTAUPAR">    -1</i>
   <i type="int" name="NOMEGAPAR">    -1</i>
   <i name="DAMP_NEWTON">      0.80000001</i>
   <i name="LAMBDA">      1.00000000</i>
  </separator>
  <separator name="External order field" >
   <i name="OFIELD_KAPPA">      0.00000000</i>
   <v name="OFIELD_K">      0.00000000      0.00000000      0.00000000</v>
   <i name="OFIELD_Q6_NEAR">      0.00000000</i>
   <i name="OFIELD_Q6_FAR">      0.00000000</i>
   <i name="OFIELD_A">      0.00000000</i>
  </separator>
  <separator name="optional k-points parameters" >
   <i type="int" name="KPOINTS_OPT_MODE">     1</i>
   <i type="logical" name="LKPOINTS_OPT"> F  </i>
  </separator>
  <separator name="solvation model" >
   <i type="logical" name="LSOL"> F  </i>
  </separator>
 </parameters>
 <atominfo>
  <atoms>      64 </atoms>
  <types>       7 </types>
  <array name="atoms" >
   <dimension dim="1">ion</dimension>
   <field type="string">element</field>
   <field type="int">atomtype</field>
   <set>
    <rc><c>Ti</c><c>   1</c></rc>
    <rc><c>Ti</c><c>   1</c></rc>
    <rc><c>Ti</c><c>   1</c></rc>
    <rc><c>Ti</c><c>   1</c></rc>
    <rc><c>Ti</c><c>   1</c></rc>
    <rc><c>Ti</c><c>   1</c></rc>
    <rc><c>Ti</c><c>   1</c></rc>
    <rc><c>Ta</c><c>   2</c></rc>
    <rc><c>Ta</c><c>   2</c></rc>
    <rc><c>Ta</c><c>   2</c></rc>
    <rc><c>Ta</c><c>   2</c></rc>
    <rc><c>Ta</c><c>   2</c></rc>
    <rc><c>Ta</c><c>   2</c></rc>
    <rc><c>Hf</c><c>   3</c></rc>
    <rc><c>Hf</c><c>   3</c></rc>
    <rc><c>Hf</c><c>   3</c></rc>
    <rc><c>Hf</c><c>   3</c></rc>
    <rc><c>Hf</c><c>   3</c></rc>
    <rc><c>Hf</c><c>   3</c></rc>
    <rc><c>N </c><c>   4</c></rc>
    <rc><c>N </c><c>   4</c></rc>
    <rc><c>N </c><c>   4</c></rc>
    <rc><c>N </c><c>   4</c></rc>
    <rc><c>N </c><c>   4</c></rc>
    <rc><c>N </c><c>   4</c></rc>
    <rc><c>N </c><c>   4</c></rc>
    <rc><c>N </c><c>   4</c></rc>
    <rc><c>N </c><c>   4</c></rc>
    <rc><c>N </c><c>   4</c></rc>
    <rc><c>N </c><c>   4</c></rc>
    <rc><c>N </c><c>   4</c></rc>
    <rc><c>N </c><c>   4</c></rc>
    <rc><c>C </c><c>   5</c></rc>
    <rc><c>C </c><c>   5</c></rc>
    <rc><c>C </c><c>   5</c></rc>
    <rc><c>C </c><c>   5</c></rc>
    <rc><c>C </c><c>   5</c></rc>
    <rc><c>C </c><c>   5</c></rc>
    <rc><c>C </c><c>   5</c></rc>
    <rc><c>C </c><c>   5</c></rc>
    <rc><c>C </c><c>   5</c></rc>
    <rc><c>C </c><c>   5</c></rc>
    <rc><c>C </c><c>   5</c></rc>
    <rc><c>C </c><c>   5</c></rc>
    <rc><c>C </c><c>   5</c></rc>
    <rc><c>C </c><c>   5</c></rc>
    <rc><c>C </c><c>   5</c></rc>
    <rc><c>C </c><c>   5</c></rc>
    <rc><c>C </c><c>   5</c></rc>
    <rc><c>C </c><c>   5</c></rc>
    <rc><c>C </c><c>   5</c></rc>
    <rc><c>Zr</c><c>   6</c></rc>
    <rc><c>Zr</c><c>   6</c></rc>
    <rc><c>Zr</c><c>   6</c></rc>
    <rc><c>Zr</c><c>   6</c></rc>
    <rc><c>Zr</c><c>   6</c></rc>
    <rc><c>Zr</c><c>   6</c></rc>
    <rc><c>Zr</c><c>   6</c></rc>
    <rc><c>Mo</c><c>   7</c></rc>
    <rc><c>Mo</c><c>   7</c></rc>
    <rc><c>Mo</c><c>   7</c></rc>
    <rc><c>Mo</c><c>   7</c></rc>
    <rc><c>Mo</c><c>   7</c></rc>
    <rc><c>Mo</c><c>   7</c></rc>
   </set>
  </array>
  <array name="atomtypes" >
   <dimension dim="1">type</dimension>
   <field type="int">atomspertype</field>
   <field type="string">element</field>
   <field>mass</field>
   <field>valence</field>
   <field type="string">pseudopotential</field>
   <set>
    <rc><c>   7</c><c>Ti</c><c>     47.88000000</c><c>     10.00000000</c><c> PAW_PBE Ti_pv 07Sep2000                </c></rc>
    <rc><c>   6</c><c>Ta</c><c>    180.94800000</c><c>     11.00000000</c><c> PAW_PBE Ta_pv 07Sep2000                </c></rc>
    <rc><c>   6</c><c>Hf</c><c>    178.49000000</c><c>     10.00000000</c><c> PAW_PBE Hf_pv 06Sep2000                </c></rc>
    <rc><c>  13</c><c>N </c><c>     14.00100000</c><c>      5.00000000</c><c> PAW_PBE N 08Apr2002                    </c></rc>
    <rc><c>  19</c><c>C </c><c>     12.01100000</c><c>      4.00000000</c><c> PAW_PBE C 08Apr2002                    </c></rc>
    <rc><c>   7</c><c>Zr</c><c>     91.22400000</c><c>      4.00000000</c><c> PAW_PBE Zr 08Apr2002                   </c></rc>
    <rc><c>   6</c><c>Mo</c><c>     95.94000000</c><c>     12.00000000</c><c> PAW_PBE Mo_pv 08Apr2002                </c></rc>
   </set>
  </array>
 </atominfo>
 <structure name="initialpos" >
  <crystal>
   <varray name="basis" >
    <v>      11.23999977       0.00000000       0.00000000 </v>
    <v>       0.00000000      11.23999977       0.00000000 </v>
    <v>       0.00000000       0.00000000      11.23999977 </v>
   </varray>
   <i name="volume">   1420.03453724 </i>
   <varray name="rec_basis" >
    <v>       0.08896797       0.00000000       0.00000000 </v>
    <v>       0.00000000       0.08896797       0.00000000 </v>
    <v>       0.00000000       0.00000000       0.08896797 </v>
   </varray>
  </crystal>
  <varray name="positions" >
   <v>       0.00000000       0.00000000       0.00000000 </v>
   <v>       0.25000000       0.00000000       0.25000000 </v>
   <v>       0.25000000       0.50000000       0.25000000 </v>
   <v>       0.50000000       0.50000000       0.00000000 </v>
   <v>       0.50000000       0.25000000       0.75000004 </v>
   <v>       0.00000000       0.50000000       0.50000000 </v>
   <v>       0.50000000       0.75000004       0.75000004 </v>
   <v>       0.00000000       0.25000000       0.25000000 </v>
   <v>       0.75000004       0.75000004       0.00000000 </v>
   <v>       0.00000000       0.25000000       0.75000004 </v>
   <v>       0.75000004       0.25000000       0.50000000 </v>
   <v>       0.00000000       0.75000004       0.75000004 </v>
   <v>       0.25000000       0.50000000       0.75000004 </v>
   <v>       0.25000000       0.25000000       0.00000000 </v>
   <v>       0.50000000       0.25000000       0.25000000 </v>
   <v>       0.75000004       0.00000000       0.25000000 </v>
   <v>       0.75000004       0.25000000       0.00000000 </v>
   <v>       0.25000000       0.75000004       0.00000000 </v>
   <v>       0.25000000       0.25000000       0.50000000 </v>
   <v>       0.25000000       0.25000000       0.25000000 </v>
   <v>       0.25000000       0.00000000       0.00000000 </v>
   <v>       0.00000000       0.25000000       0.00000000 </v>
   <v>       0.75000004       0.25000000       0.25000000 </v>
   <v>       0.75000004       0.00000000       0.00000000 </v>
   <v>       0.50000000       0.00000000       0.25000000 </v>
   <v>       0.00000000       0.50000000       0.25000000 </v>
   <v>       0.50000000       0.75000004       0.00000000 </v>
   <v>       0.00000000       0.00000000       0.75000004 </v>
   <v>       0.75000004       0.25000000       0.75000004 </v>
   <v>       0.75000004       0.00000000       0.50000000 </v>
   <v>       0.50000000       0.25000000       0.50000000 </v>
   <v>       0.50000000       0.00000000       0.75000004 </v>
   <v>       0.00000000       0.00000000       0.25000000 </v>
   <v>       0.50000000       0.25000000       0.00000000 </v>
   <v>       0.25000000       0.75000004       0.25000000 </v>
   <v>       0.25000000       0.50000000       0.00000000 </v>
   <v>       0.00000000       0.75000004       0.00000000 </v>
   <v>       0.75000004       0.75000004       0.25000000 </v>
   <v>       0.75000004       0.50000000       0.00000000 </v>
   <v>       0.50000000       0.50000000       0.25000000 </v>
   <v>       0.25000000       0.25000000       0.75000004 </v>
   <v>       0.25000000       0.00000000       0.50000000 </v>
   <v>       0.00000000       0.25000000       0.50000000 </v>
   <v>       0.25000000       0.75000004       0.75000004 </v>
   <v>       0.25000000       0.50000000       0.50000000 </v>
   <v>       0.00000000       0.75000004       0.50000000 </v>
   <v>       0.00000000       0.50000000       0.75000004 </v>
   <v>       0.75000004       0.75000004       0.75000004 </v>
   <v>       0.75000004       0.50000000       0.50000000 </v>
   <v>       0.50000000       0.75000004       0.50000000 </v>
   <v>       0.50000000       0.50000000       0.75000004 </v>
   <v>       0.50000000       0.00000000       0.00000000 </v>
   <v>       0.00000000       0.50000000       0.00000000 </v>
   <v>       0.50000000       0.75000004       0.25000000 </v>
   <v>       0.25000000       0.00000000       0.75000004 </v>
   <v>       0.50000000       0.00000000       0.50000000 </v>
   <v>       0.75000004       0.00000000       0.75000004 </v>
   <v>       0.25000000       0.75000004       0.50000000 </v>
   <v>       0.00000000       0.75000004       0.25000000 </v>
   <v>       0.75000004       0.50000000       0.25000000 </v>
   <v>       0.00000000       0.00000000       0.50000000 </v>
   <v>       0.50000000       0.50000000       0.50000000 </v>
   <v>       0.75000004       0.50000000       0.75000004 </v>
   <v>       0.75000004       0.75000004       0.50000000 </v>
  </varray>
 </structure>
 <calculation>
  <scstep>
   <time name="dav">   52.20   52.63</time>
   <time name="total">   52.24   52.69</time>
   <energy>
    <i name="alphaZ">   1673.38848610 </i>
    <i name="ewald"> -23815.05943141 </i>
    <i name="hartreedc">  -8127.98635090 </i>
    <i name="XCdc">    484.62051163 </i>
    <i name="pawpsdc">  20581.27803675 </i>
    <i name="pawaedc"> -19600.08230466 </i>
    <i name="eentropy">     -0.14936755 </i>
    <i name="bandstr">   -941.82389730 </i>
    <i name="atom">  33213.41487477 </i>
    <i name="e_fr_energy">   3467.60055744 </i>
    <i name="e_wo_entrp">   3467.74992499 </i>
    <i name="e_0_energy">   3467.67524121 </i>
   </energy>
  </scstep>
  <scstep>
   <time name="dav">   48.07   49.93</time>
   <time name="total">   48.07   49.93</time>
   <energy>
    <i name="e_fr_energy">     16.85956903 </i>
    <i name="e_wo_entrp">     17.09102281 </i>
    <i name="e_0_energy">     16.97529592 </i>
   </energy>
  </scstep>
  <scstep>
   <time name="dav">   63.46   65.27</time>
   <time name="total">   63.46   65.27</time>
   <energy>
    <i name="e_fr_energy">   -588.89182160 </i>
    <i name="e_wo_entrp">   -588.70497324 </i>
    <i name="e_0_energy">   -588.79839742 </i>
   </energy>
  </scstep>
  <scstep>
   <time name="dav">   61.67   63.02</time>
   <time name="total">   61.67   63.02</time>
   <energy>
    <i name="e_fr_energy">   -640.52697172 </i>
    <i name="e_wo_entrp">   -640.30147888 </i>
    <i name="e_0_energy">   -640.41422530 </i>
   </energy>
  </scstep>
  <scstep>
   <time name="dav">   63.91   65.09</time>
   <time name="total">   64.31   65.51</time>
   <energy>
    <i name="e_fr_energy">   -643.86388680 </i>
    <i name="e_wo_entrp">   -643.62865890 </i>
    <i name="e_0_energy">   -643.74627285 </i>
   </energy>
  </scstep>
  <scstep>
   <time name="diag">    1.95    1.98</time>
   <time name="diis">   44.78   45.88</time>
   <time name="orth">    0.50    0.50</time>
   <time name="total">   47.64   48.78</time>
   <energy>
    <i name="e_fr_energy">   -536.78675625 </i>
    <i name="e_wo_entrp">   -536.50958015 </i>
    <i name="e_0_energy">   -536.64816820 </i>
   </energy>
  </scstep>
  <scstep>
   <time name="diag">    1.98    2.00</time>
   <time name="diis">   41.75   42.67</time>
   <time name="orth">    0.46    0.47</time>
   <time name="total">   44.61   45.56</time>
   <energy>
    <i name="e_fr_energy">   -520.48280827 </i>
    <i name="e_wo_entrp">   -520.21460417 </i>
    <i name="e_0_energy">   -520.34870622 </i>
   </energy>
  </scstep>
  <scstep>
   <time name="diag">    1.95    1.97</time>
   <time name="diis">   47.07   47.84</time>
   <time name="orth">    0.47    0.47</time>
   <time name="total">   49.91   50.72</time>
   <energy>
    <i name="e_fr_energy">   -486.39714873 </i>
    <i name="e_wo_entrp">   -486.07990516 </i>
    <i name="e_0_energy">   -486.23852694 </i>
   </energy>
  </scstep>
  <scstep>
   <time name="diag">    1.96    1.98</time>
   <time name="diis">   46.47   47.47</time>
   <time name="orth">    0.46    0.47</time>
   <time name="total">   49.34   50.37</time>
   <energy>
    <i name="e_fr_energy">   -485.98339344 </i>
    <i name="e_wo_entrp">   -485.62111572 </i>
    <i name="e_0_energy">   -485.80225458 </i>
   </energy>
  </scstep>
  <scstep>
   <time name="diag">    1.99    2.02</time>
   <time name="diis">   46.18   47.13</time>
   <time name="orth">    0.47    0.47</time>
   <time name="total">   49.06   50.06</time>
   <energy>
    <i name="e_fr_energy">   -484.46625387 </i>
    <i name="e_wo_entrp">   -484.08456533 </i>
    <i name="e_0_energy">   -484.27540960 </i>
   </energy>
  </scstep>
  <scstep>
   <time name="diag">    2.01    2.03</time>
   <time name="diis">   45.89   46.73</time>
   <time name="orth">    0.46    0.47</time>
   <time name="total">   48.79   49.66</time>
   <energy>
    <i name="e_fr_energy">   -483.85985612 </i>
    <i name="e_wo_entrp">   -483.53578647 </i>
    <i name="e_0_energy">   -483.69782130 </i>
   </energy>
  </scstep>
  <scstep>
   <time name="diag">    1.93    1.96</time>
   <time name="diis">   46.04   46.98</time>
   <time name="orth">    0.46    0.47</time>
   <time name="total">   48.85   49.84</time>
   <energy>
    <i name="e_fr_energy">   -484.68925026 </i>
    <i name="e_wo_entrp">   -484.37108433 </i>
    <i name="e_0_energy">   -484.53016729 </i>
   </energy>
  </scstep>
  <scstep>
   <time name="diag">    1.91    1.93</time>
   <time name="diis">   45.25   46.31</time>
   <time name="orth">    0.47    0.47</time>
   <time name="total">   48.06   49.15</time>
   <energy>
    <i name="e_fr_energy">   -483.25436869 </i>
    <i name="e_wo_entrp">   -482.87271035 </i>
    <i name="e_0_energy">   -483.06353952 </i>
   </energy>
  </scstep>
  <scstep>
   <time name="diag">    2.01    2.04</time>
   <time name="diis">   45.63   46.65</time>
   <time name="orth">    0.47    0.47</time>
   <time name="total">   48.52   49.59</time>
   <energy>
    <i name="e_fr_energy">   -482.68339393 </i>
    <i name="e_wo_entrp">   -482.27860001 </i>
    <i name="e_0_energy">   -482.48099697 </i>
   </energy>
  </scstep>
  <scstep>
   <time name="diag">    1.93    1.94</time>
   <time name="diis">   45.90   46.71</time>
   <time name="orth">    0.46    0.47</time>
   <time name="total">   48.72   49.55</time>
   <energy>
    <i name="e_fr_energy">   -482.69391834 </i>
    <i name="e_wo_entrp">   -482.30195116 </i>
    <i name="e_0_energy">   -482.49793475 </i>
   </energy>
  </scstep>
  <scstep>
   <time name="diag">    1.93    1.95</time>
   <time name="diis">   46.67   47.51</time>
   <time name="orth">    0.51    0.52</time>
   <time name="total">   49.55   50.43</time>
   <energy>
    <i name="e_fr_energy">   -482.68787396 </i>
    <i name="e_wo_entrp">   -482.29817249 </i>
    <i name="e_0_energy">   -482.49302322 </i>
   </energy>
  </scstep>
  <scstep>
   <time name="diag">    1.96    1.98</time>
   <time name="diis">   47.08   47.86</time>
   <time name="orth">    0.47    0.47</time>
   <time name="total">   49.94   50.75</time>
   <energy>
    <i name="e_fr_energy">   -482.64789979 </i>
    <i name="e_wo_entrp">   -482.24791437 </i>
    <i name="e_0_energy">   -482.44790708 </i>
   </energy>
  </scstep>
  <scstep>
   <time name="diag">    1.92    1.94</time>
   <time name="diis">   46.74   47.50</time>
   <time name="orth">    0.47    0.47</time>
   <time name="total">   49.55   50.35</time>
   <energy>
    <i name="e_fr_energy">   -482.61176897 </i>
    <i name="e_wo_entrp">   -482.19749370 </i>
    <i name="e_0_energy">   -482.40463134 </i>
   </energy>
  </scstep>
  <scstep>
   <time name="diag">    1.99    2.01</time>
   <time name="diis">   48.03   48.98</time>
   <time name="orth">    0.47    0.47</time>
   <time name="total">   50.95   51.93</time>
   <energy>
    <i name="e_fr_energy">   -482.62166860 </i>
    <i name="e_wo_entrp">   -482.20206584 </i>
    <i name="e_0_energy">   -482.41186722 </i>
   </energy>
  </scstep>
  <scstep>
   <time name="diag">    1.96    2.01</time>
   <time name="diis">   45.64   46.53</time>
   <time name="orth">    0.46    0.47</time>
   <time name="total">   48.49   49.45</time>
   <energy>
    <i name="e_fr_energy">   -482.60772590 </i>
    <i name="e_wo_entrp">   -482.19460651 </i>
    <i name="e_0_energy">   -482.40116621 </i>
   </energy>
  </scstep>
  <scstep>
   <time name="diag">    2.00    2.02</time>
   <time name="diis">   46.33   47.30</time>
   <time name="orth">    0.47    0.47</time>
   <time name="total">   49.24   50.24</time>
   <energy>
    <i name="e_fr_energy">   -482.59592627 </i>
    <i name="e_wo_entrp">   -482.18737708 </i>
    <i name="e_0_energy">   -482.39165167 </i>
   </energy>
  </scstep>
  <scstep>
   <time name="diag">    2.45    2.50</time>
   <time name="diis">   46.94   48.01</time>
   <time name="orth">    0.46    0.47</time>
   <time name="total">   50.28   51.42</time>
   <energy>
    <i name="e_fr_energy">   -482.60466118 </i>
    <i name="e_wo_entrp">   -482.18985228 </i>
    <i name="e_0_energy">   -482.39725673 </i>
   </energy>
  </scstep>
  <scstep>
   <time name="diag">    1.98    2.00</time>
   <time name="diis">   48.06   49.11</time>
   <time name="orth">    0.49    0.49</time>
   <time name="total">   50.96   52.04</time>
   <energy>
    <i name="e_fr_energy">   -482.60585149 </i>
    <i name="e_wo_entrp">   -482.19069135 </i>
    <i name="e_0_energy">   -482.39827142 </i>
   </energy>
  </scstep>
  <scstep>
   <time name="diag">    2.04    2.06</time>
   <time name="diis">   47.99   48.98</time>
   <time name="orth">    0.48    0.49</time>
   <time name="total">   50.95   51.97</time>
   <energy>
    <i name="e_fr_energy">   -482.60209901 </i>
    <i name="e_wo_entrp">   -482.18958587 </i>
    <i name="e_0_energy">   -482.39584244 </i>
   </energy>
  </scstep>
  <scstep>
   <time name="diag">    2.00    2.02</time>
   <time name="diis">   47.04   48.08</time>
   <time name="orth">    0.46    0.47</time>
   <time name="total">   49.93   51.00</time>
   <energy>
    <i name="e_fr_energy">   -482.60266829 </i>
    <i name="e_wo_entrp">   -482.19078248 </i>
    <i name="e_0_energy">   -482.39672538 </i>
   </energy>
  </scstep>
  <scstep>
   <time name="diag">    2.03    2.04</time>
   <time name="diis">   44.99   45.76</time>
   <time name="orth">    0.47    0.48</time>
   <time name="total">   47.92   48.72</time>
   <energy>
    <i name="e_fr_energy">   -482.60343214 </i>
    <i name="e_wo_entrp">   -482.19104692 </i>
    <i name="e_0_energy">   -482.39723953 </i>
   </energy>
  </scstep>
  <scstep>
   <time name="diag">    2.19    2.22</time>
   <time name="diis">   45.85   46.84</time>
   <time name="orth">    0.51    0.52</time>
   <time name="total">   49.01   50.04</time>
   <energy>
    <i name="e_fr_energy">   -482.60412721 </i>
    <i name="e_wo_entrp">   -482.19177646 </i>
    <i name="e_0_energy">   -482.39795184 </i>
   </energy>
  </scstep>
  <scstep>
   <time name="diag">    1.95    1.97</time>
   <time name="diis">   46.86   47.65</time>
   <time name="orth">    0.46    0.47</time>
   <time name="total">   49.70   50.53</time>
   <energy>
    <i name="e_fr_energy">   -482.60474934 </i>
    <i name="e_wo_entrp">   -482.19259323 </i>
    <i name="e_0_energy">   -482.39867128 </i>
   </energy>
  </scstep>
  <scstep>
   <time name="diag">    1.98    2.00</time>
   <time name="diis">   44.96   45.85</time>
   <time name="orth">    0.46    0.46</time>
   <time name="total">   47.83   48.76</time>
   <energy>
    <i name="e_fr_energy">   -482.60529676 </i>
    <i name="e_wo_entrp">   -482.19219779 </i>
    <i name="e_0_energy">   -482.39874728 </i>
   </energy>
  </scstep>
  <scstep>
   <time name="diag">    2.00    2.04</time>
   <time name="diis">   42.84   43.57</time>
   <time name="orth">    0.46    0.47</time>
   <time name="total">   45.75   46.53</time>
   <energy>
    <i name="e_fr_energy">   -482.60566074 </i>
    <i name="e_wo_entrp">   -482.19222752 </i>
    <i name="e_0_energy">   -482.39894413 </i>
   </energy>
  </scstep>
  <scstep>
   <time name="diag">    2.03    2.05</time>
   <time name="diis">   34.87   35.48</time>
   <time name="orth">    0.55    0.56</time>
   <time name="total">   37.89   38.53</time>
   <energy>
    <i name="e_fr_energy">   -482.60590346 </i>
    <i name="e_wo_entrp">   -482.19274318 </i>
    <i name="e_0_energy">   -482.39932332 </i>
   </energy>
  </scstep>
  <scstep>
   <time name="diag">    1.92    1.94</time>
   <time name="diis">   42.25   43.10</time>
   <time name="orth">    0.50    0.51</time>
   <time name="total">   45.12   46.00</time>
   <energy>
    <i name="e_fr_energy">   -482.60608172 </i>
    <i name="e_wo_entrp">   -482.19283692 </i>
    <i name="e_0_energy">   -482.39945932 </i>
   </energy>
  </scstep>
  <scstep>
   <time name="diag">    1.95    1.97</time>
   <time name="diis">   42.15   42.89</time>
   <time name="orth">    0.51    0.52</time>
   <time name="total">   45.07   45.84</time>
   <energy>
    <i name="e_fr_energy">   -482.60625458 </i>
    <i name="e_wo_entrp">   -482.19308171 </i>
    <i name="e_0_energy">   -482.39966814 </i>
   </energy>
  </scstep>
  <scstep>
   <time name="diag">    1.99    2.01</time>
   <time name="diis">   25.19   25.66</time>
   <time name="orth">    0.47    0.48</time>
   <time name="total">   28.09   28.59</time>
   <energy>
    <i name="e_fr_energy">   -482.60637023 </i>
    <i name="e_wo_entrp">   -482.19312971 </i>
    <i name="e_0_energy">   -482.39974997 </i>
   </energy>
  </scstep>
  <scstep>
   <time name="diag">    2.02    2.05</time>
   <time name="diis">   25.46   25.87</time>
   <time name="orth">    0.46    0.46</time>
   <time name="total">   28.37   28.82</time>
   <energy>
    <i name="e_fr_energy">   -482.60645819 </i>
    <i name="e_wo_entrp">   -482.19312326 </i>
    <i name="e_0_energy">   -482.39979073 </i>
   </energy>
  </scstep>
  <scstep>
   <time name="diag">    1.93    1.95</time>
   <time name="diis">   26.11   26.60</time>
   <time name="orth">    0.51    0.52</time>
   <time name="total">   29.00   29.53</time>
   <energy>
    <i name="e_fr_energy">   -482.60653099 </i>
    <i name="e_wo_entrp">   -482.19314470 </i>
    <i name="e_0_energy">   -482.39983785 </i>
   </energy>
  </scstep>
  <scstep>
   <time name="diag">    1.94    1.95</time>
   <time name="diis">   22.63   23.03</time>
   <time name="orth">    0.50    0.50</time>
   <time name="total">   25.49   25.93</time>
   <energy>
    <i name="e_fr_energy">   -482.60658704 </i>
    <i name="e_wo_entrp">   -482.19318227 </i>
    <i name="e_0_energy">   -482.39988466 </i>
   </energy>
  </scstep>
  <scstep>
   <time name="diag">    1.94    1.95</time>
   <time name="diis">   21.47   21.81</time>
   <time name="orth">    0.47    0.47</time>
   <time name="total">   24.32   24.69</time>
   <energy>
    <i name="e_fr_energy">   -482.60663074 </i>
    <i name="e_wo_entrp">   -482.19316864 </i>
    <i name="e_0_energy">   -482.39989969 </i>
   </energy>
  </scstep>
  <scstep>
   <time name="diag">    2.00    2.01</time>
   <time name="diis">   22.81   23.20</time>
   <time name="orth">    0.53    0.54</time>
   <time name="total">   25.78   26.20</time>
   <energy>
    <i name="e_fr_energy">   -482.60666372 </i>
    <i name="e_wo_entrp">   -482.19319663 </i>
    <i name="e_0_energy">   -482.39993018 </i>
   </energy>
  </scstep>
  <scstep>
   <time name="diag">    1.92    1.94</time>
   <time name="diis">   21.36   21.72</time>
   <time name="orth">    0.50    0.50</time>
   <time name="total">   24.21   24.60</time>
   <energy>
    <i name="e_fr_energy">   -482.60669032 </i>
    <i name="e_wo_entrp">   -482.19320554 </i>
    <i name="e_0_energy">   -482.39994793 </i>
   </energy>
  </scstep>
  <scstep>
   <time name="diag">    2.02    2.05</time>
   <time name="diis">   21.32   21.62</time>
   <time name="orth">    0.46    0.47</time>
   <time name="total">   24.26   24.60</time>
   <energy>
    <i name="e_fr_energy">   -482.60671082 </i>
    <i name="e_wo_entrp">   -482.19320560 </i>
    <i name="e_0_energy">   -482.39995821 </i>
   </energy>
  </scstep>
  <scstep>
   <time name="diag">    2.26    2.31</time>
   <time name="diis">   20.24   20.55</time>
   <time name="orth">    0.48    0.48</time>
   <time name="total">   23.42   23.79</time>
   <energy>
    <i name="e_fr_energy">   -482.60672733 </i>
    <i name="e_wo_entrp">   -482.19321476 </i>
    <i name="e_0_energy">   -482.39997105 </i>
   </energy>
  </scstep>
  <scstep>
   <time name="diag">    1.92    1.93</time>
   <time name="diis">   19.24   19.52</time>
   <time name="orth">    0.46    0.47</time>
   <time name="total">   22.06   22.36</time>
   <energy>
    <i name="e_fr_energy">   -482.60673994 </i>
    <i name="e_wo_entrp">   -482.19321009 </i>
    <i name="e_0_energy">   -482.39997502 </i>
   </energy>
  </scstep>
  <scstep>
   <time name="diag">    2.08    2.14</time>
   <time name="diis">   18.52   18.89</time>
   <time name="orth">    0.59    0.59</time>
   <time name="total">   21.63   22.06</time>
   <energy>
    <i name="e_fr_energy">   -482.60675022 </i>
    <i name="e_wo_entrp">   -482.19320531 </i>
    <i name="e_0_energy">   -482.39997777 </i>
   </energy>
  </scstep>
  <scstep>
   <time name="diag">    1.94    1.96</time>
   <time name="diis">   17.88   18.14</time>
   <time name="orth">    0.54    0.54</time>
   <time name="total">   20.39   20.67</time>
   <energy>
    <i name="alphaZ">   1673.38848610 </i>
    <i name="ewald"> -23815.05943141 </i>
    <i name="hartreedc">  -7638.46357074 </i>
    <i name="XCdc">    475.85465929 </i>
    <i name="pawpsdc">  19185.38383489 </i>
    <i name="pawaedc"> -18239.87074853 </i>
    <i name="eentropy">     -0.41356435 </i>
    <i name="bandstr">  -5336.84129836 </i>
    <i name="atom">  33213.41487477 </i>
    <i name="e_fr_energy">   -482.60675836 </i>
    <i name="e_wo_entrp">   -482.19319400 </i>
    <i name="e_0_energy">   -482.39997618 </i>
   </energy>
  </scstep>
  <structure>
   <crystal>
    <varray name="basis" >
     <v>      11.23999977       0.00000000       0.00000000 </v>
     <v>       0.00000000      11.23999977       0.00000000 </v>
     <v>       0.00000000       0.00000000      11.23999977 </v>
    </varray>
    <i name="volume">   1420.03453724 </i>
    <varray name="rec_basis" >
     <v>       0.08896797       0.00000000       0.00000000 </v>
     <v>       0.00000000       0.08896797       0.00000000 </v>
     <v>       0.00000000       0.00000000       0.08896797 </v>
    </varray>
   </crystal>
   <varray name="positions" >
    <v>       0.00000000       0.00000000       0.00000000 </v>
    <v>       0.25000000       0.00000000       0.25000000 </v>
    <v>       0.25000000       0.50000000       0.25000000 </v>
    <v>       0.50000000       0.50000000       0.00000000 </v>
    <v>       0.50000000       0.25000000       0.75000004 </v>
    <v>       0.00000000       0.50000000       0.50000000 </v>
    <v>       0.50000000       0.75000004       0.75000004 </v>
    <v>       0.00000000       0.25000000       0.25000000 </v>
    <v>       0.75000004       0.75000004       0.00000000 </v>
    <v>       0.00000000       0.25000000       0.75000004 </v>
    <v>       0.75000004       0.25000000       0.50000000 </v>
    <v>       0.00000000       0.75000004       0.75000004 </v>
    <v>       0.25000000       0.50000000       0.75000004 </v>
    <v>       0.25000000       0.25000000       0.00000000 </v>
    <v>       0.50000000       0.25000000       0.25000000 </v>
    <v>       0.75000004       0.00000000       0.25000000 </v>
    <v>       0.75000004       0.25000000       0.00000000 </v>
    <v>       0.25000000       0.75000004       0.00000000 </v>
    <v>       0.25000000       0.25000000       0.50000000 </v>
    <v>       0.25000000       0.25000000       0.25000000 </v>
    <v>       0.25000000       0.00000000       0.00000000 </v>
    <v>       0.00000000       0.25000000       0.00000000 </v>
    <v>       0.75000004       0.25000000       0.25000000 </v>
    <v>       0.75000004       0.00000000       0.00000000 </v>
    <v>       0.50000000       0.00000000       0.25000000 </v>
    <v>       0.00000000       0.50000000       0.25000000 </v>
    <v>       0.50000000       0.75000004       0.00000000 </v>
    <v>       0.00000000       0.00000000       0.75000004 </v>
    <v>       0.75000004       0.25000000       0.75000004 </v>
    <v>       0.75000004       0.00000000       0.50000000 </v>
    <v>       0.50000000       0.25000000       0.50000000 </v>
    <v>       0.50000000       0.00000000       0.75000004 </v>
    <v>       0.00000000       0.00000000       0.25000000 </v>
    <v>       0.50000000       0.25000000       0.00000000 </v>
    <v>       0.25000000       0.75000004       0.25000000 </v>
    <v>       0.25000000       0.50000000       0.00000000 </v>
    <v>       0.00000000       0.75000004       0.00000000 </v>
    <v>       0.75000004       0.75000004       0.25000000 </v>
    <v>       0.75000004       0.50000000       0.00000000 </v>
    <v>       0.50000000       0.50000000       0.25000000 </v>
    <v>       0.25000000       0.25000000       0.75000004 </v>
    <v>       0.25000000       0.00000000       0.50000000 </v>
    <v>       0.00000000       0.25000000       0.50000000 </v>
    <v>       0.25000000       0.75000004       0.75000004 </v>
    <v>       0.25000000       0.50000000       0.50000000 </v>
    <v>       0.00000000       0.75000004       0.50000000 </v>
    <v>       0.00000000       0.50000000       0.75000004 </v>
    <v>       0.75000004       0.75000004       0.75000004 </v>
    <v>       0.75000004       0.50000000       0.50000000 </v>
    <v>       0.50000000       0.75000004       0.50000000 </v>
    <v>       0.50000000       0.50000000       0.75000004 </v>
    <v>       0.50000000       0.00000000       0.00000000 </v>
    <v>       0.00000000       0.50000000       0.00000000 </v>
    <v>       0.50000000       0.75000004       0.25000000 </v>
    <v>       0.25000000       0.00000000       0.75000004 </v>
    <v>       0.50000000       0.00000000       0.50000000 </v>
    <v>       0.75000004       0.00000000       0.75000004 </v>
    <v>       0.25000000       0.75000004       0.50000000 </v>
    <v>       0.00000000       0.75000004       0.25000000 </v>
    <v>       0.75000004       0.50000000       0.25000000 </v>
    <v>       0.00000000       0.00000000       0.50000000 </v>
    <v>       0.50000000       0.50000000       0.50000000 </v>
    <v>       0.75000004       0.50000000       0.75000004 </v>
    <v>       0.75000004       0.75000004       0.50000000 </v>
   </varray>
  </structure>
  <varray name="forces" >
   <v>      -0.02304510      -0.49498617       0.38197851 </v>
   <v>      -0.68118251      -0.48436173       0.45012267 </v>
   <v>       0.34740442       0.49877121       0.08787878 </v>
   <v>       0.16373333      -0.24701263      -0.02212475 </v>
   <v>      -0.24711149       0.57504165       0.18425631 </v>
   <v>       0.00739863       0.11592872       0.20901617 </v>
   <v>       0.15086117      -0.57225765      -0.50627421 </v>
   <v>      -0.19660540      -0.50350491       0.83737897 </v>
   <v>       0.66613664      -0.83596963       0.02494256 </v>
   <v>       0.36306327       0.58544657      -0.83037887 </v>
   <v>       0.71103082       0.71129403       0.11090644 </v>
   <v>      -0.16673917      -0.55664125      -0.17339125 </v>
   <v>       0.20888211       0.01394544      -0.11539817 </v>
   <v>       0.24494428       0.37473278      -0.34435681 </v>
   <v>       0.10033315       0.70119212      -0.17132482 </v>
   <v>       0.69036682      -0.54568026       0.31609143 </v>
   <v>      -0.28807201       0.62984510      -0.10383677 </v>
   <v>      -0.41520090      -0.35518177       0.10357649 </v>
   <v>      -0.40210422       0.08316229       0.32993435 </v>
   <v>       0.08084449      -0.07154267      -0.04325890 </v>
   <v>       0.43953603       0.06270082      -0.33051019 </v>
   <v>       0.01158844       0.30216101       0.03143058 </v>
   <v>      -0.10783291      -0.62207136      -0.04111669 </v>
   <v>      -0.40411690       0.18553226       0.13139760 </v>
   <v>       0.61731243       0.28498753      -0.09028469 </v>
   <v>      -0.00590964      -0.63399081      -0.33561330 </v>
   <v>      -0.05607984       0.48277937       0.33155969 </v>
   <v>      -0.14971822       0.04926298       0.12534866 </v>
   <v>       0.38981206      -0.55232497       0.04141203 </v>
   <v>      -0.44283665       0.59912203      -0.15696519 </v>
   <v>       0.01240183      -0.47857560      -0.58167419 </v>
   <v>       0.17103506       0.03670846       0.08113844 </v>
   <v>      -0.47408127       0.51223300       0.11456446 </v>
   <v>       0.06680839      -0.46497018       0.52100860 </v>
   <v>       0.18135641       0.04801356      -0.21525513 </v>
   <v>      -0.32794681      -0.07737405      -0.46976012 </v>
   <v>      -0.19589695      -0.20443202      -0.41362502 </v>
   <v>      -0.12444523       0.30223062      -0.40831018 </v>
   <v>       0.26105987       0.11544026       0.02092017 </v>
   <v>       0.19748254      -0.23177625       0.17237819 </v>
   <v>      -0.54113756       0.14567545       0.05259330 </v>
   <v>       0.25318334       0.23630852       0.23860951 </v>
   <v>      -0.24053311      -0.12684673      -0.04064598 </v>
   <v>      -0.46760683      -0.14910297       0.21287270 </v>
   <v>       0.08767307      -0.23504342       0.50680194 </v>
   <v>       0.01830465       0.10437298       0.40535941 </v>
   <v>       0.31508764      -0.05729774       0.18485177 </v>
   <v>       0.44947209       0.21022722       0.41012092 </v>
   <v>      -0.13405887      -0.42689292      -0.01646680 </v>
   <v>      -0.02750031       0.16960569      -0.20907533 </v>
   <v>      -0.34576672       0.00378046      -0.19455879 </v>
   <v>      -0.01631672       0.28229094      -0.12561193 </v>
   <v>      -0.14926328       0.44926239      -0.05605494 </v>
   <v>       0.02830702      -0.69215785       0.42503215 </v>
   <v>      -0.23517820      -0.02504921      -0.42656514 </v>
   <v>      -0.39635587      -0.49001899       0.13314832 </v>
   <v>       0.24291807      -0.47973124      -0.33550584 </v>
   <v>      -0.07816070      -0.06932436      -0.09279115 </v>
   <v>      -0.10217339       0.57103400       0.14824819 </v>
   <v>      -0.55722317       0.65929994      -0.01606542 </v>
   <v>       0.40938612      -0.02986671      -0.48264546 </v>
   <v>       0.15648080       0.63548028       0.02541893 </v>
   <v>      -0.13896481       0.59052565       0.03605456 </v>
   <v>       0.09495977      -0.61440928      -0.03690675 </v>
  </varray>
  <varray name="stress" >
   <v>    -422.50007091       0.66499629       0.10802994 </v>
   <v>       0.66499548    -420.48667312       0.02945938 </v>
   <v>       0.10803008       0.02945916    -423.33359288 </v>
  </varray>
  <energy>
   <i name="e_fr_energy">   -482.60675836 </i>
   <i name="e_wo_entrp">   -482.19319400 </i>
   <i name="e_0_energy">   -482.39997618 </i>
  </energy>
  <time name="totalsc"> 2026.24 2066.50</time>
 </calculation>
 <calculation>
  <scstep>
   <time name="dav">   46.93   48.26</time>
   <time name="total">   47.33   48.66</time>
   <energy>
    <i name="alphaZ">   4521.05153474 </i>
    <i name="ewald"> -33149.46200358 </i>
    <i name="hartreedc"> -10653.20231791 </i>
    <i name="XCdc">   1033.32843150 </i>
    <i name="pawpsdc">  19185.38370093 </i>
    <i name="pawaedc"> -18239.87061473 </i>
    <i name="eentropy">     -0.10220072 </i>
    <i name="bandstr">   1514.38917039 </i>
    <i name="atom">  33213.41487477 </i>
    <i name="e_fr_energy">  -2575.06942461 </i>
    <i name="e_wo_entrp">  -2574.96722389 </i>
    <i name="e_0_energy">  -2575.01832425 </i>
   </energy>
  </scstep>
  <scstep>
   <time name="diag">    1.93    1.97</time>
   <time name="diis">   49.25   50.76</time>
   <time name="orth">    0.50    0.50</time>
   <time name="total">   52.08   53.97</time>
   <energy>
    <i name="e_fr_energy">   -964.51836985 </i>
    <i name="e_wo_entrp">   -964.43909896 </i>
    <i name="e_0_energy">   -964.47873441 </i>
   </energy>
  </scstep>
  <scstep>
   <time name="diag">    1.93    1.98</time>
   <time name="diis">   40.16   41.40</time>
   <time name="orth">    0.46    0.46</time>
   <time name="total">   42.93   44.25</time>
   <energy>
    <i name="e_fr_energy">   -604.72628920 </i>
    <i name="e_wo_entrp">   -604.65648868 </i>
    <i name="e_0_energy">   -604.69138894 </i>
   </energy>
  </scstep>
  <scstep>
   <time name="diag">    1.96    2.01</time>
   <time name="diis">   35.73   36.75</time>
   <time name="orth">    0.46    0.47</time>
   <time name="total">   38.55   39.63</time>
   <energy>
    <i name="e_fr_energy">   -561.14281161 </i>
    <i name="e_wo_entrp">   -561.05518220 </i>
    <i name="e_0_energy">   -561.09899691 </i>
   </energy>
  </scstep>
  <scstep>
   <time name="diag">    1.97    2.01</time>
   <time name="diis">   45.50   46.46</time>
   <time name="orth">    0.46    0.47</time>
   <time name="total">   48.35   49.36</time>
   <energy>
    <i name="e_fr_energy">   -570.42387838 </i>
    <i name="e_wo_entrp">   -570.34068888 </i>
    <i name="e_0_energy">   -570.38228363 </i>
   </energy>
  </scstep>
  <scstep>
   <time name="diag">    1.98    2.00</time>
   <time name="diis">   43.99   44.92</time>
   <time name="orth">    0.46    0.47</time>
   <time name="total">   46.83   47.80</time>
   <energy>
    <i name="e_fr_energy">   -569.86295892 </i>
    <i name="e_wo_entrp">   -569.75112932 </i>
    <i name="e_0_energy">   -569.80704412 </i>
   </energy>
  </scstep>
  <scstep>
   <time name="diag">    1.97    1.99</time>
   <time name="diis">   43.21   44.03</time>
   <time name="orth">    0.46    0.46</time>
   <time name="total">   46.04   46.89</time>
   <energy>
    <i name="e_fr_energy">   -569.89791700 </i>
    <i name="e_wo_entrp">   -569.79078881 </i>
    <i name="e_0_energy">   -569.84435291 </i>
   </energy>
  </scstep>
  <scstep>
   <time name="diag">    1.98    2.00</time>
   <time name="diis">   43.83   44.66</time>
   <time name="orth">    0.50    0.50</time>
   <time name="total">   46.70   47.57</time>
   <energy>
    <i name="e_fr_energy">   -569.97554258 </i>
    <i name="e_wo_entrp">   -569.86410461 </i>
    <i name="e_0_energy">   -569.91982359 </i>
   </energy>
  </scstep>
  <scstep>
   <time name="diag">    2.01    2.03</time>
   <time name="diis">   48.15   49.05</time>
   <time name="orth">    0.47    0.47</time>
   <time name="total">   51.05   51.96</time>
   <energy>
    <i name="e_fr_energy">   -569.97413266 </i>
    <i name="e_wo_entrp">   -569.86052714 </i>
    <i name="e_0_energy">   -569.91732990 </i>
   </energy>
  </scstep>
  <scstep>
   <time name="diag">    2.01    2.03</time>
   <time name="diis">   46.18   47.02</time>
   <time name="orth">    0.46    0.47</time>
   <time name="total">   49.06   49.93</time>
   <energy>
    <i name="e_fr_energy">   -569.97845468 </i>
    <i name="e_wo_entrp">   -569.86628682 </i>
    <i name="e_0_energy">   -569.92237075 </i>
   </energy>
  </scstep>
  <scstep>
   <time name="diag">    2.01    2.06</time>
   <time name="diis">   48.36   49.22</time>
   <time name="orth">    0.46    0.47</time>
   <time name="total">   51.23   52.16</time>
   <energy>
    <i name="e_fr_energy">   -569.97984200 </i>
    <i name="e_wo_entrp">   -569.86701257 </i>
    <i name="e_0_energy">   -569.92342729 </i>
   </energy>
  </scstep>
  <scstep>
   <time name="diag">    2.00    2.03</time>
   <time name="diis">   47.99   48.79</time>
   <time name="orth">    0.48    0.49</time>
   <time name="total">   50.90   51.75</time>
   <energy>
    <i name="e_fr_energy">   -569.98031863 </i>
    <i name="e_wo_entrp">   -569.86760675 </i>
    <i name="e_0_energy">   -569.92396269 </i>
   </energy>
  </scstep>
  <scstep>
   <time name="diag">    1.95    1.97</time>
   <time name="diis">   45.80   46.62</time>
   <time name="orth">    0.47    0.47</time>
   <time name="total">   48.65   49.49</time>
   <energy>
    <i name="e_fr_energy">   -569.98041689 </i>
    <i name="e_wo_entrp">   -569.86759591 </i>
    <i name="e_0_energy">   -569.92400640 </i>
   </energy>
  </scstep>
  <scstep>
   <time name="diag">    1.96    1.99</time>
   <time name="diis">   44.15   45.00</time>
   <time name="orth">    0.48    0.49</time>
   <time name="total">   47.01   47.90</time>
   <energy>
    <i name="e_fr_energy">   -569.98045037 </i>
    <i name="e_wo_entrp">   -569.86765835 </i>
    <i name="e_0_energy">   -569.92405436 </i>
   </energy>
  </scstep>
  <scstep>
   <time name="diag">    1.94    1.96</time>
   <time name="diis">   33.31   33.98</time>
   <time name="orth">    0.49    0.49</time>
   <time name="total">   36.12   36.86</time>
   <energy>
    <i name="e_fr_energy">   -569.98046230 </i>
    <i name="e_wo_entrp">   -569.86764641 </i>
    <i name="e_0_energy">   -569.92405435 </i>
   </energy>
  </scstep>
  <scstep>
   <time name="diag">    1.93    1.98</time>
   <time name="diis">   23.64   24.07</time>
   <time name="orth">    0.47    0.47</time>
   <time name="total">   26.44   26.93</time>
   <energy>
    <i name="e_fr_energy">   -569.98046938 </i>
    <i name="e_wo_entrp">   -569.86765850 </i>
    <i name="e_0_energy">   -569.92406394 </i>
   </energy>
  </scstep>
  <scstep>
   <time name="diag">    1.92    1.94</time>
   <time name="diis">   22.47   22.94</time>
   <time name="orth">    0.46    0.47</time>
   <time name="total">   24.89   25.39</time>
   <energy>
    <i name="alphaZ">   4521.05153474 </i>
    <i name="ewald"> -33149.46200358 </i>
    <i name="hartreedc">  -4659.45019115 </i>
    <i name="XCdc">    668.56812080 </i>
    <i name="pawpsdc">  27143.57868927 </i>
    <i name="pawaedc"> -26287.86514506 </i>
    <i name="eentropy">     -0.11281297 </i>
    <i name="bandstr">  -2019.70353929 </i>
    <i name="atom">  33213.41487477 </i>
    <i name="e_fr_energy">   -569.98047246 </i>
    <i name="e_wo_entrp">   -569.86765949 </i>
    <i name="e_0_energy">   -569.92406597 </i>
   </energy>
  </scstep>
  <structure>
   <crystal>
    <varray name="basis" >
     <v>       8.06727330       0.00499373       0.00081124 </v>
     <v>       0.00499372       8.08239273       0.00022122 </v>
     <v>       0.00081124       0.00022122       8.06101404 </v>
    </varray>
    <i name="volume">    525.60105237 </i>
    <varray name="rec_basis" >
     <v>       0.12395767      -0.00007659      -0.00001247 </v>
     <v>      -0.00007659       0.12372578      -0.00000339 </v>
     <v>      -0.00001247      -0.00000339       0.12405387 </v>
    </varray>
   </crystal>
   <varray name="positions" >
    <v>       0.99990109       0.99787549       0.00163947 </v>
    <v>       0.24707633       0.99792109       0.25193195 </v>
    <v>       0.25149108       0.50214075       0.25037718 </v>
    <v>       0.50070275       0.49893981       0.99990504 </v>
    <v>       0.49893938       0.25246811       0.75079088 </v>
    <v>       0.00003176       0.50049757       0.50089711 </v>
    <v>       0.50064750       0.74754388       0.74782709 </v>
    <v>       0.99915616       0.24783893       0.25359407 </v>
    <v>       0.75285913       0.74641202       0.00010705 </v>
    <v>       0.00155829       0.25251277       0.74643601 </v>
    <v>       0.75305182       0.25305291       0.50047602 </v>
    <v>       0.99928435       0.74761091       0.74925584 </v>
    <v>       0.25089653       0.50005985       0.74950475 </v>
    <v>       0.25105131       0.25160837       0.99852200 </v>
    <v>       0.50043064       0.25300955       0.24926467 </v>
    <v>       0.75296313       0.99765791       0.25135668 </v>
    <v>       0.74876362       0.25270333       0.99955433 </v>
    <v>       0.24821794       0.74847558       0.00044456 </v>
    <v>       0.24827415       0.25035694       0.50141610 </v>
    <v>       0.25034699       0.24969294       0.24981433 </v>
    <v>       0.25188651       0.00026912       0.99858143 </v>
    <v>       0.00004974       0.25129689       0.00013490 </v>
    <v>       0.74953722       0.24733004       0.24982353 </v>
    <v>       0.74826555       0.00079631       0.00056397 </v>
    <v>       0.50264954       0.00122318       0.24961249 </v>
    <v>       0.99997464       0.49727888       0.24855953 </v>
    <v>       0.49975930       0.75207216       0.00142307 </v>
    <v>       0.99935740       0.00021144       0.75053804 </v>
    <v>       0.75167314       0.24762939       0.75017778 </v>
    <v>       0.74809936       0.00257146       0.49932630 </v>
    <v>       0.50005323       0.24794593       0.49750342 </v>
    <v>       0.50073409       0.00015755       0.75034829 </v>
    <v>       0.99796522       0.00219853       0.25049172 </v>
    <v>       0.50028675       0.24800432       0.00223620 </v>
    <v>       0.25077839       0.75020612       0.24907611 </v>
    <v>       0.24859244       0.49966791       0.99798377 </v>
    <v>       0.99915920       0.74912261       0.99822470 </v>
    <v>       0.74946592       0.75129723       0.24824751 </v>
    <v>       0.75112052       0.50049548       0.00008979 </v>
    <v>       0.50084761       0.49900520       0.25073986 </v>
    <v>       0.24767741       0.25062525       0.75022578 </v>
    <v>       0.25108668       0.00101425       0.50102412 </v>
    <v>       0.99896762       0.24945557       0.49982555 </v>
    <v>       0.24799301       0.74936008       0.75091370 </v>
    <v>       0.25037630       0.49899118       0.50217522 </v>
    <v>       0.00007856       0.75044802       0.50173982 </v>
    <v>       0.00135237       0.49975408       0.75079344 </v>
    <v>       0.75192920       0.75090235       0.75176030 </v>
    <v>       0.74942465       0.49816775       0.49992932 </v>
    <v>       0.49988197       0.75072800       0.49910264 </v>
    <v>       0.49851595       0.50001623       0.74916499 </v>
    <v>       0.49992997       0.00121161       0.99946087 </v>
    <v>       0.99935935       0.50192826       0.99975941 </v>
    <v>       0.50012150       0.74702927       0.25182426 </v>
    <v>       0.24899060       0.99989249       0.74816920 </v>
    <v>       0.49829882       0.99789681       0.50057148 </v>
    <v>       0.75104266       0.99794097       0.74856003 </v>
    <v>       0.24966453       0.74970250       0.49960174 </v>
    <v>       0.99956147       0.75245095       0.25063629 </v>
    <v>       0.74760841       0.50282975       0.24993105 </v>
    <v>       0.00175711       0.99987181       0.49792846 </v>
    <v>       0.50067162       0.50272751       0.50010910 </v>
    <v>       0.74940360       0.50253457       0.75015479 </v>
    <v>       0.75040761       0.74736297       0.49984159 </v>
   </varray>
  </structure>
  <varray name="forces" >
   <v>       0.27396693       0.08385211       0.92322671 </v>
   <v>      -1.01886010       0.15720100      -0.53348013 </v>
   <v>       0.39545806      -0.36014931      -0.05841256 </v>
   <v>       0.25007180       0.44119190      -0.22128205 </v>
   <v>       0.32816410       0.59073654      -0.22231779 </v>
   <v>       0.12478261      -0.36247659      -0.48159355 </v>
   <v>       0.58457391      -0.80331509       0.36692851 </v>
   <v>       0.63263856      -0.23444871       0.14144707 </v>
   <v>      -1.19357303       0.70512769      -0.11484978 </v>
   <v>      -0.51881471       0.04926075      -0.07369849 </v>
   <v>      -0.22599154       0.25710367       0.27315893 </v>
   <v>      -0.26329961      -0.12177739       0.00979014 </v>
   <v>       1.15595757      -0.30483793       0.16088004 </v>
   <v>      -0.40778259      -0.99298256       1.36229494 </v>
   <v>      -0.50026534       0.03597347       0.46080905 </v>
   <v>       0.15936163       0.07014571       0.07935553 </v>
   <v>       0.38284997      -0.45549656      -0.42675915 </v>
   <v>       1.06310360       1.16700563       0.48354258 </v>
   <v>       0.33603784       0.39383885      -1.52972951 </v>
   <v>      -0.69777819       0.03177264       0.06584279 </v>
   <v>      -3.32173299      -0.07244864       3.20975705 </v>
   <v>       0.12475538      -2.92172439       0.17611821 </v>
   <v>       0.39056908       0.69789382       0.39941110 </v>
   <v>       3.28759406      -0.41533236       0.82607935 </v>
   <v>      -1.79201352       0.96998811      -0.10389160 </v>
   <v>       1.42553661       0.38011643       3.38588080 </v>
   <v>       0.50727231      -3.18704280      -3.04803923 </v>
   <v>       0.01390584      -0.05182111       1.61286999 </v>
   <v>      -1.80347001       1.65376008      -0.45818109 </v>
   <v>       1.53388790      -0.21918690      -0.96992947 </v>
   <v>       0.61176629       1.74943044       2.12597722 </v>
   <v>       0.17537389       0.05011545      -0.06683826 </v>
   <v>       2.92658798      -0.82626121      -1.72804818 </v>
   <v>      -0.02092108       3.30514593      -2.21074664 </v>
   <v>      -2.14741699       0.02279745      -0.77838233 </v>
   <v>       2.92616114       0.11042254       2.00984646 </v>
   <v>      -0.10757278       3.26946317       0.69742714 </v>
   <v>       1.71511768      -1.24874915       0.75444693 </v>
   <v>      -3.18520873       0.45571707      -0.02286436 </v>
   <v>      -1.45851511      -0.68058723      -1.15093958 </v>
   <v>       1.81802658       1.06373608      -0.13280805 </v>
   <v>      -1.88440024       0.81450658      -3.66541238 </v>
   <v>      -0.02922981       1.63369521      -0.10900766 </v>
   <v>       1.78874778      -1.07760596       0.69693524 </v>
   <v>      -1.12167624      -0.76403933      -2.11963569 </v>
   <v>      -1.79230191      -1.37879637      -0.90232247 </v>
   <v>      -0.69130953       0.06805492      -3.41812516 </v>
   <v>      -2.30682031      -2.10591803      -0.82315222 </v>
   <v>       1.54906397       1.04461206       0.07230646 </v>
   <v>       1.87680352      -2.14845160       3.68665548 </v>
   <v>       0.90141867       0.05829092       1.18212003 </v>
   <v>      -0.55766283      -0.75707878      -0.47427786 </v>
   <v>       0.19048063      -0.69529868       1.19004345 </v>
   <v>      -0.32249607       0.00296659      -1.13026252 </v>
   <v>       0.22276532       0.10706327       1.45816732 </v>
   <v>      -0.07990812       0.32360284       0.47249455 </v>
   <v>      -0.50313068       0.19810864      -0.01217967 </v>
   <v>      -0.33797986      -0.49518707      -0.48844628 </v>
   <v>       0.50810645       0.80940606      -0.14616907 </v>
   <v>      -0.88443447      -0.20177153      -0.60155645 </v>
   <v>       0.15959144       0.59139711      -0.98330256 </v>
   <v>       0.16993135       0.02969461       0.12589890 </v>
   <v>      -1.05541867       0.06899296       0.51869503 </v>
   <v>      -0.28044536      -0.57940299       0.27823477 </v>
  </varray>
  <varray name="stress" >
   <v>    1773.18277450      -1.33994599      -1.73105496 </v>
   <v>      -1.33994295    1763.23040691      -3.08086988 </v>
   <v>      -1.73105553      -3.08087133    1787.66170203 </v>
  </varray>
  <energy>
   <i name="e_fr_energy">   -569.98047246 </i>
   <i name="e_wo_entrp">   -569.86765949 </i>
   <i name="e_0_energy">   -569.92406597 </i>
  </energy>
  <time name="totalsc">  842.62  860.82</time>
 </calculation>
 <calculation>
  <scstep>
   <time name="dav">   51.01   52.31</time>
   <time name="total">   51.43   52.73</time>
   <energy>
    <i name="alphaZ">   3155.28375299 </i>
    <i name="ewald"> -29413.75676186 </i>
    <i name="hartreedc">  -4124.81419691 </i>
    <i name="XCdc">    498.02839734 </i>
    <i name="pawpsdc">  27143.66652525 </i>
    <i name="pawaedc"> -26287.94064134 </i>
    <i name="eentropy">     -0.16497759 </i>
    <i name="bandstr">  -5167.83017093 </i>
    <i name="atom">  33213.41487477 </i>
    <i name="e_fr_energy">   -984.11319828 </i>
    <i name="e_wo_entrp">   -983.94822069 </i>
    <i name="e_0_energy">   -984.03070949 </i>
   </energy>
  </scstep>
  <scstep>
   <time name="diag">    1.91    1.95</time>
   <time name="diis">   34.15   35.12</time>
   <time name="orth">    0.46    0.46</time>
   <time name="total">   36.90   37.93</time>
   <energy>
    <i name="e_fr_energy">  -1059.98299785 </i>
    <i name="e_wo_entrp">  -1059.90315299 </i>
    <i name="e_0_energy">  -1059.94307542 </i>
   </energy>
  </scstep>
  <scstep>
   <time name="diag">    1.98    2.02</time>
   <time name="diis">   43.65   44.63</time>
   <time name="orth">    0.54    0.55</time>
   <time name="total">   46.60   47.66</time>
   <energy>
    <i name="e_fr_energy">   -785.38350332 </i>
    <i name="e_wo_entrp">   -785.28994796 </i>
    <i name="e_0_energy">   -785.33672564 </i>
   </energy>
  </scstep>
  <scstep>
   <time name="diag">    2.03    2.05</time>
   <time name="diis">   43.96   44.69</time>
   <time name="orth">    0.46    0.46</time>
   <time name="total">   46.85   47.61</time>
   <energy>
    <i name="e_fr_energy">   -708.43554539 </i>
    <i name="e_wo_entrp">   -708.32250276 </i>
    <i name="e_0_energy">   -708.37902408 </i>
   </energy>
  </scstep>
  <scstep>
   <time name="diag">    1.97    1.99</time>
   <time name="diis">   44.40   45.33</time>
   <time name="orth">    0.47    0.47</time>
   <time name="total">   47.25   48.21</time>
   <energy>
    <i name="e_fr_energy">   -657.06585190 </i>
    <i name="e_wo_entrp">   -656.92521971 </i>
    <i name="e_0_energy">   -656.99553580 </i>
   </energy>
  </scstep>
  <scstep>
   <time name="diag">    2.01    2.04</time>
   <time name="diis">   44.62   45.44</time>
   <time name="orth">    0.49    0.49</time>
   <time name="total">   47.53   48.39</time>
   <energy>
    <i name="e_fr_energy">   -668.65669643 </i>
    <i name="e_wo_entrp">   -668.48510027 </i>
    <i name="e_0_energy">   -668.57089835 </i>
   </energy>
  </scstep>
  <scstep>
   <time name="diag">    1.92    1.94</time>
   <time name="diis">   33.93   34.48</time>
   <time name="orth">    0.50    0.51</time>
   <time name="total">   36.76   37.34</time>
   <energy>
    <i name="e_fr_energy">   -653.52046388 </i>
    <i name="e_wo_entrp">   -653.40259856 </i>
    <i name="e_0_energy">   -653.46153122 </i>
   </energy>
  </scstep>
  <scstep>
   <time name="diag">    2.01    2.04</time>
   <time name="diis">   43.10   43.91</time>
   <time name="orth">    0.46    0.47</time>
   <time name="total">   45.98   46.83</time>
   <energy>
    <i name="e_fr_energy">   -652.52285373 </i>
    <i name="e_wo_entrp">   -652.37564068 </i>
    <i name="e_0_energy">   -652.44924721 </i>
   </energy>
  </scstep>
  <scstep>
   <time name="diag">    2.02    2.10</time>
   <time name="diis">   43.96   44.84</time>
   <time name="orth">    0.50    0.51</time>
   <time name="total">   46.88   47.86</time>
   <energy>
    <i name="e_fr_energy">   -653.28410930 </i>
    <i name="e_wo_entrp">   -653.15082554 </i>
    <i name="e_0_energy">   -653.21746742 </i>
   </energy>
  </scstep>
  <scstep>
   <time name="diag">    1.96    1.98</time>
   <time name="diis">   39.55   40.29</time>
   <time name="orth">    0.49    0.49</time>
   <time name="total">   42.40   43.17</time>
   <energy>
[...]
      </set>
     </set>
    </set>
   </array>
  </eigenvalues>
  <separator name="orbital magnetization" >
   <v name="MAGDIPOLOUT">      0.00000000      0.00000000      0.00000000</v>
  </separator>
  <dos>
   <i name="efermi">      7.93681640 </i>
   <total>
    <array>
     <dimension dim="1">gridpoints</dimension>
     <dimension dim="2">spin</dimension>
     <field>energy</field>
     <field>total</field>
     <field>integrated</field>
     <set>
      <set comment="spin 1">
       <r>   -30.3077     0.0000     0.0000 </r>
       <r>   -30.1633     0.0000     0.0000 </r>
       <r>   -30.0189     0.0000     0.0000 </r>
       <r>   -29.8746     0.0000     0.0000 </r>
       <r>   -29.7302     0.0000     0.0000 </r>
       <r>   -29.5858     0.0000     0.0000 </r>
       <r>   -29.4414     0.0000     0.0000 </r>
       <r>   -29.2970     0.0000     0.0000 </r>
       <r>   -29.1526     0.0000     0.0000 </r>
       <r>   -29.0082     0.0000     0.0000 </r>
       <r>   -28.8638     0.0000     0.0000 </r>
       <r>   -28.7194     0.0000     0.0000 </r>
       <r>   -28.5750     0.0055     0.0008 </r>
       <r>   -28.4306     1.4580     0.2113 </r>
       <r>   -28.2862    19.8201     3.0732 </r>
       <r>   -28.1418    58.7375    11.5545 </r>
       <r>   -27.9974    91.6011    24.7810 </r>
       <r>   -27.8531    69.2718    34.7834 </r>
       <r>   -27.7087    27.9940    38.8255 </r>
       <r>   -27.5643    46.0649    45.4769 </r>
       <r>   -27.4199    42.3155    51.5870 </r>
       <r>   -27.2755    55.1725    59.5535 </r>
       <r>   -27.1311    42.3370    65.6666 </r>
       <r>   -26.9867    29.3973    69.9114 </r>
       <r>   -26.8423    13.8623    71.9130 </r>
       <r>   -26.6979     0.6014    71.9999 </r>
       <r>   -26.5535     0.0013    72.0000 </r>
       <r>   -26.4091     0.3017    72.0436 </r>
       <r>   -26.2647     8.2340    73.2325 </r>
       <r>   -26.1203    34.8440    78.2638 </r>
       <r>   -25.9760    66.0927    87.8071 </r>
       <r>   -25.8316   103.1501   102.7012 </r>
       <r>   -25.6872    67.9735   112.5161 </r>
       <r>   -25.5428    10.0808   113.9717 </r>
       <r>   -25.3984     0.1960   114.0000 </r>
       <r>   -25.2540     0.0001   114.0000 </r>
       <r>   -25.1096     0.0000   114.0000 </r>
       <r>   -24.9652     0.0000   114.0000 </r>
       <r>   -24.8208     0.0000   114.0000 </r>
       <r>   -24.6764     0.0000   114.0000 </r>
       <r>   -24.5320     0.0000   114.0000 </r>
       <r>   -24.3876     0.0000   114.0000 </r>
       <r>   -24.2432     0.0000   114.0000 </r>
       <r>   -24.0988     0.0000   114.0000 </r>
       <r>   -23.9545     0.0000   114.0000 </r>
       <r>   -23.8101     0.0000   114.0000 </r>
       <r>   -23.6657     0.0001   114.0000 </r>
       <r>   -23.5213     0.1577   114.0228 </r>
       <r>   -23.3769     6.0873   114.9017 </r>
       <r>   -23.2325    28.0010   118.9449 </r>
       <r>   -23.0881    56.3695   127.0842 </r>
       <r>   -22.9437    30.8290   131.5357 </r>
       <r>   -22.7993     7.3939   132.6033 </r>
       <r>   -22.6549    35.6409   137.7496 </r>
       <r>   -22.5105    50.2022   144.9985 </r>
       <r>   -22.3661    31.5650   149.5562 </r>
       <r>   -22.2217     3.0614   149.9983 </r>
       <r>   -22.0773     0.0120   150.0000 </r>
       <r>   -21.9330     0.0000   150.0000 </r>
       <r>   -21.7886     0.0000   150.0000 </r>
       <r>   -21.6442     0.0000   150.0000 </r>
       <r>   -21.4998     0.0000   150.0000 </r>
       <r>   -21.3554     0.0000   150.0000 </r>
       <r>   -21.2110     0.0000   150.0000 </r>
       <r>   -21.0666     0.0000   150.0000 </r>
       <r>   -20.9222     0.0000   150.0000 </r>
       <r>   -20.7778     0.0000   150.0000 </r>
       <r>   -20.6334     0.0000   150.0000 </r>
       <r>   -20.4890     0.0000   150.0000 </r>
       <r>   -20.3446     0.0000   150.0000 </r>
       <r>   -20.2002     0.0000   150.0000 </r>
       <r>   -20.0558     0.0000   150.0000 </r>
       <r>   -19.9115     0.0000   150.0000 </r>
       <r>   -19.7671     0.0000   150.0000 </r>
       <r>   -19.6227     0.0000   150.0000 </r>
       <r>   -19.4783     0.0000   150.0000 </r>
       <r>   -19.3339     0.0000   150.0000 </r>
       <r>   -19.1895     0.0000   150.0000 </r>
       <r>   -19.0451     0.0000   150.0000 </r>
       <r>   -18.9007     0.0000   150.0000 </r>
       <r>   -18.7563     0.0000   150.0000 </r>
       <r>   -18.6119     0.0000   150.0000 </r>
       <r>   -18.4675     0.0000   150.0000 </r>
       <r>   -18.3231     0.0000   150.0000 </r>
       <r>   -18.1787     0.0000   150.0000 </r>
       <r>   -18.0343     0.0000   150.0000 </r>
       <r>   -17.8900     0.0000   150.0000 </r>
       <r>   -17.7456     0.0000   150.0000 </r>
       <r>   -17.6012     0.0000   150.0000 </r>
       <r>   -17.4568     0.0000   150.0000 </r>
       <r>   -17.3124     0.0000   150.0000 </r>
       <r>   -17.1680     0.0000   150.0000 </r>
       <r>   -17.0236     0.0000   150.0000 </r>
       <r>   -16.8792     0.0000   150.0000 </r>
       <r>   -16.7348     0.0000   150.0000 </r>
       <r>   -16.5904     0.0000   150.0000 </r>
       <r>   -16.4460     0.0000   150.0000 </r>
       <r>   -16.3016     0.0000   150.0000 </r>
       <r>   -16.1572     0.0000   150.0000 </r>
       <r>   -16.0128     0.0000   150.0000 </r>
       <r>   -15.8685     0.0000   150.0000 </r>
       <r>   -15.7241     0.0000   150.0000 </r>
       <r>   -15.5797     0.0000   150.0000 </r>
       <r>   -15.4353     0.0000   150.0000 </r>
       <r>   -15.2909     0.0000   150.0000 </r>
       <r>   -15.1465     0.0000   150.0000 </r>
       <r>   -15.0021     0.0000   150.0000 </r>
       <r>   -14.8577     0.0000   150.0000 </r>
       <r>   -14.7133     0.0000   150.0000 </r>
       <r>   -14.5689     0.0000   150.0000 </r>
       <r>   -14.4245     0.0000   150.0000 </r>
       <r>   -14.2801     0.0000   150.0000 </r>
       <r>   -14.1357     0.0000   150.0000 </r>
       <r>   -13.9914     0.0000   150.0000 </r>
       <r>   -13.8470     0.0000   150.0000 </r>
       <r>   -13.7026     0.0000   150.0000 </r>
       <r>   -13.5582     0.0000   150.0000 </r>
       <r>   -13.4138     0.0000   150.0000 </r>
       <r>   -13.2694     0.0000   150.0000 </r>
       <r>   -13.1250     0.0000   150.0000 </r>
       <r>   -12.9806     0.0000   150.0000 </r>
       <r>   -12.8362     0.0000   150.0000 </r>
       <r>   -12.6918     0.0000   150.0000 </r>
       <r>   -12.5474     0.0000   150.0000 </r>
       <r>   -12.4030     0.0000   150.0000 </r>
       <r>   -12.2586     0.0000   150.0000 </r>
       <r>   -12.1142     0.0000   150.0000 </r>
       <r>   -11.9699     0.0000   150.0000 </r>
       <r>   -11.8255     0.0000   150.0000 </r>
       <r>   -11.6811     0.0000   150.0000 </r>
       <r>   -11.5367     0.0000   150.0000 </r>
       <r>   -11.3923     0.0000   150.0000 </r>
       <r>   -11.2479     0.0000   150.0000 </r>
       <r>   -11.1035     0.0000   150.0000 </r>
       <r>   -10.9591     0.0000   150.0000 </r>
       <r>   -10.8147     0.0000   150.0000 </r>
       <r>   -10.6703     0.0000   150.0000 </r>
       <r>   -10.5259     0.0000   150.0000 </r>
       <r>   -10.3815     0.0000   150.0000 </r>
       <r>   -10.2371     0.0000   150.0000 </r>
       <r>   -10.0927     0.0000   150.0000 </r>
       <r>    -9.9484     0.0000   150.0000 </r>
       <r>    -9.8040     0.0000   150.0000 </r>
       <r>    -9.6596     0.0000   150.0000 </r>
       <r>    -9.5152     0.0000   150.0000 </r>
       <r>    -9.3708     0.0000   150.0000 </r>
       <r>    -9.2264     0.0000   150.0000 </r>
       <r>    -9.0820     0.0000   150.0000 </r>
       <r>    -8.9376     0.0000   150.0000 </r>
       <r>    -8.7932     0.0000   150.0000 </r>
       <r>    -8.6488     0.0000   150.0000 </r>
       <r>    -8.5044     0.0001   150.0000 </r>
       <r>    -8.3600     0.0445   150.0064 </r>
       <r>    -8.2156     1.2873   150.1923 </r>
       <r>    -8.0712     5.1166   150.9311 </r>
       <r>    -7.9269     6.1172   151.8144 </r>
       <r>    -7.7825     1.6389   152.0510 </r>
       <r>    -7.6381     5.9133   152.9049 </r>
       <r>    -7.4937    13.2772   154.8220 </r>
       <r>    -7.3493    18.7975   157.5362 </r>
       <r>    -7.2049    22.1732   160.7379 </r>
       <r>    -7.0605    27.2917   164.6786 </r>
       <r>    -6.9161    31.9144   169.2868 </r>
       <r>    -6.7717    19.8019   172.1460 </r>
       <r>    -6.6273    17.3995   174.6584 </r>
       <r>    -6.4829     7.7451   175.7767 </r>
       <r>    -6.3385     1.5069   175.9943 </r>
       <r>    -6.1941     0.0394   176.0000 </r>
       <r>    -6.0497     0.0000   176.0000 </r>
       <r>    -5.9054     0.0000   176.0000 </r>
       <r>    -5.7610     0.0000   176.0000 </r>
       <r>    -5.6166     0.0000   176.0000 </r>
       <r>    -5.4722     0.0000   176.0000 </r>
       <r>    -5.3278     0.0000   176.0000 </r>
       <r>    -5.1834     0.0000   176.0000 </r>
       <r>    -5.0390     0.0000   176.0000 </r>
       <r>    -4.8946     0.0069   176.0010 </r>
       <r>    -4.7502     0.4988   176.0730 </r>
       <r>    -4.6058     3.9238   176.6396 </r>
       <r>    -4.4614     6.8086   177.6227 </r>
       <r>    -4.3170     2.9773   178.0526 </r>
       <r>    -4.1726     6.7099   179.0215 </r>
       <r>    -4.0283    11.2987   180.6529 </r>
       <r>    -3.8839    13.3868   182.5859 </r>
       <r>    -3.7395    14.8082   184.7241 </r>
       <r>    -3.5951    17.1492   187.2003 </r>
       <r>    -3.4507    19.8578   190.0676 </r>
       <r>    -3.3063    25.2878   193.7190 </r>
       <r>    -3.1619    22.3637   196.9481 </r>
       <r>    -3.0175    24.6986   200.5144 </r>
       <r>    -2.8731    21.7180   203.6504 </r>
       <r>    -2.7287    20.1646   206.5620 </r>
       <r>    -2.5843    20.1460   209.4709 </r>
       <r>    -2.4399    12.8336   211.3240 </r>
       <r>    -2.2955    11.2993   212.9555 </r>
       <r>    -2.1511     5.7463   213.7853 </r>
       <r>    -2.0068     1.3323   213.9776 </r>
       <r>    -1.8624     0.1529   213.9997 </r>
       <r>    -1.7180     0.0020   214.0000 </r>
       <r>    -1.5736     0.0000   214.0000 </r>
       <r>    -1.4292     0.0000   214.0000 </r>
       <r>    -1.2848     0.0000   214.0000 </r>
       <r>    -1.1404     0.0000   214.0000 </r>
       <r>    -0.9960     0.0000   214.0000 </r>
       <r>    -0.8516     0.0000   214.0000 </r>
       <r>    -0.7072     0.0000   214.0000 </r>
       <r>    -0.5628     0.0000   214.0000 </r>
       <r>    -0.4184     0.0000   214.0000 </r>
       <r>    -0.2740     0.0000   214.0000 </r>
       <r>    -0.1296     0.0037   214.0005 </r>
       <r>     0.0147     0.2473   214.0362 </r>
       <r>     0.1591     0.7547   214.1452 </r>
       <r>     0.3035     1.8444   214.4115 </r>
       <r>     0.4479     4.9345   215.1240 </r>
       <r>     0.5923     8.7186   216.3829 </r>
       <r>     0.7367     8.8703   217.6637 </r>
       <r>     0.8811    10.8296   219.2275 </r>
       <r>     1.0255    12.1880   220.9873 </r>
       <r>     1.1699    14.5409   223.0869 </r>
       <r>     1.3143    19.6359   225.9222 </r>
       <r>     1.4587    24.9136   229.5196 </r>
       <r>     1.6031    30.9882   233.9940 </r>
       <r>     1.7475    31.7088   238.5725 </r>
       <r>     1.8919    25.6983   242.2832 </r>
       <r>     2.0362    24.3901   245.8049 </r>
       <r>     2.1806    32.3001   250.4689 </r>
       <r>     2.3250    35.2478   255.5584 </r>
       <r>     2.4694    33.1197   260.3406 </r>
       <r>     2.6138    36.2630   265.5767 </r>
       <r>     2.7582    43.0713   271.7959 </r>
       <r>     2.9026    51.5822   279.2440 </r>
       <r>     3.0470    59.9535   287.9009 </r>
       <r>     3.1914    63.6645   297.0936 </r>
       <r>     3.3358    65.3482   306.5294 </r>
       <r>     3.4802    67.6138   316.2923 </r>
       <r>     3.6246    66.2670   325.8608 </r>
       <r>     3.7690    65.5477   335.3254 </r>
       <r>     3.9134    62.5461   344.3566 </r>
       <r>     4.0577    58.2809   352.7719 </r>
       <r>     4.2021    52.2984   360.3234 </r>
       <r>     4.3465    48.6669   367.3506 </r>
       <r>     4.4909    40.9483   373.2632 </r>
       <r>     4.6353    37.6761   378.7034 </r>
       <r>     4.7797    32.8990   383.4538 </r>
       <r>     4.9241    27.2975   387.3953 </r>
       <r>     5.0685    29.4977   391.6546 </r>
       <r>     5.2129    26.2617   395.4466 </r>
       <r>     5.3573    20.9607   398.4732 </r>
       <r>     5.5017    17.6744   401.0252 </r>
       <r>     5.6461    15.5558   403.2714 </r>
       <r>     5.7905    14.1999   405.3217 </r>
       <r>     5.9349     5.8686   406.1691 </r>
       <r>     6.0792     7.7061   407.2818 </r>
       <r>     6.2236    11.7682   408.9811 </r>
       <r>     6.3680    15.1934   411.1749 </r>
       <r>     6.5124    18.3062   413.8182 </r>
       <r>     6.6568    18.5752   416.5003 </r>
       <r>     6.8012    14.8865   418.6498 </r>
       <r>     6.9456    11.0704   420.2483 </r>
       <r>     7.0900    14.1516   422.2917 </r>
       <r>     7.2344    18.1649   424.9145 </r>
       <r>     7.3788    15.8836   427.2080 </r>
       <r>     7.5232    16.1316   429.5373 </r>
       <r>     7.6676    18.1766   432.1619 </r>
       <r>     7.8120    16.9930   434.6155 </r>
       <r>     7.9563    19.4134   437.4187 </r>
       <r>     8.1007    23.1641   440.7634 </r>
       <r>     8.2451    26.2218   444.5497 </r>
       <r>     8.3895    27.2917   448.4904 </r>
       <r>     8.5339    26.6518   452.3387 </r>
       <r>     8.6783    30.8768   456.7971 </r>
       <r>     8.8227    38.0470   462.2908 </r>
       <r>     8.9671    38.7421   467.8849 </r>
       <r>     9.1115    41.0230   473.8083 </r>
       <r>     9.2559    42.9285   480.0068 </r>
       <r>     9.4003    43.7151   486.3190 </r>
       <r>     9.5447    45.7680   492.9276 </r>
       <r>     9.6891    48.1739   499.8835 </r>
       <r>     9.8335    48.5398   506.8923 </r>
       <r>     9.9778    50.3432   514.1615 </r>
       <r>    10.1222    49.1273   521.2551 </r>
       <r>    10.2666    46.9553   528.0352 </r>
       <r>    10.4110    44.9902   534.5314 </r>
       <r>    10.5554    48.6274   541.5529 </r>
       <r>    10.6998    50.9206   548.9054 </r>
       <r>    10.8442    44.6051   555.3461 </r>
       <r>    10.9886    24.4778   558.8805 </r>
       <r>    11.1330     7.3067   559.9355 </r>
       <r>    11.2774     0.4454   559.9998 </r>
       <r>    11.4218     0.0013   560.0000 </r>
       <r>    11.5662     0.0000   560.0000 </r>
       <r>    11.7106     0.0000   560.0000 </r>
       <r>    11.8550     0.0000   560.0000 </r>
       <r>    11.9993     0.0000   560.0000 </r>
       <r>    12.1437     0.0000   560.0000 </r>
       <r>    12.2881     0.0000   560.0000 </r>
       <r>    12.4325     0.0000   560.0000 </r>
       <r>    12.5769     0.0000   560.0000 </r>
       <r>    12.7213     0.0000   560.0000 </r>
       <r>    12.8657     0.0000   560.0000 </r>
       <r>    13.0101     0.0000   560.0000 </r>
      </set>
     </set>
    </array>
   </total>
  </dos>
 </calculation>
 <structure name="finalpos" >
  <crystal>
   <varray name="basis" >
    <v>       8.98089987       0.00100795      -0.00179074 </v>
    <v>       0.00098489       9.06365571      -0.01036776 </v>
    <v>      -0.00179223      -0.01039895       8.93956915 </v>
   </varray>
   <i name="volume">    727.67799528 </i>
   <varray name="rec_basis" >
    <v>       0.11134742      -0.00001207       0.00002231 </v>
    <v>      -0.00001236       0.11033091       0.00012834 </v>
    <v>       0.00002229       0.00012795       0.11186237 </v>
   </varray>
  </crystal>
  <varray name="positions" >
   <v>       0.99846148       0.99492177       0.00872488 </v>
   <v>       0.23967790       0.99193961       0.25165529 </v>
   <v>       0.26249861       0.50517632       0.25029459 </v>
   <v>       0.49878169       0.49943373       0.99907393 </v>
   <v>       0.49387463       0.26177015       0.74966854 </v>
   <v>       0.01197396       0.49662798       0.49301263 </v>
   <v>       0.50424985       0.73652501       0.74741200 </v>
   <v>       0.99918937       0.24436341       0.26083634 </v>
   <v>       0.75557587       0.74247984       0.00446429 </v>
   <v>       0.00490118       0.26588047       0.73953060 </v>
   <v>       0.75389831       0.27070301       0.50530125 </v>
   <v>       0.99528569       0.73255495       0.74244352 </v>
   <v>       0.25899454       0.50085192       0.75003285 </v>
   <v>       0.24662630       0.25135069       0.00185936 </v>
   <v>       0.50156112       0.25483795       0.25025000 </v>
   <v>       0.75532776       0.99495273       0.25685279 </v>
   <v>       0.75136465       0.25357088       0.99330224 </v>
   <v>       0.24485630       0.74979636       0.00082162 </v>
   <v>       0.25003798       0.25164910       0.49813703 </v>
   <v>       0.24847824       0.24893137       0.24983949 </v>
   <v>       0.24551509       0.00040865       0.00622651 </v>
   <v>       0.99928300       0.24508008       0.00157195 </v>
   <v>       0.75209832       0.24729851       0.25219709 </v>
   <v>       0.75430890       0.00047291       0.00100227 </v>
   <v>       0.50207658       0.00469177       0.24839642 </v>
   <v>       0.00575427       0.48913855       0.25821497 </v>
   <v>       0.50144087       0.74753871       0.99410328 </v>
   <v>       0.99703847       0.00376246       0.75520007 </v>
   <v>       0.74878221       0.24770918       0.74698544 </v>
   <v>       0.75041778       0.01780909       0.49754481 </v>
   <v>       0.50507294       0.24968558       0.50228069 </v>
   <v>       0.50285337       0.00103214       0.75051508 </v>
   <v>       0.00339845       0.00494280       0.24550603 </v>
   <v>       0.50069559       0.25366043       0.99660722 </v>
   <v>       0.24377173       0.75030984       0.24789279 </v>
   <v>       0.25471761       0.50004441       0.00315320 </v>
   <v>       0.99572559       0.75604110       0.00015636 </v>
   <v>       0.75470901       0.74366689       0.24997329 </v>
   <v>       0.74299463       0.50174517       0.00175709 </v>
   <v>       0.49382582       0.49849449       0.24729386 </v>
   <v>       0.25111866       0.25447492       0.74994422 </v>
   <v>       0.24680596       0.00279403       0.49226616 </v>
   <v>       0.99883082       0.25326235       0.50039721 </v>
   <v>       0.24895301       0.74512990       0.75277919 </v>
   <v>       0.25296326       0.49796044       0.49687964 </v>
   <v>       0.99344168       0.75170179       0.50040730 </v>
   <v>       0.99954813       0.49942107       0.74408290 </v>
   <v>       0.74712408       0.74352047       0.75111255 </v>
   <v>       0.75846513       0.49965776       0.49797429 </v>
   <v>       0.50602776       0.74459773       0.50800430 </v>
   <v>       0.49933078       0.49917486       0.75215893 </v>
   <v>       0.49901033       0.00088545       0.99618695 </v>
   <v>       0.00029934       0.50170854       0.00911959 </v>
   <v>       0.49984422       0.74598945       0.25102730 </v>
   <v>       0.24325295       0.99911994       0.75008859 </v>
   <v>       0.49424458       0.99479177       0.50313801 </v>
   <v>       0.75555660       0.98980523       0.74196162 </v>
   <v>       0.24632323       0.74797536       0.50005240 </v>
   <v>       0.99785702       0.77140316       0.25987835 </v>
   <v>       0.72658397       0.50573673       0.24165650 </v>
   <v>       0.01218391       0.00422709       0.48591482 </v>
   <v>       0.50169545       0.50758134       0.50150217 </v>
   <v>       0.73581008       0.50753961       0.75988782 </v>
   <v>       0.75463407       0.71969166       0.49348823 </v>
  </varray>
 </structure>
</modeling>
