HECN                                    
           1
     8.932500    0.000000    0.000000
     0.005753    9.055598    0.000000
     0.032102   -0.015743    8.937128
   Hf   Nb   Zr   N    C    Cr   Mo
   7   6   7  13  19   6   6
Direct configuration=     1
   0.99688001  0.99204997  0.99924002
   0.25398003  0.99714995  0.24912000
   0.24803003  0.50165000  0.24955001
   0.50501006  0.49745998  0.99834003
   0.50479003  0.24631001  0.74710002
   0.99427992  0.50449999  0.49779000
   0.49950005  0.75481999  0.74817004
   0.99437004  0.23617001  0.26379999
   0.75718000  0.74102998  0.01100000
   0.00201000  0.25541000  0.73894001
   0.75307001  0.26163001  0.50533002
   0.99514004  0.74492004  0.74511997
   0.25679999  0.49462002  0.74545002
   0.24788999  0.24839000  0.99657997
   0.50833000  0.25676999  0.25376001
   0.74879004  0.98787999  0.26967001
   0.75719000  0.25603001  0.99591997
   0.24762001  0.74973999  0.99974006
   0.25272001  0.24823001  0.50015003
   0.24457999  0.75048999  0.49983999
   0.24982001  0.24942998  0.24825000
   0.26146999  0.99984002  0.99295996
   0.00281000  0.25024000  0.00130000
   0.75313998  0.24617000  0.25492002
   0.74767001  0.99748000  0.01202000
   0.50714994  0.99977000  0.24673000
   0.99051999  0.48088002  0.24100998
   0.50519005  0.76130999  0.00855000
   0.98896989  0.00202000  0.73708999
   0.75744996  0.24437997  0.74896999
   0.73632001  0.00417000  0.51063000
   0.50563996  0.23264999  0.49544997
   0.50008998  0.00061000  0.73471998
   0.99720000  0.99771992  0.25899999
   0.50427997  0.24673000  0.00262000
   0.25133999  0.74958002  0.24910999
   0.24328000  0.50072997  0.99510994
   0.99837005  0.74313996  0.00460000
   0.75633000  0.73891003  0.25767000
   0.75839004  0.50315998  0.00288000
   0.50700002  0.50333002  0.25878999
   0.24900999  0.25315000  0.74854000
   0.24446000  0.99823996  0.50287998
   0.99804009  0.24229999  0.50128003
   0.24177002  0.75340997  0.75018002
   0.25841001  0.50062002  0.50129001
   0.99000004  0.76215003  0.49746000
   0.99203996  0.50055999  0.75138002
   0.75036005  0.74888000  0.74756004
   0.74036002  0.50197000  0.50067003
   0.50575006  0.74958002  0.49720000
   0.50501003  0.50217998  0.73912003
   0.51588997  0.01358000  0.98075008
   0.99841994  0.50976998  0.98613004
   0.50379003  0.73926997  0.25905001
   0.23780002  0.01082000  0.74607998
   0.47957999  0.98308000  0.49717999
   0.74279003  0.97869994  0.76450995
   0.99864998  0.77573999  0.26102000
   0.73551001  0.51468004  0.26666001
   0.02362000  0.99783001  0.49557002
   0.50539000  0.52833005  0.49917999
   0.73876003  0.52828003  0.73814999
   0.75400003  0.72937999  0.49116997
HECN                                    
           1
     8.870806    0.008220   -0.011063
     0.014047    8.957104   -0.002810
     0.020797   -0.018309    8.881179
   Hf   Nb   Zr   N    C    Cr   Mo
   7   6   7  13  19   6   6
Direct configuration=     2
   0.99549458  0.99449461  0.99393267
   0.26112405  0.99678254  0.24567577
   0.24628031  0.50171039  0.24623260
   0.50280021  0.50042374  0.99905866
   0.50605535  0.23839915  0.74496610
   0.99573306  0.50215063  0.49821196
   0.49839293  0.76477422  0.75202322
   0.99407759  0.23494519  0.26163832
   0.75526469  0.74237595  0.01038724
   0.00265583  0.25386930  0.74111342
   0.75187125  0.25735526  0.50618537
   0.99638230  0.74575885  0.74901479
   0.25365098  0.49587834  0.74947042
   0.24786238  0.24702680  0.99536956
   0.50788257  0.25003299  0.25351170
   0.74036943  0.99119115  0.26909504
   0.75752163  0.25361230  0.99508967
   0.25087597  0.75105942  0.99918554
   0.25514731  0.24717302  0.50121808
   0.24820816  0.75163408  0.50047889
   0.24971741  0.24968764  0.24888782
   0.25808349  0.00019249  0.99492305
   0.00231462  0.24770028  0.00068914
   0.75460129  0.24695483  0.25585915
   0.74747472  0.99611765  0.00510781
   0.50099750  0.99769948  0.24825430
   0.99384897  0.48259068  0.24444245
   0.50704661  0.75927288  0.00498830
   0.98881222  0.00221706  0.74274900
   0.75320588  0.24381227  0.74725612
   0.73715152  0.00384836  0.51211442
   0.50649558  0.23265135  0.50158150
   0.50288966  0.00016538  0.73823587
   0.00168781  0.00259539  0.25267757
   0.50474498  0.24649416 -0.00255437
   0.25318074  0.74872342  0.24971851
   0.24419752  0.50073525  0.99734190
   0.99620959  0.74230336  0.00335148
   0.75176924  0.73979174  0.25317542
   0.75988388  0.50547784  0.00268655
   0.49997815  0.50871593  0.25350257
   0.25051371  0.25023483  0.74817916
   0.25492121  0.99784326  0.50590569
   0.99730984  0.24668617  0.50201670
   0.24381610  0.75374373  0.74995551
   0.25424387  0.50075010  0.49847568
   0.99170309  0.75777217  0.50126151
   0.99342446  0.50078026  0.75292038
   0.74805715  0.75807416  0.74932019
   0.74688912  0.49720662  0.50241519
   0.50446667  0.75787758  0.49378475
   0.50112074  0.50131975  0.74496913
   0.51831593  0.01424606  0.97977611
   0.99837672  0.51195650  0.98227268
   0.50478990  0.73645049  0.25919534
   0.23649102  0.01251437  0.74611230
   0.47630683  0.98339983  0.49910133
   0.74006602  0.97403728  0.76637572
   0.00135922  0.77294539  0.25701497
   0.73634647  0.51194145  0.26034896
   0.01869579  0.00030583  0.49984823
   0.50458403  0.52432309  0.49706920
   0.74240760  0.52167146  0.74327219
   0.75385294  0.73552401  0.49356166
HECN                                    
           1
     8.869312    0.008419   -0.011331
     0.014248    8.954719   -0.002878
     0.020523   -0.018371    8.879825
   Hf   Nb   Zr   N    C    Cr   Mo
   7   6   7  13  19   6   6
Direct configuration=     3
   0.99546060  0.99455443  0.99380336
   0.26129808  0.99677337  0.24559208
   0.24623756  0.50171188  0.24615174
   0.50274630  0.50049632  0.99907613
   0.50608631  0.23820550  0.74491410
   0.99576855  0.50209311  0.49822226
   0.49836584  0.76501788  0.75211712
   0.99407043  0.23491520  0.26158564
   0.75521795  0.74240893  0.01037226
   0.00267167  0.25383160  0.74116637
   0.75184216  0.25725068  0.50620614
   0.99641268  0.74577938  0.74910971
   0.25357431  0.49590923  0.74956827
   0.24786170  0.24699343  0.99534007
   0.50787181  0.24986812  0.25350558
   0.74016408  0.99127236  0.26908080
   0.75752974  0.25355311  0.99506944
   0.25095529  0.75109163  0.99917214
   0.25520653  0.24714711  0.50124416
   0.24829659  0.75166200  0.50049457
   0.24971492  0.24969395  0.24890336
   0.25800099  0.00020120  0.99497076
   0.00230259  0.24763813  0.00067423
   0.75463691  0.24697401  0.25588207
   0.74746978  0.99608427  0.00493943
   0.50084764  0.99764896  0.24829122
   0.99393017  0.48263250  0.24452618
   0.50709181  0.75922296  0.00490158
   0.98880854  0.00222193  0.74288684
   0.75310239  0.24379846  0.74721424
   0.73717184  0.00384048  0.51215060
   0.50651662  0.23265141  0.50173088
   0.50295802  0.00015446  0.73832159
   0.00179689  0.00271456  0.25252373
   0.50475617  0.24648834 -0.00268040
   0.25322565  0.74870242  0.24973338
   0.24421996  0.50073537  0.99739629
   0.99615691  0.74228293  0.00332100
   0.75165792  0.73981339  0.25306581
   0.75992024  0.50553453  0.00268190
   0.49980671  0.50884786  0.25337360
   0.25055042  0.25016345  0.74817039
   0.25517630  0.99783334  0.50597971
   0.99729196  0.24679353  0.50203465
   0.24386596  0.75375185  0.74995010
   0.25414223  0.50075335  0.49840701
   0.99174481  0.75766503  0.50135412
   0.99345825  0.50078563  0.75295794
   0.74800086  0.75829923  0.74936307
   0.74704842  0.49708992  0.50245786
   0.50443509  0.75808065  0.49370158
   0.50102613  0.50129883  0.74511148
   0.51837501  0.01426230  0.97975247
   0.99837550  0.51200999  0.98217874
   0.50481434  0.73638146  0.25919889
   0.23645907  0.01255586  0.74611306
   0.47622710  0.98340774  0.49914803
   0.73999979  0.97392325  0.76642105
   0.00142520  0.77287691  0.25691748
   0.73636673  0.51187437  0.26019523
   0.01857584  0.00036656  0.49995231
   0.50456441  0.52422503  0.49701772
   0.74249682  0.52150968  0.74339702
   0.75384929  0.73567439  0.49361996
HECN                                    
           1
     8.959362    0.020028   -0.012320
     0.026051    9.012902   -0.008184
     0.019824   -0.023698    8.959559
   Hf   Nb   Zr   N    C    Cr   Mo
   7   6   7  13  19   6   6
Direct configuration=     4
   0.99509948  0.99506139  0.99051250
   0.26232317  0.99635079  0.24500187
   0.24298705  0.50073253  0.24571159
   0.50238716  0.50062308  0.99891280
   0.50600176  0.23557613  0.74567840
   0.99848873  0.50119040  0.49869808
   0.49784412  0.76599760  0.75234018
   0.99475603  0.23548858  0.26029074
   0.75380800  0.74395698  0.00946322
   0.00287022  0.25186457  0.74295981
   0.75153746  0.25318910  0.50713060
   0.99647838  0.74577068  0.75228822
   0.25165928  0.49617572  0.75094876
   0.24873075  0.24577529  0.99512041
   0.50672973  0.25015728  0.25218221
   0.73978469  0.99115521  0.26705142
   0.75553888  0.25326723  0.99467505
   0.25156249  0.75309032  0.99924091
   0.25512944  0.24711286  0.50131182
   0.24838657  0.75184797  0.50074896
   0.25011431  0.24910645  0.24890104
   0.25529518  0.00036232  0.99630904
   0.00233571  0.24611279 -0.00002014
   0.75469397  0.24706671  0.25573918
   0.74651779  0.99570570 -0.00107430
   0.49806649  0.99612964  0.24863133
   0.99629582  0.48568378  0.24712175
   0.50782017  0.75846834  0.00173369
   0.98940639  0.00275167  0.74644933
   0.75154583  0.24457476  0.74594219
   0.74053620  0.00298514  0.51310361
   0.50732954  0.23467774  0.50348680
   0.50617256  0.00038767  0.74292761
   0.00258654  0.00088748  0.24998316
   0.50472014  0.24580196 -0.00433607
   0.25541450  0.74886303  0.24927384
   0.24408401  0.50099860  0.99742575
   0.99679402  0.74184383  0.00289853
   0.74818954  0.74103878  0.25206325
   0.76123174  0.50530958  0.00281752
   0.49731229  0.51070588  0.25080857
   0.25115916  0.24786787  0.74798713
   0.25881153  0.99853411  0.50898341
   0.99821862  0.24939873  0.50218316
   0.24516616  0.75484250  0.75058724
   0.25239645  0.50079633  0.49772721
   0.99363020  0.75555968  0.50245564
   0.99549033  0.50058337  0.75435190
   0.74755925  0.76066124  0.74924981
   0.74858040  0.49715400  0.50216961
   0.50512427  0.76244294  0.49163700
   0.49979021  0.50214780  0.74696940
   0.52134025  0.01321757  0.97794653
   0.99772068  0.51433384  0.97894594
   0.50400131  0.73265996  0.26037434
   0.23224847  0.01305165  0.74497546
   0.47507025  0.98451139  0.50087590
   0.73665734  0.97247866  0.76949545
   0.00219587  0.77430660  0.25389141
   0.73457792  0.51012457  0.25613090
   0.01947423  0.00225409  0.50262901
   0.50651540  0.52275574  0.49508826
   0.74460246  0.52083278  0.74969160
   0.75110346  0.73563878  0.49520059
HECN                                    
           1
     8.936743    0.017112   -0.012072
     0.023086    8.998288   -0.006851
     0.019999   -0.022360    8.939531
   Hf   Nb   Zr   N    C    Cr   Mo
   7   6   7  13  19   6   6
Direct configuration=     5
   0.99518952  0.99493523  0.99133168
   0.26206815  0.99645666  0.24514884
   0.24379500  0.50097596  0.24582139
   0.50247651  0.50059135  0.99895345
   0.50602190  0.23623218  0.74548852
   0.99781204  0.50141648  0.49857970
   0.49797416  0.76575290  0.75228452
   0.99458577  0.23534589  0.26061300
   0.75415912  0.74357033  0.00968933
   0.00282017  0.25235527  0.74251363
   0.75161188  0.25420248  0.50690107
   0.99646197  0.74577242  0.75149695
   0.25213552  0.49610841  0.75060510
   0.24851427  0.24607959  0.99517525
   0.50701384  0.25008495  0.25251164
   0.73987904  0.99118462  0.26755665
   0.75603384  0.25333800  0.99477332
   0.25141216  0.75259171  0.99922348
   0.25514859  0.24712137  0.50129498
   0.24836425  0.75180156  0.50068560
   0.25001481  0.24925319  0.24890170
   0.25596801  0.00032106  0.99597593
   0.00232699  0.24649356  0.00015294
   0.75467982  0.24704362  0.25577474
   0.74675453  0.99580073  0.00042286
   0.49875754  0.99650787  0.24854695
   0.99570852  0.48492269  0.24647509
   0.50763889  0.75865734  0.00252241
   0.98925782  0.00261915  0.74556238
   0.75193316  0.24438071  0.74625878
   0.73969933  0.00319953  0.51286641
   0.50712802  0.23417206  0.50304935
   0.50537321  0.00032984  0.74178086
   0.00238966  0.00134406  0.25061587
   0.50472892  0.24597348 -0.00392380
   0.25487029  0.74882371  0.24938816
   0.24411790  0.50093286  0.99741838
   0.99663547  0.74195367  0.00300375
   0.74905240  0.74073201  0.25231274
   0.76090555  0.50536611  0.00278376
   0.49793321  0.51024176  0.25144691
   0.25100705  0.24844097  0.74803308
   0.25790776  0.99835995  0.50823547
   0.99798905  0.24874886  0.50214578
   0.24484320  0.75457064  0.75042844
   0.25283058  0.50078515  0.49789648
   0.99316067  0.75608553  0.50218168
   0.99498494  0.50063429  0.75400486
   0.74766983  0.76007166  0.74927767
   0.74819949  0.49713853  0.50224133
   0.50495438  0.76135480  0.49215031
   0.50009776  0.50193527  0.74650678
   0.52060263  0.01347949  0.97839619
   0.99788434  0.51375415  0.97975040
   0.50420223  0.73358827  0.26008229
   0.23329565  0.01292674  0.74525869
   0.47535823  0.98423535  0.50044562
   0.73748792  0.97283767  0.76873039
   0.00200478  0.77395049  0.25464450
   0.73502225  0.51056126  0.25714299
   0.01925139  0.00178294  0.50196236
   0.50602984  0.52312331  0.49556876
   0.74407851  0.52100148  0.74812465
   0.75178618  0.73564657  0.49480717
HECN                                    
           1
     8.920033    0.026201   -0.012209
     0.032244    8.971091   -0.008661
     0.019766   -0.024091    8.910650
   Hf   Nb   Zr   N    C    Cr   Mo
   7   6   7  13  19   6   6
Direct configuration=     6
   0.99502556  0.99476019  0.98940767
   0.26113093  0.99610416  0.24608713
   0.24052831  0.50028837  0.24590372
   0.50259244  0.50014666  0.99823574
   0.50542955  0.23628232  0.74641755
   0.99910463  0.50131712  0.49941175
   0.49784975  0.76324741  0.75068247
   0.99498324  0.23493175  0.25998141
   0.75346185  0.74447448  0.00893427
   0.00323610  0.25022561  0.74310149
   0.75216157  0.25089399  0.50759897
   0.99647262  0.74515442  0.75366855
   0.25138372  0.49575889  0.75097472
   0.24908008  0.24486401  0.99494603
   0.50626322  0.25253332  0.25157793
   0.74098584  0.99023508  0.26597439
   0.75426967  0.25357839  0.99451047
   0.25144650  0.75421269  0.99939807
   0.25459414  0.24769756  0.50144830
   0.24788579  0.75165016  0.50081326
   0.25061362  0.24847364  0.24866298
   0.25270655  0.00054220  0.99757143
   0.00214195  0.24506038 -0.00060111
   0.75421773  0.24685969  0.25524087
   0.74607214  0.99583074 -0.00492262
   0.49832216  0.99591790  0.24886261
   0.99783337  0.48777805  0.24953667
   0.50790392  0.75809911 -0.00092414
   0.99078748  0.00331549  0.74755856
   0.75124540  0.24594710  0.74542386
   0.74482182  0.00303734  0.51233032
   0.50796281  0.23764495  0.50300288
   0.50956930  0.00028484  0.74698754
   0.00190666 -0.00082362  0.24988505
   0.50438886  0.24506924 -0.00402209
   0.25680205  0.74915556  0.24884901
   0.24356910  0.50126662  0.99651337
   0.99758416  0.74195680  0.00304373
   0.74619557  0.74112068  0.25253112
   0.76200132  0.50476831  0.00312104
   0.49671011  0.51037777  0.25018774
   0.25108450  0.24659390  0.74805909
   0.25926703  0.99925001  0.51132734
   0.99913585  0.25026076  0.50218447
   0.24540342  0.75578021  0.75114527
   0.25219670  0.50091199  0.49817153
   0.99411305  0.75535540  0.50197713
   0.99718468  0.50030868  0.75507248
   0.74784303  0.75980700  0.74856241
   0.74858127  0.49811314  0.50183420
   0.50614050  0.76393881  0.49035299
   0.50019013  0.50346873  0.74643350
   0.52460553  0.01163061  0.97561173
   0.99636255  0.51707337  0.97621574
   0.50316088  0.72937796  0.26260899
   0.22684733  0.01315241  0.74307285
   0.47469670  0.98573225  0.50259390
   0.73302310  0.97191725  0.77267603
   0.00193899  0.77573453  0.25263084
   0.73189821  0.51030875  0.25419334
   0.02125601  0.00329592  0.50425348
   0.50891898  0.52243069  0.49318439
   0.74626451  0.52239973  0.75472962
   0.74864580  0.73311825  0.49519608
HECN                                    
           1
     8.918980    0.026774   -0.012218
     0.032822    8.969377   -0.008775
     0.019751   -0.024200    8.908829
   Hf   Nb   Zr   N    C    Cr   Mo
   7   6   7  13  19   6   6
Direct configuration=     7
   0.99501522  0.99474911  0.98928602
   0.26107178  0.99608195  0.24614645
   0.24032210  0.50024512  0.24590891
   0.50259979  0.50011853  0.99819036
   0.50539215  0.23628553  0.74647629
   0.99918626  0.50131077  0.49946435
   0.49784206  0.76308901  0.75058114
   0.99500837  0.23490554  0.25994147
   0.75341777  0.74453167  0.00888654
   0.00326251  0.25009097  0.74313864
   0.75219649  0.25068483  0.50764306
   0.99647333  0.74511538  0.75380584
   0.25133628  0.49573684  0.75099808
   0.24911589  0.24478712  0.99493153
   0.50621566  0.25268813  0.25151893
   0.74105579  0.99017496  0.26587433
   0.75415826  0.25359369  0.99449385
   0.25144856  0.75431516  0.99940913
   0.25455909  0.24773402  0.50145800
   0.24785559  0.75164062  0.50082133
   0.25065148  0.24842432  0.24864788
   0.25250060  0.00055641  0.99767231
   0.00213036  0.24496979 -0.00064881
   0.75418856  0.24684809  0.25520711
   0.74602904  0.99583262 -0.00526060
   0.49829471  0.99588063  0.24888256
   0.99796735  0.48795845  0.24973029
   0.50792069  0.75806376 -0.00114206
   0.99088402  0.00335943  0.74768479
   0.75120187  0.24604615  0.74537108
   0.74514527  0.00302675  0.51229643
   0.50801529  0.23786443  0.50299999
   0.50983426  0.00028179  0.74731675
   0.00187631 -0.00096062  0.24983882
   0.50436745  0.24501210 -0.00402831
   0.25692400  0.74917641  0.24881493
   0.24353443  0.50128774  0.99645615
   0.99764407  0.74195694  0.00304626
   0.74601517  0.74114544  0.25254493
   0.76207055  0.50473046  0.00314236
   0.49663287  0.51038643  0.25010813
   0.25108951  0.24647713  0.74806071
   0.25935280  0.99930623  0.51152285
   0.99920816  0.25035626  0.50218694
   0.24543872  0.75585664  0.75119061
   0.25215667  0.50092005  0.49818893
   0.99417323  0.75530919  0.50196419
   0.99732359  0.50028797  0.75513998
   0.74785398  0.75979025  0.74851719
   0.74860531  0.49817472  0.50180847
   0.50621522  0.76410206  0.49023938
   0.50019587  0.50356566  0.74642889
   0.52485839  0.01151345  0.97543566
   0.99626624  0.51728324  0.97599229
   0.50309540  0.72911191  0.26276869
   0.22644015  0.01316706  0.74293464
   0.47465484  0.98582694  0.50272975
   0.73274125  0.97185941  0.77292549
   0.00193472  0.77584728  0.25250354
   0.73170097  0.51029295  0.25400684
   0.02138248  0.00339146  0.50439836
   0.50910145  0.52238669  0.49303362
   0.74640246  0.52248806  0.75514725
   0.74844768  0.73295864  0.49522064
HECN                                    
           1
     8.927509    0.024449   -0.013886
     0.030480    8.983591   -0.004684
     0.018107   -0.020168    8.914918
   Hf   Nb   Zr   N    C    Cr   Mo
   7   6   7  13  19   6   6
Direct configuration=     8
   0.99530077  0.99450931  0.99030332
   0.26059850  0.99668610  0.24831536
   0.23918632  0.50033395  0.24555271
   0.50220105  0.50059167  0.99741800
   0.50492112  0.23919975  0.74569253
   0.99731666  0.50206843  0.50008211
   0.49811737  0.75948419  0.74795083
   0.99499130  0.23340227  0.25951909
   0.75338541  0.74474938  0.00848202
   0.00348606  0.24869436  0.74258576
   0.75318765  0.24953013  0.50738804
   0.99702676  0.74498124  0.75331364
   0.25208758  0.49529601  0.75030181
   0.24843544  0.24404231  0.99515075
   0.50611209  0.25421279  0.25223460
   0.74105300  0.99009273  0.26602903
   0.75473574  0.25347429  0.99463523
   0.25226535  0.75445566  0.99938179
   0.25491143  0.24879127  0.50132179
   0.24833656  0.75127680  0.50083654
   0.25070017  0.24825797  0.24835938
   0.24979759  0.00063855  0.99874875
   0.00149027  0.24457933 -0.00086199
   0.75388613  0.24689506  0.25453566
   0.74680820  0.99599683 -0.00614249
   0.49971371  0.99656572  0.24934630
   0.99817330  0.48910405  0.25162243
   0.50767514  0.75801549 -0.00300865
   0.99243089  0.00352146  0.74641936
   0.75137882  0.24749455  0.74573076
   0.75004389  0.00445216  0.51074656
   0.50860230  0.24157786  0.50194677
   0.51335757 -0.00053498  0.74959236
   0.00101051  0.00054963  0.25066075
   0.50385251  0.24398781 -0.00313746
   0.25779944  0.74895691  0.24900765
   0.24257701  0.50140909  0.99534926
   0.99781704  0.74237759  0.00365822
   0.74484223  0.74046141  0.25263318
   0.76279291  0.50455182  0.00405156
   0.49482112  0.50829773  0.24984613
   0.25089195  0.24574359  0.74833418
   0.25930345  0.99953170  0.51356762
   0.99959432  0.25006927  0.50202947
   0.24469610  0.75673064  0.75103466
   0.25275167  0.50119968  0.49900976
   0.99333253  0.75636867  0.50102492
   0.99838132  0.49993589  0.75504605
   0.74823087  0.75871572  0.74806670
   0.74896925  0.49741184  0.50232884
   0.50644103  0.76472558  0.48904240
   0.50148788  0.50439834  0.74481091
   0.52710784  0.00965831  0.97339858
   0.99454775  0.51993107  0.97482021
   0.50281750  0.72824242  0.26549572
   0.22103453  0.01310441  0.74089414
   0.47539735  0.98785371  0.50519156
   0.72937078  0.97139439  0.77460324
   0.00134237  0.77319739  0.25280866
   0.73111149  0.51034697  0.25310640
   0.02016583  0.00371641  0.50546807
   0.50982841  0.52029021  0.49142348
   0.74909738  0.52270901  0.75882221
   0.74687187  0.73169584  0.49407292
HECN                                    
           1
     8.930547    0.023621   -0.014480
     0.029646    8.988655   -0.003227
     0.017521   -0.018732    8.917087
   Hf   Nb   Zr   N    C    Cr   Mo
   7   6   7  13  19   6   6
Direct configuration=     9
   0.99540243  0.99442389  0.99066551
   0.26043027  0.99690057  0.24908728
   0.23878212  0.50036550  0.24542583
   0.50205914  0.50076003  0.99714296
   0.50475373  0.24023625  0.74541303
   0.99665144  0.50233761  0.50030176
   0.49821483  0.75820260  0.74701513
   0.99498506  0.23286770  0.25936898
   0.75337389  0.74482687  0.00833799
   0.00356545  0.24819778  0.74238920
   0.75354025  0.24911960  0.50729752
   0.99722366  0.74493366  0.75313850
   0.25235486  0.49513941  0.75005408
   0.24819323  0.24377733  0.99522886
   0.50607543  0.25475490  0.25248909
   0.74105201  0.99006345  0.26608411
   0.75494125  0.25343186  0.99468562
   0.25255604  0.75450571  0.99937208
   0.25503691  0.24916733  0.50127315
   0.24850768  0.75114745  0.50084205
   0.25071746  0.24819886  0.24825672
   0.24883576  0.00066734  0.99913173
   0.00126243  0.24444044 -0.00093786
   0.75377847  0.24691184  0.25429662
   0.74708543  0.99605545 -0.00645639
   0.50021878  0.99680943  0.24951136
   0.99824683  0.48951119  0.25229579
   0.50758763  0.75799859 -0.00367311
   0.99298131  0.00357943  0.74596899
   0.75144195  0.24800963  0.74585857
   0.75178719  0.00495980  0.51019494
   0.50881148  0.24289875  0.50157129
   0.51461147 -0.00082550  0.75040277
   0.00070261  0.00108652  0.25095303
   0.50366922  0.24362333 -0.00282021
   0.25811097  0.74887890  0.24907635
   0.24223624  0.50145234  0.99495516
   0.99787867  0.74252711  0.00387600
   0.74442476  0.74021802  0.25266463
   0.76305002  0.50448821  0.00437528
   0.49417615  0.50755476  0.24975309
   0.25082159  0.24548265  0.74843164
   0.25928605  0.99961156  0.51429544
   0.99973171  0.24996726  0.50197349
   0.24443190  0.75704142  0.75097896
   0.25296350  0.50129905  0.49930194
   0.99303338  0.75674555  0.50069034
   0.99875769  0.49981079  0.75501274
   0.74836486  0.75833368  0.74790654
   0.74909872  0.49714048  0.50251423
   0.50652137  0.76494755  0.48861623
   0.50194763  0.50469486  0.74423492
   0.52790803  0.00899908  0.97267390
   0.99393637  0.52087278  0.97440245
   0.50271871  0.72793272  0.26646657
   0.21911069  0.01308195  0.74016744
   0.47566195  0.98857419  0.50606760
   0.72817140  0.97122843  0.77520032
   0.00113134  0.77225487  0.25291766
   0.73090165  0.51036627  0.25278582
   0.01973297  0.00383170  0.50584872
   0.51008681  0.51954493  0.49085072
   0.75005668  0.52278725  0.76013052
   0.74631089  0.73124677  0.49366447
HECN                                    
           1
     8.940111    0.016363   -0.014929
     0.022430    8.966885   -0.002836
     0.017128   -0.018307    8.931007
   Hf   Nb   Zr   N    C    Cr   Mo
   7   6   7  13  19   6   6
Direct configuration=    10
   0.99591830  0.99339501  0.99222797
   0.26127762  0.99649145  0.25086133
   0.23902313  0.50099902  0.24526088
   0.50195014  0.50145746  0.99753451
   0.50561070  0.24212663  0.74489486
   0.99566984  0.50270115  0.50008196
   0.49889415  0.75739861  0.74520811
   0.99457145  0.23342839  0.25982747
   0.75330438  0.74504359  0.00830559
   0.00313719  0.24819287  0.74158552
   0.75441805  0.24960145  0.50698903
   0.99759399  0.74556357  0.75168365
   0.25213538  0.49506476  0.74922149
   0.24747424  0.24358252  0.99533575
   0.50637640  0.25401161  0.25278121
   0.74057304  0.98965556  0.26679064
   0.75520405  0.25326596  0.99466200
   0.25349128  0.75481102  0.99924259
   0.25486556  0.24935204  0.50130475
   0.24886314  0.75122160  0.50052552
   0.25006234  0.24846709  0.24832126
   0.24719220  0.00038813  0.00006792
   0.00091727  0.24436886 -0.00052650
   0.75429439  0.24687626  0.25421373
   0.74843471  0.99580439 -0.00418242
   0.50017660  0.99807311  0.25032471
   0.99687337  0.48979821  0.25252026
   0.50737777  0.75794786 -0.00443374
   0.99247445  0.00283893  0.74541374
   0.75176232  0.24870458  0.74632993
   0.75435840  0.00693592  0.50920056
   0.50897463  0.24543645  0.50165007
   0.51598329 -0.00083228  0.74850922
   0.00073350 -0.00018773  0.25160860
   0.50388301  0.24276027 -0.00320958
   0.25814130  0.74893338  0.24958186
   0.24178495  0.50138679  0.99456001
   0.99762072  0.74288331  0.00389834
   0.74442352  0.73997002  0.25171257
   0.76322567  0.50485455  0.00565985
   0.49363210  0.50704605  0.24937697
   0.25069057  0.24545995  0.74825857
   0.25914459  0.99984448  0.51510664
   0.99968086  0.24950347  0.50142809
   0.24382819  0.75724301  0.75023568
   0.25295548  0.50142693  0.49940541
   0.99193624  0.75715603  0.50066818
   0.99897355  0.49994837  0.75474854
   0.74865289  0.75862101  0.74793815
   0.74839665  0.49606961  0.50341475
   0.50605216  0.76471078  0.48802572
   0.50311773  0.50348614  0.74361095
   0.52746148  0.00855854  0.97209671
   0.99296677  0.52190440  0.97484593
   0.50302694  0.72747610  0.26822056
   0.21810689  0.01322785  0.73855159
   0.47625770  0.98982701  0.50911810
   0.72872010  0.96997379  0.77457901
   0.00053381  0.77249260  0.25439257
   0.73123535  0.51000287  0.25354706
   0.01748842  0.00352745  0.50443683
   0.50961950  0.51733303  0.48959823
   0.75243323  0.52163137  0.76032777
   0.74604274  0.73075655  0.49252291
HECN                                    
           1
     8.944685    0.012892   -0.015144
     0.018980    8.956474   -0.002649
     0.016940   -0.018103    8.937664
   Hf   Nb   Zr   N    C    Cr   Mo
   7   6   7  13  19   6   6
Direct configuration=    11
   0.99616436  0.99290197  0.99297400
   0.26168227  0.99629562  0.25170838
   0.23913849  0.50130280  0.24518212
   0.50189835  0.50179173  0.99772144
   0.50602078  0.24303314  0.74464743
   0.99520108  0.50287504  0.49997698
   0.49921830  0.75701351  0.74434538
   0.99437410  0.23369698  0.26004635
   0.75327126  0.74514744  0.00829012
   0.00293260  0.24819037  0.74120179
   0.75483755  0.24983278  0.50684175
   0.99777110  0.74586570  0.75098902
   0.25203050  0.49502890  0.74882397
   0.24713071  0.24348885  0.99538677
   0.50651989  0.25365542  0.25292070
   0.74034410  0.98945983  0.26712797
   0.75532953  0.25318654  0.99465073
   0.25393815  0.75495774  0.99918079
   0.25478378  0.24944052  0.50131983
   0.24903295  0.75125730  0.50037440
   0.24974950  0.24859541  0.24835205
   0.24640702  0.00025362  0.00051487
   0.00075238  0.24433440 -0.00033010
   0.75454082  0.24685941  0.25417417
   0.74907919  0.99568451 -0.00309668
   0.50015695  0.99867882  0.25071302
   0.99621740  0.48993525  0.25262739
   0.50727749  0.75792347 -0.00479691
   0.99223204  0.00248378  0.74514864
   0.75191564  0.24903783  0.74655497
   0.75558736  0.00788421  0.50872581
   0.50905354  0.24665297  0.50168764
   0.51663853 -0.00083496  0.74760518
   0.00074778 -0.00079856  0.25192162
   0.50398480  0.24234665 -0.00339546
   0.25815582  0.74895950  0.24982322
   0.24156935  0.50135520  0.99437133
   0.99749764  0.74305395  0.00390900
   0.74442281  0.73985116  0.25125800
   0.76330974  0.50503020  0.00627318
   0.49337202  0.50680200  0.24919739
   0.25062798  0.24544902  0.74817593
   0.25907713  0.99995606  0.51549394
   0.99965637  0.24928114  0.50116770
   0.24353986  0.75733942  0.74988078
   0.25295170  0.50148822  0.49945481
   0.99141231  0.75735237  0.50065757
   0.99907671  0.50001441  0.75462240
   0.74879059  0.75875885  0.74795324
   0.74806088  0.49555599  0.50384472
   0.50582792  0.76459712  0.48774378
   0.50367618  0.50290720  0.74331309
   0.52724798  0.00834721  0.97182112
   0.99250402  0.52239852  0.97505762
   0.50317404  0.72725729  0.26905802
   0.21762741  0.01329744  0.73778008
   0.47654283  0.99042771  0.51057455
   0.72898171  0.96937260  0.77428240
   0.00024850  0.77260628  0.25509675
   0.73139463  0.50982879  0.25391052
   0.01641608  0.00338076  0.50376268
   0.50939539  0.51627260  0.48900027
   0.75356803  0.52107821  0.76042203
   0.74591444  0.73052149  0.49197787
HECN                                    
           1
     8.927976    0.014840   -0.015364
     0.020871    8.970563   -0.005335
     0.016674   -0.020811    8.928903
   Hf   Nb   Zr   N    C    Cr   Mo
   7   6   7  13  19   6   6
Direct configuration=    12
   0.99637147  0.99259067  0.99375135
   0.26210458  0.99648512  0.25294349
   0.23899924  0.50108691  0.24513820