  64  64   0   0
  0.2218804E+02  0.1124000E-08  0.1124000E-08  0.1124000E-08  0.5000000E-15
  1.000000000000000E-004
  CAR 
 HECN                                    
     14.48093406    -51.84372203  301      8.88779553      1.00000000
    -51.844  0.0000E+00  0.0000E+00
    -51.623  0.0000E+00  0.0000E+00
    -51.402  0.0000E+00  0.0000E+00
    -51.180  0.0000E+00  0.0000E+00
    -50.959  0.0000E+00  0.0000E+00
    -50.738  0.0000E+00  0.0000E+00
    -50.517  0.0000E+00  0.0000E+00
    -50.296  0.0000E+00  0.0000E+00
    -50.075  0.0000E+00  0.0000E+00
    -49.854  0.0000E+00  0.0000E+00
    -49.633  0.0000E+00  0.0000E+00
    -49.412  0.1004E-16  0.2220E-17
    -49.191  0.1410E-07  0.3117E-08
    -48.970  0.2111E-02  0.4667E-03
    -48.749  0.1008E+00  0.2275E-01
    -48.527  0.2996E+00  0.8898E-01
    -48.306  0.1880E+00  0.1305E+00
    -48.085  0.4273E-01  0.1400E+00
    -47.864  0.6061E-04  0.1400E+00
    -47.643  0.1082E-10  0.1400E+00
    -47.422  0.1808E-13  0.1400E+00
    -47.201  0.1770E-05  0.1400E+00
    -46.980  0.2445E-01  0.1454E+00
    -46.759  0.4003E+00  0.2339E+00
    -46.538  0.1174E+00  0.2599E+00
    -46.317  0.6500E-03  0.2600E+00
    -46.096  0.1099E-08  0.2600E+00
    -45.875  0.0000E+00  0.2600E+00
    -45.653  0.0000E+00  0.2600E+00
    -45.432  0.0000E+00  0.2600E+00
    -45.211  0.0000E+00  0.2600E+00
    -44.990  0.0000E+00  0.2600E+00
    -44.769  0.0000E+00  0.2600E+00
    -44.548  0.0000E+00  0.2600E+00
    -44.327  0.0000E+00  0.2600E+00
    -44.106  0.0000E+00  0.2600E+00
    -43.885  0.0000E+00  0.2600E+00
    -43.664  0.0000E+00  0.2600E+00
    -43.443  0.0000E+00  0.2600E+00
    -43.222  0.0000E+00  0.2600E+00
    -43.000  0.0000E+00  0.2600E+00
    -42.779  0.0000E+00  0.2600E+00
    -42.558  0.0000E+00  0.2600E+00
    -42.337  0.0000E+00  0.2600E+00
    -42.116  0.0000E+00  0.2600E+00
    -41.895  0.0000E+00  0.2600E+00
    -41.674  0.0000E+00  0.2600E+00
    -41.453  0.0000E+00  0.2600E+00
    -41.232  0.0000E+00  0.2600E+00
    -41.011  0.0000E+00  0.2600E+00
    -40.790  0.0000E+00  0.2600E+00
    -40.569  0.0000E+00  0.2600E+00
    -40.347  0.0000E+00  0.2600E+00
    -40.126  0.0000E+00  0.2600E+00
    -39.905  0.0000E+00  0.2600E+00
    -39.684  0.0000E+00  0.2600E+00
    -39.463  0.0000E+00  0.2600E+00
    -39.242  0.0000E+00  0.2600E+00
    -39.021  0.0000E+00  0.2600E+00
    -38.800  0.0000E+00  0.2600E+00
    -38.579  0.0000E+00  0.2600E+00
    -38.358  0.0000E+00  0.2600E+00
    -38.137  0.0000E+00  0.2600E+00
    -37.916  0.0000E+00  0.2600E+00
    -37.694  0.0000E+00  0.2600E+00
    -37.473  0.0000E+00  0.2600E+00
    -37.252  0.0000E+00  0.2600E+00
    -37.031  0.0000E+00  0.2600E+00
    -36.810  0.0000E+00  0.2600E+00
    -36.589  0.0000E+00  0.2600E+00
    -36.368  0.0000E+00  0.2600E+00
    -36.147  0.0000E+00  0.2600E+00
    -35.926  0.0000E+00  0.2600E+00
    -35.705  0.0000E+00  0.2600E+00
    -35.484  0.0000E+00  0.2600E+00
    -35.263  0.0000E+00  0.2600E+00
    -35.041  0.0000E+00  0.2600E+00
    -34.820  0.0000E+00  0.2600E+00
    -34.599  0.0000E+00  0.2600E+00
    -34.378  0.0000E+00  0.2600E+00
    -34.157  0.0000E+00  0.2600E+00
    -33.936  0.0000E+00  0.2600E+00
    -33.715  0.0000E+00  0.2600E+00
    -33.494  0.0000E+00  0.2600E+00
    -33.273  0.0000E+00  0.2600E+00
    -33.052  0.0000E+00  0.2600E+00
    -32.831  0.0000E+00  0.2600E+00
    -32.610  0.0000E+00  0.2600E+00
    -32.388  0.0000E+00  0.2600E+00
    -32.167  0.0000E+00  0.2600E+00
    -31.946  0.0000E+00  0.2600E+00
    -31.725  0.0000E+00  0.2600E+00
    -31.504  0.0000E+00  0.2600E+00
    -31.283  0.0000E+00  0.2600E+00
    -31.062  0.0000E+00  0.2600E+00
    -30.841  0.0000E+00  0.2600E+00
    -30.620  0.0000E+00  0.2600E+00
    -30.399  0.0000E+00  0.2600E+00
    -30.178  0.0000E+00  0.2600E+00
    -29.957  0.0000E+00  0.2600E+00
    -29.736  0.0000E+00  0.2600E+00
    -29.514  0.0000E+00  0.2600E+00
    -29.293  0.0000E+00  0.2600E+00
    -29.072  0.0000E+00  0.2600E+00
    -28.851  0.0000E+00  0.2600E+00
    -28.630  0.0000E+00  0.2600E+00
    -28.409  0.0000E+00  0.2600E+00
    -28.188  0.0000E+00  0.2600E+00
    -27.967  0.0000E+00  0.2600E+00
    -27.746  0.0000E+00  0.2600E+00
    -27.525  0.0000E+00  0.2600E+00
    -27.304  0.1717E-15  0.2600E+00
    -27.083  0.9969E-07  0.2600E+00
    -26.861  0.5247E-02  0.2612E+00
    -26.640  0.2147E+00  0.3086E+00
    -26.419  0.6652E+00  0.4557E+00
    -26.198  0.4694E+00  0.5595E+00
    -25.977  0.2476E+00  0.6142E+00
    -25.756  0.2627E-01  0.6200E+00
    -25.535  0.1208E-04  0.6200E+00
    -25.314  0.2995E-01  0.6266E+00
    -25.093  0.3701E+00  0.7085E+00
    -24.872  0.8977E+00  0.9069E+00
    -24.651  0.4898E+00  0.1015E+01
    -24.430  0.1119E+00  0.1040E+01
    -24.208  0.2068E-03  0.1040E+01
    -23.987  0.6781E-10  0.1040E+01
    -23.766  0.3207E-14  0.1040E+01
    -23.545  0.6690E-06  0.1040E+01
    -23.324  0.1648E-01  0.1044E+01
    -23.103  0.4114E+00  0.1135E+01
    -22.882  0.7548E+00  0.1301E+01
    -22.661  0.4231E+00  0.1395E+01
    -22.440  0.6179E-01  0.1409E+01
    -22.219  0.3391E+00  0.1484E+01
    -21.998  0.3945E+00  0.1571E+01
    -21.777  0.1524E+00  0.1605E+01
    -21.555  0.5939E+00  0.1736E+01
    -21.334  0.1195E+00  0.1762E+01
    -21.113  0.2312E+00  0.1813E+01
    -20.892  0.2997E-01  0.1820E+01
    -20.671  0.2753E-05  0.1820E+01
    -20.450  0.2968E-13  0.1820E+01
    -20.229  0.0000E+00  0.1820E+01
    -20.008  0.0000E+00  0.1820E+01
    -19.787  0.0000E+00  0.1820E+01
    -19.566  0.0000E+00  0.1820E+01
    -19.345  0.0000E+00  0.1820E+01
    -19.124  0.0000E+00  0.1820E+01
    -18.902  0.0000E+00  0.1820E+01
    -18.681  0.0000E+00  0.1820E+01
    -18.460  0.0000E+00  0.1820E+01
    -18.239  0.0000E+00  0.1820E+01
    -18.018  0.0000E+00  0.1820E+01
    -17.797  0.0000E+00  0.1820E+01
    -17.576  0.0000E+00  0.1820E+01
    -17.355  0.0000E+00  0.1820E+01
    -17.134  0.0000E+00  0.1820E+01
    -16.913  0.0000E+00  0.1820E+01
    -16.692  0.0000E+00  0.1820E+01
    -16.471  0.0000E+00  0.1820E+01
    -16.249  0.0000E+00  0.1820E+01
    -16.028  0.0000E+00  0.1820E+01
    -15.807  0.0000E+00  0.1820E+01
    -15.586  0.0000E+00  0.1820E+01
    -15.365  0.0000E+00  0.1820E+01
    -15.144  0.0000E+00  0.1820E+01
    -14.923  0.0000E+00  0.1820E+01
    -14.702  0.0000E+00  0.1820E+01
    -14.481  0.0000E+00  0.1820E+01
    -14.260  0.0000E+00  0.1820E+01
    -14.039  0.0000E+00  0.1820E+01
    -13.818  0.0000E+00  0.1820E+01
    -13.597  0.0000E+00  0.1820E+01
    -13.375  0.0000E+00  0.1820E+01
    -13.154  0.0000E+00  0.1820E+01
    -12.933  0.0000E+00  0.1820E+01
    -12.712  0.0000E+00  0.1820E+01
    -12.491  0.0000E+00  0.1820E+01
    -12.270  0.0000E+00  0.1820E+01
    -12.049  0.0000E+00  0.1820E+01
    -11.828  0.0000E+00  0.1820E+01
    -11.607  0.0000E+00  0.1820E+01
    -11.386  0.0000E+00  0.1820E+01
    -11.165  0.0000E+00  0.1820E+01
    -10.944  0.0000E+00  0.1820E+01
    -10.722  0.0000E+00  0.1820E+01
    -10.501  0.0000E+00  0.1820E+01
    -10.280  0.0000E+00  0.1820E+01
    -10.059  0.0000E+00  0.1820E+01
     -9.838  0.0000E+00  0.1820E+01
     -9.617  0.0000E+00  0.1820E+01
     -9.396  0.0000E+00  0.1820E+01
     -9.175  0.0000E+00  0.1820E+01
     -8.954  0.0000E+00  0.1820E+01
     -8.733  0.0000E+00  0.1820E+01
     -8.512  0.0000E+00  0.1820E+01
     -8.291  0.0000E+00  0.1820E+01
     -8.069  0.9052E-15  0.1820E+01
     -7.848  0.8562E-07  0.1820E+01
     -7.627  0.1158E-02  0.1820E+01
     -7.406  0.3706E-01  0.1828E+01
     -7.185  0.5934E-01  0.1842E+01
     -6.964  0.1214E+00  0.1868E+01
     -6.743  0.1154E+00  0.1894E+01
     -6.522  0.1407E+00  0.1925E+01
     -6.301  0.2133E+00  0.1972E+01
     -6.080  0.2767E+00  0.2033E+01
     -5.859  0.1981E+00  0.2077E+01
     -5.638  0.1280E-01  0.2080E+01
     -5.416  0.2016E-05  0.2080E+01
     -5.195  0.4709E-13  0.2080E+01
     -4.974  0.0000E+00  0.2080E+01
     -4.753  0.0000E+00  0.2080E+01
     -4.532  0.0000E+00  0.2080E+01
     -4.311  0.1555E-11  0.2080E+01
     -4.090  0.6760E-05  0.2080E+01
     -3.869  0.6580E-02  0.2081E+01
     -3.648  0.6129E-01  0.2095E+01
     -3.427  0.2847E-01  0.2101E+01
     -3.206  0.8432E-01  0.2120E+01
     -2.985  0.1076E+00  0.2144E+01
     -2.763  0.1899E+00  0.2186E+01
     -2.542  0.2390E+00  0.2239E+01
     -2.321  0.2343E+00  0.2290E+01
     -2.100  0.2475E+00  0.2345E+01
     -1.879  0.1900E+00  0.2387E+01
     -1.658  0.1678E+00  0.2424E+01
     -1.437  0.1251E+00  0.2452E+01
     -1.216  0.3556E-01  0.2460E+01
     -0.995  0.1305E-02  0.2460E+01
     -0.774  0.4738E-06  0.2460E+01
     -0.553  0.2323E-13  0.2460E+01
     -0.332  0.0000E+00  0.2460E+01
     -0.110  0.0000E+00  0.2460E+01
      0.111  0.0000E+00  0.2460E+01
      0.332  0.3631E-12  0.2460E+01
      0.553  0.2768E-05  0.2460E+01
      0.774  0.2856E-02  0.2461E+01
      0.995  0.9808E-02  0.2463E+01
      1.216  0.5763E-01  0.2476E+01
      1.437  0.1010E+00  0.2498E+01
      1.658  0.1338E+00  0.2527E+01
      1.879  0.1574E+00  0.2562E+01
      2.100  0.2226E+00  0.2611E+01
      2.321  0.2771E+00  0.2673E+01
      2.542  0.2783E+00  0.2734E+01
      2.764  0.2714E+00  0.2794E+01
      2.985  0.3470E+00  0.2871E+01
      3.206  0.3362E+00  0.2945E+01
      3.427  0.3658E+00  0.3026E+01
      3.648  0.4513E+00  0.3126E+01
      3.869  0.5191E+00  0.3241E+01
      4.090  0.6180E+00  0.3377E+01
      4.311  0.6641E+00  0.3524E+01
      4.532  0.6503E+00  0.3668E+01
      4.753  0.5921E+00  0.3799E+01
      4.974  0.5588E+00  0.3922E+01
      5.195  0.4619E+00  0.4024E+01
      5.417  0.3717E+00  0.4107E+01
      5.638  0.2943E+00  0.4172E+01
      5.859  0.2894E+00  0.4236E+01
      6.080  0.2363E+00  0.4288E+01
      6.301  0.1509E+00  0.4321E+01
      6.522  0.1808E+00  0.4361E+01
      6.743  0.7823E-01  0.4379E+01
      6.964  0.1258E+00  0.4406E+01
      7.185  0.1315E+00  0.4435E+01
      7.406  0.1584E+00  0.4470E+01
      7.627  0.1664E+00  0.4507E+01
      7.848  0.1997E+00  0.4551E+01
      8.070  0.1760E+00  0.4590E+01
      8.291  0.1586E+00  0.4625E+01
      8.512  0.1952E+00  0.4669E+01
      8.733  0.2243E+00  0.4718E+01
      8.954  0.2072E+00  0.4764E+01
      9.175  0.2375E+00  0.4816E+01
      9.396  0.2843E+00  0.4879E+01
      9.617  0.2942E+00  0.4944E+01
      9.838  0.3812E+00  0.5029E+01
     10.059  0.4091E+00  0.5119E+01
     10.280  0.4445E+00  0.5217E+01
     10.501  0.4746E+00  0.5322E+01
     10.723  0.5484E+00  0.5443E+01
     10.944  0.5213E+00  0.5559E+01
     11.165  0.5029E+00  0.5670E+01
     11.386  0.3340E+00  0.5744E+01
     11.607  0.7298E-01  0.5760E+01
     11.828  0.6140E-03  0.5760E+01
     12.049  0.2367E-08  0.5760E+01
     12.270  0.0000E+00  0.5760E+01
     12.491  0.0000E+00  0.5760E+01
     12.712  0.0000E+00  0.5760E+01
     12.933  0.0000E+00  0.5760E+01
     13.154  0.0000E+00  0.5760E+01
     13.376  0.0000E+00  0.5760E+01
     13.597  0.0000E+00  0.5760E+01
     13.818  0.0000E+00  0.5760E+01
     14.039  0.0000E+00  0.5760E+01
     14.260  0.0000E+00  0.5760E+01
     14.481  0.0000E+00  0.5760E+01
