  64  64   0   0
  0.1086820E+02  0.8832737E-09  0.8882401E-09  0.8865831E-09  0.5000000E-15
  1.000000000000000E-004
  CAR 
 HECN                                    
     12.78801645    -53.22054865  301      7.38265029      1.00000000
    -53.221  0.0000E+00  0.0000E+00
    -53.001  0.0000E+00  0.0000E+00
    -52.780  0.0000E+00  0.0000E+00
    -52.560  0.0000E+00  0.0000E+00
    -52.340  0.0000E+00  0.0000E+00
    -52.120  0.0000E+00  0.0000E+00
    -51.900  0.0000E+00  0.0000E+00
    -51.680  0.0000E+00  0.0000E+00
    -51.460  0.0000E+00  0.0000E+00
    -51.240  0.0000E+00  0.0000E+00
    -51.020  0.0000E+00  0.0000E+00
    -50.800  0.1009E-16  0.2220E-17
    -50.580  0.1634E-07  0.3596E-08
    -50.360  0.2481E-02  0.5459E-03
    -50.140  0.1565E+00  0.3498E-01
    -49.920  0.2030E+00  0.7965E-01
    -49.700  0.2563E+00  0.1360E+00
    -49.480  0.1803E-01  0.1400E+00
    -49.260  0.2828E-05  0.1400E+00
    -49.040  0.5049E-13  0.1400E+00
    -48.820  0.0000E+00  0.1400E+00
    -48.600  0.0000E+00  0.1400E+00
    -48.380  0.0000E+00  0.1400E+00
    -48.160  0.0000E+00  0.1400E+00
    -47.940  0.0000E+00  0.1400E+00
    -47.720  0.0000E+00  0.1400E+00
    -47.500  0.0000E+00  0.1400E+00
    -47.280  0.0000E+00  0.1400E+00
    -47.060  0.0000E+00  0.1400E+00
    -46.840  0.0000E+00  0.1400E+00
    -46.620  0.0000E+00  0.1400E+00
    -46.400  0.0000E+00  0.1400E+00
    -46.180  0.0000E+00  0.1400E+00
    -45.960  0.0000E+00  0.1400E+00
    -45.740  0.0000E+00  0.1400E+00
    -45.520  0.0000E+00  0.1400E+00
    -45.300  0.0000E+00  0.1400E+00
    -45.079  0.0000E+00  0.1400E+00
    -44.859  0.0000E+00  0.1400E+00
    -44.639  0.0000E+00  0.1400E+00
    -44.419  0.0000E+00  0.1400E+00
    -44.199  0.0000E+00  0.1400E+00
    -43.979  0.0000E+00  0.1400E+00
    -43.759  0.0000E+00  0.1400E+00
    -43.539  0.0000E+00  0.1400E+00
    -43.319  0.0000E+00  0.1400E+00
    -43.099  0.0000E+00  0.1400E+00
    -42.879  0.0000E+00  0.1400E+00
    -42.659  0.0000E+00  0.1400E+00
    -42.439  0.0000E+00  0.1400E+00
    -42.219  0.0000E+00  0.1400E+00
    -41.999  0.5237E-10  0.1400E+00
    -41.779  0.1331E-03  0.1400E+00
    -41.559  0.5050E-01  0.1511E+00
    -41.339  0.9757E-01  0.1726E+00
    -41.119  0.1665E+00  0.2092E+00
    -40.899  0.3120E+00  0.2779E+00
    -40.679  0.9578E-02  0.2800E+00
    -40.459  0.1745E-06  0.2800E+00
    -40.239  0.3633E-15  0.2800E+00
    -40.019  0.0000E+00  0.2800E+00
    -39.799  0.0000E+00  0.2800E+00
    -39.579  0.0000E+00  0.2800E+00
    -39.359  0.0000E+00  0.2800E+00
    -39.139  0.0000E+00  0.2800E+00
    -38.919  0.0000E+00  0.2800E+00
    -38.699  0.0000E+00  0.2800E+00
    -38.479  0.0000E+00  0.2800E+00
    -38.259  0.0000E+00  0.2800E+00
    -38.039  0.0000E+00  0.2800E+00
    -37.819  0.0000E+00  0.2800E+00
    -37.599  0.0000E+00  0.2800E+00
    -37.378  0.0000E+00  0.2800E+00
    -37.158  0.0000E+00  0.2800E+00
    -36.938  0.0000E+00  0.2800E+00
    -36.718  0.3087E-09  0.2800E+00
    -36.498  0.4886E-03  0.2801E+00
    -36.278  0.2281E+00  0.3303E+00
    -36.058  0.1119E+01  0.5766E+00
    -35.838  0.2878E+00  0.6399E+00
    -35.618  0.5199E-03  0.6400E+00
    -35.398  0.3546E-09  0.6400E+00
    -35.178  0.0000E+00  0.6400E+00
    -34.958  0.0000E+00  0.6400E+00
    -34.738  0.0000E+00  0.6400E+00
    -34.518  0.0000E+00  0.6400E+00
    -34.298  0.0000E+00  0.6400E+00
    -34.078  0.0000E+00  0.6400E+00
    -33.858  0.0000E+00  0.6400E+00
    -33.638  0.0000E+00  0.6400E+00
    -33.418  0.0000E+00  0.6400E+00
    -33.198  0.0000E+00  0.6400E+00
    -32.978  0.0000E+00  0.6400E+00
    -32.758  0.0000E+00  0.6400E+00
    -32.538  0.0000E+00  0.6400E+00
    -32.318  0.0000E+00  0.6400E+00
    -32.098  0.0000E+00  0.6400E+00
    -31.878  0.0000E+00  0.6400E+00
    -31.658  0.0000E+00  0.6400E+00
    -31.438  0.0000E+00  0.6400E+00
    -31.218  0.0000E+00  0.6400E+00
    -30.998  0.0000E+00  0.6400E+00
    -30.778  0.0000E+00  0.6400E+00
    -30.558  0.0000E+00  0.6400E+00
    -30.338  0.0000E+00  0.6400E+00
    -30.118  0.0000E+00  0.6400E+00
    -29.898  0.0000E+00  0.6400E+00
    -29.677  0.0000E+00  0.6400E+00
    -29.457  0.0000E+00  0.6400E+00
    -29.237  0.0000E+00  0.6400E+00
    -29.017  0.0000E+00  0.6400E+00
    -28.797  0.0000E+00  0.6400E+00
    -28.577  0.0000E+00  0.6400E+00
    -28.357  0.0000E+00  0.6400E+00
    -28.137  0.0000E+00  0.6400E+00
    -27.917  0.0000E+00  0.6400E+00
    -27.697  0.0000E+00  0.6400E+00
    -27.477  0.0000E+00  0.6400E+00
    -27.257  0.5046E-17  0.6400E+00
    -27.037  0.8972E-08  0.6400E+00
    -26.817  0.1836E-02  0.6404E+00
    -26.597  0.2263E+00  0.6902E+00
    -26.377  0.5464E+00  0.8104E+00
    -26.157  0.8779E+00  0.1004E+01
    -25.937  0.2554E+00  0.1060E+01
    -25.717  0.1020E-02  0.1060E+01
    -25.497  0.1968E-08  0.1060E+01
    -25.277  0.0000E+00  0.1060E+01
    -25.057  0.0000E+00  0.1060E+01
    -24.837  0.0000E+00  0.1060E+01
    -24.617  0.0000E+00  0.1060E+01
    -24.397  0.0000E+00  0.1060E+01
    -24.177  0.0000E+00  0.1060E+01
    -23.957  0.4340E-09  0.1060E+01
    -23.737  0.3945E-03  0.1060E+01
    -23.517  0.9202E-01  0.1080E+01
    -23.297  0.3617E+00  0.1160E+01
    -23.077  0.3051E+00  0.1227E+01
    -22.857  0.3963E+00  0.1314E+01
    -22.637  0.2544E+00  0.1370E+01
    -22.417  0.2211E+00  0.1419E+01
    -22.197  0.5022E-02  0.1420E+01
    -21.976  0.4108E-07  0.1420E+01
    -21.756  0.3364E-16  0.1420E+01
    -21.536  0.0000E+00  0.1420E+01
    -21.316  0.0000E+00  0.1420E+01
    -21.096  0.0000E+00  0.1420E+01
    -20.876  0.0000E+00  0.1420E+01
    -20.656  0.0000E+00  0.1420E+01
    -20.436  0.3733E-10  0.1420E+01
    -20.216  0.1116E-03  0.1420E+01
    -19.996  0.5347E-01  0.1432E+01
    -19.776  0.2392E+00  0.1484E+01
    -19.556  0.4721E+00  0.1588E+01
    -19.336  0.7805E+00  0.1760E+01
    -19.116  0.3143E+00  0.1829E+01
    -18.896  0.4902E-01  0.1840E+01
    -18.676  0.8758E-04  0.1840E+01
    -18.456  0.2366E-10  0.1840E+01
    -18.236  0.0000E+00  0.1840E+01
    -18.016  0.0000E+00  0.1840E+01
    -17.796  0.0000E+00  0.1840E+01
    -17.576  0.0000E+00  0.1840E+01
    -17.356  0.0000E+00  0.1840E+01
    -17.136  0.0000E+00  0.1840E+01
    -16.916  0.0000E+00  0.1840E+01
    -16.696  0.0000E+00  0.1840E+01
    -16.476  0.0000E+00  0.1840E+01
    -16.256  0.0000E+00  0.1840E+01
    -16.036  0.0000E+00  0.1840E+01
    -15.816  0.0000E+00  0.1840E+01
    -15.596  0.0000E+00  0.1840E+01
    -15.376  0.0000E+00  0.1840E+01
    -15.156  0.0000E+00  0.1840E+01
    -14.936  0.0000E+00  0.1840E+01
    -14.716  0.0000E+00  0.1840E+01
    -14.496  0.0000E+00  0.1840E+01
    -14.275  0.0000E+00  0.1840E+01
    -14.055  0.0000E+00  0.1840E+01
    -13.835  0.0000E+00  0.1840E+01
    -13.615  0.0000E+00  0.1840E+01
    -13.395  0.0000E+00  0.1840E+01
    -13.175  0.0000E+00  0.1840E+01
    -12.955  0.0000E+00  0.1840E+01
    -12.735  0.0000E+00  0.1840E+01
    -12.515  0.0000E+00  0.1840E+01
    -12.295  0.0000E+00  0.1840E+01
    -12.075  0.0000E+00  0.1840E+01
    -11.855  0.0000E+00  0.1840E+01
    -11.635  0.0000E+00  0.1840E+01
    -11.415  0.0000E+00  0.1840E+01
    -11.195  0.0000E+00  0.1840E+01
    -10.975  0.0000E+00  0.1840E+01
    -10.755  0.0000E+00  0.1840E+01
    -10.535  0.0000E+00  0.1840E+01
    -10.315  0.0000E+00  0.1840E+01
    -10.095  0.0000E+00  0.1840E+01
     -9.875  0.0000E+00  0.1840E+01
     -9.655  0.0000E+00  0.1840E+01
     -9.435  0.0000E+00  0.1840E+01
     -9.215  0.0000E+00  0.1840E+01
     -8.995  0.1263E-15  0.1840E+01
     -8.775  0.2520E-07  0.1840E+01
     -8.555  0.8513E-03  0.1840E+01
     -8.335  0.5125E-01  0.1851E+01
     -8.115  0.5857E-01  0.1864E+01
     -7.895  0.7611E-01  0.1881E+01
     -7.675  0.1121E+00  0.1906E+01
     -7.455  0.1213E+00  0.1932E+01
     -7.235  0.2205E+00  0.1981E+01
     -7.015  0.3160E+00  0.2050E+01
     -6.795  0.2031E+00  0.2095E+01
     -6.574  0.2191E-01  0.2100E+01
     -6.354  0.4404E-05  0.2100E+01
     -6.134  0.1141E-12  0.2100E+01
     -5.914  0.0000E+00  0.2100E+01
     -5.694  0.0000E+00  0.2100E+01
     -5.474  0.1323E-13  0.2100E+01
     -5.254  0.4380E-06  0.2100E+01
     -5.034  0.1976E-02  0.2100E+01
     -4.814  0.3745E-01  0.2109E+01
     -4.594  0.4998E-01  0.2120E+01
     -4.374  0.6787E-01  0.2135E+01
     -4.154  0.1222E+00  0.2161E+01
     -3.934  0.1593E+00  0.2197E+01
     -3.714  0.2015E+00  0.2241E+01
     -3.494  0.2365E+00  0.2293E+01
     -3.274  0.2386E+00  0.2345E+01
     -3.054  0.2376E+00  0.2398E+01
     -2.834  0.1725E+00  0.2436E+01
     -2.614  0.1096E+00  0.2460E+01
     -2.394  0.6516E-01  0.2474E+01
     -2.174  0.2545E-01  0.2480E+01
     -1.954  0.1418E-02  0.2480E+01
     -1.734  0.2595E-06  0.2480E+01
     -1.514  0.8120E-14  0.2480E+01
     -1.294  0.0000E+00  0.2480E+01
     -1.074  0.0000E+00  0.2480E+01
     -0.854  0.0000E+00  0.2480E+01
     -0.634  0.0000E+00  0.2480E+01
     -0.414  0.5326E-12  0.2480E+01
     -0.194  0.3028E-05  0.2480E+01
      0.026  0.3616E-02  0.2481E+01
      0.246  0.1629E-01  0.2484E+01
      0.466  0.9909E-01  0.2506E+01
      0.686  0.1036E+00  0.2529E+01
      0.906  0.1505E+00  0.2562E+01
      1.127  0.2049E+00  0.2607E+01
      1.347  0.2886E+00  0.2671E+01
      1.567  0.3034E+00  0.2737E+01
      1.787  0.3015E+00  0.2804E+01
      2.007  0.3749E+00  0.2886E+01
      2.227  0.3403E+00  0.2961E+01
      2.447  0.3760E+00  0.3044E+01
      2.667  0.4958E+00  0.3153E+01
      2.887  0.6007E+00  0.3285E+01
      3.107  0.6702E+00  0.3433E+01
      3.327  0.6423E+00  0.3574E+01
      3.547  0.5765E+00  0.3701E+01
      3.767  0.5295E+00  0.3817E+01
      3.987  0.5360E+00  0.3935E+01
      4.207  0.4883E+00  0.4043E+01
      4.427  0.4142E+00  0.4134E+01
      4.647  0.3182E+00  0.4204E+01
      4.867  0.2688E+00  0.4263E+01
      5.087  0.2496E+00  0.4318E+01
      5.307  0.1887E+00  0.4359E+01
      5.527  0.1317E+00  0.4388E+01
      5.747  0.8105E-01  0.4406E+01
      5.967  0.1600E+00  0.4441E+01
      6.187  0.1653E+00  0.4478E+01
      6.407  0.1840E+00  0.4518E+01
      6.627  0.2190E+00  0.4566E+01
      6.847  0.2500E+00  0.4621E+01
      7.067  0.2416E+00  0.4675E+01
      7.287  0.3036E+00  0.4741E+01
      7.507  0.2870E+00  0.4805E+01
      7.727  0.2681E+00  0.4864E+01
      7.947  0.3180E+00  0.4934E+01
      8.167  0.3943E+00  0.5020E+01
      8.387  0.4482E+00  0.5119E+01
      8.607  0.4858E+00  0.5226E+01
      8.828  0.4675E+00  0.5329E+01
      9.048  0.4630E+00  0.5431E+01
      9.268  0.4969E+00  0.5540E+01
      9.488  0.4858E+00  0.5647E+01
      9.708  0.4040E+00  0.5736E+01
      9.928  0.1101E+00  0.5760E+01
     10.148  0.6731E-03  0.5760E+01
     10.368  0.2548E-08  0.5760E+01
     10.588  0.0000E+00  0.5760E+01
     10.808  0.0000E+00  0.5760E+01
     11.028  0.0000E+00  0.5760E+01
     11.248  0.0000E+00  0.5760E+01
     11.468  0.0000E+00  0.5760E+01
     11.688  0.0000E+00  0.5760E+01
     11.908  0.0000E+00  0.5760E+01
     12.128  0.0000E+00  0.5760E+01
     12.348  0.0000E+00  0.5760E+01
     12.568  0.0000E+00  0.5760E+01
     12.788  0.0000E+00  0.5760E+01
