 vasp.5.4.4.18Apr17-6-g9f103f2a35 (build Oct 18 2021 20:38:43) complex          
  
 executed on             LinuxIFC date 2024.06.24  10:44:48
 running on   24 total cores
 distrk:  each k-point on   24 cores,    1 groups
 distr:  one band on NCORES_PER_BAND=   1 cores,   24 groups


--------------------------------------------------------------------------------------------------------


 INCAR:
 POTCAR:   PAW_PBE Zr_sv 07Sep2000                
 POTCAR:   PAW_PBE Hf_pv 06Sep2000                
 POTCAR:   PAW_PBE Ti_sv 07Sep2000                
 POTCAR:   PAW_PBE N 08Apr2002                    
 POTCAR:   PAW_PBE C 08Apr2002                    
 POTCAR:   PAW_PBE Cr_pv 07Sep2000                
 POTCAR:   PAW_PBE Mo 08Apr2002                   

 ----------------------------------------------------------------------------- 
|                                                                             |
|           W    W    AA    RRRRR   N    N  II  N    N   GGGG   !!!           |
|           W    W   A  A   R    R  NN   N  II  NN   N  G    G  !!!           |
|           W    W  A    A  R    R  N N  N  II  N N  N  G       !!!           |
|           W WW W  AAAAAA  RRRRR   N  N N  II  N  N N  G  GGG   !            |
|           WW  WW  A    A  R   R   N   NN  II  N   NN  G    G                |
|           W    W  A    A  R    R  N    N  II  N    N   GGGG   !!!           |
|                                                                             |
|      For optimal performance we recommend to set                            |
|        NCORE= 4 - approx SQRT( number of cores)                             |
|      NCORE specifies how many cores store one orbital (NPAR=cpu/NCORE).     |
|      This setting can  greatly improve the performance of VASP for DFT.     |
|      The default,   NCORE=1            might be grossly inefficient         |
|      on modern multi-core architectures or massively parallel machines.     |
|      Do your own testing !!!!                                               |
|      Unfortunately you need to use the default for GW and RPA calculations. |
|      (for HF NCORE is supported but not extensively tested yet)             |
|                                                                             |
 ----------------------------------------------------------------------------- 

 POTCAR:   PAW_PBE Zr_sv 07Sep2000                
   VRHFIN =Zr: 4s4p5s4d                                                         
   LEXCH  = PE                                                                  
   EATOM  =  1283.3934 eV,   94.3268 Ry                                         
                                                                                
   TITEL  = PAW_PBE Zr_sv 07Sep2000                                             
   LULTRA =        F    use ultrasoft PP ?                                      
   IUNSCR =        1    unscreen: 0-lin 1-nonlin 2-no                           
   RPACOR =    2.200    partial core radius                                     
   POMASS =   91.224; ZVAL   =   12.000    mass and valenz                      
   RCORE  =    2.500    outmost cutoff radius                                   
   RWIGS  =    3.070; RWIGS  =    1.625    wigner-seitz radius (au A)           
   ENMAX  =  229.839; ENMIN  =  172.379 eV                                      
   RCLOC  =    2.213    cutoff for local pot                                    
   LCOR   =        T    correct aug charges                                     
   LPAW   =        T    paw PP                                                  
   EAUG   =  357.078                                                            
   DEXC   =     .000                                                            
   RMAX   =    3.041    core radius for proj-oper                               
   RAUG   =    1.300    factor for augmentation sphere                          
   RDEP   =    2.597    radius for radial grids                                 
   QCUT   =   -4.110; QGAM   =    8.220    optimization parameters              
                                                                                
   Description                                                                  
     l     E      TYP  RCUT    TYP  RCUT                                        
     0   .000     23  2.500                                                     
     0   .000     23  2.500                                                     
     1   .000     23  2.500                                                     
     1   .000     23  2.500                                                     
     2   .000     23  2.500                                                     
     2   .000     23  2.500                                                     
     3   .000      7   .000                                                     
  local pseudopotential read in
  partial core-charges read in
  atomic valenz-charges read in
  non local Contribution for L=           0  read in
    real space projection operators read in
  non local Contribution for L=           0  read in
    real space projection operators read in
  non local Contribution for L=           1  read in
    real space projection operators read in
  non local Contribution for L=           1  read in
    real space projection operators read in
  non local Contribution for L=           2  read in
    real space projection operators read in
  non local Contribution for L=           2  read in
    real space projection operators read in
    PAW grid and wavefunctions read in
 
   number of l-projection  operators is LMAX  =           6
   number of lm-projection operators is LMMAX =          18
 
 POTCAR:   PAW_PBE Hf_pv 06Sep2000                
   VRHFIN =Hf: 5p6s5d                                                           
   LEXCH  = PE                                                                  
   EATOM  =   859.6195 eV,   63.1803 Ry                                         
                                                                                
   TITEL  = PAW_PBE Hf_pv 06Sep2000                                             
   LULTRA =        F    use ultrasoft PP ?                                      
   IUNSCR =        1    unscreen: 0-lin 1-nonlin 2-no                           
   RPACOR =    2.500    partial core radius                                     
   POMASS =  178.490; ZVAL   =   10.000    mass and valenz                      
   RCORE  =    2.600    outmost cutoff radius                                   
   RWIGS  =    3.050; RWIGS  =    1.614    wigner-seitz radius (au A)           
   ENMAX  =  220.342; ENMIN  =  165.256 eV                                      
   RCLOC  =    2.212    cutoff for local pot                                    
   LCOR   =        T    correct aug charges                                     
   LPAW   =        T    paw PP                                                  
   EAUG   =  380.878                                                            
   DEXC   =    -.057                                                            
   RMAX   =    3.106    core radius for proj-oper                               
   RAUG   =    1.300    factor for augmentation sphere                          
   RDEP   =    2.681    radius for radial grids                                 
   QCUT   =   -4.024; QGAM   =    8.049    optimization parameters              
                                                                                
   Description                                                                  
     l     E      TYP  RCUT    TYP  RCUT                                        
     1   .000     23  2.500                                                     
     1   .000     23  2.500                                                     
     2   .000     23  2.500                                                     
     2   .000     23  2.500                                                     
     0   .000     23  2.600                                                     
     0   .000     23  2.600                                                     
     3   .000      7   .000                                                     
  local pseudopotential read in
  partial core-charges read in
  atomic valenz-charges read in
  non local Contribution for L=           1  read in
    real space projection operators read in
  non local Contribution for L=           1  read in
    real space projection operators read in
  non local Contribution for L=           2  read in
    real space projection operators read in
  non local Contribution for L=           2  read in
    real space projection operators read in
  non local Contribution for L=           0  read in
    real space projection operators read in
  non local Contribution for L=           0  read in
    real space projection operators read in
    PAW grid and wavefunctions read in
 
   number of l-projection  operators is LMAX  =           6
   number of lm-projection operators is LMMAX =          18
 
 POTCAR:   PAW_PBE Ti_sv 07Sep2000                
   VRHFIN =Ti: 3p4s3d                                                           
   LEXCH  = PE                                                                  
   EATOM  =  1587.5048 eV,  116.6783 Ry                                         
                                                                                
   TITEL  = PAW_PBE Ti_sv 07Sep2000                                             
   LULTRA =        F    use ultrasoft PP ?                                      
   IUNSCR =        1    unscreen: 0-lin 1-nonlin 2-no                           
   RPACOR =    2.000    partial core radius                                     
   POMASS =   47.880; ZVAL   =   12.000    mass and valenz                      
   RCORE  =    2.300    outmost cutoff radius                                   
   RWIGS  =    2.300; RWIGS  =    1.217    wigner-seitz radius (au A)           
   ENMAX  =  274.574; ENMIN  =  205.930 eV                                      
   RCLOC  =    1.701    cutoff for local pot                                    
   LCOR   =        T    correct aug charges                                     
   LPAW   =        T    paw PP                                                  
   EAUG   =  482.848                                                            
   DEXC   =     .000                                                            
   RMAX   =    2.783    core radius for proj-oper                               
   RAUG   =    1.300    factor for augmentation sphere                          
   RDEP   =    2.381    radius for radial grids                                 
   QCUT   =   -4.492; QGAM   =    8.985    optimization parameters              
                                                                                
   Description                                                                  
     l     E      TYP  RCUT    TYP  RCUT                                        
     0   .000     23  1.800                                                     
     0   .000     23  2.300                                                     
     0   .000     23  1.800                                                     
     0   .000     23  2.300                                                     
     1   .000     23  2.300                                                     
     1  -.100     23  2.300                                                     
     2   .000     23  2.300                                                     
     2   .000     23  2.300                                                     
     3   .000      7   .000                                                     
  local pseudopotential read in
  partial core-charges read in
  atomic valenz-charges read in
  non local Contribution for L=           0  read in
    real space projection operators read in
  non local Contribution for L=           0  read in
    real space projection operators read in
  non local Contribution for L=           1  read in
    real space projection operators read in
  non local Contribution for L=           1  read in
    real space projection operators read in
  non local Contribution for L=           2  read in
    real space projection operators read in
  non local Contribution for L=           2  read in
    real space projection operators read in
    PAW grid and wavefunctions read in
 
   number of l-projection  operators is LMAX  =           6
   number of lm-projection operators is LMMAX =          18
 
 POTCAR:   PAW_PBE N 08Apr2002                    
   VRHFIN =N: s2p3                                                              
   LEXCH  = PE                                                                  
   EATOM  =   264.5486 eV,   19.4438 Ry                                         
                                                                                
   TITEL  = PAW_PBE N 08Apr2002                                                 
   LULTRA =        F    use ultrasoft PP ?                                      
   IUNSCR =        0    unscreen: 0-lin 1-nonlin 2-no                           
   RPACOR =     .000    partial core radius                                     
   POMASS =   14.001; ZVAL   =    5.000    mass and valenz                      
   RCORE  =    1.500    outmost cutoff radius                                   
   RWIGS  =    1.400; RWIGS  =     .741    wigner-seitz radius (au A)           
   ENMAX  =  400.000; ENMIN  =  300.000 eV                                      
   ICORE  =        2    local potential                                         
   LCOR   =        T    correct aug charges                                     
   LPAW   =        T    paw PP                                                  
   EAUG   =  627.112                                                            
   DEXC   =     .000                                                            
   RMAX   =    2.247    core radius for proj-oper                               
   RAUG   =    1.300    factor for augmentation sphere                          
   RDEP   =    1.514    radius for radial grids                                 
   QCUT   =   -5.562; QGAM   =   11.124    optimization parameters              
                                                                                
   Description                                                                  
     l     E      TYP  RCUT    TYP  RCUT                                        
     0   .000     23  1.200                                                     
     0   .000     23  1.200                                                     
     1   .000     23  1.500                                                     
     1   .700     23  1.500                                                     
     2   .000      7  1.500                                                     
  local pseudopotential read in
  atomic valenz-charges read in
  non local Contribution for L=           0  read in
    real space projection operators read in
  non local Contribution for L=           0  read in
    real space projection operators read in
  non local Contribution for L=           1  read in
    real space projection operators read in
  non local Contribution for L=           1  read in
    real space projection operators read in
    PAW grid and wavefunctions read in
 
   number of l-projection  operators is LMAX  =           4
   number of lm-projection operators is LMMAX =           8
 
 POTCAR:   PAW_PBE C 08Apr2002                    
   VRHFIN =C: s2p2                                                              
   LEXCH  = PE                                                                  
   EATOM  =   147.1560 eV,   10.8157 Ry                                         
                                                                                
   TITEL  = PAW_PBE C 08Apr2002                                                 
   LULTRA =        F    use ultrasoft PP ?                                      
   IUNSCR =        0    unscreen: 0-lin 1-nonlin 2-no                           
   RPACOR =     .000    partial core radius                                     
   POMASS =   12.011; ZVAL   =    4.000    mass and valenz                      
   RCORE  =    1.500    outmost cutoff radius                                   
   RWIGS  =    1.630; RWIGS  =     .863    wigner-seitz radius (au A)           
   ENMAX  =  400.000; ENMIN  =  300.000 eV                                      
   ICORE  =        2    local potential                                         
   LCOR   =        T    correct aug charges                                     
   LPAW   =        T    paw PP                                                  
   EAUG   =  644.873                                                            
   DEXC   =     .000                                                            
   RMAX   =    2.266    core radius for proj-oper                               
   RAUG   =    1.300    factor for augmentation sphere                          
   RDEP   =    1.501    radius for radial grids                                 
   RDEPT  =    1.300    core radius for aug-charge                              
   QCUT   =   -5.516; QGAM   =   11.032    optimization parameters              
                                                                                
   Description                                                                  
     l     E      TYP  RCUT    TYP  RCUT                                        
     0   .000     23  1.200                                                     
     0   .000     23  1.200                                                     
     1   .000     23  1.500                                                     
     1  2.500     23  1.500                                                     
     2   .000      7  1.500                                                     
  local pseudopotential read in
  atomic valenz-charges read in
  non local Contribution for L=           0  read in
    real space projection operators read in
  non local Contribution for L=           0  read in
    real space projection operators read in
  non local Contribution for L=           1  read in
    real space projection operators read in
  non local Contribution for L=           1  read in
    real space projection operators read in
    PAW grid and wavefunctions read in
 
   number of l-projection  operators is LMAX  =           4
   number of lm-projection operators is LMMAX =           8
 
 POTCAR:   PAW_PBE Cr_pv 07Sep2000                
   VRHFIN =Cr : p6d5s1                                                          
   LEXCH  = PE                                                                  
   EATOM  =  1647.5667 eV,  121.0927 Ry                                         
                                                                                
   TITEL  = PAW_PBE Cr_pv 07Sep2000                                             
   LULTRA =        F    use ultrasoft PP ?                                      
   IUNSCR =        1    unscreen: 0-lin 1-nonlin 2-no                           
   RPACOR =    2.080    partial core radius                                     
   POMASS =   51.996; ZVAL   =   12.000    mass and valenz                      
   RCORE  =    2.300    outmost cutoff radius                                   
   RWIGS  =    2.500; RWIGS  =    1.323    wigner-seitz radius (au A)           
   ENMAX  =  265.683; ENMIN  =  199.262 eV                                      
   RCLOC  =    1.721    cutoff for local pot                                    
   LCOR   =        T    correct aug charges                                     
   LPAW   =        T    paw PP                                                  
   EAUG   =  519.424                                                            
   DEXC   =    -.003                                                            
   RMAX   =    2.829    core radius for proj-oper                               
   RAUG   =    1.300    factor for augmentation sphere                          
   RDEP   =    2.447    radius for radial grids                                 
   QCUT   =   -4.419; QGAM   =    8.838    optimization parameters              
                                                                                
   Description                                                                  
     l     E      TYP  RCUT    TYP  RCUT                                        
     1   .000     23  2.000                                                     
     1   .100     23  2.000                                                     
     2   .000     23  2.300                                                     
     2   .000     23  2.300                                                     
     0   .000     23  2.300                                                     
     0   .000     23  2.300                                                     
     3   .000      7   .000                                                     
  local pseudopotential read in
  partial core-charges read in
  atomic valenz-charges read in
  non local Contribution for L=           1  read in
    real space projection operators read in
  non local Contribution for L=           1  read in
    real space projection operators read in
  non local Contribution for L=           2  read in
    real space projection operators read in
  non local Contribution for L=           2  read in
    real space projection operators read in
  non local Contribution for L=           0  read in
    real space projection operators read in
  non local Contribution for L=           0  read in
    real space projection operators read in
    PAW grid and wavefunctions read in
 
   number of l-projection  operators is LMAX  =           6
   number of lm-projection operators is LMMAX =          18
 
 POTCAR:   PAW_PBE Mo 08Apr2002                   
   VRHFIN =Mo: 4p5s4d                                                           
   LEXCH  = PE                                                                  
   EATOM  =   217.5180 eV,   15.9871 Ry                                         
                                                                                
   TITEL  = PAW_PBE Mo 08Apr2002                                                
   LULTRA =        F    use ultrasoft PP ?                                      
   IUNSCR =        1    unscreen: 0-lin 1-nonlin 2-no                           
   RPACOR =    2.200    partial core radius                                     
   POMASS =   95.940; ZVAL   =    6.000    mass and valenz                      
   RCORE  =    2.750    outmost cutoff radius                                   
   RWIGS  =    2.750; RWIGS  =    1.455    wigner-seitz radius (au A)           
   ENMAX  =  224.584; ENMIN  =  168.438 eV                                      
   RCLOC  =    2.111    cutoff for local pot                                    
   LCOR   =        T    correct aug charges                                     
   LPAW   =        T    paw PP                                                  
   EAUG   =  345.278                                                            
   DEXC   =    -.088                                                            
   RMAX   =    3.077    core radius for proj-oper                               
   RAUG   =    1.300    factor for augmentation sphere                          
   RDEP   =    2.815    radius for radial grids                                 
   QCUT   =   -4.063; QGAM   =    8.126    optimization parameters              
                                                                                
   Description                                                                  
     l     E      TYP  RCUT    TYP  RCUT                                        
     2   .000     23  2.500                                                     
     2   .000     23  2.500                                                     
     0   .000     23  2.600                                                     
     0  1.000     23  2.600                                                     
     1   .400     23  2.750                                                     
     1  2.000     23  2.750                                                     
     3   .000      7   .000                                                     
  local pseudopotential read in
  partial core-charges read in
  atomic valenz-charges read in
  non local Contribution for L=           2  read in
    real space projection operators read in
  non local Contribution for L=           2  read in
    real space projection operators read in
  non local Contribution for L=           0  read in
    real space projection operators read in
  non local Contribution for L=           0  read in
    real space projection operators read in
  non local Contribution for L=           1  read in
    real space projection operators read in
  non local Contribution for L=           1  read in
    real space projection operators read in
    PAW grid and wavefunctions read in
 
   number of l-projection  operators is LMAX  =           6
   number of lm-projection operators is LMMAX =          18
 

 ----------------------------------------------------------------------------- 
|                                                                             |
|  ADVICE TO THIS USER RUNNING 'VASP/VAMP'   (HEAR YOUR MASTER'S VOICE ...):  |
|                                                                             |
|      You have a (more or less) 'large supercell' and for larger cells       |
|      it might be more efficient to use real space projection operators      |
|      So try LREAL= Auto  in the INCAR   file.                               |
|      Mind: If you want to do a very accurate calculations keep the          |
|      reciprocal projection scheme          (i.e. LREAL=.FALSE.)             |
|                                                                             |
 ----------------------------------------------------------------------------- 

 PAW_PBE Zr_sv 07Sep2000                :
 energy of atom  1       EATOM=-1283.3934
 kinetic energy error for atom=    0.0044 (will be added to EATOM!!)
 PAW_PBE Hf_pv 06Sep2000                :
 energy of atom  2       EATOM= -859.6195
 kinetic energy error for atom=    0.0038 (will be added to EATOM!!)
 PAW_PBE Ti_sv 07Sep2000                :
 energy of atom  3       EATOM=-1587.5048
 kinetic energy error for atom=    0.0139 (will be added to EATOM!!)
 PAW_PBE N 08Apr2002                    :
 energy of atom  4       EATOM= -264.5486
 kinetic energy error for atom=    0.0736 (will be added to EATOM!!)
 PAW_PBE C 08Apr2002                    :
 energy of atom  5       EATOM= -147.1560
 kinetic energy error for atom=    0.0288 (will be added to EATOM!!)
 PAW_PBE Cr_pv 07Sep2000                :
 energy of atom  6       EATOM=-1647.5667
 kinetic energy error for atom=    0.0284 (will be added to EATOM!!)
 PAW_PBE Mo 08Apr2002                   :
 energy of atom  7       EATOM= -217.5180
 kinetic energy error for atom=    0.0025 (will be added to EATOM!!)
 
 
 POSCAR: 57-TiZrHfCrMo                           
  positions in direct lattice
  velocities in cartesian coordinates
 exchange correlation table for  LEXCH =        8
   RHO(1)=    0.500       N(1)  =     2000
   RHO(2)=  100.500       N(2)  =     4000
 


--------------------------------------------------------------------------------------------------------


 ion  position               nearest neighbor table
   1  0.999  0.992  0.002-  34 2.22  38 2.25  23 2.28  29 2.28  25 2.30  22 2.34  12 3.06  59 3.09
                            58 3.10  10 3.10  18 3.11   9 3.12   8 3.14   2 3.17  17 3.18  14 3.20
   2  0.264  0.000  0.244-  26 2.19  21 2.20  22 2.22  36 2.24  34 2.35  43 2.39  57 2.99  61 3.03
                            53 3.05  59 3.08  55 3.09  15 3.09  14 3.10  18 3.13  20 3.16   1 3.17
   3  0.247  0.496  0.248-  21 2.21  37 2.23  46 2.24  27 2.24  36 2.24  41 2.24  55 2.91  59 3.08
                             8 3.13   4 3.14  15 3.15  18 3.16   6 3.16  62 3.17  20 3.19  14 3.20
   4  0.502  0.496  0.002-  35 2.25  41 2.25  52 2.28  40 2.32  37 2.33  28 2.33  17 3.07  55 3.08
                            15 3.10  60 3.10  63 3.11   9 3.12  18 3.13  14 3.13   3 3.14  13 3.14
   5  0.506  0.247  0.747-  30 2.18  33 2.19  42 2.25  32 2.27  52 2.27  35 2.29  56 2.90  53 3.03
                            11 3.05  58 3.07  17 3.08  19 3.08  14 3.09  57 3.10   4 3.17  13 3.17
   6  0.997  0.500  0.503-  50 2.23  44 2.27  46 2.29  48 2.29  47 2.29  27 2.30  64 3.08  63 3.12
                            13 3.13  60 3.14  59 3.16   3 3.16  12 3.17  20 3.18   8 3.20  19 3.21
   7  0.498  0.758  0.746-  33 2.17  45 2.20  49 2.21  52 2.27  51 2.32  28 2.33  58 2.87  56 2.88
                            57 2.95  63 3.06  62 3.06  20 3.09  18 3.11  64 3.15  13 3.17   9 3.18
   8  0.996  0.250  0.243-  23 2.17  24 2.21  27 2.22  34 2.24  44 2.27  21 2.29  17 3.09  61 3.10
                             3 3.13   1 3.14  11 3.16   6 3.20  14 3.22   2 3.24  60 3.24  19 3.26
   9  0.743  0.751  0.009-  39 2.19  28 2.19  25 2.24  40 2.28  38 2.30  49 2.32  58 2.89  63 3.04
                            16 3.04  54 3.06  60 3.09   4 3.12   1 3.12  53 3.15   7 3.18  55 3.23
  10  0.996  0.239  0.754-  29 2.12  30 2.15  23 2.17  42 2.26  44 2.26  48 2.34   1 3.10  17 3.12
                            14 3.13  11 3.15  19 3.16  61 3.19  54 3.19   6 3.21  13 3.24  56 3.30
  11  0.747  0.235  0.499-  31 2.12  32 2.19  24 2.23  30 2.26  44 2.27  50 2.34   5 3.05  16 3.07
                            15 3.08  10 3.15   8 3.16  61 3.19  60 3.24   6 3.24  57 3.27  62 3.31
  12  0.999  0.765  0.744-  29 2.12  47 2.20  49 2.21  45 2.21  38 2.30  48 2.33  54 3.02   1 3.06
                            58 3.08  63 3.08  61 3.10  20 3.10   6 3.17  18 3.18  64 3.19  13 3.24
  13  0.252  0.500  0.750-  37 2.20  46 2.21  52 2.24  48 2.26  42 2.30  45 2.34  54 3.03  18 3.11
                            14 3.13   6 3.13  19 3.14   4 3.14  20 3.16   5 3.17   7 3.17  62 3.20
  14  0.258  0.243  0.992-  42 2.15  22 2.16  35 2.17  21 2.27  23 2.29  37 2.29  56 2.91  53 2.96
                             5 3.09   2 3.10   4 3.13  10 3.13  13 3.13   3 3.20   1 3.20   8 3.22
  15  0.506  0.250  0.249-  24 2.12  26 2.13  32 2.15  35 2.16  41 2.22  21 2.22  53 3.00  11 3.08
                             2 3.09   4 3.10  60 3.10   3 3.15
  16  0.738  0.985  0.259-  26 2.01  31 2.02  39 2.09  25 2.28  24 2.29  34 2.30  64 2.99   9 3.04
                            11 3.07  59 3.18   1 3.25   8 3.29
  17  0.744  0.246  0.000-  35 2.13  25 2.16  30 2.19  24 2.19  40 2.22  23 2.25  53 2.91   4 3.07
                             5 3.08   8 3.09  10 3.12   1 3.18
  18  0.253  0.748  0.997-  28 2.14  45 2.17  37 2.21  38 2.21  22 2.24  36 2.24  54 3.05   7 3.11
                            13 3.11   1 3.11  59 3.12   4 3.13   2 3.13   3 3.16  12 3.18
  19  0.253  0.243  0.507-  42 2.16  43 2.17  32 2.18  44 2.20  46 2.28  21 2.30  57 2.94  61 2.98
                             5 3.08  13 3.14  10 3.16   2 3.18   6 3.21   3 3.21   8 3.26
  20  0.250  0.753  0.500-  51 2.18  43 2.19  36 2.22  47 2.22  45 2.25  46 2.25  57 2.88  55 2.94
                            59 2.97  61 2.97  62 3.05   7 3.09  12 3.10   2 3.16  13 3.16   6 3.18
  21  0.254  0.248  0.248-   2 2.20   3 2.21  15 2.22  14 2.27   8 2.29  19 2.30
  22  0.264  1.000  0.993-  56 2.02  14 2.16  53 2.17   2 2.22  18 2.24   1 2.34
  23  0.999  0.248  0.998-  10 2.17   8 2.17  17 2.25   1 2.28  14 2.29  54 2.41
  24  0.746  0.243  0.247-  15 2.12  17 2.19   8 2.21  11 2.23  16 2.29  60 2.38
  25  0.739  0.003  0.003-  58 1.99  53 2.04  17 2.16   9 2.24  16 2.28   1 2.30
  26  0.512  0.010  0.238-  16 2.01  53 2.09  15 2.13   2 2.19  57 2.46
  27  0.994  0.500  0.244-   8 2.22   3 2.24  60 2.27   6 2.30  59 2.30  54 2.36
  28  0.495  0.759  0.008-  18 2.14   9 2.19  55 2.26  53 2.32   7 2.33   4 2.33
  29  0.970  0.002  0.747-  10 2.12  12 2.12  58 2.17   1 2.28  61 2.35
  30  0.753  0.241  0.754-  10 2.15   5 2.18  17 2.19  11 2.26  58 2.33  63 2.49
  31  0.750  0.997  0.486-  16 2.02  11 2.12  64 2.29  61 2.40
  32  0.499  0.244  0.491-  15 2.15  19 2.18  11 2.19  57 2.27   5 2.27  62 2.47
  33  0.506  0.001  0.727-  57 1.94  56 1.96  58 2.02   7 2.17   5 2.19  53 2.44
  34  0.998  0.998  0.253-  61 2.08  59 2.15   1 2.22   8 2.24  16 2.30   2 2.35
  35  0.503  0.244  0.005-  53 1.99  17 2.13  15 2.16  14 2.17   4 2.25   5 2.29
  36  0.257  0.748  0.250-  55 1.98  59 2.12  20 2.22   2 2.24   3 2.24  18 2.24
  37  0.239  0.500  0.997-  54 2.13  13 2.20  18 2.21   3 2.23  14 2.29   4 2.33
  38  0.004  0.739  0.002-  54 1.96  18 2.21   1 2.25  59 2.28  12 2.30   9 2.30
  39  0.742  0.750  0.255-  64 2.08  16 2.09  60 2.12   9 2.19  55 2.32  59 2.43
  40  0.765  0.496  0.005-  54 2.09  17 2.22  63 2.23   9 2.28  60 2.29   4 2.32
  41  0.501  0.500  0.256-  55 2.02  60 2.09  62 2.13  15 2.22   3 2.24   4 2.25
  42  0.252  0.241  0.750-  56 2.11  14 2.15  19 2.16   5 2.25  10 2.26  13 2.30
  43  0.254  0.999  0.513-  57 1.91  61 2.06  19 2.17  20 2.19  56 2.28   2 2.39
  44  0.004  0.244  0.499-  61 2.18  19 2.20  10 2.26   8 2.27   6 2.27  11 2.27
  45  0.249  0.763  0.753-  18 2.17  56 2.19   7 2.20  12 2.21  20 2.25  13 2.34
  46  0.257  0.500  0.501-  13 2.21  62 2.22   3 2.24  20 2.25  19 2.28   6 2.29
  47  0.999  0.758  0.496-  59 2.11  61 2.16  12 2.20  20 2.22  64 2.27   6 2.29
  48  0.996  0.503  0.762-  54 1.93  63 2.17  13 2.26   6 2.29  12 2.33  10 2.34
  49  0.749  0.760  0.748-  58 2.00  63 2.12   7 2.21  12 2.21  64 2.30   9 2.32
  50  0.745  0.498  0.505-  62 2.12  64 2.15  60 2.17  63 2.22   6 2.23  11 2.34
  51  0.497  0.767  0.484-  55 2.02  57 2.02  62 2.18  20 2.18  64 2.20   7 2.32
  52  0.506  0.503  0.744-  63 2.18  62 2.23  13 2.24   7 2.27   5 2.27   4 2.28
  53  0.508  0.019  0.002-  35 1.99  25 2.04  26 2.09  22 2.17  28 2.32  33 2.44  58 2.79  56 2.85
                            17 2.91  14 2.96  15 3.00   5 3.03   2 3.05   9 3.15   7 3.25
  54  0.999  0.519  0.979-  48 1.93  38 1.96  40 2.09  37 2.13  27 2.36  23 2.41  63 2.95  12 3.02
                            13 3.03  18 3.05   9 3.06  10 3.19   3 3.25  59 3.26   8 3.35
  55  0.480  0.726  0.261-  36 1.98  51 2.02  41 2.02  28 2.26  39 2.32  62 2.76   3 2.91  20 2.94
                            60 2.96   4 3.08  64 3.09   2 3.09   9 3.23
  56  0.288  0.006  0.767-  33 1.96  22 2.02  42 2.11  45 2.19  43 2.28  57 2.79  53 2.85   7 2.88
                             5 2.90  14 2.91   1 3.30  10 3.30  12 3.35
  57  0.470  0.991  0.511-  43 1.91  33 1.94  51 2.02  32 2.27  26 2.46  56 2.79  20 2.88  19 2.94
                             7 2.95   2 2.99   5 3.10  11 3.27  64 3.29
  58  0.728  0.982  0.780-  25 1.99  49 2.00  33 2.02  29 2.17  30 2.33  53 2.79   7 2.87   9 2.89
                             5 3.07  12 3.08   1 3.10  10 3.31  11 3.36
  59  0.017  0.757  0.258-  47 2.11  36 2.12  34 2.15  38 2.28  27 2.30  39 2.43  61 2.97  20 2.97
                             3 3.08   2 3.08   1 3.09  18 3.12   6 3.16  64 3.17  16 3.18  54 3.26
  60  0.738  0.511  0.261-  41 2.09  39 2.12  50 2.17  27 2.27  40 2.29  24 2.38  64 2.87  62 2.91
                            55 2.96   9 3.09   4 3.10  15 3.10   6 3.14  11 3.24   8 3.24  59 3.31
  61  0.022  0.000  0.487-  43 2.06  34 2.08  47 2.16  44 2.18  29 2.35  31 2.40  59 2.97  20 2.97
                            19 2.98   2 3.03   8 3.10  12 3.10  10 3.19  11 3.19  64 3.39
  62  0.507  0.522  0.494-  50 2.12  41 2.13  51 2.18  46 2.22  52 2.23  32 2.47  55 2.76  64 2.85
                            60 2.91  20 3.05   7 3.06  63 3.16   3 3.17  13 3.20  11 3.31   5 3.31
  63  0.751  0.522  0.755-  49 2.12  48 2.17  52 2.18  50 2.22  40 2.23  30 2.49  54 2.95   9 3.04
                            64 3.04   7 3.06  12 3.08   4 3.11   6 3.12  62 3.16   5 3.27  10 3.30
  64  0.744  0.739  0.489-  39 2.08  50 2.15  51 2.20  47 2.27  31 2.29  49 2.30  62 2.85  60 2.87
                            16 2.99  63 3.04   6 3.08  55 3.09   7 3.15  59 3.17  12 3.19  57 3.29
 
  LATTYP: Found a triclinic cell.
 ALAT       =    12.4900606226
 B/A-ratio  =     0.7111575229
 C/A-ratio  =     0.7098308572
 COS(alpha) =     0.0002950861
 COS(beta)  =     0.0008972644
 COS(gamma) =     0.7070442223
  
  Lattice vectors:
  
 A1 = (   8.8037530748,  -8.8597234517,  -0.0290948979)
 A2 = (  -0.0289323329,  -8.8823489060,  -0.0089880568)
 A3 = (  -0.0115806133,   0.0063928543,  -8.8658205705)


Analysis of symmetry for initial positions (statically):
=====================================================================
 Subroutine PRICEL returns:
 Original cell was already a primitive cell.
 

 Routine SETGRP: Setting up the symmetry group for a 
 triclinic supercell.


 Subroutine GETGRP returns: Found  1 space group operations
 (whereof  1 operations were pure point group operations)
 out of a pool of  2 trial point group operations.


The static configuration has the point symmetry C_1 .


Analysis of symmetry for dynamics (positions and initial velocities):
=====================================================================
 Subroutine PRICEL returns:
 Original cell was already a primitive cell.
 

 Routine SETGRP: Setting up the symmetry group for a 
 triclinic supercell.


 Subroutine GETGRP returns: Found  1 space group operations
 (whereof  1 operations were pure point group operations)
 out of a pool of  2 trial point group operations.


The dynamic configuration has the point symmetry C_1 .


 Subroutine INISYM returns: Found  1 space group operations
 (whereof  1 operations are pure point group operations),
 and found     1 'primitive' translations

 
 
 KPOINTS: HECN                                    

Automatic generation of k-mesh.
Space group operators:
 irot       det(A)        alpha          n_x          n_y          n_z        tau_x        tau_y        tau_z
    1     1.000000     0.000000     1.000000     0.000000     0.000000     0.000000     0.000000     0.000000
 
 Subroutine IBZKPT returns following result:
 ===========================================
 
 Found     14 irreducible k-points:
 
 Following reciprocal coordinates:
            Coordinates               Weight
  0.000000  0.000000  0.000000      1.000000
  0.333333 -0.000000  0.000000      2.000000
 -0.000000  0.333333  0.000000      2.000000
  0.333333  0.333333  0.000000      2.000000
 -0.333333  0.333333  0.000000      2.000000
 -0.000000 -0.000000  0.333333      2.000000
  0.333333 -0.000000  0.333333      2.000000
 -0.333333  0.000000  0.333333      2.000000
 -0.000000  0.333333  0.333333      2.000000
  0.333333  0.333333  0.333333      2.000000
 -0.333333  0.333333  0.333333      2.000000
 -0.000000 -0.333333  0.333333      2.000000
  0.333333 -0.333333  0.333333      2.000000
 -0.333333 -0.333333  0.333333      2.000000
 
 Following cartesian coordinates:
            Coordinates               Weight
  0.000000  0.000000  0.000000      1.000000
  0.037739 -0.000123 -0.000049      2.000000
 -0.000096  0.037528  0.000027      2.000000
  0.037643  0.037405 -0.000022      2.000000
 -0.037835  0.037651  0.000077      2.000000
  0.000086 -0.000038  0.037597      2.000000
  0.037825 -0.000161  0.037548      2.000000
 -0.037653  0.000085  0.037647      2.000000
 -0.000010  0.037490  0.037625      2.000000
  0.037728  0.037367  0.037575      2.000000
 -0.037749  0.037612  0.037674      2.000000
  0.000182 -0.037566  0.037570      2.000000
  0.037921 -0.037689  0.037521      2.000000
 -0.037557 -0.037443  0.037620      2.000000
 


--------------------------------------------------------------------------------------------------------




 Dimension of arrays:
   k-points           NKPTS =     14   k-points in BZ     NKDIM =     14   number of bands    NBANDS=    288
   number of dos      NEDOS =    301   number of ions     NIONS =     64
   non local maximal  LDIM  =      6   non local SUM 2l+1 LMDIM =     18
   total plane-waves  NPLWV = 110592
   max r-space proj   IRMAX =      1   max aug-charges    IRDMAX=  10407
   dimension x,y,z NGX =    48 NGY =   48 NGZ =   48
   dimension x,y,z NGXF=    96 NGYF=   96 NGZF=   96
   support grid    NGXF=    96 NGYF=   96 NGZF=   96
   ions per type =               7   6   7  13  19   6   6
   NGX,Y,Z   is equivalent  to a cutoff of   9.03,  8.98,  9.00 a.u.
   NGXF,Y,Z  is equivalent  to a cutoff of  18.07, 17.97, 18.00 a.u.

 SYSTEM =  HECN                                    
 POSCAR =  57-TiZrHfCrMo                           

 Startparameter for this run:
   NWRITE =      2    write-flag & timer
   PREC   = normal    normal or accurate (medium, high low for compatibility)
   ISTART =      0    job   : 0-new  1-cont  2-samecut
   ICHARG =      2    charge: 1-file 2-atom 10-const
   ISPIN  =      1    spin polarized calculation?
   LNONCOLLINEAR =      F non collinear calculations
   LSORBIT =      F    spin-orbit coupling
   INIWAV =      1    electr: 0-lowe 1-rand  2-diag
   LASPH  =      F    aspherical Exc in radial PAW
   METAGGA=      F    non-selfconsistent MetaGGA calc.

 Electronic Relaxation 1
   ENCUT  =  400.0 eV  29.40 Ry    5.42 a.u.  14.40 14.48 14.46*2*pi/ulx,y,z
   ENINI  =  400.0     initial cutoff
   ENAUG  =  644.9 eV  augmentation charge cutoff
   NELM   =     60;   NELMIN=  2; NELMDL= -5     # of ELM steps 
   EDIFF  = 0.1E-04   stopping-criterion for ELM
   LREAL  =      F    real-space projection
   NLSPLINE    = F    spline interpolate recip. space projectors
   LCOMPAT=      F    compatible to vasp.4.4
   GGA_COMPAT  = T    GGA compatible to vasp.4.4-vasp.4.6
   LMAXPAW     = -100 max onsite density
   LMAXMIX     =    2 max onsite mixed and CHGCAR
   VOSKOWN=      0    Vosko Wilk Nusair interpolation
   ROPT   =    0.00000   0.00000   0.00000   0.00000
   ROPT   =    0.00000   0.00000   0.00000
 Ionic relaxation
   EDIFFG = -.1E-01   stopping-criterion for IOM
   NSW    =    100    number of steps for IOM
   NBLOCK =      1;   KBLOCK =    100    inner block; outer block 
   IBRION =      2    ionic relax: 0-MD 1-quasi-New 2-CG
   NFREE  =      1    steps in history (QN), initial steepest desc. (CG)
   ISIF   =      3    stress and relaxation
   IWAVPR =     11    prediction:  0-non 1-charg 2-wave 3-comb
   ISYM   =      2    0-nonsym 1-usesym 2-fastsym
   LCORR  =      T    Harris-Foulkes like correction to forces

   POTIM  = 0.5000    time-step for ionic-motion
   TEIN   =    0.0    initial temperature
   TEBEG  =    0.0;   TEEND  =   0.0 temperature during run
   SMASS  =  -3.00    Nose mass-parameter (am)
   estimated Nose-frequenzy (Omega)   =  0.10E-29 period in steps =****** mass=  -0.178E-26a.u.
   SCALEE = 1.0000    scale energy and forces
   NPACO  =    256;   APACO  = 16.0  distance and # of slots for P.C.
   PSTRESS=    0.0 pullay stress

  Mass of Ions in am
   POMASS =  91.22178.49 47.88 14.00 12.01 52.00 95.94
  Ionic Valenz
   ZVAL   =  12.00 10.00 12.00  5.00  4.00 12.00  6.00
  Atomic Wigner-Seitz radii
   RWIGS  =  -1.00 -1.00 -1.00 -1.00 -1.00 -1.00 -1.00
  virtual crystal weights 
   VCA    =   1.00  1.00  1.00  1.00  1.00  1.00  1.00
   NELECT =     477.0000    total number of electrons
   NUPDOWN=      -1.0000    fix difference up-down

 DOS related values:
   EMIN   =  10.00;   EMAX   =-10.00  energy-range for DOS
   EFERMI =   0.00
   ISMEAR =     0;   SIGMA  =   0.10  broadening in eV -4-tet -1-fermi 0-gaus

 Electronic relaxation 2 (details)
   IALGO  =     68    algorithm
   LDIAG  =      T    sub-space diagonalisation (order eigenvalues)
   LSUBROT=      F    optimize rotation matrix (better conditioning)
   TURBO    =      0    0=normal 1=particle mesh
   IRESTART =      0    0=no restart 2=restart with 2 vectors
   NREBOOT  =      0    no. of reboots
   NMIN     =      0    reboot dimension
   EREF     =   0.00    reference energy to select bands
   IMIX   =      4    mixing-type and parameters
     AMIX     =   0.40;   BMIX     =  1.00
     AMIX_MAG =   1.60;   BMIX_MAG =  1.00
     AMIN     =   0.10
     WC   =   100.;   INIMIX=   1;  MIXPRE=   1;  MAXMIX= -45

 Intra band minimization:
   WEIMIN = 0.0010     energy-eigenvalue tresh-hold
   EBREAK =  0.87E-08  absolut break condition
   DEPER  =   0.30     relativ break condition  

   TIME   =   0.40     timestep for ELM

  volume/ion in A,a.u.               =      10.87        73.34
  Fermi-wavevector in a.u.,A,eV,Ry     =   1.443672  2.728144 28.357100  2.084188
  Thomas-Fermi vector in A             =   2.562053
 
 Write flags
   LWAVE        =      F    write WAVECAR
   LDOWNSAMPLE  =      F    k-point downsampling of WAVECAR
   LCHARG       =      F    write CHGCAR
   LVTOT        =      F    write LOCPOT, total local potential
   LVHAR        =      F    write LOCPOT, Hartree potential only
   LELF         =      F    write electronic localiz. function (ELF)
   LORBIT       =      0    0 simple, 1 ext, 2 COOP (PROOUT), +10 PAW based schemes


 Dipole corrections
   LMONO  =      F    monopole corrections only (constant potential shift)
   LDIPOL =      F    correct potential (dipole corrections)
   IDIPOL =      0    1-x, 2-y, 3-z, 4-all directions 
   EPSILON=  1.0000000 bulk dielectric constant

 Exchange correlation treatment:
   GGA     =    --    GGA type
   LEXCH   =     8    internal setting for exchange type
   VOSKOWN=      0    Vosko Wilk Nusair interpolation
   LHFCALC =     F    Hartree Fock is set to
   LHFONE  =     F    Hartree Fock one center treatment
   AEXX    =    0.0000 exact exchange contribution

 Linear response parameters
   LEPSILON=     F    determine dielectric tensor
   LRPA    =     F    only Hartree local field effects (RPA)
   LNABLA  =     F    use nabla operator in PAW spheres
   LVEL    =     F    velocity operator in full k-point grid
   LINTERFAST=   F  fast interpolation
   KINTER  =     0    interpolate to denser k-point grid
   CSHIFT  =0.1000    complex shift for real part using Kramers Kronig
   OMEGAMAX=  -1.0    maximum frequency
   DEG_THRESHOLD= 0.2000000E-02 threshold for treating states as degnerate
   RTIME   =   -0.100 relaxation time in fs
  (WPLASMAI=    0.000 imaginary part of plasma frequency in eV, 0.658/RTIME)
   DFIELD  = 0.0000000 0.0000000 0.0000000 field for delta impulse in time
 
 Orbital magnetization related:
   ORBITALMAG=     F  switch on orbital magnetization
   LCHIMAG   =     F  perturbation theory with respect to B field
   DQ        =  0.001000  dq finite difference perturbation B field
   LLRAUG    =     F  two centre corrections for induced B field



--------------------------------------------------------------------------------------------------------


 conjugate gradient relaxation of ions
 charge density and potential will be updated during run
 non-spin polarized calculation
 RMM-DIIS sequential band-by-band and
  variant of blocked Davidson during initial phase
 perform sub-space diagonalisation
    before iterative eigenvector-optimisation
 modified Broyden-mixing scheme, WC =      100.0
 initial mixing is a Kerker type mixing with AMIX =  0.4000 and BMIX =      1.0000
 Hartree-type preconditioning will be used
 using additional bands           49
 reciprocal scheme for non local part
 use partial core corrections
 calculate Harris-corrections to forces 
   (improved forces if not selfconsistent)
 use gradient corrections 
 use of overlap-Matrix (Vanderbilt PP)
 Gauss-broadening in eV      SIGMA  =   0.10


--------------------------------------------------------------------------------------------------------


  energy-cutoff  :      400.00
  volume of cell :      695.56
      direct lattice vectors                 reciprocal lattice vectors
     8.832685408  0.022625454 -0.020106841     0.113216459 -0.000368628 -0.000148150
     0.028932333  8.882348906  0.008988057    -0.000288204  0.112583689  0.000081557
     0.011580613 -0.006392854  8.865820570     0.000257056 -0.000114972  0.112792299

  length of vectors
     8.832737272  8.882400574  8.865830439     0.113217156  0.112584087  0.112792651


 
 k-points in units of 2pi/SCALE and weight: HECN                                    
   0.00000000  0.00000000  0.00000000       0.037
   0.03773882 -0.00012288 -0.00004938       0.074
  -0.00009607  0.03752790  0.00002719       0.074
   0.03764275  0.03740502 -0.00002220       0.074
  -0.03783489  0.03765077  0.00007657       0.074
   0.00008569 -0.00003832  0.03759743       0.074
   0.03782450 -0.00016120  0.03754805       0.074
  -0.03765313  0.00008455  0.03764682       0.074
  -0.00001038  0.03748957  0.03762462       0.074
   0.03772844  0.03736670  0.03757524       0.074
  -0.03774920  0.03761245  0.03767400       0.074
   0.00018175 -0.03756622  0.03757025       0.074
   0.03792057 -0.03768910  0.03752086       0.074
  -0.03755707 -0.03744334  0.03761963       0.074
 
 k-points in reciprocal lattice and weights: HECN                                    
   0.00000000  0.00000000  0.00000000       0.037
   0.33333333 -0.00000000  0.00000000       0.074
  -0.00000000  0.33333333  0.00000000       0.074
   0.33333333  0.33333333  0.00000000       0.074
  -0.33333333  0.33333333  0.00000000       0.074
  -0.00000000 -0.00000000  0.33333333       0.074
   0.33333333 -0.00000000  0.33333333       0.074
  -0.33333333  0.00000000  0.33333333       0.074
  -0.00000000  0.33333333  0.33333333       0.074
   0.33333333  0.33333333  0.33333333       0.074
  -0.33333333  0.33333333  0.33333333       0.074
  -0.00000000 -0.33333333  0.33333333       0.074
   0.33333333 -0.33333333  0.33333333       0.074
  -0.33333333 -0.33333333  0.33333333       0.074
 
 position of ions in fractional coordinates (direct lattice) 
   0.99916692  0.99222935  0.00196828
   0.26371346  0.00021006  0.24350358
   0.24730658  0.49601393  0.24842593
   0.50232919  0.49643904  0.00166675
   0.50639594  0.24688482  0.74657583
   0.99724596  0.50013892  0.50319851
   0.49845347  0.75776727  0.74569960
   0.99560356  0.25007835  0.24341577
   0.74320142  0.75124920  0.00890304
   0.99635868  0.23907614  0.75392832
   0.74670888  0.23482299  0.49936279
   0.99871199  0.76460340  0.74360411
   0.25188425  0.49960063  0.74961090
   0.25814530  0.24304664  0.99224485
   0.50594179  0.24976354  0.24867031
   0.73754563  0.98528598  0.25935582
   0.74429503  0.24628627  0.00035877
   0.25346822  0.74811562  0.99685720
   0.25340104  0.24307978  0.50676639
   0.25048617  0.75333422  0.49966311
   0.25431472  0.24752828  0.24787548
   0.26359749  0.99990050  0.99341032
   0.99905300  0.24838417  0.99819847
   0.74572626  0.24287981  0.24748965
   0.73902296  0.00305783  0.00324336
   0.51172238  0.01047015  0.23779106
   0.99404024  0.49979718  0.24426502
   0.49479769  0.75893734  0.00828371
   0.97004485  0.00217569  0.74702506
   0.75315107  0.24133129  0.75357753
   0.75020707  0.99703807  0.48603300
   0.49943676  0.24375144  0.49113094
   0.50633992  0.00138887  0.72687330
   0.99772848  0.99835822  0.25276542
   0.50311537  0.24370671  0.00534007
   0.25722789  0.74814758  0.24990865
   0.23856108  0.50016316  0.99748366
   0.00364530  0.73895050  0.00200405
   0.74192995  0.74982086  0.25547319
   0.76492926  0.49564644  0.00463775
   0.50098023  0.49953809  0.25553571
   0.25193947  0.24071558  0.75011689
   0.25408906  0.99917475  0.51298719
   0.00393508  0.24447895  0.49896858
   0.24912120  0.76316071  0.75309895
   0.25652509  0.49982569  0.50056474
   0.99944076  0.75824402  0.49553434
   0.99645875  0.50286549  0.76166928
   0.74858891  0.76015919  0.74793601
   0.74499781  0.49766679  0.50531368
   0.49674750  0.76705389  0.48400255
   0.50552124  0.50254219  0.74445808
   0.50814708  0.01931155  0.00199599
   0.99856148  0.51927088  0.97873708
   0.48040268  0.72649229  0.26094166
   0.28805572  0.00591134  0.76729161
   0.47047529  0.99125717  0.51109740
   0.72807089  0.98178953  0.77975453
   0.01704142  0.75711660  0.25771987
   0.73769271  0.51095438  0.26075132
   0.02212419  0.00048362  0.48665668
   0.50672765  0.52208125  0.49422603
   0.75149070  0.52159815  0.75468132
   0.74391026  0.73884740  0.48937110
 
 position of ions in cartesian coordinates  (Angst):
   8.85405734  8.83592130  0.00627855
   2.33212400  0.00627579  2.15355845
   2.20160902  4.40977609  2.20198540
   4.45129814  4.42089956  0.00913891
   4.48862480  2.19960178  6.61104430
   8.82865736  4.46175462  4.44571154
   4.43324236  6.73726386  6.60802738
   8.80390726  2.24225303  2.14030983
   6.58630284  6.68961588  0.07074159
   8.81617076  2.14128097  6.66630842
   6.60802152  2.09948203  4.41435754
   8.85204201  6.80931677  6.57945198
   2.24794992  4.43853392  6.64534162
   2.29863893  2.15832243  8.79405879
   4.47893066  2.22834440  2.19673831
   6.54601866  8.76668315  2.29342825
   6.58125364  2.20443831 -0.00957103
   2.27199401  6.64438607  8.83958473
   2.25111320  2.16161309  4.48998963
   2.24004768  6.69385045  4.43165802
   2.25631408  2.20280192  2.19473086
   2.36870748  8.88107840  8.81108469
   8.84306691  2.22245759  8.83199326
   6.59665865  2.17263341  2.18138763
   6.52768337  0.04386070  0.01392315
   4.52293950  0.10305734  2.09801784
   8.79733377  4.46030200  2.15011506
   4.39244608  6.75228827  0.07031444
   8.57681499  0.03649733  6.60350514
   6.66805563  2.15581156  6.66810876
   6.66081825  8.86990662  4.30295851
   4.42410767  2.17324560  4.34642751
   4.48079906  0.01914584  6.43415984
   8.84443375  8.88872425  2.22988500
   4.45097262  2.17603710  0.03941850
   2.29655277  6.64953009  2.21719758
   2.13315733  4.44164445  8.84320993
   0.05360055  6.56368585  0.02433599
   6.57788646  6.67532377  2.25680103
   6.77077340  4.41978185  0.03019208
   4.44241282  4.44677292  2.25995050
   2.24095336  2.13902464  6.64749964
   2.27913785  8.87748817  4.55192414
   0.04760904  2.16844656  4.42588415
   2.23121054  6.77948171  6.67869041
   2.28606337  4.44223009  4.43725175
   8.85542219  6.75443290  4.38003805
   8.82477637  4.48430283  6.73730730
   6.64270509  6.76415486  6.62284706
   6.60058175  4.43407555  4.46951394
   4.41541209  6.82138524  4.28798605
   4.48827112  4.47043347  6.59458422
   4.48888511  0.18301622  0.00765241
   8.84633753  4.62868107  8.66189665
   4.26728668  6.46215918  2.31033233
   2.55336225  0.05411877  6.79693100
   4.19015840  8.81206941  4.53074752
   6.46825659  8.73208527  6.90734893
   0.17541118  6.72371181  2.29136051
   6.53361037  4.55349875  2.30153427
   0.20106580  0.00168515  4.31417031
   4.49659438  4.64561328  4.37622307
   6.66151166  4.64519498  6.68044719
   6.59776907  6.57640324  4.33035944
 


--------------------------------------------------------------------------------------------------------


 k-point  1 :   0.0000 0.0000 0.0000  plane waves:   12671
 k-point  2 :   0.3333-0.0000 0.0000  plane waves:   12652
 k-point  3 :  -0.0000 0.3333 0.0000  plane waves:   12640
 k-point  4 :   0.3333 0.3333 0.0000  plane waves:   12630
 k-point  5 :  -0.3333 0.3333 0.0000  plane waves:   12632
 k-point  6 :  -0.0000-0.0000 0.3333  plane waves:   12634
 k-point  7 :   0.3333-0.0000 0.3333  plane waves:   12631
 k-point  8 :  -0.3333 0.0000 0.3333  plane waves:   12635
 k-point  9 :  -0.0000 0.3333 0.3333  plane waves:   12628
 k-point 10 :   0.3333 0.3333 0.3333  plane waves:   12647
 k-point 11 :  -0.3333 0.3333 0.3333  plane waves:   12633
 k-point 12 :  -0.0000-0.3333 0.3333  plane waves:   12626
 k-point 13 :   0.3333-0.3333 0.3333  plane waves:   12629
 k-point 14 :  -0.3333-0.3333 0.3333  plane waves:   12642

 maximum and minimum number of plane-waves per node :     12671    12626

 maximum number of plane-waves:     12671
 maximum index in each direction: 
   IXMAX=   14   IYMAX=   14   IZMAX=   14
   IXMIN=  -14   IYMIN=  -14   IZMIN=  -14


 serial   3D FFT for wavefunctions
 parallel 3D FFT for charge:
    minimum data exchange during FFTs selected (reduces bandwidth)


 total amount of memory used by VASP MPI-rank0   268904. kBytes
=======================================================================

   base      :      30000. kBytes
   nonl-proj :     191803. kBytes
   fftplans  :       1726. kBytes
   grid      :       8060. kBytes
   one-center:        995. kBytes
   wavefun   :      36320. kBytes
 
     INWAV:  cpu time    0.0000: real time    0.0000
 Broyden mixing: mesh for mixing (old mesh)
   NGX = 29   NGY = 29   NGZ = 29
  (NGX  = 96   NGY  = 96   NGZ  = 96)
  gives a total of  24389 points

 initial charge density was supplied:
 charge density of overlapping atoms calculated
 number of electron     477.0000000 magnetization 
 keeping initial charge density in first step


--------------------------------------------------------------------------------------------------------


 Maximum index for augmentation-charges          558 (set IRDMAX)


--------------------------------------------------------------------------------------------------------


 First call to EWALD:  gamma=   0.200
 Maximum number of real-space cells 3x 3x 3
 Maximum number of reciprocal cells 3x 3x 3

    FEWALD:  cpu time    0.0031: real time    0.0031


--------------------------------------- Iteration      1(   1)  ---------------------------------------


    POTLOK:  cpu time    0.0297: real time    0.0365
    SETDIJ:  cpu time    0.0079: real time    0.0079
     EDDAV:  cpu time   18.0779: real time   18.1331
       DOS:  cpu time    0.0012: real time    0.0012
    --------------------------------------------
      LOOP:  cpu time   18.1168: real time   18.1788

 eigenvalue-minimisations  :  8064
 total energy-change (2. order) : 0.5836893E+04  (-0.1913319E+05)
 number of electron     477.0000000 magnetization 
 augmentation part      477.0000000 magnetization 

 Free energy of the ion-electron system (eV)
  ---------------------------------------------------
  alpha Z        PSCENC =      3917.75928210
  Ewald energy   TEWEN  =    -35813.58551070
  -Hartree energ DENC   =     -8833.51818515
  -exchange      EXHF   =         0.00000000
  -V(xc)+E(xc)   XCENC  =      1410.28679804
  PAW double counting   =     27296.70540234   -26858.51824759
  entropy T*S    EENTRO =        -0.08779829
  eigenvalues    EBANDS =      2040.08243358
  atomic energy  EATOM  =     42677.76878328
  Solvation  Ediel_sol  =         0.00000000
  ---------------------------------------------------
  free energy    TOTEN  =      5836.89295763 eV

  energy without entropy =     5836.98075592  energy(sigma->0) =     5836.93685677


--------------------------------------------------------------------------------------------------------




--------------------------------------- Iteration      1(   2)  ---------------------------------------


     EDDAV:  cpu time   18.6712: real time   18.6934
       DOS:  cpu time    0.0012: real time    0.0012
    --------------------------------------------
      LOOP:  cpu time   18.6724: real time   18.6946

 eigenvalue-minimisations  :  8064
 total energy-change (2. order) :-0.5456961E+04  (-0.5296307E+04)
 number of electron     477.0000000 magnetization 
 augmentation part      477.0000000 magnetization 

 Free energy of the ion-electron system (eV)
  ---------------------------------------------------
  alpha Z        PSCENC =      3917.75928210
  Ewald energy   TEWEN  =    -35813.58551070
  -Hartree energ DENC   =     -8833.51818515
  -exchange      EXHF   =         0.00000000
  -V(xc)+E(xc)   XCENC  =      1410.28679804
  PAW double counting   =     27296.70540234   -26858.51824759
  entropy T*S    EENTRO =        -0.11571973
  eigenvalues    EBANDS =     -3416.85052481
  atomic energy  EATOM  =     42677.76878328
  Solvation  Ediel_sol  =         0.00000000
  ---------------------------------------------------
  free energy    TOTEN  =       379.93207780 eV

  energy without entropy =      380.04779753  energy(sigma->0) =      379.98993767


--------------------------------------------------------------------------------------------------------




--------------------------------------- Iteration      1(   3)  ---------------------------------------


     EDDAV:  cpu time   25.3295: real time   25.3387
       DOS:  cpu time    0.0010: real time    0.0010
    --------------------------------------------
      LOOP:  cpu time   25.3305: real time   25.3397

 eigenvalue-minimisations  : 11928
 total energy-change (2. order) :-0.1004353E+04  (-0.9345788E+03)
 number of electron     477.0000000 magnetization 
 augmentation part      477.0000000 magnetization 

 Free energy of the ion-electron system (eV)
  ---------------------------------------------------
  alpha Z        PSCENC =      3917.75928210
  Ewald energy   TEWEN  =    -35813.58551070
  -Hartree energ DENC   =     -8833.51818515
  -exchange      EXHF   =         0.00000000
  -V(xc)+E(xc)   XCENC  =      1410.28679804
  PAW double counting   =     27296.70540234   -26858.51824759
  entropy T*S    EENTRO =        -0.08539716
  eigenvalues    EBANDS =     -4421.23361225
  atomic energy  EATOM  =     42677.76878328
  Solvation  Ediel_sol  =         0.00000000
  ---------------------------------------------------
  free energy    TOTEN  =      -624.42068707 eV

  energy without entropy =     -624.33528991  energy(sigma->0) =     -624.37798849


--------------------------------------------------------------------------------------------------------




--------------------------------------- Iteration      1(   4)  ---------------------------------------


     EDDAV:  cpu time   31.0560: real time   31.1333
       DOS:  cpu time    0.0011: real time    0.0011
    --------------------------------------------
      LOOP:  cpu time   31.0571: real time   31.1344

 eigenvalue-minimisations  : 14928
 total energy-change (2. order) :-0.1445491E+03  (-0.1401422E+03)
 number of electron     477.0000000 magnetization 
 augmentation part      477.0000000 magnetization 

 Free energy of the ion-electron system (eV)
  ---------------------------------------------------
  alpha Z        PSCENC =      3917.75928210
  Ewald energy   TEWEN  =    -35813.58551070
  -Hartree energ DENC   =     -8833.51818515
  -exchange      EXHF   =         0.00000000
  -V(xc)+E(xc)   XCENC  =      1410.28679804
  PAW double counting   =     27296.70540234   -26858.51824759
  entropy T*S    EENTRO =        -0.08111379
  eigenvalues    EBANDS =     -4565.78704196
  atomic energy  EATOM  =     42677.76878328
  Solvation  Ediel_sol  =         0.00000000
  ---------------------------------------------------
  free energy    TOTEN  =      -768.96983342 eV

  energy without entropy =     -768.88871962  energy(sigma->0) =     -768.92927652


--------------------------------------------------------------------------------------------------------




--------------------------------------- Iteration      1(   5)  ---------------------------------------


     EDDAV:  cpu time   31.4904: real time   31.5365
       DOS:  cpu time    0.0012: real time    0.0012
    CHARGE:  cpu time    0.2453: real time    0.2454
    MIXING:  cpu time    0.0013: real time    0.0013
    --------------------------------------------
      LOOP:  cpu time   31.7381: real time   31.7845

 eigenvalue-minimisations  : 15480
 total energy-change (2. order) :-0.1258061E+02  (-0.1236474E+02)
 number of electron     476.9999910 magnetization 
 augmentation part       95.6536145 magnetization 

 Broyden mixing:
  rms(total) = 0.76863E+01    rms(broyden)= 0.76852E+01
  rms(prec ) = 0.12157E+02
  weight for this iteration     100.00

 Free energy of the ion-electron system (eV)
  ---------------------------------------------------
  alpha Z        PSCENC =      3917.75928210
  Ewald energy   TEWEN  =    -35813.58551070
  -Hartree energ DENC   =     -8833.51818515
  -exchange      EXHF   =         0.00000000
  -V(xc)+E(xc)   XCENC  =      1410.28679804
  PAW double counting   =     27296.70540234   -26858.51824759
  entropy T*S    EENTRO =        -0.09442639
  eigenvalues    EBANDS =     -4578.35434004
  atomic energy  EATOM  =     42677.76878328
  Solvation  Ediel_sol  =         0.00000000
  ---------------------------------------------------
  free energy    TOTEN  =      -781.55044408 eV

  energy without entropy =     -781.45601770  energy(sigma->0) =     -781.50323089


--------------------------------------------------------------------------------------------------------




--------------------------------------- Iteration      1(   6)  ---------------------------------------


    POTLOK:  cpu time    0.0237: real time    0.0265
    SETDIJ:  cpu time    0.0076: real time    0.0076
    EDDIAG:  cpu time    1.5827: real time    1.5831
  RMM-DIIS:  cpu time   17.5411: real time   17.5483
    ORTHCH:  cpu time    0.3592: real time    0.3592
       DOS:  cpu time    0.0010: real time    0.0010
    CHARGE:  cpu time    0.2375: real time    0.2376
    MIXING:  cpu time    0.0012: real time    0.0016
    --------------------------------------------
      LOOP:  cpu time   19.7539: real time   19.7650

 eigenvalue-minimisations  : 11563
 total energy-change (2. order) :-0.1017725E+03  (-0.2683167E+03)
 number of electron     476.9999841 magnetization 
 augmentation part      129.9665023 magnetization 

 Broyden mixing:
  rms(total) = 0.11226E+02    rms(broyden)= 0.11225E+02
  rms(prec ) = 0.18095E+02
  weight for this iteration     100.00

 eigenvalues of (default mixing * dielectric matrix)
  average eigenvalue GAMMA=   0.3851
  0.3851

 Free energy of the ion-electron system (eV)
  ---------------------------------------------------
  alpha Z        PSCENC =      3917.75928210
  Ewald energy   TEWEN  =    -35813.58551070
  -Hartree energ DENC   =     -8119.47516085
  -exchange      EXHF   =         0.00000000
  -V(xc)+E(xc)   XCENC  =      1401.50010351
  PAW double counting   =     26442.45660256   -26022.29136680
  entropy T*S    EENTRO =        -0.21869207
  eigenvalues    EBANDS =     -5367.23699105
  atomic energy  EATOM  =     42677.76878328
  Solvation  Ediel_sol  =         0.00000000
  ---------------------------------------------------
  free energy    TOTEN  =      -883.32295002 eV

  energy without entropy =     -883.10425794  energy(sigma->0) =     -883.21360398


--------------------------------------------------------------------------------------------------------




--------------------------------------- Iteration      1(   7)  ---------------------------------------


    POTLOK:  cpu time    0.0231: real time    0.0264
    SETDIJ:  cpu time    0.0075: real time    0.0075
    EDDIAG:  cpu time    1.5761: real time    1.5766
  RMM-DIIS:  cpu time   19.6523: real time   19.7046
    ORTHCH:  cpu time    0.3561: real time    0.3563
       DOS:  cpu time    0.0010: real time    0.0010
    CHARGE:  cpu time    0.2369: real time    0.2369
    MIXING:  cpu time    0.0012: real time    0.0015
    --------------------------------------------
      LOOP:  cpu time   21.8543: real time   21.9108

 eigenvalue-minimisations  : 13172
 total energy-change (2. order) : 0.2375526E+03  (-0.3242113E+02)
 number of electron     476.9999916 magnetization 
 augmentation part      103.3814766 magnetization 

 Broyden mixing:
  rms(total) = 0.45852E+01    rms(broyden)= 0.45832E+01
  rms(prec ) = 0.79884E+01
  weight for this iteration     100.00

 eigenvalues of (default mixing * dielectric matrix)
  average eigenvalue GAMMA=   0.5345
  0.7938  0.2751

 Free energy of the ion-electron system (eV)
  ---------------------------------------------------
  alpha Z        PSCENC =      3917.75928210
  Ewald energy   TEWEN  =    -35813.58551070
  -Hartree energ DENC   =     -8517.56912456
  -exchange      EXHF   =         0.00000000
  -V(xc)+E(xc)   XCENC  =      1415.25846803
  PAW double counting   =     27449.80218423   -27095.42930383
  entropy T*S    EENTRO =        -0.09682471
  eigenvalues    EBANDS =     -4679.67829976
  atomic energy  EATOM  =     42677.76878328
  Solvation  Ediel_sol  =         0.00000000
  ---------------------------------------------------
  free energy    TOTEN  =      -645.77034592 eV

  energy without entropy =     -645.67352121  energy(sigma->0) =     -645.72193356


--------------------------------------------------------------------------------------------------------




--------------------------------------- Iteration      1(   8)  ---------------------------------------


    POTLOK:  cpu time    0.0233: real time    0.0270
    SETDIJ:  cpu time    0.0076: real time    0.0076
    EDDIAG:  cpu time    1.5651: real time    1.5655
  RMM-DIIS:  cpu time   19.8063: real time   19.8877
    ORTHCH:  cpu time    0.3785: real time    0.3786
       DOS:  cpu time    0.0012: real time    0.0012
    CHARGE:  cpu time    0.2676: real time    0.2677
    MIXING:  cpu time    0.0033: real time    0.0057
    --------------------------------------------
      LOOP:  cpu time   22.0527: real time   22.1410

 eigenvalue-minimisations  : 13299
 total energy-change (2. order) : 0.1155061E+02  (-0.5213429E+01)
 number of electron     476.9999918 magnetization 
 augmentation part      110.0998878 magnetization 

 Broyden mixing:
  rms(total) = 0.24516E+01    rms(broyden)= 0.24477E+01
  rms(prec ) = 0.44380E+01
  weight for this iteration     100.00

 eigenvalues of (default mixing * dielectric matrix)
  average eigenvalue GAMMA=   0.4608
  0.7121  0.4478  0.2227

 Free energy of the ion-electron system (eV)
  ---------------------------------------------------
  alpha Z        PSCENC =      3917.75928210
  Ewald energy   TEWEN  =    -35813.58551070
  -Hartree energ DENC   =     -8402.09409854
  -exchange      EXHF   =         0.00000000
  -V(xc)+E(xc)   XCENC  =      1410.24507025
  PAW double counting   =     27743.91261201   -27392.49382974
  entropy T*S    EENTRO =        -0.13483518
  eigenvalues    EBANDS =     -4775.59720738
  atomic energy  EATOM  =     42677.76878328
  Solvation  Ediel_sol  =         0.00000000
  ---------------------------------------------------
  free energy    TOTEN  =      -634.21973390 eV

  energy without entropy =     -634.08489872  energy(sigma->0) =     -634.15231631


--------------------------------------------------------------------------------------------------------




--------------------------------------- Iteration      1(   9)  ---------------------------------------


    POTLOK:  cpu time    0.0272: real time    0.0372
    SETDIJ:  cpu time    0.0076: real time    0.0076
    EDDIAG:  cpu time    1.5744: real time    1.5748
  RMM-DIIS:  cpu time   20.0407: real time   20.0881
    ORTHCH:  cpu time    0.3553: real time    0.3553
       DOS:  cpu time    0.0010: real time    0.0010
    CHARGE:  cpu time    0.2373: real time    0.2373
    MIXING:  cpu time    0.0011: real time    0.0011
    --------------------------------------------
      LOOP:  cpu time   22.2446: real time   22.3023

 eigenvalue-minimisations  : 13299
 total energy-change (2. order) : 0.1435844E+01  (-0.1786345E+01)
 number of electron     476.9999918 magnetization 
 augmentation part      108.0977920 magnetization 

 Broyden mixing:
  rms(total) = 0.23824E+01    rms(broyden)= 0.23808E+01
  rms(prec ) = 0.39266E+01
  weight for this iteration     100.00

 eigenvalues of (default mixing * dielectric matrix)
  average eigenvalue GAMMA=   0.4187
  0.6448  0.6448  0.2395  0.1454

 Free energy of the ion-electron system (eV)
  ---------------------------------------------------
  alpha Z        PSCENC =      3917.75928210
  Ewald energy   TEWEN  =    -35813.58551070
  -Hartree energ DENC   =     -8407.14461512
  -exchange      EXHF   =         0.00000000
  -V(xc)+E(xc)   XCENC  =      1409.28667682
  PAW double counting   =     27955.57096048   -27599.35256287
  entropy T*S    EENTRO =        -0.13961072
  eigenvalues    EBANDS =     -4772.94729316
  atomic energy  EATOM  =     42677.76878328
  Solvation  Ediel_sol  =         0.00000000
  ---------------------------------------------------
  free energy    TOTEN  =      -632.78388989 eV

  energy without entropy =     -632.64427917  energy(sigma->0) =     -632.71408453


--------------------------------------------------------------------------------------------------------




--------------------------------------- Iteration      1(  10)  ---------------------------------------


    POTLOK:  cpu time    0.0233: real time    0.0263
    SETDIJ:  cpu time    0.0076: real time    0.0076
    EDDIAG:  cpu time    1.5928: real time    1.5952
  RMM-DIIS:  cpu time   20.0659: real time   20.0872
    ORTHCH:  cpu time    0.3628: real time    0.3628
       DOS:  cpu time    0.0010: real time    0.0010
    CHARGE:  cpu time    0.2394: real time    0.2394
    MIXING:  cpu time    0.0016: real time    0.0016
    --------------------------------------------
      LOOP:  cpu time   22.2944: real time   22.3213

 eigenvalue-minimisations  : 13330
 total energy-change (2. order) : 0.3102217E+01  (-0.8974438E+00)
 number of electron     476.9999915 magnetization 
 augmentation part      106.9674244 magnetization 

 Broyden mixing:
  rms(total) = 0.10641E+01    rms(broyden)= 0.10616E+01
  rms(prec ) = 0.15837E+01
  weight for this iteration     100.00

 eigenvalues of (default mixing * dielectric matrix)
  average eigenvalue GAMMA=   0.5928
  0.9774  0.9774  0.6526  0.2399  0.1169

 Free energy of the ion-electron system (eV)
  ---------------------------------------------------
  alpha Z        PSCENC =      3917.75928210
  Ewald energy   TEWEN  =    -35813.58551070
  -Hartree energ DENC   =     -8408.16717871
  -exchange      EXHF   =         0.00000000
  -V(xc)+E(xc)   XCENC  =      1408.78107443
  PAW double counting   =     28090.33270608   -27730.82009557
  entropy T*S    EENTRO =        -0.12429808
  eigenvalues    EBANDS =     -4771.62643571
  atomic energy  EATOM  =     42677.76878328
  Solvation  Ediel_sol  =         0.00000000
  ---------------------------------------------------
  free energy    TOTEN  =      -629.68167287 eV

  energy without entropy =     -629.55737479  energy(sigma->0) =     -629.61952383


--------------------------------------------------------------------------------------------------------




--------------------------------------- Iteration      1(  11)  ---------------------------------------


    POTLOK:  cpu time    0.0246: real time    0.0268
    SETDIJ:  cpu time    0.0076: real time    0.0076
    EDDIAG:  cpu time    1.5645: real time    1.5649
  RMM-DIIS:  cpu time   19.8310: real time   19.8924
    ORTHCH:  cpu time    0.3513: real time    0.3516
       DOS:  cpu time    0.0010: real time    0.0010
    CHARGE:  cpu time    0.2375: real time    0.2376
    MIXING:  cpu time    0.0011: real time    0.0011
    --------------------------------------------
      LOOP:  cpu time   22.0186: real time   22.0830

 eigenvalue-minimisations  : 13242
 total energy-change (2. order) :-0.3065746E+00  (-0.5715745E+00)
 number of electron     476.9999914 magnetization 
 augmentation part      106.7106288 magnetization 

 Broyden mixing:
  rms(total) = 0.15311E+01    rms(broyden)= 0.15303E+01
  rms(prec ) = 0.25262E+01
  weight for this iteration     100.00

 eigenvalues of (default mixing * dielectric matrix)
  average eigenvalue GAMMA=   0.5743
  1.1324  1.1324  0.6679  0.2411  0.1157  0.1559

 Free energy of the ion-electron system (eV)
  ---------------------------------------------------
  alpha Z        PSCENC =      3917.75928210
  Ewald energy   TEWEN  =    -35813.58551070
  -Hartree energ DENC   =     -8388.25615673
  -exchange      EXHF   =         0.00000000
  -V(xc)+E(xc)   XCENC  =      1406.55862690
  PAW double counting   =     28416.19629113   -28042.95302523
  entropy T*S    EENTRO =        -0.13173158
  eigenvalues    EBANDS =     -4803.34480669
  atomic energy  EATOM  =     42677.76878328
  Solvation  Ediel_sol  =         0.00000000
  ---------------------------------------------------
  free energy    TOTEN  =      -629.98824751 eV

  energy without entropy =     -629.85651594  energy(sigma->0) =     -629.92238172


--------------------------------------------------------------------------------------------------------




--------------------------------------- Iteration      1(  12)  ---------------------------------------


    POTLOK:  cpu time    0.0264: real time    0.0267
    SETDIJ:  cpu time    0.0075: real time    0.0075
    EDDIAG:  cpu time    1.5757: real time    1.5769
  RMM-DIIS:  cpu time   19.7143: real time   19.7691
    ORTHCH:  cpu time    0.3547: real time    0.3547
       DOS:  cpu time    0.0010: real time    0.0010
    CHARGE:  cpu time    0.2374: real time    0.2375
    MIXING:  cpu time    0.0014: real time    0.0014
    --------------------------------------------
      LOOP:  cpu time   21.9184: real time   21.9747

 eigenvalue-minimisations  : 12919
 total energy-change (2. order) : 0.9196756E+00  (-0.2706308E+00)
 number of electron     476.9999918 magnetization 
 augmentation part      106.6182384 magnetization 

 Broyden mixing:
  rms(total) = 0.83377E+00    rms(broyden)= 0.83164E+00
  rms(prec ) = 0.13731E+01
  weight for this iteration     100.00

 eigenvalues of (default mixing * dielectric matrix)
  average eigenvalue GAMMA=   0.6545
  1.6162  1.0542  0.8309  0.6147  0.2388  0.1192  0.1073

 Free energy of the ion-electron system (eV)
  ---------------------------------------------------
  alpha Z        PSCENC =      3917.75928210
  Ewald energy   TEWEN  =    -35813.58551070
  -Hartree energ DENC   =     -8383.35557168
  -exchange      EXHF   =         0.00000000
  -V(xc)+E(xc)   XCENC  =      1405.92128825
  PAW double counting   =     28553.56439280   -28174.63071011
  entropy T*S    EENTRO =        -0.13209514
  eigenvalues    EBANDS =     -4812.37843070
  atomic energy  EATOM  =     42677.76878328
  Solvation  Ediel_sol  =         0.00000000
  ---------------------------------------------------
  free energy    TOTEN  =      -629.06857187 eV

  energy without entropy =     -628.93647674  energy(sigma->0) =     -629.00252431


--------------------------------------------------------------------------------------------------------




--------------------------------------- Iteration      1(  13)  ---------------------------------------


    POTLOK:  cpu time    0.0234: real time    0.0269
    SETDIJ:  cpu time    0.0076: real time    0.0076
    EDDIAG:  cpu time    1.5762: real time    1.5768
  RMM-DIIS:  cpu time   20.0088: real time   20.0377
    ORTHCH:  cpu time    0.3552: real time    0.3553
       DOS:  cpu time    0.0010: real time    0.0010
    CHARGE:  cpu time    0.2384: real time    0.2386
    MIXING:  cpu time    0.0013: real time    0.0013
    --------------------------------------------
      LOOP:  cpu time   22.2118: real time   22.2452

 eigenvalue-minimisations  : 13354
 total energy-change (2. order) :-0.1615115E+00  (-0.2811820E+00)
 number of electron     476.9999916 magnetization 
 augmentation part      106.0078099 magnetization 

 Broyden mixing:
  rms(total) = 0.86855E+00    rms(broyden)= 0.86776E+00
  rms(prec ) = 0.14526E+01
  weight for this iteration     100.00

 eigenvalues of (default mixing * dielectric matrix)
  average eigenvalue GAMMA=   0.6272
  1.9441  0.9086  0.9086  0.6273  0.2392  0.1672  0.1173  0.1055

 Free energy of the ion-electron system (eV)
  ---------------------------------------------------
  alpha Z        PSCENC =      3917.75928210
[...]
 -0.033   0.055  -0.010  -0.019  -0.001   0.044   0.081   0.004  -0.009   0.014   0.574   0.017   0.050   0.006  -0.011  -1.149
 -0.013   0.022  -0.000   0.002  -0.008   0.001   0.000   0.034   0.005   0.002   0.017   0.383   0.006  -0.006  -0.001  -0.044
  0.065  -0.107  -0.014  -0.002   0.003   0.058   0.012  -0.009  -0.008  -0.018   0.050   0.006   0.516   0.001   0.010  -0.070
  0.003  -0.007   0.002  -0.000   0.008   0.006   0.002  -0.002  -0.584  -0.007   0.006  -0.006   0.001   0.960   0.025  -0.003
  0.009  -0.025  -0.002   0.007   0.000   0.004  -0.022  -0.000  -0.007  -0.679  -0.011  -0.001   0.010   0.025   1.113   0.001
  0.058  -0.116  -0.000   0.003   0.000  -0.062  -0.132  -0.008   0.006  -0.010  -1.149  -0.044  -0.070  -0.003   0.001   2.753
  0.035  -0.067  -0.000  -0.008  -0.004   0.001   0.049  -0.020  -0.006  -0.001  -0.044  -0.542  -0.010   0.004   0.001   0.142
 -0.089   0.192  -0.002   0.001  -0.005  -0.081  -0.017   0.041   0.001   0.009  -0.070  -0.011  -1.050   0.006   0.006   0.115


------------------------ aborting loop because EDIFF is reached ----------------------------------------


    CHARGE:  cpu time    0.2359: real time    0.2359
    FORLOC:  cpu time    0.0136: real time    0.0136
    FORNL :  cpu time   12.6636: real time   12.6931
    STRESS:  cpu time   23.5559: real time   23.6729
    FORCOR:  cpu time    0.0291: real time    0.0292
    FORHAR:  cpu time    0.0176: real time    0.0177
    MIXING:  cpu time    0.0008: real time    0.0008
    OFIELD:  cpu time    0.0000: real time    0.0000

  FORCE on cell =-STRESS in cart. coord.  units (eV):
  Direction    XX          YY          ZZ          XY          YZ          ZX
  --------------------------------------------------------------------------------------
  Alpha Z  3916.76566  3916.76566  3916.76566
  Ewald  -12067.21239-12112.64289-11629.54104   115.32532   129.60946    -5.96345
  Hartree  2622.23933  2653.69728  3139.89459   133.47846    82.35305   -31.50382
  E(xc)   -2167.32167 -2166.97805 -2167.97721     0.07596     0.27306    -0.06387
  Local    2024.27571  2033.80427  1070.96817  -247.79015  -212.56412    35.50040
  n-local -2089.83507 -2096.78896 -2089.14340     1.59424    -3.74744    -1.52548
  augment   867.42955   870.08220   867.60636    -0.41304     0.74493     0.74220
  Kinetic  6893.98563  6902.60871  6891.84344    -2.29958     3.35478     2.77995
  Fock        0.00000     0.00000     0.00000     0.00000     0.00000     0.00000
  -------------------------------------------------------------------------------------
  Total       0.32674     0.54822     0.41657    -0.02879     0.02373    -0.03407
  in kB       0.75242     1.26245     0.95928    -0.06630     0.05465    -0.07846
  external pressure =        0.99 kB  Pullay stress =        0.00 kB


 VOLUME and BASIS-vectors are now :
 -----------------------------------------------------------------------------
  energy-cutoff  :      400.00
  volume of cell :      695.74
      direct lattice vectors                 reciprocal lattice vectors
     8.833602921  0.022393929 -0.019364001     0.113204674 -0.000365811 -0.000157687
     0.028709204  8.880381812  0.009333236    -0.000285303  0.112608612  0.000077249
     0.012334564 -0.006052945  8.869110899     0.000247461 -0.000119300  0.112750448

  length of vectors
     8.833652529  8.880433123  8.869121541     0.113205375  0.112609000  0.112750782


 FORCES acting on ions
    electron-ion (+dipol)            ewald-force                    non-local-force                 convergence-correction
 -----------------------------------------------------------------------------------------------
   0.206E+02 0.932E+02 -.648E+02   -.207E+02 -.940E+02 0.656E+02   0.118E+00 0.852E+00 -.902E+00   -.456E-02 -.210E-02 0.352E-01
   0.247E+03 0.702E+02 -.126E+03   -.247E+03 -.703E+02 0.126E+03   -.447E+00 0.739E-01 0.982E-01   -.362E-01 0.192E-01 -.349E-01
   0.108E+03 -.377E+02 -.983E+02   -.107E+03 0.379E+02 0.978E+02   -.692E+00 -.185E+00 0.447E+00   -.441E-01 -.169E-01 -.279E-01
   -.132E+03 -.566E+02 0.604E+02   0.132E+03 0.554E+02 -.607E+02   0.606E+00 0.126E+01 0.293E+00   0.657E-02 -.214E-01 -.100E-01
   -.920E+02 -.337E+03 0.131E+03   0.910E+02 0.338E+03 -.130E+03   0.932E+00 -.112E+01 -.806E+00   0.187E-01 0.706E-01 0.348E-01
   0.168E+03 -.639E+02 -.758E+01   -.167E+03 0.634E+02 0.861E+01   -.945E+00 0.567E+00 -.102E+01   -.439E-02 -.209E-02 0.142E-02
   -.133E+03 0.336E+03 0.114E+03   0.132E+03 -.337E+03 -.114E+03   0.132E+01 0.829E+00 0.211E+00   0.126E-01 -.777E-01 0.341E-01
   0.668E+02 -.506E+02 -.126E+03   -.670E+02 0.500E+02 0.126E+03   0.216E+00 0.571E+00 -.251E+00   -.238E-02 0.251E-01 -.201E-01
   -.133E+03 0.196E+03 -.500E+02   0.133E+03 -.197E+03 0.507E+02   0.880E-01 0.595E+00 -.641E+00   0.365E-01 -.390E-01 0.523E-02
   0.328E+02 -.103E+03 0.149E+03   -.326E+02 0.103E+03 -.150E+03   -.146E+00 0.411E+00 0.697E+00   -.889E-02 0.531E-01 0.210E-01
   -.140E+03 -.169E+03 -.247E+02   0.141E+03 0.168E+03 0.246E+02   -.600E+00 0.949E+00 0.850E-01   0.239E-01 0.381E-01 -.144E-01
   0.833E+02 0.865E+02 0.135E+03   -.823E+02 -.861E+02 -.135E+03   -.104E+01 -.329E+00 0.178E+00   -.425E-02 -.566E-01 0.225E-01
   0.252E+02 -.195E+02 0.101E+03   -.250E+02 0.194E+02 -.101E+03   -.153E+00 0.802E-01 -.262E+00   -.285E-01 -.172E-02 0.238E-01
   0.155E+03 -.187E+03 0.375E+01   -.154E+03 0.188E+03 -.529E+01   -.111E+01 -.145E+01 0.151E+01   -.171E-01 0.480E-01 0.312E-01
   -.760E+02 -.241E+03 -.144E+03   0.763E+02 0.241E+03 0.144E+03   -.261E+00 0.270E+00 0.149E+00   0.479E-02 0.219E-01 -.356E-01
   -.278E+03 0.142E+03 -.145E+03   0.276E+03 -.143E+03 0.146E+03   0.153E+01 0.922E+00 -.135E+01   0.350E-01 0.170E-01 -.349E-01
   -.157E+03 -.262E+03 -.550E+01   0.156E+03 0.263E+03 0.554E+01   0.102E+01 -.105E+01 -.521E-01   0.167E-01 0.420E-01 0.180E-01
   0.153E+03 0.116E+03 -.153E+02   -.153E+03 -.117E+03 0.142E+02   -.471E+00 0.106E+01 0.112E+01   -.466E-01 -.491E-01 0.130E-01
   0.170E+03 -.153E+03 0.167E+00   -.170E+03 0.154E+03 0.135E+01   0.430E+00 -.830E+00 -.149E+01   -.342E-01 0.551E-01 -.270E-01
   0.199E+03 0.138E+03 -.170E+02   -.199E+03 -.138E+03 0.180E+02   0.188E-01 0.595E+00 -.972E+00   -.561E-01 -.522E-01 -.109E-01
   0.808E+02 -.408E+02 -.460E+02   -.803E+02 0.411E+02 0.464E+02   -.525E+00 -.305E+00 -.351E+00   -.755E-02 0.103E-01 -.112E-01
   0.104E+03 0.387E+02 -.401E+02   -.105E+03 -.400E+02 0.407E+02   0.743E+00 0.130E+01 -.632E+00   0.168E-02 0.430E-02 0.384E-01
   0.133E+02 -.601E+02 -.769E+01   -.128E+02 0.622E+02 0.793E+01   -.577E+00 -.209E+01 -.240E+00   -.246E-02 0.335E-01 0.514E-02
   -.948E+02 -.115E+03 -.779E+02   0.946E+02 0.114E+03 0.770E+02   0.269E+00 0.109E+01 0.932E+00   0.694E-02 0.105E-01 -.108E-01
   -.116E+03 0.550E+02 -.635E+02   0.118E+03 -.541E+02 0.664E+02   -.141E+01 -.865E+00 -.296E+01   -.543E-02 0.805E-02 0.291E-01
   -.830E+01 0.634E+02 -.776E+02   0.912E+01 -.656E+02 0.794E+02   -.821E+00 0.222E+01 -.172E+01   0.471E-02 0.210E-01 -.377E-01
   0.107E+03 -.645E+02 -.326E+02   -.107E+03 0.641E+02 0.312E+02   -.257E+00 0.371E+00 0.148E+01   -.150E-02 0.200E-02 -.272E-01
   -.635E+02 0.719E+02 -.303E+00   0.628E+02 -.705E+02 0.977E+00   0.716E+00 -.139E+01 -.663E+00   0.183E-02 -.118E-02 -.111E-01
   -.328E+02 0.147E+02 0.128E+03   0.335E+02 -.141E+02 -.129E+03   -.738E+00 -.622E+00 0.127E+01   0.613E-02 0.275E-02 0.160E-02
   -.673E+02 -.129E+03 0.946E+02   0.678E+02 0.129E+03 -.948E+02   -.531E+00 0.218E+00 0.191E+00   0.105E-01 0.345E-01 0.102E-01
   -.123E+03 0.768E+02 -.665E+02   0.122E+03 -.765E+02 0.697E+02   0.688E+00 -.266E+00 -.317E+01   0.284E-01 0.565E-02 -.185E-01
   -.643E+02 -.144E+03 -.149E+02   0.634E+02 0.144E+03 0.142E+02   0.859E+00 0.536E+00 0.656E+00   0.488E-02 0.370E-01 -.106E-01
   -.741E+02 0.848E+01 0.243E+02   0.762E+02 -.830E+01 -.247E+02   -.211E+01 -.186E+00 0.373E+00   0.205E-01 0.682E-02 0.350E-01
   0.194E+02 0.453E+02 -.744E+02   -.198E+02 -.440E+02 0.731E+02   0.449E+00 -.134E+01 0.138E+01   -.513E-03 -.117E-02 -.270E-02
   -.100E+02 -.105E+03 0.134E+02   0.986E+01 0.106E+03 -.133E+02   0.161E+00 -.116E+01 -.980E-01   0.220E-02 -.573E-03 0.704E-02
   0.116E+03 0.174E+02 -.196E+02   -.115E+03 -.174E+02 0.195E+02   -.801E+00 -.654E-01 0.126E+00   -.314E-01 -.705E-02 -.938E-02
   0.126E+02 0.442E+01 0.135E+02   -.121E+02 -.456E+01 -.134E+02   -.451E+00 0.145E+00 -.140E+00   -.285E-01 -.171E-02 -.821E-03
   0.508E+02 -.806E+01 -.490E+02   -.508E+02 0.847E+01 0.484E+02   -.465E-01 -.377E+00 0.651E+00   -.163E-02 -.360E-01 0.366E-02
   -.939E+02 0.941E+02 -.569E+02   0.934E+02 -.923E+02 0.554E+02   0.491E+00 -.178E+01 0.153E+01   0.245E-01 -.765E-02 -.991E-02
   0.874E+00 -.329E+02 -.138E+02   -.791E+00 0.323E+02 0.144E+02   -.112E+00 0.692E+00 -.600E+00   0.294E-01 -.977E-03 -.446E-02
   -.800E+02 0.170E+02 -.665E+02   0.784E+02 -.182E+02 0.652E+02   0.154E+01 0.122E+01 0.135E+01   0.307E-02 -.228E-01 -.400E-02
   0.705E+02 -.807E+02 0.390E+02   -.708E+02 0.815E+02 -.393E+02   0.286E+00 -.858E+00 0.248E+00   -.111E-01 0.357E-01 0.859E-02
   0.158E+03 0.927E+01 0.145E+02   -.158E+03 -.946E+01 -.145E+02   0.729E-01 0.191E+00 0.374E-02   -.362E-01 0.272E-02 -.240E-01
   0.504E+02 0.105E+02 -.112E+01   -.503E+02 -.915E+01 0.122E+01   -.178E+00 -.137E+01 -.103E+00   -.222E-02 0.876E-02 -.481E-02
   0.687E+02 0.662E+02 0.407E+02   -.691E+02 -.667E+02 -.407E+02   0.353E+00 0.562E+00 0.122E-01   -.142E-01 -.345E-01 0.843E-02
   -.166E+02 -.272E+01 -.231E+02   0.155E+02 0.268E+01 0.230E+02   0.111E+01 0.369E-01 0.729E-01   -.678E-02 -.271E-02 0.356E-03
   0.899E+02 -.998E+01 0.300E+02   -.891E+02 0.894E+01 -.286E+02   -.755E+00 0.105E+01 -.133E+01   0.765E-03 -.865E-02 -.676E-02
   0.564E+02 -.573E+00 0.859E+02   -.549E+02 0.357E+00 -.870E+02   -.142E+01 0.214E+00 0.105E+01   -.419E-02 0.128E-02 0.303E-01
   -.583E+02 0.124E+03 0.840E+02   0.584E+02 -.123E+03 -.839E+02   -.191E+00 -.110E+01 -.102E+00   0.121E-01 -.345E-01 0.795E-02
   0.979E+01 -.258E+02 -.110E+02   -.847E+01 0.241E+02 0.115E+02   -.132E+01 0.172E+01 -.454E+00   0.607E-02 -.462E-02 0.328E-02
   -.104E+03 0.109E+03 -.296E+02   0.103E+03 -.107E+03 0.296E+02   0.751E+00 -.185E+01 0.266E-01   0.321E-02 -.311E-01 0.100E-01
   -.612E+02 -.909E+01 0.741E+02   0.598E+02 0.893E+01 -.728E+02   0.139E+01 0.155E+00 -.139E+01   0.519E-02 -.298E-02 0.370E-02
   -.193E+02 0.105E+03 -.253E+02   0.197E+02 -.103E+03 0.280E+02   -.427E+00 -.153E+01 -.275E+01   0.776E-02 0.243E-01 0.431E-01
   0.127E+03 0.334E+01 -.513E+02   -.127E+03 -.115E+01 0.502E+02   -.600E+00 -.218E+01 0.106E+01   -.721E-02 -.540E-02 0.646E-02
   -.196E+03 0.108E+03 -.784E+02   0.194E+03 -.109E+03 0.788E+02   0.230E+01 0.111E+01 -.286E+00   -.360E-02 -.306E-01 -.302E-01
   0.335E+03 0.441E+02 0.123E+03   -.334E+03 -.439E+02 -.123E+03   -.810E+00 -.160E+00 -.834E+00   -.265E-01 0.828E-02 0.524E-01
   -.167E+03 0.364E+02 0.143E+03   0.165E+03 -.385E+02 -.142E+03   0.230E+01 0.203E+01 -.117E+01   0.800E-02 0.146E-01 -.402E-01
   -.246E+03 0.735E+02 0.260E+03   0.247E+03 -.756E+02 -.259E+03   -.706E+00 0.214E+01 -.110E+01   0.222E-01 0.277E-02 0.393E-01
   0.104E+03 0.333E+02 -.507E+02   -.103E+03 -.324E+02 0.507E+02   -.136E+01 -.951E+00 -.189E-01   -.321E-02 -.144E-01 -.136E-01
   -.725E+02 -.286E+02 -.607E+02   0.719E+02 0.300E+02 0.602E+02   0.606E+00 -.134E+01 0.465E+00   0.212E-01 -.111E-01 -.129E-01
   0.874E+02 0.319E+02 -.920E+01   -.862E+02 -.315E+02 0.848E+01   -.123E+01 -.400E+00 0.732E+00   -.680E-02 0.969E-03 -.166E-01
   -.846E+02 0.257E+02 -.504E+02   0.838E+02 -.246E+02 0.504E+02   0.797E+00 -.110E+01 -.427E-01   0.371E-02 -.158E-01 0.755E-02
   -.987E+01 0.230E+01 0.836E+02   0.982E+01 -.829E+00 -.832E+02   0.429E-01 -.147E+01 -.414E+00   0.178E-01 -.670E-02 0.152E-01
   -.856E+02 0.726E+02 -.142E+02   0.855E+02 -.725E+02 0.139E+02   0.104E+00 -.788E-01 0.373E+00   0.229E-01 -.224E-01 -.238E-02
 -----------------------------------------------------------------------------------------------
   0.100E+01 0.373E+01 0.949E+01   0.824E-12 0.256E-12 -.163E-12   -.949E+00 -.377E+01 -.956E+01   -.576E-01 0.425E-01 0.815E-01
 
 
 POSITION                                       TOTAL-FORCE (eV/Angst)
 -----------------------------------------------------------------------------------
      8.85425      8.83487      0.00830        -0.000150     -0.001917     -0.000326
      2.33160      0.00677      2.15504        -0.000097     -0.002600     -0.000056
      2.20093      4.40862      2.20259         0.001626      0.001645     -0.000812
      4.45179      4.41999      0.00996         0.000154      0.001498      0.000251
      4.49019      2.19873      6.61455        -0.003057     -0.001214     -0.001178
      8.82851      4.46036      4.44948         0.000594     -0.001941      0.000019
      4.43516      6.73573      6.60924        -0.001408      0.002310     -0.001785
      8.80442      2.24251      2.14201        -0.002561      0.001460      0.001740
      6.58565      6.69067      0.07191        -0.001233      0.004647     -0.000177
      8.81823      2.13952      6.67077         0.003471      0.005148     -0.001615
      6.60823      2.10077      4.41742         0.001948      0.007439      0.001425
      8.85456      6.80869      6.58356         0.001769     -0.002567      0.001065
      2.24905      4.43748      6.64859        -0.000193     -0.000720     -0.000634
      2.30019      2.15754      8.79774         0.000589      0.000390     -0.001424
      4.47915      2.22866      2.19836        -0.000971      0.000410      0.001527
      6.54664      8.76511      2.29755        -0.000809      0.001564      0.000542
      6.58154      2.20164     -0.00883        -0.001028     -0.001343      0.000867
      2.27390      6.64420      8.84286         0.002101      0.001119     -0.000517
      2.25280      2.16200      4.49194         0.001220      0.000745      0.000345
      2.23916      6.69155      4.43321         0.001913     -0.000131     -0.000811
      2.25612      2.20257      2.19571        -0.001392     -0.000117      0.000223
      2.36997      8.87963      8.81547        -0.001090     -0.001160      0.001279
      8.84440      2.22254      8.83636        -0.000304      0.002949      0.000825
      6.59669      2.17228      2.18371        -0.000464     -0.000177     -0.001353
      6.52820      0.04459      0.01480         0.000639     -0.000009      0.000062
      4.52296      0.10198      2.10248        -0.000403      0.001247      0.001197
      8.79747      4.45998      2.15284        -0.000197     -0.000502     -0.002265
      4.39173      6.75177      0.07102        -0.001551      0.001099     -0.000461
      8.58289      0.03678      6.60827        -0.001101     -0.003230     -0.000910
      6.66923      2.14911      6.67162         0.001768      0.005030      0.001588
      6.66048      8.86815      4.30720         0.000910     -0.002195      0.002733
      4.42463      2.17445      4.34847        -0.000434      0.000451     -0.000889
      4.48261      0.01897      6.42671         0.000332     -0.000134      0.002433
      8.84461      8.88744      2.23259        -0.002233     -0.000288     -0.000133
      4.45141      2.17525      0.04084         0.000139     -0.001115      0.001816
      2.29491      6.64796      2.21791         0.003871     -0.000356     -0.000243
      2.13437      4.44131      8.84649        -0.000859      0.000411      0.000794
      0.05291      6.56270      0.02467         0.000026     -0.000666     -0.000299
      6.57768      6.67507      2.25866        -0.002115      0.000028      0.000990
      6.77167      4.41946      0.03145         0.000185     -0.002360      0.001830
      4.44209      4.44567      2.26021        -0.000583      0.001989      0.000629
      2.24257      2.13797      6.65049         0.001623     -0.001285     -0.000606
      2.27975      8.87515      4.55258         0.002834     -0.000396      0.003426
      0.04801      2.16802      4.42810        -0.000892      0.000794      0.000993
      2.23325      6.77886      6.68166         0.000807      0.000710     -0.000482
      2.28561      4.44026      4.43934        -0.000654      0.000499     -0.001470
      8.85686      6.75292      4.38330        -0.000935     -0.002458      0.001036
      8.82744      4.48333      6.74062         0.001558     -0.000996      0.001801
      6.64465      6.76262      6.62658         0.002138      0.000604     -0.000649
      6.60027      4.43392      4.47321         0.000753     -0.002015     -0.001248
      4.41530      6.81565      4.28822        -0.000592      0.002405     -0.001886
      4.49092      4.46944      6.59705         0.000791     -0.000556     -0.001723
      4.48841      0.18189      0.00997        -0.001746     -0.003864      0.002321
      8.84680      4.62870      8.66616        -0.001497     -0.000687     -0.001060
      4.26508      6.46005      2.31021        -0.003054      0.001252     -0.002039
      2.55803      0.05418      6.80047         0.004267     -0.000589     -0.003049
      4.19264      8.80521      4.52583        -0.005069     -0.000517     -0.003401
      6.46673      8.73331      6.90922        -0.001704      0.004806     -0.001287
      0.17370      6.72217      2.29284        -0.002027     -0.003731     -0.000430
      6.53426      4.55385      2.30172         0.000245     -0.003673     -0.002158
      0.20230      0.00190      4.31564        -0.001898      0.000817      0.000486
      4.49625      4.64311      4.37553         0.000328     -0.005928     -0.002915
      6.66491      4.64605      6.68989         0.003006     -0.005369      0.004236
      6.60172      6.57515      4.33253         0.002693      0.003340      0.001815
 -----------------------------------------------------------------------------------
    total drift:                               -0.003702      0.005473      0.006562


--------------------------------------------------------------------------------------------------------



  FREE ENERGIE OF THE ION-ELECTRON SYSTEM (eV)
  ---------------------------------------------------
  free  energy   TOTEN  =      -628.93199556 eV

  energy  without entropy=     -628.78866472  energy(sigma->0) =     -628.86033014
 
 d Force = 0.8489502E-06[ 0.308E-06, 0.139E-05]  d Energy = 0.6158691E-05-0.531E-05
 d Force = 0.6538646E-02[ 0.654E-02, 0.654E-02]  d Ewald  = 0.4969178E-01-0.432E-01


--------------------------------------------------------------------------------------------------------


    POTLOK:  cpu time    0.0328: real time    0.0328


--------------------------------------------------------------------------------------------------------




--------------------------------------------------------------------------------------------------------


  
 reached required accuracy - stopping structural energy minimisation
     LOOP+:  cpu time   66.9660: real time   67.1484
    4ORBIT:  cpu time    0.0000: real time    0.0000

 total amount of memory used by VASP MPI-rank0   268904. kBytes
=======================================================================

   base      :      30000. kBytes
   nonl-proj :     191803. kBytes
   fftplans  :       1726. kBytes
   grid      :       8060. kBytes
   one-center:        995. kBytes
   wavefun   :      36320. kBytes
 
  
  
 General timing and accounting informations for this job:
 ========================================================
  
                  Total CPU time used (sec):     3575.355
                            User time (sec):     3557.726
                          System time (sec):       17.629
                         Elapsed time (sec):     3584.615
  
                   Maximum memory used (kb):      366356.
                   Average memory used (kb):           0.
  
                          Minor page faults:       906592
                          Major page faults:            0
                 Voluntary context switches:         3283
