  64  64   0   0
  0.2218804E+02  0.1124000E-08  0.1124000E-08  0.1124000E-08  0.5000000E-15
  1.000000000000000E-004
  CAR 
 HECN                                    
     15.80186820    -59.76534299  301      8.52285029      1.00000000
    -59.765  0.0000E+00  0.0000E+00
    -59.513  0.0000E+00  0.0000E+00
    -59.262  0.0000E+00  0.0000E+00
    -59.010  0.0000E+00  0.0000E+00
    -58.758  0.0000E+00  0.0000E+00
    -58.506  0.0000E+00  0.0000E+00
    -58.254  0.0000E+00  0.0000E+00
    -58.002  0.0000E+00  0.0000E+00
    -57.750  0.0000E+00  0.0000E+00
    -57.498  0.0000E+00  0.0000E+00
    -57.246  0.0000E+00  0.0000E+00
    -56.995  0.0000E+00  0.0000E+00
    -56.743  0.3329E-09  0.8385E-10
    -56.491  0.2245E-02  0.5656E-03
    -56.239  0.3712E+00  0.9407E-01
    -55.987  0.1029E+00  0.1200E+00
    -55.735  0.8129E-05  0.1200E+00
    -55.483  0.8057E-14  0.1200E+00
    -55.231  0.0000E+00  0.1200E+00
    -54.979  0.0000E+00  0.1200E+00
    -54.728  0.0000E+00  0.1200E+00
    -54.476  0.0000E+00  0.1200E+00
    -54.224  0.0000E+00  0.1200E+00
    -53.972  0.0000E+00  0.1200E+00
    -53.720  0.0000E+00  0.1200E+00
    -53.468  0.0000E+00  0.1200E+00
    -53.216  0.0000E+00  0.1200E+00
    -52.964  0.0000E+00  0.1200E+00
    -52.712  0.0000E+00  0.1200E+00
    -52.461  0.0000E+00  0.1200E+00
    -52.209  0.0000E+00  0.1200E+00
    -51.957  0.0000E+00  0.1200E+00
    -51.705  0.0000E+00  0.1200E+00
    -51.453  0.0000E+00  0.1200E+00
    -51.201  0.0000E+00  0.1200E+00
    -50.949  0.0000E+00  0.1200E+00
    -50.697  0.0000E+00  0.1200E+00
    -50.445  0.0000E+00  0.1200E+00
    -50.193  0.0000E+00  0.1200E+00
    -49.942  0.0000E+00  0.1200E+00
    -49.690  0.0000E+00  0.1200E+00
    -49.438  0.0000E+00  0.1200E+00
    -49.186  0.0000E+00  0.1200E+00
    -48.934  0.0000E+00  0.1200E+00
    -48.682  0.0000E+00  0.1200E+00
    -48.430  0.0000E+00  0.1200E+00
    -48.178  0.1928E-14  0.1200E+00
    -47.926  0.3317E-05  0.1200E+00
    -47.675  0.4466E-01  0.1312E+00
    -47.423  0.1865E+00  0.1782E+00
    -47.171  0.1809E+00  0.2238E+00
    -46.919  0.6425E-01  0.2400E+00
    -46.667  0.1018E-03  0.2400E+00
    -46.415  0.1891E-11  0.2400E+00
    -46.163  0.0000E+00  0.2400E+00
    -45.911  0.0000E+00  0.2400E+00
    -45.659  0.0000E+00  0.2400E+00
    -45.408  0.0000E+00  0.2400E+00
    -45.156  0.0000E+00  0.2400E+00
    -44.904  0.0000E+00  0.2400E+00
    -44.652  0.0000E+00  0.2400E+00
    -44.400  0.0000E+00  0.2400E+00
    -44.148  0.0000E+00  0.2400E+00
    -43.896  0.0000E+00  0.2400E+00
    -43.644  0.0000E+00  0.2400E+00
    -43.392  0.0000E+00  0.2400E+00
    -43.141  0.0000E+00  0.2400E+00
    -42.889  0.0000E+00  0.2400E+00
    -42.637  0.0000E+00  0.2400E+00
    -42.385  0.0000E+00  0.2400E+00
    -42.133  0.0000E+00  0.2400E+00
    -41.881  0.0000E+00  0.2400E+00
    -41.629  0.0000E+00  0.2400E+00
    -41.377  0.4408E-17  0.2400E+00
    -41.125  0.7802E-07  0.2400E+00
    -40.874  0.9218E-02  0.2423E+00
    -40.622  0.7064E-01  0.2601E+00
    -40.370  0.8897E-01  0.2825E+00
    -40.118  0.2849E+00  0.3543E+00
    -39.866  0.1019E+00  0.3800E+00
    -39.614  0.1063E-03  0.3800E+00
    -39.362  0.1516E-11  0.3800E+00
    -39.110  0.0000E+00  0.3800E+00
    -38.858  0.0000E+00  0.3800E+00
    -38.607  0.0000E+00  0.3800E+00
    -38.355  0.0000E+00  0.3800E+00
    -38.103  0.0000E+00  0.3800E+00
    -37.851  0.0000E+00  0.3800E+00
    -37.599  0.0000E+00  0.3800E+00
    -37.347  0.0000E+00  0.3800E+00
    -37.095  0.0000E+00  0.3800E+00
    -36.843  0.0000E+00  0.3800E+00
    -36.591  0.0000E+00  0.3800E+00
    -36.340  0.0000E+00  0.3800E+00
    -36.088  0.0000E+00  0.3800E+00
    -35.836  0.0000E+00  0.3800E+00
    -35.584  0.0000E+00  0.3800E+00
    -35.332  0.0000E+00  0.3800E+00
    -35.080  0.0000E+00  0.3800E+00
    -34.828  0.0000E+00  0.3800E+00
    -34.576  0.0000E+00  0.3800E+00
    -34.324  0.0000E+00  0.3800E+00
    -34.072  0.0000E+00  0.3800E+00
    -33.821  0.0000E+00  0.3800E+00
    -33.569  0.0000E+00  0.3800E+00
    -33.317  0.0000E+00  0.3800E+00
    -33.065  0.0000E+00  0.3800E+00
    -32.813  0.0000E+00  0.3800E+00
    -32.561  0.0000E+00  0.3800E+00
    -32.309  0.0000E+00  0.3800E+00
    -32.057  0.0000E+00  0.3800E+00
    -31.805  0.0000E+00  0.3800E+00
    -31.554  0.7042E-10  0.3800E+00
    -31.302  0.5652E-03  0.3801E+00
    -31.050  0.1187E+00  0.4100E+00
    -30.798  0.5955E+00  0.5600E+00
    -30.546  0.6049E+00  0.7124E+00
    -30.294  0.5331E+00  0.8467E+00
    -30.042  0.9791E+00  0.1093E+01
    -29.790  0.2662E-01  0.1100E+01
    -29.538  0.1886E-06  0.1100E+01
    -29.287  0.0000E+00  0.1100E+01
    -29.035  0.0000E+00  0.1100E+01
    -28.783  0.0000E+00  0.1100E+01
    -28.531  0.0000E+00  0.1100E+01
    -28.279  0.0000E+00  0.1100E+01
    -28.027  0.0000E+00  0.1100E+01
    -27.775  0.0000E+00  0.1100E+01
    -27.523  0.0000E+00  0.1100E+01
    -27.271  0.0000E+00  0.1100E+01
    -27.020  0.0000E+00  0.1100E+01
    -26.768  0.0000E+00  0.1100E+01
    -26.516  0.0000E+00  0.1100E+01
    -26.264  0.0000E+00  0.1100E+01
    -26.012  0.0000E+00  0.1100E+01
    -25.760  0.0000E+00  0.1100E+01
    -25.508  0.0000E+00  0.1100E+01
    -25.256  0.0000E+00  0.1100E+01
    -25.004  0.0000E+00  0.1100E+01
    -24.753  0.0000E+00  0.1100E+01
    -24.501  0.0000E+00  0.1100E+01
    -24.249  0.2787E-07  0.1100E+01
    -23.997  0.8002E-02  0.1102E+01
    -23.745  0.3484E+00  0.1190E+01
    -23.493  0.5187E+00  0.1320E+01
    -23.241  0.4507E+00  0.1434E+01
    -22.989  0.1037E+00  0.1460E+01
    -22.737  0.8948E-01  0.1483E+01
    -22.486  0.4139E+00  0.1587E+01
    -22.234  0.3823E+00  0.1683E+01
    -21.982  0.4448E+00  0.1795E+01
    -21.730  0.1148E+00  0.1824E+01
    -21.478  0.2168E+00  0.1879E+01
    -21.226  0.5013E-02  0.1880E+01
    -20.974  0.3490E-08  0.1880E+01
    -20.722  0.0000E+00  0.1880E+01
    -20.470  0.0000E+00  0.1880E+01
    -20.219  0.0000E+00  0.1880E+01
    -19.967  0.0000E+00  0.1880E+01
    -19.715  0.0000E+00  0.1880E+01
    -19.463  0.5181E-07  0.1880E+01
    -19.211  0.1269E-01  0.1883E+01
    -18.959  0.2218E+00  0.1939E+01
    -18.707  0.3300E+00  0.2022E+01
    -18.455  0.6942E+00  0.2197E+01
    -18.203  0.3495E+00  0.2285E+01
    -17.951  0.5912E-01  0.2300E+01
    -17.700  0.8800E-04  0.2300E+01
    -17.448  0.1409E-11  0.2300E+01
    -17.196  0.0000E+00  0.2300E+01
    -16.944  0.0000E+00  0.2300E+01
    -16.692  0.0000E+00  0.2300E+01
    -16.440  0.0000E+00  0.2300E+01
    -16.188  0.0000E+00  0.2300E+01
    -15.936  0.0000E+00  0.2300E+01
    -15.684  0.0000E+00  0.2300E+01
    -15.433  0.0000E+00  0.2300E+01
    -15.181  0.0000E+00  0.2300E+01
    -14.929  0.0000E+00  0.2300E+01
    -14.677  0.0000E+00  0.2300E+01
    -14.425  0.0000E+00  0.2300E+01
    -14.173  0.0000E+00  0.2300E+01
    -13.921  0.0000E+00  0.2300E+01
    -13.669  0.0000E+00  0.2300E+01
    -13.417  0.0000E+00  0.2300E+01
    -13.166  0.0000E+00  0.2300E+01
    -12.914  0.0000E+00  0.2300E+01
    -12.662  0.0000E+00  0.2300E+01
    -12.410  0.0000E+00  0.2300E+01
    -12.158  0.0000E+00  0.2300E+01
    -11.906  0.0000E+00  0.2300E+01
    -11.654  0.0000E+00  0.2300E+01
    -11.402  0.0000E+00  0.2300E+01
    -11.150  0.0000E+00  0.2300E+01
    -10.899  0.0000E+00  0.2300E+01
    -10.647  0.0000E+00  0.2300E+01
    -10.395  0.0000E+00  0.2300E+01
    -10.143  0.0000E+00  0.2300E+01
     -9.891  0.0000E+00  0.2300E+01
     -9.639  0.0000E+00  0.2300E+01
     -9.387  0.0000E+00  0.2300E+01
     -9.135  0.0000E+00  0.2300E+01
     -8.883  0.0000E+00  0.2300E+01
     -8.632  0.0000E+00  0.2300E+01
     -8.380  0.0000E+00  0.2300E+01
     -8.128  0.7856E-10  0.2300E+01
     -7.876  0.1459E-03  0.2300E+01
     -7.624  0.2243E-01  0.2306E+01
     -7.372  0.5647E-01  0.2320E+01
     -7.120  0.7641E-01  0.2339E+01
     -6.868  0.1725E+00  0.2383E+01
     -6.616  0.2208E+00  0.2438E+01
     -6.365  0.2885E+00  0.2511E+01
     -6.113  0.1195E+00  0.2541E+01
     -5.861  0.7535E-01  0.2560E+01
     -5.609  0.7606E-04  0.2560E+01
     -5.357  0.1958E-11  0.2560E+01
     -5.105  0.0000E+00  0.2560E+01
     -4.853  0.0000E+00  0.2560E+01
     -4.601  0.1099E-08  0.2560E+01
     -4.349  0.6500E-03  0.2560E+01
     -4.097  0.5204E-01  0.2573E+01
     -3.846  0.2881E-01  0.2581E+01
     -3.594  0.8147E-01  0.2601E+01
     -3.342  0.1097E+00  0.2629E+01
     -3.090  0.1279E+00  0.2661E+01
     -2.838  0.2285E+00  0.2718E+01
     -2.586  0.2162E+00  0.2773E+01
     -2.334  0.2446E+00  0.2835E+01
     -2.082  0.2197E+00  0.2890E+01
     -1.830  0.1117E+00  0.2918E+01
     -1.579  0.7893E-01  0.2938E+01
     -1.327  0.8327E-02  0.2940E+01
     -1.075  0.1626E-04  0.2940E+01
     -0.823  0.1238E-11  0.2940E+01
     -0.571  0.0000E+00  0.2940E+01
     -0.319  0.0000E+00  0.2940E+01
     -0.067  0.8233E-14  0.2940E+01
      0.185  0.1378E-05  0.2940E+01
      0.437  0.2714E-02  0.2941E+01
      0.688  0.1257E-01  0.2944E+01
      0.940  0.5787E-01  0.2958E+01
      1.192  0.8626E-01  0.2980E+01
      1.444  0.1288E+00  0.3013E+01
      1.696  0.1782E+00  0.3058E+01
      1.948  0.2612E+00  0.3123E+01
      2.200  0.2821E+00  0.3194E+01
      2.452  0.2709E+00  0.3263E+01
      2.704  0.3272E+00  0.3345E+01
      2.955  0.3491E+00  0.3433E+01
      3.207  0.4426E+00  0.3544E+01
      3.459  0.5089E+00  0.3673E+01
      3.711  0.5607E+00  0.3814E+01
      3.963  0.6281E+00  0.3972E+01
      4.215  0.5625E+00  0.4114E+01
      4.467  0.5612E+00  0.4255E+01
      4.719  0.5280E+00  0.4388E+01
      4.971  0.4939E+00  0.4513E+01
      5.222  0.4267E+00  0.4620E+01
      5.474  0.3091E+00  0.4698E+01
      5.726  0.2586E+00  0.4763E+01
      5.978  0.1738E+00  0.4807E+01
      6.230  0.1641E+00  0.4848E+01
      6.482  0.7906E-01  0.4868E+01
      6.734  0.1105E+00  0.4896E+01
      6.986  0.1784E+00  0.4941E+01
      7.238  0.1510E+00  0.4979E+01
      7.489  0.1419E+00  0.5015E+01
      7.741  0.1824E+00  0.5061E+01
      7.993  0.1849E+00  0.5107E+01
      8.245  0.2233E+00  0.5163E+01
      8.497  0.2407E+00  0.5224E+01
      8.749  0.2575E+00  0.5289E+01
      9.001  0.3210E+00  0.5370E+01
      9.253  0.3762E+00  0.5464E+01
      9.505  0.4110E+00  0.5568E+01
      9.756  0.4597E+00  0.5684E+01
     10.008  0.4694E+00  0.5802E+01
     10.260  0.4498E+00  0.5915E+01
     10.512  0.4271E+00  0.6023E+01
     10.764  0.4186E+00  0.6128E+01
     11.016  0.4163E+00  0.6233E+01
     11.268  0.4108E+00  0.6337E+01
     11.520  0.3976E+00  0.6437E+01
     11.772  0.4121E+00  0.6541E+01
     12.024  0.3941E+00  0.6640E+01
     12.275  0.2662E+00  0.6707E+01
     12.527  0.5156E-01  0.6720E+01
     12.779  0.1677E-03  0.6720E+01
     13.031  0.2582E-10  0.6720E+01
     13.283  0.0000E+00  0.6720E+01
     13.535  0.0000E+00  0.6720E+01
     13.787  0.0000E+00  0.6720E+01
     14.039  0.0000E+00  0.6720E+01
     14.291  0.0000E+00  0.6720E+01
     14.542  0.0000E+00  0.6720E+01
     14.794  0.0000E+00  0.6720E+01
     15.046  0.0000E+00  0.6720E+01
     15.298  0.0000E+00  0.6720E+01
     15.550  0.0000E+00  0.6720E+01
     15.802  0.0000E+00  0.6720E+01
