       N       E                     dE             d eps       ncg     rms          rms(c)
DAV:   1     0.421115963792E+04    0.42112E+04   -0.23491E+05  9792   0.123E+03
DAV:   2     0.375315693322E+02   -0.41736E+04   -0.39962E+04 10152   0.474E+02
DAV:   3    -0.580483672605E+03   -0.61802E+03   -0.59542E+03 15360   0.139E+02
DAV:   4    -0.632733111314E+03   -0.52249E+02   -0.50611E+02 15048   0.431E+01
DAV:   5    -0.641299645285E+03   -0.85665E+01   -0.83680E+01 18408   0.144E+01    0.715E+01
RMM:   6    -0.845602455201E+03   -0.20430E+03   -0.29538E+03 12330   0.697E+01    0.137E+02
RMM:   7    -0.517277628229E+03    0.32832E+03   -0.26657E+02 13691   0.284E+01    0.478E+01
RMM:   8    -0.489832877317E+03    0.27445E+02   -0.59205E+01 13325   0.124E+01    0.344E+01
RMM:   9    -0.486814278156E+03    0.30186E+01   -0.22794E+01 13878   0.612E+00    0.360E+01
RMM:  10    -0.483670694257E+03    0.31436E+01   -0.10228E+01 13943   0.348E+00    0.208E+01
RMM:  11    -0.484846466043E+03   -0.11758E+01   -0.96292E+00 13660   0.428E+00    0.324E+01
RMM:  12    -0.485169714121E+03   -0.32325E+00   -0.77501E+00 13836   0.387E+00    0.362E+01
RMM:  13    -0.486315623583E+03   -0.11459E+01   -0.69317E+00 13496   0.362E+00    0.405E+01
RMM:  14    -0.481828399042E+03    0.44872E+01   -0.45753E+00 13408   0.304E+00    0.262E+01
RMM:  15    -0.481741000336E+03    0.87399E-01   -0.20405E+00 13507   0.187E+00    0.270E+01
RMM:  16    -0.480308603920E+03    0.14324E+01   -0.17255E+00 13336   0.144E+00    0.106E+01
RMM:  17    -0.480490828529E+03   -0.18222E+00   -0.89926E-01 13838   0.120E+00    0.148E+01
RMM:  18    -0.480074670543E+03    0.41616E+00   -0.88849E-01 13632   0.103E+00    0.901E+00
RMM:  19    -0.479858060115E+03    0.21661E+00   -0.67912E-01 13843   0.981E-01    0.498E+00
RMM:  20    -0.479858383523E+03   -0.32341E-03   -0.48643E-01 13756   0.676E-01    0.453E+00
RMM:  21    -0.479809423167E+03    0.48960E-01   -0.25977E-01 13723   0.585E-01    0.181E+00
RMM:  22    -0.479830519325E+03   -0.21096E-01   -0.15178E-01 13965   0.421E-01    0.216E+00
RMM:  23    -0.479825859577E+03    0.46597E-02   -0.10981E-01 14118   0.315E-01    0.232E+00
RMM:  24    -0.479818837646E+03    0.70219E-02   -0.78136E-02 14170   0.246E-01    0.210E+00
RMM:  25    -0.479813143675E+03    0.56940E-02   -0.70593E-02 13863   0.236E-01    0.745E-01
RMM:  26    -0.479815211121E+03   -0.20674E-02   -0.43790E-02 13651   0.185E-01    0.609E-01
RMM:  27    -0.479816276993E+03   -0.10659E-02   -0.30212E-02 13395   0.111E-01    0.529E-01
RMM:  28    -0.479816442927E+03   -0.16593E-03   -0.20341E-02 13515   0.858E-02    0.221E-01
RMM:  29    -0.479817770085E+03   -0.13272E-02   -0.16510E-02 13195   0.715E-02    0.236E-01
RMM:  30    -0.479818654895E+03   -0.88481E-03   -0.13047E-02 12967   0.679E-02    0.149E-01
RMM:  31    -0.479819493048E+03   -0.83815E-03   -0.90496E-03 11863   0.469E-02    0.127E-01
RMM:  32    -0.479820091164E+03   -0.59812E-03   -0.68430E-03 11447   0.342E-02    0.720E-02
RMM:  33    -0.479820580841E+03   -0.48968E-03   -0.54523E-03 11400   0.280E-02    0.439E-02
RMM:  34    -0.479820985289E+03   -0.40445E-03   -0.42889E-03 10893   0.257E-02    0.325E-02
RMM:  35    -0.479821310422E+03   -0.32513E-03   -0.33268E-03 10963   0.221E-02    0.185E-02
RMM:  36    -0.479821570133E+03   -0.25971E-03   -0.26503E-03  8775   0.199E-02    0.165E-02
RMM:  37    -0.479821769103E+03   -0.19897E-03   -0.20716E-03  7289   0.159E-02    0.115E-02
RMM:  38    -0.479821927940E+03   -0.15884E-03   -0.16377E-03  7410   0.144E-02    0.859E-03
RMM:  39    -0.479822054571E+03   -0.12663E-03   -0.12899E-03  7123   0.146E-02    0.397E-03
RMM:  40    -0.479822155769E+03   -0.10120E-03   -0.10262E-03  6972   0.117E-02    0.302E-03
RMM:  41    -0.479822234636E+03   -0.78867E-04   -0.80127E-04  6247   0.110E-02    0.185E-03
RMM:  42    -0.479822297747E+03   -0.63111E-04   -0.64097E-04  6085   0.915E-03    0.178E-03
RMM:  43    -0.479822347328E+03   -0.49581E-04   -0.50460E-04  5739   0.908E-03    0.193E-03
RMM:  44    -0.479822387627E+03   -0.40299E-04   -0.40648E-04  5587   0.757E-03    0.686E-03
RMM:  45    -0.479822418666E+03   -0.31038E-04   -0.31913E-04  5554   0.742E-03    0.397E-03
RMM:  46    -0.479822443397E+03   -0.24731E-04   -0.25324E-04  5879   0.665E-03    0.291E-03
RMM:  47    -0.479822463138E+03   -0.19742E-04   -0.20204E-04  5471   0.673E-03    0.249E-03
RMM:  48    -0.479822479100E+03   -0.15961E-04   -0.16337E-04  5241   0.563E-03    0.275E-03
RMM:  49    -0.479822491806E+03   -0.12706E-04   -0.12997E-04  5049   0.561E-03    0.318E-03
RMM:  50    -0.479822501730E+03   -0.99240E-05   -0.10183E-04  4945   0.465E-03    0.305E-03
RMM:  51    -0.479822509808E+03   -0.80783E-05   -0.82831E-05  4827   0.473E-03
   1 F= -.47982251E+03 E0= -.47955549E+03  d E =-.479823E+03
       N       E                     dE             d eps       ncg     rms          rms(c)
DAV:   1    -0.402292186212E+04   -0.35431E+04   -0.99929E+04 10296   0.103E+03    0.365E+02
RMM:   2    -0.135501313618E+04    0.26679E+04   -0.66979E+03 14113   0.251E+02    0.180E+02
RMM:   3    -0.567340142766E+03    0.78767E+03   -0.27165E+03 12196   0.169E+02    0.480E+01
RMM:   4    -0.592183387309E+03   -0.24843E+02   -0.51930E+02 13642   0.564E+01    0.437E+01
RMM:   5    -0.563915369382E+03    0.28268E+02   -0.10243E+02 14293   0.255E+01    0.239E+01
RMM:   6    -0.564078193440E+03   -0.16282E+00   -0.74280E+01 14995   0.176E+01    0.199E+01
RMM:   7    -0.564619701578E+03   -0.54151E+00   -0.26690E+01 15262   0.115E+01    0.121E+01
RMM:   8    -0.566967684935E+03   -0.23480E+01   -0.17394E+01 15889   0.712E+00    0.115E+01
RMM:   9    -0.568197218707E+03   -0.12295E+01   -0.10016E+01 16196   0.611E+00    0.637E+00
RMM:  10    -0.570012264828E+03   -0.18150E+01   -0.83284E+00 15723   0.482E+00    0.838E+00
RMM:  11    -0.570413176139E+03   -0.40091E+00   -0.52123E+00 16074   0.383E+00    0.407E+00
RMM:  12    -0.570961934070E+03   -0.54876E+00   -0.35878E+00 15866   0.320E+00    0.274E+00
RMM:  13    -0.571095265843E+03   -0.13333E+00   -0.19181E+00 15871   0.247E+00    0.233E+00
RMM:  14    -0.571138368579E+03   -0.43103E-01   -0.11095E+00 15907   0.179E+00    0.107E+00
RMM:  15    -0.571176992638E+03   -0.38624E-01   -0.53591E-01 16291   0.122E+00    0.671E-01
RMM:  16    -0.571200909304E+03   -0.23917E-01   -0.29215E-01 16249   0.903E-01    0.634E-01
RMM:  17    -0.571211713720E+03   -0.10804E-01   -0.14534E-01 16313   0.657E-01    0.138E-01
RMM:  18    -0.571219198470E+03   -0.74848E-02   -0.84120E-02 15925   0.503E-01    0.155E-01
RMM:  19    -0.571223129687E+03   -0.39312E-02   -0.44187E-02 16365   0.365E-01    0.864E-02
RMM:  20    -0.571225451397E+03   -0.23217E-02   -0.25882E-02 15939   0.280E-01    0.607E-02
RMM:  21    -0.571226720552E+03   -0.12692E-02   -0.13925E-02 16338   0.208E-01    0.209E-02
RMM:  22    -0.571227522146E+03   -0.80159E-03   -0.85121E-03 15642   0.166E-01    0.278E-02
RMM:  23    -0.571227965797E+03   -0.44365E-03   -0.45838E-03 16130   0.127E-01    0.478E-02
RMM:  24    -0.571228258031E+03   -0.29223E-03   -0.31279E-03 15382   0.105E-01    0.619E-02
RMM:  25    -0.571228399385E+03   -0.14135E-03   -0.16135E-03 15760   0.802E-02    0.102E-02
RMM:  26    -0.571228505289E+03   -0.10590E-03   -0.10792E-03 14788   0.602E-02    0.150E-02
RMM:  27    -0.571228560779E+03   -0.55490E-04   -0.59094E-04 14535   0.483E-02    0.474E-03
RMM:  28    -0.571228599342E+03   -0.38563E-04   -0.39201E-04 13163   0.391E-02    0.123E-03
RMM:  29    -0.571228622496E+03   -0.23154E-04   -0.23444E-04 12775   0.323E-02    0.671E-03
RMM:  30    -0.571228637566E+03   -0.15070E-04   -0.15115E-04 10982   0.263E-02    0.125E-03
RMM:  31    -0.571228646435E+03   -0.88684E-05   -0.88562E-05  9718   0.233E-02
   2 F= -.57122865E+03 E0= -.57116892E+03  d E =-.914061E+02
       N       E                     dE             d eps       ncg     rms          rms(c)
DAV:   1    -0.119361302949E+04   -0.62238E+03   -0.11607E+04 10440   0.357E+02    0.202E+02
RMM:   2    -0.141105327782E+04   -0.21744E+03   -0.25299E+03 11297   0.120E+02    0.112E+02
RMM:   3    -0.883198822011E+03    0.52785E+03   -0.54159E+02 13552   0.565E+01    0.735E+01
RMM:   4    -0.722976944070E+03    0.16022E+03   -0.17678E+02 14217   0.270E+01    0.509E+01
RMM:   5    -0.732624414359E+03   -0.96475E+01   -0.76781E+02 12665   0.456E+01    0.696E+01
RMM:   6    -0.666511709992E+03    0.66113E+02   -0.68246E+01 12348   0.230E+01    0.294E+01
RMM:   7    -0.658830166289E+03    0.76815E+01   -0.29819E+01 12206   0.132E+01    0.292E+01
RMM:   8    -0.656097465926E+03    0.27327E+01   -0.13769E+01 13671   0.718E+00    0.187E+01
RMM:   9    -0.654993703292E+03    0.11038E+01   -0.35309E+00 15381   0.373E+00    0.168E+01
RMM:  10    -0.652117575791E+03    0.28761E+01   -0.25989E+00 14493   0.319E+00    0.582E+00
RMM:  11    -0.651980557332E+03    0.13702E+00   -0.12142E+00 15713   0.205E+00    0.339E+00
RMM:  12    -0.652025057877E+03   -0.44501E-01   -0.60279E-01 15742   0.120E+00    0.276E+00
RMM:  13    -0.652236012208E+03   -0.21095E+00   -0.62517E-01 14855   0.140E+00    0.389E+00
RMM:  14    -0.652307806965E+03   -0.71795E-01   -0.37390E-01 15633   0.103E+00    0.378E+00
RMM:  15    -0.652298005596E+03    0.98014E-02   -0.31964E-01 15260   0.864E-01    0.171E+00
RMM:  16    -0.652302830765E+03   -0.48252E-02   -0.19543E-01 15176   0.661E-01    0.176E+00
RMM:  17    -0.652296703071E+03    0.61277E-02   -0.10090E-01 15572   0.439E-01    0.109E+00
RMM:  18    -0.652301577029E+03   -0.48740E-02   -0.76006E-02 15252   0.423E-01    0.113E+00
RMM:  19    -0.652299521288E+03    0.20557E-02   -0.28031E-02 15690   0.266E-01    0.852E-01
RMM:  20    -0.652297252838E+03    0.22685E-02   -0.16726E-02 15866   0.165E-01    0.437E-01
RMM:  21    -0.652296885668E+03    0.36717E-03   -0.12607E-02 14977   0.174E-01    0.172E-01
RMM:  22    -0.652297010966E+03   -0.12530E-03   -0.57657E-03 15229   0.115E-01    0.681E-02
RMM:  23    -0.652297259480E+03   -0.24851E-03   -0.31586E-03 15329   0.702E-02    0.868E-02
RMM:  24    -0.652297364316E+03   -0.10484E-03   -0.19209E-03 14887   0.545E-02    0.449E-02
RMM:  25    -0.652297423972E+03   -0.59656E-04   -0.10225E-03 13965   0.425E-02    0.151E-02
RMM:  26    -0.652297476176E+03   -0.52204E-04   -0.62978E-04 13380   0.352E-02    0.300E-02
RMM:  27    -0.652297498637E+03   -0.22460E-04   -0.38679E-04 12356   0.262E-02    0.104E-02
RMM:  28    -0.652297513584E+03   -0.14947E-04   -0.22140E-04 11647   0.227E-02    0.659E-03
RMM:  29    -0.652297522183E+03   -0.85991E-05   -0.12844E-04 10482   0.186E-02    0.587E-03
RMM:  30    -0.652297529255E+03   -0.70724E-05   -0.81059E-05  9709   0.171E-02
   3 F= -.65229753E+03 E0= -.65220769E+03  d E =-.172475E+03
       N       E                     dE             d eps       ncg     rms          rms(c)
DAV:   1    -0.655948186820E+03   -0.36507E+01   -0.64451E+01 11136   0.259E+01    0.139E+01
RMM:   2    -0.675535864291E+03   -0.19588E+02   -0.42171E+01 11722   0.148E+01    0.521E+01
RMM:   3    -0.654043117345E+03    0.21493E+02   -0.87372E+00 11332   0.787E+00    0.775E+00
RMM:   4    -0.653994967307E+03    0.48150E-01   -0.15739E+00 13198   0.286E+00    0.961E+00
RMM:   5    -0.653347505104E+03    0.64746E+00   -0.61312E-01 11965   0.155E+00    0.417E+00
RMM:   6    -0.653339706644E+03    0.77985E-02   -0.48149E-01 12582   0.159E+00    0.535E+00
RMM:   7    -0.653172064015E+03    0.16764E+00   -0.20042E-01 12741   0.100E+00    0.185E+00
RMM:   8    -0.653145955527E+03    0.26108E-01   -0.58482E-02 13652   0.582E-01    0.712E-01
RMM:   9    -0.653149202422E+03   -0.32469E-02   -0.19612E-02 14372   0.261E-01    0.990E-01
RMM:  10    -0.653144815226E+03    0.43872E-02   -0.97556E-03 14632   0.175E-01    0.376E-01
RMM:  11    -0.653146236171E+03   -0.14209E-02   -0.50628E-03 14670   0.114E-01    0.399E-01
RMM:  12    -0.653146917876E+03   -0.68170E-03   -0.33746E-03 14996   0.845E-02    0.315E-01
RMM:  13    -0.653148821636E+03   -0.19038E-02   -0.47884E-03 14445   0.949E-02    0.162E-01
RMM:  14    -0.653149841176E+03   -0.10195E-02   -0.35141E-03 14280   0.880E-02    0.311E-01
RMM:  15    -0.653149524392E+03    0.31678E-03   -0.24403E-03 13808   0.691E-02    0.576E-02
RMM:  16    -0.653149587317E+03   -0.62925E-04   -0.11832E-03 12617   0.465E-02    0.434E-02
RMM:  17    -0.653149624999E+03   -0.37682E-04   -0.60122E-04 11654   0.328E-02    0.360E-02
RMM:  18    -0.653149640781E+03   -0.15783E-04   -0.28707E-04 11265   0.264E-02    0.179E-02
RMM:  19    -0.653149655441E+03   -0.14660E-04   -0.17320E-04 11104   0.215E-02    0.506E-03
RMM:  20    -0.653149661813E+03   -0.63722E-05   -0.89151E-05  9936   0.175E-02
   4 F= -.65314966E+03 E0= -.65306290E+03  d E =-.173327E+03
       N       E                     dE             d eps       ncg     rms          rms(c)
DAV:   1    -0.654073235194E+03   -0.92358E+00   -0.18504E+01 11184   0.139E+01    0.777E+00
RMM:   2    -0.660444313032E+03   -0.63711E+01   -0.11213E+01 11922   0.750E+00    0.306E+01
RMM:   3    -0.653566371208E+03    0.68779E+01   -0.28013E+00 11447   0.423E+00    0.465E+00
RMM:   4    -0.653564731222E+03    0.16400E-02   -0.50990E-01 12873   0.166E+00    0.578E+00
RMM:   5    -0.653311011521E+03    0.25372E+00   -0.20258E-01 11963   0.896E-01    0.186E+00
RMM:   6    -0.653322839286E+03   -0.11828E-01   -0.14780E-01 12608   0.899E-01    0.292E+00
RMM:   7    -0.653270751148E+03    0.52088E-01   -0.59443E-02 12641   0.550E-01    0.986E-01
RMM:   8    -0.653264940896E+03    0.58103E-02   -0.19288E-02 13568   0.328E-01    0.624E-01
RMM:   9    -0.653263613894E+03    0.13270E-02   -0.63901E-03 14744   0.151E-01    0.393E-01
RMM:  10    -0.653263128261E+03    0.48563E-03   -0.30087E-03 14298   0.993E-02    0.202E-01
RMM:  11    -0.653263536988E+03   -0.40873E-03   -0.14861E-03 14158   0.605E-02    0.225E-01
RMM:  12    -0.653263755696E+03   -0.21871E-03   -0.10171E-03 13769   0.466E-02    0.163E-01
RMM:  13    -0.653264536377E+03   -0.78068E-03   -0.16059E-03 13755   0.554E-02    0.704E-02
RMM:  14    -0.653264853776E+03   -0.31740E-03   -0.11648E-03 13214   0.513E-02    0.145E-01
RMM:  15    -0.653264793358E+03    0.60418E-04   -0.72319E-04 12558   0.390E-02    0.299E-02
RMM:  16    -0.653264816062E+03   -0.22705E-04   -0.35358E-04 11465   0.285E-02    0.214E-02
RMM:  17    -0.653264830673E+03   -0.14610E-04   -0.19782E-04 11039   0.212E-02    0.197E-02
RMM:  18    -0.653264837241E+03   -0.65685E-05   -0.94980E-05 10080   0.166E-02
   5 F= -.65326484E+03 E0= -.65317965E+03  d E =-.173442E+03
       N       E                     dE             d eps       ncg     rms          rms(c)
DAV:   1    -0.650854182715E+03    0.24106E+01   -0.42747E+02  9840   0.627E+01    0.410E+00
RMM:   2    -0.655722809262E+03   -0.48686E+01   -0.51045E+01 13634   0.182E+01    0.617E+00
RMM:   3    -0.655701067441E+03    0.21742E-01   -0.38577E+00 13103   0.728E+00    0.493E+00
RMM:   4    -0.655459488933E+03    0.24158E+00   -0.71848E-01 14323   0.213E+00    0.180E+00
RMM:   5    -0.655461880742E+03   -0.23918E-02   -0.27136E-01 13886   0.116E+00    0.274E+00
RMM:   6    -0.655425183207E+03    0.36698E-01   -0.16116E-01 13995   0.763E-01    0.193E+00
RMM:   7    -0.655393644736E+03    0.31538E-01   -0.68833E-02 13963   0.550E-01    0.839E-01
RMM:   8    -0.655397018546E+03   -0.33738E-02   -0.25968E-02 14845   0.301E-01    0.104E+00
RMM:   9    -0.655390143467E+03    0.68751E-02   -0.14244E-02 14674   0.202E-01    0.443E-01
RMM:  10    -0.655389969771E+03    0.17370E-03   -0.60477E-03 15188   0.148E-01    0.418E-01
RMM:  11    -0.655389149225E+03    0.82055E-03   -0.32743E-03 14849   0.970E-02    0.197E-01
RMM:  12    -0.655389241500E+03   -0.92276E-04   -0.16277E-03 14751   0.692E-02    0.201E-01
RMM:  13    -0.655389089753E+03    0.15175E-03   -0.10755E-03 14057   0.523E-02    0.761E-02
RMM:  14    -0.655389173500E+03   -0.83748E-04   -0.61417E-04 14040   0.393E-02    0.528E-02
RMM:  15    -0.655389237979E+03   -0.64479E-04   -0.33437E-04 13268   0.318E-02    0.840E-02
RMM:  16    -0.655389211148E+03    0.26831E-04   -0.20723E-04 12546   0.260E-02    0.233E-02
RMM:  17    -0.655389219054E+03   -0.79063E-05   -0.11520E-04 10680   0.205E-02    0.127E-02
RMM:  18    -0.655389222111E+03   -0.30567E-05   -0.60556E-05  8320   0.179E-02
   6 F= -.65538922E+03 E0= -.65531107E+03  d E =-.212438E+01
       N       E                     dE             d eps       ncg     rms          rms(c)
DAV:   1    -0.654426985750E+03    0.96223E+00   -0.12043E+02  9744   0.334E+01    0.217E+00
RMM:   2    -0.655773910497E+03   -0.13469E+01   -0.14205E+01 13763   0.967E+00    0.314E+00
RMM:   3    -0.655770999959E+03    0.29105E-02   -0.10319E+00 13222   0.373E+00    0.257E+00
RMM:   4    -0.655706710132E+03    0.64290E-01   -0.18973E-01 14308   0.111E+00    0.966E-01
RMM:   5    -0.655712367883E+03   -0.56578E-02   -0.67074E-02 13955   0.559E-01    0.157E+00
RMM:   6    -0.655695184930E+03    0.17183E-01   -0.47741E-02 13804   0.405E-01    0.759E-01
RMM:   7    -0.655693265871E+03    0.19191E-02   -0.18487E-02 13938   0.316E-01    0.772E-01
RMM:   8    -0.655689315071E+03    0.39508E-02   -0.78079E-03 14718   0.157E-01    0.309E-01
RMM:   9    -0.655689827915E+03   -0.51284E-03   -0.40264E-03 14505   0.116E-01    0.409E-01
RMM:  10    -0.655688705196E+03    0.11227E-02   -0.19983E-03 14664   0.765E-02    0.119E-01
RMM:  11    -0.655688737344E+03   -0.32149E-04   -0.75359E-04 13947   0.537E-02    0.114E-01
RMM:  12    -0.655688710100E+03    0.27244E-04   -0.44064E-04 13233   0.312E-02    0.737E-02
RMM:  13    -0.655688715566E+03   -0.54659E-05   -0.29531E-04 12813   0.289E-02    0.337E-02
RMM:  14    -0.655688736917E+03   -0.21351E-04   -0.14593E-04 12161   0.204E-02    0.231E-02
RMM:  15    -0.655688750854E+03   -0.13937E-04   -0.78646E-05 10557   0.189E-02    0.359E-02
RMM:  16    -0.655688746230E+03    0.46241E-05   -0.45926E-05  8417   0.158E-02
   7 F= -.65568875E+03 E0= -.65561485E+03  d E =-.242391E+01
       N       E                     dE             d eps       ncg     rms          rms(c)
DAV:   1    -0.655620262361E+03    0.68488E-01   -0.33177E+02  9960   0.691E+01    0.215E+01
RMM:   2    -0.687755103232E+03   -0.32135E+02   -0.86434E+01 12988   0.231E+01    0.359E+01
RMM:   3    -0.657816332603E+03    0.29939E+02   -0.17829E+01 11998   0.123E+01    0.107E+01
RMM:   4    -0.657253225006E+03    0.56311E+00   -0.61865E+00 12899   0.509E+00    0.977E+00
RMM:   5    -0.656537486431E+03    0.71574E+00   -0.17969E+00 12630   0.303E+00    0.585E+00
RMM:   6    -0.656427477630E+03    0.11001E+00   -0.67927E-01 13079   0.178E+00    0.565E+00
RMM:   7    -0.656210504926E+03    0.21697E+00   -0.38529E-01 12661   0.135E+00    0.244E+00
RMM:   8    -0.656154533574E+03    0.55971E-01   -0.15552E-01 14134   0.912E-01    0.120E+00
RMM:   9    -0.656158822662E+03   -0.42891E-02   -0.61223E-02 15057   0.482E-01    0.140E+00
RMM:  10    -0.656146658169E+03    0.12164E-01   -0.31325E-02 15186   0.323E-01    0.470E-01
RMM:  11    -0.656149426372E+03   -0.27682E-02   -0.14821E-02 15570   0.204E-01    0.539E-01
RMM:  12    -0.656149551873E+03   -0.12550E-03   -0.84995E-03 15784   0.138E-01    0.341E-01
RMM:  13    -0.656151502380E+03   -0.19505E-02   -0.68244E-03 15632   0.116E-01    0.226E-01
RMM:  14    -0.656153718531E+03   -0.22162E-02   -0.73371E-03 15228   0.132E-01    0.371E-01
RMM:  15    -0.656153082993E+03    0.63554E-03   -0.47541E-03 14890   0.109E-01    0.116E-01
RMM:  16    -0.656153088291E+03   -0.52981E-05   -0.24231E-03 14619   0.701E-02    0.406E-02
RMM:  17    -0.656153150523E+03   -0.62232E-04   -0.11311E-03 13876   0.487E-02    0.382E-02
RMM:  18    -0.656153185866E+03   -0.35344E-04   -0.57488E-04 12950   0.394E-02    0.261E-02
RMM:  19    -0.656153206561E+03   -0.20694E-04   -0.33477E-04 12196   0.284E-02    0.146E-02
RMM:  20    -0.656153216196E+03   -0.96354E-05   -0.19357E-04 11941   0.251E-02    0.430E-03
RMM:  21    -0.656153224120E+03   -0.79240E-05   -0.10866E-04 10730   0.191E-02    0.346E-03
RMM:  22    -0.656153229497E+03   -0.53768E-05   -0.63318E-05  9509   0.175E-02
   8 F= -.65615323E+03 E0= -.65608325E+03  d E =-.464483E+00
       N       E                     dE             d eps       ncg     rms          rms(c)
DAV:   1    -0.656154711097E+03   -0.14870E-02   -0.16333E+01 10368   0.157E+01    0.418E+00
RMM:   2    -0.657983524499E+03   -0.18288E+01   -0.59066E+00 11570   0.626E+00    0.142E+01
RMM:   3    -0.656262578045E+03    0.17209E+01   -0.10428E+00 11204   0.336E+00    0.214E+00
RMM:   4    -0.656268948670E+03   -0.63706E-02   -0.23596E-01 13477   0.102E+00    0.253E+00
RMM:   5    -0.656206838773E+03    0.62110E-01   -0.55699E-02 12540   0.538E-01    0.883E-01
RMM:   6    -0.656213246196E+03   -0.64074E-02   -0.40154E-02 12647   0.446E-01    0.152E+00
RMM:   7    -0.656196944314E+03    0.16302E-01   -0.21105E-02 12715   0.322E-01    0.463E-01
RMM:   8    -0.656195676656E+03    0.12677E-02   -0.63350E-03 13896   0.195E-01    0.311E-01
RMM:   9    -0.656195558192E+03    0.11846E-03   -0.25281E-03 14670   0.953E-02    0.276E-01
RMM:  10    -0.656195126849E+03    0.43134E-03   -0.11440E-03 13987   0.632E-02    0.969E-02
RMM:  11    -0.656195283050E+03   -0.15620E-03   -0.57890E-04 13767   0.401E-02    0.111E-01
RMM:  12    -0.656195329314E+03   -0.46264E-04   -0.35769E-04 13111   0.317E-02    0.761E-02
RMM:  13    -0.656195483951E+03   -0.15464E-03   -0.38969E-04 12954   0.310E-02    0.425E-02
RMM:  14    -0.656195584184E+03   -0.10023E-03   -0.34199E-04 12854   0.302E-02    0.690E-02
RMM:  15    -0.656195567763E+03    0.16421E-04   -0.19169E-04 11877   0.253E-02    0.173E-02
RMM:  16    -0.656195568921E+03   -0.11575E-05   -0.89447E-05 10621   0.183E-02
   9 F= -.65619557E+03 E0= -.65612476E+03  d E =-.506823E+00
       N       E                     dE             d eps       ncg     rms          rms(c)
DAV:   1    -0.651623585491E+03    0.45720E+01   -0.25478E+02  9408   0.628E+01    0.472E+00
RMM:   2    -0.657629254849E+03   -0.60057E+01   -0.57450E+01 13881   0.188E+01    0.937E+00
RMM:   3    -0.656842495365E+03    0.78676E+00   -0.36109E+00 13359   0.638E+00    0.361E+00
RMM:   4    -0.656791916342E+03    0.50579E-01   -0.76487E-01 14016   0.195E+00    0.284E+00
RMM:   5    -0.656741459869E+03    0.50456E-01   -0.14517E-01 13720   0.106E+00    0.164E+00
RMM:   6    -0.656716627475E+03    0.24832E-01   -0.71069E-02 14083   0.536E-01    0.112E+00
RMM:   7    -0.656723204311E+03   -0.65768E-02   -0.63706E-02 14316   0.527E-01    0.164E+00
RMM:   8    -0.656701743959E+03    0.21460E-01   -0.33121E-02 14647   0.379E-01    0.368E-01
RMM:   9    -0.656702047277E+03   -0.30332E-03   -0.10449E-02 14877   0.207E-01    0.364E-01
RMM:  10    -0.656701762737E+03    0.28454E-03   -0.50121E-03 15482   0.113E-01    0.243E-01
RMM:  11    -0.656701701367E+03    0.61370E-04   -0.26231E-03 14930   0.832E-02    0.126E-01
RMM:  12    -0.656702059072E+03   -0.35770E-03   -0.15189E-03 14906   0.623E-02    0.172E-01
RMM:  13    -0.656702063125E+03   -0.40528E-05   -0.97449E-04 14030   0.532E-02    0.822E-02
RMM:  14    -0.656702192340E+03   -0.12922E-03   -0.66556E-04 14069   0.438E-02    0.341E-02
RMM:  15    -0.656702253549E+03   -0.61208E-04   -0.39789E-04 13092   0.362E-02    0.621E-02
RMM:  16    -0.656702240771E+03    0.12778E-04   -0.24318E-04 12162   0.282E-02    0.144E-02
RMM:  17    -0.656702249015E+03   -0.82450E-05   -0.12337E-04 11051   0.222E-02    0.875E-03
RMM:  18    -0.656702254942E+03   -0.59269E-05   -0.73018E-05  8832   0.193E-02
  10 F= -.65670225E+03 E0= -.65663963E+03  d E =-.506686E+00
       N       E                     dE             d eps       ncg     rms          rms(c)
DAV:   1    -0.656643962747E+03    0.58286E-01   -0.31997E+00 10080   0.714E+00    0.521E-01
RMM:   2    -0.656714435614E+03   -0.70473E-01   -0.71337E-01 13837   0.206E+00    0.758E-01
RMM:   3    -0.656710166731E+03    0.42689E-02   -0.42104E-02 13530   0.665E-01    0.453E-01
RMM:   4    -0.656708897704E+03    0.12690E-02   -0.82772E-03 14140   0.214E-01    0.234E-01
RMM:   5    -0.656708693981E+03    0.20372E-03   -0.17302E-03 13575   0.105E-01    0.184E-01
RMM:   6    -0.656708398141E+03    0.29584E-03   -0.95493E-04 13800   0.658E-02    0.108E-01
RMM:   7    -0.656708442915E+03   -0.44774E-04   -0.69099E-04 14089   0.533E-02    0.147E-01
RMM:   8    -0.656708289496E+03    0.15342E-03   -0.30344E-04 13519   0.358E-02    0.368E-02
RMM:   9    -0.656708300103E+03   -0.10607E-04   -0.12091E-04 12209   0.250E-02    0.375E-02
RMM:  10    -0.656708300803E+03   -0.69961E-06   -0.71542E-05 10108   0.150E-02
  11 F= -.65670830E+03 E0= -.65664646E+03  d E =-.512732E+00
       N       E                     dE             d eps       ncg     rms          rms(c)
DAV:   1    -0.656094645640E+03    0.61365E+00   -0.78047E+01  9408   0.311E+01    0.295E+00
RMM:   2    -0.657036702371E+03   -0.94206E+00   -0.11585E+01 13913   0.888E+00    0.228E+00
RMM:   3    -0.657107015261E+03   -0.70313E-01   -0.78973E-01 13285   0.320E+00    0.361E+00
RMM:   4    -0.656976439314E+03    0.13058E+00   -0.19295E-01 13825   0.116E+00    0.106E+00
RMM:   5    -0.656987983875E+03   -0.11545E-01   -0.69531E-02 13612   0.644E-01    0.167E+00
RMM:   6    -0.656961896057E+03    0.26088E-01   -0.35378E-02 13546   0.412E-01    0.470E-01
RMM:   7    -0.656961932203E+03   -0.36146E-04   -0.12549E-02 13678   0.243E-01    0.512E-01
RMM:   8    -0.656959929745E+03    0.20025E-02   -0.53316E-03 14643   0.133E-01    0.136E-01
RMM:   9    -0.656960136157E+03   -0.20641E-03   -0.24814E-03 14309   0.796E-02    0.170E-01
RMM:  10    -0.656960025088E+03    0.11107E-03   -0.13010E-03 14152   0.534E-02    0.766E-02
RMM:  11    -0.656960051183E+03   -0.26095E-04   -0.67447E-04 12740   0.398E-02    0.466E-02
RMM:  12    -0.656960102340E+03   -0.51158E-04   -0.39242E-04 12295   0.308E-02    0.682E-02
RMM:  13    -0.656960090701E+03    0.11639E-04   -0.23909E-04 11389   0.269E-02    0.206E-02
RMM:  14    -0.656960099004E+03   -0.83030E-05   -0.13109E-04 10007   0.211E-02    0.787E-03
RMM:  15    -0.656960105605E+03   -0.66001E-05   -0.78182E-05  9115   0.186E-02
  12 F= -.65696011E+03 E0= -.65689808E+03  d E =-.251805E+00
       N       E                     dE             d eps       ncg     rms          rms(c)
DAV:   1    -0.656860004731E+03    0.10009E+00   -0.10977E+01  9456   0.117E+01    0.111E+00
RMM:   2    -0.656992038521E+03   -0.13203E+00   -0.16211E+00 13903   0.333E+00    0.875E-01
RMM:   3    -0.657003460541E+03   -0.11422E-01   -0.11425E-01 13357   0.121E+00    0.144E+00
RMM:   4    -0.656983862416E+03    0.19598E-01   -0.27315E-02 13670   0.442E-01    0.391E-01
RMM:   5    -0.656985787209E+03   -0.19248E-02   -0.10374E-02 13594   0.242E-01    0.649E-01
RMM:   6    -0.656981906339E+03    0.38809E-02   -0.50904E-03 13552   0.158E-01    0.173E-01
RMM:   7    -0.656981861101E+03    0.45238E-04   -0.19185E-03 13623   0.919E-02    0.182E-01
RMM:   8    -0.656981615355E+03    0.24575E-03   -0.79951E-04 13630   0.509E-02    0.534E-02
RMM:   9    -0.656981647809E+03   -0.32453E-04   -0.38996E-04 12170   0.324E-02    0.682E-02
RMM:  10    -0.656981629388E+03    0.18421E-04   -0.20648E-04 11653   0.231E-02    0.295E-02
RMM:  11    -0.656981632816E+03   -0.34282E-05   -0.98603E-05  9493   0.182E-02
  13 F= -.65698163E+03 E0= -.65691910E+03  d E =-.273332E+00
       N       E                     dE             d eps       ncg     rms          rms(c)
DAV:   1    -0.656743726618E+03    0.23790E+00   -0.42121E+01  9456   0.221E+01    0.358E+00
RMM:   2    -0.657868518903E+03   -0.11248E+01   -0.69557E+00 13262   0.690E+00    0.789E+00
RMM:   3    -0.657127557648E+03    0.74096E+00   -0.78751E-01 12223   0.303E+00    0.151E+00
RMM:   4    -0.657119669813E+03    0.78878E-02   -0.17697E-01 13673   0.978E-01    0.185E+00
RMM:   5    -0.657095823818E+03    0.23846E-01   -0.51347E-02 13487   0.560E-01    0.972E-01
RMM:   6    -0.657084787483E+03    0.11036E-01   -0.29636E-02 13509   0.382E-01    0.404E-01
RMM:   7    -0.657087837263E+03   -0.30498E-02   -0.13236E-02 14071   0.255E-01    0.770E-01
RMM:   8    -0.657083297130E+03    0.45401E-02   -0.55469E-03 14891   0.155E-01    0.165E-01
RMM:   9    -0.657083204685E+03    0.92445E-04   -0.20039E-03 14372   0.852E-02    0.155E-01
RMM:  10    -0.657083131701E+03    0.72985E-04   -0.97818E-04 14333   0.493E-02    0.844E-02
RMM:  11    -0.657083168275E+03   -0.36575E-04   -0.54076E-04 13372   0.396E-02    0.605E-02
RMM:  12    -0.657083216234E+03   -0.47959E-04   -0.33640E-04 12944   0.308E-02    0.686E-02
RMM:  13    -0.657083226913E+03   -0.10679E-04   -0.25587E-04 12439   0.284E-02    0.349E-02
RMM:  14    -0.657083234655E+03   -0.77419E-05   -0.17660E-04 12010   0.241E-02    0.261E-02
RMM:  15    -0.657083238868E+03   -0.42136E-05   -0.98056E-05 11088   0.216E-02
  14 F= -.65708324E+03 E0= -.65702122E+03  d E =-.101606E+00
       N       E                     dE             d eps       ncg     rms          rms(c)
DAV:   1    -0.657080624608E+03    0.26100E-02   -0.44637E-01 10104   0.228E+00    0.361E-01
RMM:   2    -0.657092592833E+03   -0.11968E-01   -0.75332E-02 13099   0.717E-01    0.854E-01
RMM:   3    -0.657084783458E+03    0.78094E-02   -0.82674E-03 11914   0.312E-01    0.180E-01
RMM:   4    -0.657084828948E+03   -0.45490E-04   -0.20430E-03 13281   0.107E-01    0.235E-01
RMM:   5    -0.657084367911E+03    0.46104E-03   -0.60332E-04 12411   0.613E-02    0.834E-02
RMM:   6    -0.657084293352E+03    0.74559E-04   -0.36815E-04 13226   0.451E-02    0.594E-02
RMM:   7    -0.657084305681E+03   -0.12329E-04   -0.16655E-04 12192   0.287E-02    0.739E-02
RMM:   8    -0.657084260082E+03    0.45600E-04   -0.69345E-05 10331   0.197E-02    0.141E-02
RMM:   9    -0.657084257797E+03    0.22848E-05   -0.25747E-05  6801   0.141E-02
  15 F= -.65708426E+03 E0= -.65702232E+03  d E =-.102625E+00
       N       E                     dE             d eps       ncg     rms          rms(c)
DAV:   1    -0.656922062267E+03    0.16220E+00   -0.33759E+01  9696   0.205E+01    0.394E+00
RMM:   2    -0.658377373478E+03   -0.14553E+01   -0.69376E+00 11449   0.723E+00    0.113E+01
RMM:   3    -0.657183543433E+03    0.11938E+01   -0.10289E+00 11185   0.376E+00    0.216E+00
RMM:   4    -0.657192691131E+03   -0.91477E-02   -0.27348E-01 13903   0.108E+00    0.245E+00
RMM:   5    -0.657131656055E+03    0.61035E-01   -0.65691E-02 13186   0.642E-01    0.823E-01
RMM:   6    -0.657131480171E+03    0.17588E-03   -0.42575E-02 13459   0.451E-01    0.109E+00
RMM:   7    -0.657123421119E+03    0.80591E-02   -0.20537E-02 13559   0.324E-01    0.536E-01
RMM:   8    -0.657121204296E+03    0.22168E-02   -0.68508E-03 14533   0.184E-01    0.182E-01
RMM:   9    -0.657121438427E+03   -0.23413E-03   -0.27069E-03 14602   0.992E-02    0.230E-01
RMM:  10    -0.657121204905E+03    0.23352E-03   -0.14141E-03 14270   0.599E-02    0.100E-01
RMM:  11    -0.657121348225E+03   -0.14332E-03   -0.70040E-04 13585   0.457E-02    0.891E-02
RMM:  12    -0.657121451619E+03   -0.10339E-03   -0.47370E-04 13116   0.335E-02    0.862E-02
RMM:  13    -0.657121596125E+03   -0.14451E-03   -0.43947E-04 13211   0.353E-02    0.439E-02
RMM:  14    -0.657121697988E+03   -0.10186E-03   -0.36745E-04 12998   0.319E-02    0.688E-02
RMM:  15    -0.657121679930E+03    0.18058E-04   -0.20881E-04 12189   0.267E-02    0.132E-02
RMM:  16    -0.657121684128E+03   -0.41986E-05   -0.98028E-05 10988   0.185E-02
  16 F= -.65712168E+03 E0= -.65706134E+03  d E =-.374263E-01
       N       E                     dE             d eps       ncg     rms          rms(c)
DAV:   1    -0.657114544274E+03    0.71357E-02   -0.19724E+00 10200   0.495E+00    0.985E-01
RMM:   2    -0.657202028768E+03   -0.87484E-01   -0.39111E-01 11864   0.169E+00    0.258E+00
RMM:   3    -0.657129038709E+03    0.72990E-01   -0.59666E-02 11657   0.840E-01    0.411E-01
RMM:   4    -0.657129646342E+03   -0.60763E-03   -0.13818E-02 13685   0.251E-01    0.576E-01
RMM:   5    -0.657126729867E+03    0.29165E-02   -0.35149E-03 13191   0.140E-01    0.198E-01
RMM:   6    -0.657126345374E+03    0.38449E-03   -0.23469E-03 13555   0.107E-01    0.174E-01
RMM:   7    -0.657126309047E+03    0.36327E-04   -0.98924E-04 13566   0.710E-02    0.172E-01
RMM:   8    -0.657126060578E+03    0.24847E-03   -0.37268E-04 13438   0.431E-02    0.367E-02
RMM:   9    -0.657126056775E+03    0.38034E-05   -0.13218E-04 11972   0.243E-02    0.435E-02
RMM:  10    -0.657126047646E+03    0.91284E-05   -0.63989E-05  9856   0.150E-02
  17 F= -.65712605E+03 E0= -.65706531E+03  d E =-.417898E-01
       N       E                     dE             d eps       ncg     rms          rms(c)
DAV:   1    -0.657010230471E+03    0.11583E+00   -0.15681E+01  9408   0.133E+01    0.150E+00
RMM:   2    -0.657253277995E+03   -0.24305E+00   -0.21458E+00 13625   0.382E+00    0.283E+00
RMM:   3    -0.657168009306E+03    0.85269E-01   -0.17059E-01 13045   0.139E+00    0.856E-01
RMM:   4    -0.657164814954E+03    0.31944E-02   -0.38521E-02 13809   0.461E-01    0.929E-01
RMM:   5    -0.657158388414E+03    0.64265E-02   -0.12646E-02 13665   0.271E-01    0.457E-01
RMM:   6    -0.657156238595E+03    0.21498E-02   -0.76202E-03 13652   0.171E-01    0.228E-01
RMM:   7    -0.657156236630E+03    0.19650E-05   -0.29315E-03 14025   0.115E-01    0.297E-01
RMM:   8    -0.657155588686E+03    0.64794E-03   -0.13064E-03 14498   0.697E-02    0.857E-02
RMM:   9    -0.657155544169E+03    0.44517E-04   -0.52574E-04 13222   0.422E-02    0.496E-02
RMM:  10    -0.657155565814E+03   -0.21645E-04   -0.26822E-04 12312   0.254E-02    0.557E-02
RMM:  11    -0.657155556471E+03    0.93430E-05   -0.16012E-04 11584   0.223E-02    0.246E-02
RMM:  12    -0.657155567145E+03   -0.10675E-04   -0.91366E-05 10653   0.192E-02    0.338E-02
RMM:  13    -0.657155562796E+03    0.43497E-05   -0.60213E-05  9423   0.179E-02
  18 F= -.65715556E+03 E0= -.65709502E+03  d E =-.295151E-01
       N       E                     dE             d eps       ncg     rms          rms(c)
DAV:   1    -0.657153641745E+03    0.19254E-02   -0.25215E-01 10080   0.168E+00    0.189E-01
RMM:   2    -0.657157599831E+03   -0.39581E-02   -0.34629E-02 13637   0.486E-01    0.369E-01
RMM:   3    -0.657156189153E+03    0.14107E-02   -0.27686E-03 12885   0.172E-01    0.110E-01
RMM:   4    -0.657156150329E+03    0.38824E-04   -0.64984E-04 12979   0.624E-02    0.124E-01
RMM:   5    -0.657156032134E+03    0.11819E-03   -0.24161E-04 11638   0.369E-02    0.559E-02
RMM:   6    -0.657156004352E+03    0.27783E-04   -0.15129E-04 11836   0.246E-02    0.332E-02
RMM:   7    -0.657156002336E+03    0.20156E-05   -0.64078E-05  9848   0.202E-02
  19 F= -.65715600E+03 E0= -.65709549E+03  d E =-.299547E-01
       N       E                     dE             d eps       ncg     rms          rms(c)
DAV:   1    -0.657133185017E+03    0.22819E-01   -0.39629E+00  9408   0.633E+00    0.657E-01
RMM:   2    -0.657185741461E+03   -0.52556E-01   -0.46723E-01 13659   0.181E+00    0.128E+00
RMM:   3    -0.657169686928E+03    0.16055E-01   -0.38279E-02 13086   0.678E-01    0.388E-01
RMM:   4    -0.657169179703E+03    0.50723E-03   -0.79958E-03 13900   0.220E-01    0.440E-01
RMM:   5    -0.657167710434E+03    0.14693E-02   -0.26182E-03 13451   0.121E-01    0.192E-01
RMM:   6    -0.657167509924E+03    0.20051E-03   -0.17791E-03 13531   0.859E-02    0.193E-01
RMM:   7    -0.657167299820E+03    0.21010E-03   -0.74615E-04 13236   0.577E-02    0.118E-01
RMM:   8    -0.657167187919E+03    0.11190E-03   -0.28496E-04 12990   0.345E-02    0.312E-02
RMM:   9    -0.657167194800E+03   -0.68805E-05   -0.13338E-04 11842   0.203E-02    0.413E-02
RMM:  10    -0.657167186892E+03    0.79077E-05   -0.73335E-05  9336   0.152E-02
  20 F= -.65716719E+03 E0= -.65710746E+03  d E =-.111846E-01
       N       E                     dE             d eps       ncg     rms          rms(c)
DAV:   1    -0.657164555520E+03    0.26393E-02   -0.41279E-01  9984   0.204E+00    0.212E-01
RMM:   2    -0.657170047379E+03   -0.54919E-02   -0.48729E-02 13644   0.584E-01    0.416E-01
RMM:   3    -0.657168374284E+03    0.16731E-02   -0.40529E-03 13082   0.216E-01    0.128E-01
RMM:   4    -0.657168335260E+03    0.39025E-04   -0.86162E-04 13148   0.728E-02    0.149E-01
RMM:   5    -0.657168167128E+03    0.16813E-03   -0.31315E-04 11850   0.433E-02    0.611E-02
RMM:   6    -0.657168155515E+03    0.11613E-04   -0.22305E-04 12286   0.301E-02    0.666E-02
RMM:   7    -0.657168127542E+03    0.27973E-04   -0.97775E-05 10394   0.246E-02    0.363E-02
RMM:   8    -0.657168116715E+03    0.10827E-04   -0.37169E-05  7753   0.142E-02    0.104E-02
RMM:   9    -0.657168116506E+03    0.20918E-06   -0.16341E-05  6391   0.134E-02
  21 F= -.65716812E+03 E0= -.65710865E+03  d E =-.121142E-01
       N       E                     dE             d eps       ncg     rms          rms(c)
DAV:   1    -0.657162773851E+03    0.53429E-02   -0.19019E+00  9744   0.447E+00    0.879E-01
RMM:   2    -0.657225466134E+03   -0.62692E-01   -0.32578E-01 12348   0.152E+00    0.221E+00
RMM:   3    -0.657174302843E+03    0.51163E-01   -0.45344E-02 11696   0.734E-01    0.432E-01
RMM:   4    -0.657175121862E+03   -0.81902E-03   -0.12172E-02 13624   0.239E-01    0.597E-01
RMM:   5    -0.657171908279E+03    0.32136E-02   -0.33973E-03 12984   0.143E-01    0.183E-01
RMM:   6    -0.657171675195E+03    0.23308E-03   -0.20586E-03 13667   0.104E-01    0.188E-01
RMM:   7    -0.657171514112E+03    0.16108E-03   -0.83523E-04 13725   0.626E-02    0.130E-01
RMM:   8    -0.657171393296E+03    0.12082E-03   -0.28828E-04 13121   0.389E-02    0.407E-02
RMM:   9    -0.657171411683E+03   -0.18386E-04   -0.13299E-04 12158   0.212E-02    0.526E-02
RMM:  10    -0.657171400206E+03    0.11476E-04   -0.64419E-05  9819   0.156E-02    0.181E-02
RMM:  11    -0.657171411019E+03   -0.10813E-04   -0.30966E-05  7368   0.138E-02    0.175E-02
RMM:  12    -0.657171416524E+03   -0.55047E-05   -0.20567E-05  6707   0.150E-02
  22 F= -.65717142E+03 E0= -.65711224E+03  d E =-.330002E-02
       N       E                     dE             d eps       ncg     rms          rms(c)
DAV:   1    -0.657171408008E+03    0.30108E-05   -0.13928E-02 10608   0.383E-01    0.753E-02
RMM:   2    -0.657171866652E+03   -0.45864E-03   -0.24120E-03 12839   0.131E-01    0.186E-01
RMM:   3    -0.657171500100E+03    0.36655E-03   -0.35724E-04 11431   0.607E-02    0.375E-02
RMM:   4    -0.657171502328E+03   -0.22279E-05   -0.89935E-05 10781   0.225E-02
  23 F= -.65717150E+03 E0= -.65711228E+03  d E =-.338582E-02
       N       E                     dE             d eps       ncg     rms          rms(c)
DAV:   1    -0.657165671305E+03    0.58288E-02   -0.10322E+00  9696   0.327E+00    0.519E-01
RMM:   2    -0.657192540139E+03   -0.26869E-01   -0.15529E-01 13145   0.103E+00    0.131E+00
RMM:   3    -0.657174402884E+03    0.18137E-01   -0.19182E-02 12143   0.456E-01    0.238E-01
RMM:   4    -0.657174580407E+03   -0.17752E-03   -0.42570E-03 13334   0.153E-01    0.333E-01
RMM:   5    -0.657173626614E+03    0.95379E-03   -0.12836E-03 12836   0.901E-02    0.110E-01
RMM:   6    -0.657173569327E+03    0.57287E-04   -0.71151E-04 13439   0.587E-02    0.127E-01
RMM:   7    -0.657173477154E+03    0.92172E-04   -0.32762E-04 12962   0.394E-02    0.802E-02
RMM:   8    -0.657173423387E+03    0.53767E-04   -0.12984E-04 11922   0.256E-02    0.291E-02
RMM:   9    -0.657173425016E+03   -0.16286E-05   -0.55193E-05  9741   0.162E-02
  24 F= -.65717343E+03 E0= -.65711424E+03  d E =-.192269E-02
       N       E                     dE             d eps       ncg     rms          rms(c)
DAV:   1    -0.657173209950E+03    0.21344E-03   -0.32792E-02 10080   0.582E-01    0.924E-02
RMM:   2    -0.657174092153E+03   -0.88220E-03   -0.50146E-03 12874   0.185E-01    0.238E-01
RMM:   3    -0.657173496211E+03    0.59594E-03   -0.61411E-04 11209   0.813E-02    0.431E-02
RMM:   4    -0.657173502999E+03   -0.67876E-05   -0.14462E-04 10454   0.282E-02    0.593E-02
RMM:   5    -0.657173472061E+03    0.30937E-04   -0.44632E-05  7404   0.213E-02    0.191E-02
RMM:   6    -0.657173469286E+03    0.27749E-05   -0.25778E-05  6301   0.151E-02
  25 F= -.65717347E+03 E0= -.65711429E+03  d E =-.196696E-02
       N       E                     dE             d eps       ncg     rms          rms(c)
DAV:   1    -0.657173230188E+03    0.24187E-03   -0.13154E-01  9648   0.115E+00    0.172E-01
RMM:   2    -0.657176273143E+03   -0.30430E-02   -0.19808E-02 13680   0.371E-01    0.418E-01
RMM:   3    -0.657174527098E+03    0.17460E-02   -0.22368E-03 12583   0.154E-01    0.863E-02
RMM:   4    -0.657174552391E+03   -0.25293E-04   -0.50338E-04 12247   0.535E-02    0.124E-01
RMM:   5    -0.657174414335E+03    0.13806E-03   -0.16112E-04 10545   0.341E-02    0.352E-02
RMM:   6    -0.657174397173E+03    0.17162E-04   -0.10183E-04 10508   0.234E-02    0.268E-02
RMM:   7    -0.657174398812E+03   -0.16392E-05   -0.36399E-05  7200   0.181E-02
  26 F= -.65717440E+03 E0= -.65711524E+03  d E =-.929526E-03
       N       E                     dE             d eps       ncg     rms          rms(c)
DAV:   1    -0.657173630247E+03    0.76693E-03   -0.11817E-01  9480   0.109E+00    0.161E-01
RMM:   2    -0.657176251891E+03   -0.26216E-02   -0.17654E-02 13664   0.349E-01    0.381E-01
RMM:   3    -0.657174802561E+03    0.14493E-02   -0.19630E-03 12701   0.144E-01    0.814E-02
RMM:   4    -0.657174816674E+03   -0.14113E-04   -0.45287E-04 12198   0.502E-02    0.113E-01
RMM:   5    -0.657174705899E+03    0.11078E-03   -0.14718E-04 10261   0.330E-02    0.362E-02
RMM:   6    -0.657174690320E+03    0.15579E-04   -0.94501E-05 10181   0.222E-02    0.270E-02
RMM:   7    -0.657174690795E+03   -0.47572E-06   -0.36950E-05  7417   0.177E-02
  27 F= -.65717469E+03 E0= -.65711557E+03  d E =-.122151E-02
       N       E                     dE             d eps       ncg     rms          rms(c)
DAV:   1    -0.657174613398E+03    0.76922E-04   -0.17823E-01 10992   0.130E+00    0.300E-01
RMM:   2    -0.657181882002E+03   -0.72686E-02   -0.33270E-02 12334   0.481E-01    0.780E-01
RMM:   3    -0.657175487071E+03    0.63949E-02   -0.51107E-03 11580   0.244E-01    0.138E-01
RMM:   4    -0.657175539459E+03   -0.52388E-04   -0.12657E-03 13273   0.791E-02    0.183E-01
RMM:   5    -0.657175243672E+03    0.29579E-03   -0.35397E-04 12324   0.476E-02    0.624E-02
RMM:   6    -0.657175227110E+03    0.16561E-04   -0.25405E-04 12759   0.356E-02    0.698E-02
RMM:   7    -0.657175202918E+03    0.24192E-04   -0.10344E-04 10168   0.249E-02    0.444E-02
RMM:   8    -0.657175189461E+03    0.13457E-04   -0.28118E-05  6676   0.175E-02    0.140E-02
RMM:   9    -0.657175192931E+03   -0.34701E-05   -0.13469E-05  5989   0.146E-02
  28 F= -.65717519E+03 E0= -.65711609E+03  d E =-.502136E-03
       N       E                     dE             d eps       ncg     rms          rms(c)
DAV:   1    -0.657175173657E+03    0.15804E-04   -0.89607E-03 11184   0.292E-01    0.679E-02
RMM:   2    -0.657175559543E+03   -0.38589E-03   -0.16354E-03 11648   0.107E-01    0.178E-01
RMM:   3    -0.657175221693E+03    0.33785E-03   -0.25617E-04  9956   0.583E-02    0.303E-02
RMM:   4    -0.657175227781E+03   -0.60881E-05   -0.62369E-05  8160   0.194E-02
  29 F= -.65717523E+03 E0= -.65711615E+03  d E =-.536985E-03
       N       E                     dE             d eps       ncg     rms          rms(c)
DAV:   1    -0.657175051279E+03    0.17041E-03   -0.35533E-02 11160   0.580E-01    0.141E-01
RMM:   2    -0.657176604221E+03   -0.15529E-02   -0.67472E-03 12042   0.217E-01    0.368E-01
RMM:   3    -0.657175206245E+03    0.13980E-02   -0.10638E-03 10928   0.112E-01    0.703E-02
RMM:   4    -0.657175222145E+03   -0.15900E-04   -0.27727E-04 11789   0.376E-02    0.912E-02
RMM:   5    -0.657175148513E+03    0.73633E-04   -0.82463E-05  8784   0.257E-02    0.276E-02
RMM:   6    -0.657175151830E+03   -0.33171E-05   -0.62202E-05  8387   0.204E-02
  30 F= -.65717515E+03 E0= -.65711605E+03  d E =-.461034E-03
       N       E                     dE             d eps       ncg     rms          rms(c)
DAV:   1    -0.657175170974E+03   -0.22462E-04   -0.13755E-02 11208   0.361E-01    0.822E-02
RMM:   2    -0.657175736454E+03   -0.56548E-03   -0.25159E-03 12478   0.133E-01    0.220E-01
RMM:   3    -0.657175243876E+03    0.49258E-03   -0.40331E-04 11201   0.675E-02    0.406E-02
RMM:   4    -0.657175242894E+03    0.98257E-06   -0.93508E-05 10875   0.235E-02
  31 F= -.65717524E+03 E0= -.65711613E+03  d E =-.552098E-03
       N       E                     dE             d eps       ncg     rms          rms(c)
DAV:   1    -0.657175240129E+03    0.37470E-05   -0.24784E-03 11280   0.154E-01    0.454E-02
RMM:   2    -0.657175356504E+03   -0.11637E-03   -0.49857E-04 11611   0.581E-02    0.112E-01
RMM:   3    -0.657175238770E+03    0.11773E-03   -0.91692E-05  8522   0.339E-02    0.280E-02
RMM:   4    -0.657175236918E+03    0.18522E-05   -0.23658E-05  6134   0.147E-02
  32 F= -.65717524E+03 E0= -.65711613E+03  d E =-.546122E-03
       N       E                     dE             d eps       ncg     rms          rms(c)
DAV:   1    -0.657175229359E+03    0.94106E-05   -0.17394E-04 12336   0.438E-02    0.158E-02
RMM:   2    -0.657175247402E+03   -0.18042E-04   -0.48262E-05  7479   0.170E-02    0.500E-02
RMM:   3    -0.657175226511E+03    0.20891E-04   -0.11021E-05  5841   0.136E-02    0.986E-03
RMM:   4    -0.657175224841E+03    0.16702E-05   -0.27390E-06  4821   0.744E-03
  33 F= -.65717522E+03 E0= -.65711613E+03  d E =-.534045E-03
       N       E                     dE             d eps       ncg     rms          rms(c)
DAV:   1    -0.657174517669E+03    0.70884E-03   -0.13604E-01  9792   0.106E+00    0.127E-01
RMM:   2    -0.657176328909E+03   -0.18112E-02   -0.16479E-02 13887   0.325E-01    0.243E-01
RMM:   3    -0.657175787089E+03    0.54182E-03   -0.14420E-03 12688   0.128E-01    0.772E-02
RMM:   4    -0.657175762345E+03    0.24744E-04   -0.31045E-04 12110   0.438E-02    0.832E-02
RMM:   5    -0.657175708931E+03    0.53414E-04   -0.11211E-04 10166   0.294E-02    0.410E-02
RMM:   6    -0.657175699297E+03    0.96345E-05   -0.69572E-05  8900   0.198E-02
  34 F= -.65717570E+03 E0= -.65711655E+03  d E =-.474456E-03
       N       E                     dE             d eps       ncg     rms          rms(c)
DAV:   1    -0.657174219088E+03    0.14898E-02   -0.18522E-01  9744   0.123E+00    0.153E-01
RMM:   2    -0.657176884960E+03   -0.26659E-02   -0.22859E-02 13871   0.384E-01    0.317E-01
RMM:   3    -0.657175956646E+03    0.92831E-03   -0.21038E-03 12847   0.152E-01    0.926E-02
RMM:   4    -0.657175979388E+03   -0.22742E-04   -0.48566E-04 12232   0.532E-02    0.125E-01
RMM:   5    -0.657175844262E+03    0.13513E-03   -0.17378E-04 11080   0.353E-02    0.391E-02
RMM:   6    -0.657175834734E+03    0.95279E-05   -0.11092E-04 10689   0.227E-02    0.403E-02
RMM:   7    -0.657175825594E+03    0.91393E-05   -0.38568E-05  8038   0.184E-02
  35 F= -.65717583E+03 E0= -.65711658E+03  d E =-.600754E-03
       N       E                     dE             d eps       ncg     rms          rms(c)
DAV:   1    -0.657174421296E+03    0.14134E-02   -0.12966E-01  9960   0.107E+00    0.870E-02
RMM:   2    -0.657176355257E+03   -0.19340E-02   -0.19452E-02 13606   0.335E-01    0.140E-01
RMM:   3    -0.657176245224E+03    0.11003E-03   -0.13655E-03 12757   0.123E-01    0.700E-02
RMM:   4    -0.657176213917E+03    0.31307E-04   -0.23457E-04 10647   0.392E-02    0.476E-02
RMM:   5    -0.657176200630E+03    0.13287E-04   -0.63063E-05  8632   0.225E-02    0.289E-02
RMM:   6    -0.657176193336E+03    0.72937E-05   -0.32012E-05  6937   0.155E-02
  36 F= -.65717619E+03 E0= -.65711698E+03  d E =-.367742E-03
       N       E                     dE             d eps       ncg     rms          rms(c)
DAV:   1    -0.657160674704E+03    0.15526E-01   -0.11641E+00  9960   0.322E+00    0.262E-01
RMM:   2    -0.657177970644E+03   -0.17296E-01   -0.17389E-01 13619   0.100E+00    0.418E-01
RMM:   3    -0.657176940582E+03    0.10301E-02   -0.12106E-02 13056   0.370E-01    0.198E-01
RMM:   4    -0.657176708453E+03    0.23213E-03   -0.20722E-03 13992   0.111E-01    0.143E-01
RMM:   5    -0.657176603405E+03    0.10505E-03   -0.53043E-04 12197   0.532E-02    0.889E-02
RMM:   6    -0.657176535644E+03    0.67761E-04   -0.32936E-04 12227   0.355E-02    0.567E-02
RMM:   7    -0.657176549063E+03   -0.13420E-04   -0.19143E-04 11630   0.303E-02    0.765E-02
RMM:   8    -0.657176505154E+03    0.43909E-04   -0.86944E-05 10505   0.213E-02    0.187E-02
RMM:   9    -0.657176506171E+03   -0.10167E-05   -0.31723E-05  7212   0.157E-02
  37 F= -.65717651E+03 E0= -.65711738E+03  d E =-.680577E-03
       N       E                     dE             d eps       ncg     rms          rms(c)
DAV:   1    -0.657175483406E+03    0.10217E-02   -0.78218E-02 10008   0.834E-01    0.673E-02
RMM:   2    -0.657176654316E+03   -0.11709E-02   -0.11632E-02 13623   0.260E-01    0.112E-01
RMM:   3    -0.657176567705E+03    0.86611E-04   -0.78308E-04 12668   0.957E-02    0.498E-02
RMM:   4    -0.657176547234E+03    0.20471E-04   -0.12008E-04  8915   0.295E-02    0.327E-02
RMM:   5    -0.657176541461E+03    0.57729E-05   -0.29064E-05  6538   0.186E-02
  38 F= -.65717654E+03 E0= -.65711739E+03  d E =-.715866E-03
       N       E                     dE             d eps       ncg     rms          rms(c)
DAV:   1    -0.657173778209E+03    0.27690E-02   -0.24245E-01  9744   0.159E+00    0.245E-01
RMM:   2    -0.657180470611E+03   -0.66924E-02   -0.46797E-02 13892   0.545E-01    0.581E-01
RMM:   3    -0.657177019467E+03    0.34511E-02   -0.47072E-03 12953   0.219E-01    0.130E-01
RMM:   4    -0.657177006539E+03    0.12928E-04   -0.10129E-03 13146   0.719E-02    0.149E-01
RMM:   5    -0.657176821254E+03    0.18528E-03   -0.26300E-04 11619   0.466E-02    0.598E-02
RMM:   6    -0.657176792180E+03    0.29074E-04   -0.17307E-04 12485   0.293E-02    0.511E-02
RMM:   7    -0.657176795471E+03   -0.32910E-05   -0.96197E-05  9943   0.241E-02
  39 F= -.65717680E+03 E0= -.65711774E+03  d E =-.254011E-03
       N       E                     dE             d eps       ncg     rms          rms(c)
DAV:   1    -0.657176726779E+03    0.65401E-04   -0.24670E-03 10776   0.164E-01    0.271E-02
RMM:   2    -0.657176829995E+03   -0.10322E-03   -0.53361E-04 12260   0.576E-02    0.817E-02
RMM:   3    -0.657176767657E+03    0.62338E-04   -0.67539E-05  7851   0.293E-02    0.187E-02
RMM:   4    -0.657176767143E+03    0.51340E-06   -0.14037E-05  6011   0.133E-02
  40 F= -.65717677E+03 E0= -.65711773E+03  d E =-.225683E-03
       N       E                     dE             d eps       ncg     rms          rms(c)
DAV:   1    -0.657174123277E+03    0.26444E-02   -0.23513E-01  9744   0.149E+00    0.220E-01
RMM:   2    -0.657180707494E+03   -0.65842E-02   -0.42903E-02 13771   0.519E-01    0.580E-01
RMM:   3    -0.657177330701E+03    0.33768E-02   -0.44439E-03 12907   0.213E-01    0.101E-01
RMM:   4    -0.657177347638E+03   -0.16937E-04   -0.86464E-04 13063   0.658E-02    0.129E-01
RMM:   5    -0.657177205495E+03    0.14214E-03   -0.21399E-04 11485   0.402E-02    0.502E-02
RMM:   6    -0.657177188956E+03    0.16539E-04   -0.15554E-04 12041   0.264E-02    0.485E-02
RMM:   7    -0.657177181086E+03    0.78705E-05   -0.70683E-05  9107   0.217E-02
  41 F= -.65717718E+03 E0= -.65711818E+03  d E =-.413943E-03
       N       E                     dE             d eps       ncg     rms          rms(c)
DAV:   1    -0.657177061119E+03    0.12784E-03   -0.10578E-02 10416   0.318E-01    0.469E-02
RMM:   2    -0.657177348394E+03   -0.28728E-03   -0.19616E-03 13042   0.110E-01    0.121E-01
RMM:   3    -0.657177205989E+03    0.14241E-03   -0.20903E-04 11254   0.493E-02    0.243E-02
RMM:   4    -0.657177204639E+03    0.13499E-05   -0.40807E-05  7100   0.163E-02
  42 F= -.65717720E+03 E0= -.65711820E+03  d E =-.437496E-03
       N       E                     dE             d eps       ncg     rms          rms(c)
DAV:   1    -0.657176668872E+03    0.53712E-03   -0.42704E-02  9840   0.636E-01    0.974E-02
RMM:   2    -0.657177883084E+03   -0.12142E-02   -0.78226E-03 13662   0.222E-01    0.256E-01
RMM:   3    -0.657177245738E+03    0.63735E-03   -0.80824E-04 12124   0.900E-02    0.499E-02
RMM:   4    -0.657177248438E+03   -0.26998E-05   -0.16975E-04 10625   0.299E-02    0.605E-02
RMM:   5    -0.657177214472E+03    0.33966E-04   -0.42145E-05  7232   0.221E-02    0.217E-02
RMM:   6    -0.657177212865E+03    0.16064E-05   -0.38819E-05  7073   0.159E-02
  43 F= -.65717721E+03 E0= -.65711824E+03  d E =-.445722E-03
       N       E                     dE             d eps       ncg     rms          rms(c)
DAV:   1    -0.657174320747E+03    0.28937E-02   -0.22602E-01  9744   0.151E+00    0.165E-01
RMM:   2    -0.657178894488E+03   -0.45737E-02   -0.38074E-02 13796   0.481E-01    0.373E-01
RMM:   3    -0.657177585216E+03    0.13093E-02   -0.32070E-03 12963   0.182E-01    0.930E-02
RMM:   4    -0.657177580596E+03    0.46195E-05   -0.59184E-04 12502   0.574E-02    0.101E-01
RMM:   5    -0.657177497778E+03    0.82818E-04   -0.14923E-04 10757   0.327E-02    0.434E-02
RMM:   6    -0.657177483892E+03    0.13886E-04   -0.12410E-04 10872   0.234E-02    0.368E-02
RMM:   7    -0.657177479953E+03    0.39394E-05   -0.49420E-05  8372   0.188E-02
  44 F= -.65717748E+03 E0= -.65711860E+03  d E =-.267088E-03
       N       E                     dE             d eps       ncg     rms          rms(c)
DAV:   1    -0.657176814182E+03    0.66971E-03   -0.49583E-02  9744   0.707E-01    0.783E-02
RMM:   2    -0.657177836033E+03   -0.10219E-02   -0.84211E-03 13594   0.225E-01    0.183E-01
RMM:   3    -0.657177532237E+03    0.30380E-03   -0.73177E-04 12385   0.888E-02    0.467E-02
RMM:   4    -0.657177530595E+03    0.16419E-05   -0.14562E-04  9933   0.282E-02    0.483E-02
RMM:   5    -0.657177510836E+03    0.19759E-04   -0.33359E-05  6915   0.193E-02    0.213E-02
RMM:   6    -0.657177509371E+03    0.14648E-05   -0.23150E-05  6354   0.138E-02
  45 F= -.65717751E+03 E0= -.65711868E+03  d E =-.296506E-03
       N       E                     dE             d eps       ncg     rms          rms(c)
DAV:   1    -0.657175348517E+03    0.21623E-02   -0.22774E-01  9816   0.159E+00    0.290E-01
RMM:   2    -0.657183877532E+03   -0.85290E-02   -0.47738E-02 12937   0.562E-01    0.756E-01
RMM:   3    -0.657178011168E+03    0.58664E-02   -0.60988E-03 12057   0.265E-01    0.144E-01
RMM:   4    -0.657178071980E+03   -0.60811E-04   -0.13714E-03 13326   0.831E-02    0.185E-01
RMM:   5    -0.657177772623E+03    0.29936E-03   -0.34766E-04 12525   0.471E-02    0.617E-02
RMM:   6    -0.657177767084E+03    0.55394E-05   -0.24417E-04 12756   0.342E-02    0.793E-02
RMM:   7    -0.657177733299E+03    0.33785E-04   -0.12858E-04 10652   0.272E-02    0.469E-02
RMM:   8    -0.657177718305E+03    0.14995E-04   -0.41778E-05  7165   0.193E-02    0.183E-02
RMM:   9    -0.657177721029E+03   -0.27242E-05   -0.17867E-05  6183   0.165E-02
  46 F= -.65717772E+03 E0= -.65711908E+03  d E =-.211658E-03
       N       E                     dE             d eps       ncg     rms          rms(c)
DAV:   1    -0.657177690215E+03    0.28090E-04   -0.40220E-03 10800   0.212E-01    0.386E-02
RMM:   2    -0.657177833980E+03   -0.14377E-03   -0.85998E-04 12605   0.753E-02    0.948E-02
RMM:   3    -0.657177739961E+03    0.94019E-04   -0.10977E-04  9791   0.376E-02    0.193E-02
RMM:   4    -0.657177740731E+03   -0.76942E-06   -0.23162E-05  6245   0.143E-02
  47 F= -.65717774E+03 E0= -.65711906E+03  d E =-.231360E-03
       N       E                     dE             d eps       ncg     rms          rms(c)
DAV:   1    -0.657176009789E+03    0.17302E-02   -0.12577E-01  9744   0.120E+00    0.826E-02
RMM:   2    -0.657177908518E+03   -0.18987E-02   -0.20358E-02 13614   0.352E-01    0.716E-02
RMM:   3    -0.657178001593E+03   -0.93074E-04   -0.14524E-03 12825   0.132E-01    0.103E-01
RMM:   4    -0.657177919794E+03    0.81798E-04   -0.25155E-04 10387   0.422E-02    0.302E-02
RMM:   5    -0.657177920973E+03   -0.11790E-05   -0.61021E-05  8739   0.208E-02
  48 F= -.65717792E+03 E0= -.65711935E+03  d E =-.180243E-03
       N       E                     dE             d eps       ncg     rms          rms(c)
DAV:   1    -0.657177420817E+03    0.49898E-03   -0.35826E-02  9792   0.636E-01    0.477E-02
RMM:   2    -0.657178004218E+03   -0.58340E-03   -0.58062E-03 13521   0.189E-01    0.861E-02
RMM:   3    -0.657177970008E+03    0.34211E-04   -0.45903E-04 11729   0.715E-02    0.396E-02
RMM:   4    -0.657177959392E+03    0.10616E-04   -0.69009E-05  7219   0.261E-02    0.234E-02
RMM:   5    -0.657177959134E+03    0.25702E-06   -0.24829E-05  6781   0.155E-02
  49 F= -.65717796E+03 E0= -.65711943E+03  d E =-.218404E-03
       N       E                     dE             d eps       ncg     rms          rms(c)
DAV:   1    -0.657175766009E+03    0.21934E-02   -0.14461E-01  9744   0.128E+00    0.878E-02
RMM:   2    -0.657177965611E+03   -0.21996E-02   -0.23404E-02 13647   0.379E-01    0.880E-02
RMM:   3    -0.657178060360E+03   -0.94748E-04   -0.17259E-03 12937   0.140E-01    0.109E-01
RMM:   4    -0.657177970550E+03    0.89810E-04   -0.29930E-04 10882   0.454E-02    0.324E-02
RMM:   5    -0.657177971739E+03   -0.11892E-05   -0.84453E-05  9688   0.215E-02
  50 F= -.65717797E+03 E0= -.65711956E+03  d E =-.231008E-03
       N       E                     dE             d eps       ncg     rms          rms(c)
DAV:   1    -0.657176952146E+03    0.10184E-02   -0.67451E-02  9744   0.876E-01    0.655E-02
RMM:   2    -0.657178060465E+03   -0.11083E-02   -0.11071E-02 13559   0.260E-01    0.114E-01
RMM:   3    -0.657178014829E+03    0.45637E-04   -0.82486E-04 12450   0.989E-02    0.667E-02
RMM:   4    -0.657177980741E+03    0.34087E-04   -0.12366E-04  8384   0.311E-02    0.232E-02
RMM:   5    -0.657177976687E+03    0.40542E-05   -0.22455E-05  6272   0.173E-02
  51 F= -.65717798E+03 E0= -.65711948E+03  d E =-.235957E-03
       N       E                     dE             d eps       ncg     rms          rms(c)
DAV:   1    -0.657177982227E+03   -0.14858E-05   -0.41929E-02 11352   0.709E-01    0.176E-01
RMM:   2    -0.657180436412E+03   -0.24542E-02   -0.10076E-02 12360   0.258E-01    0.458E-01
RMM:   3    -0.657178203033E+03    0.22334E-02   -0.16550E-03 11001   0.137E-01    0.779E-02
RMM:   4    -0.657178231425E+03   -0.28392E-04   -0.41471E-04 12111   0.467E-02    0.112E-01
RMM:   5    -0.657178115102E+03    0.11632E-03   -0.11701E-04  9442   0.285E-02    0.336E-02
RMM:   6    -0.657178107514E+03    0.75887E-05   -0.71684E-05  8603   0.242E-02
  52 F= -.65717811E+03 E0= -.65711969E+03  d E =-.130827E-03
       N       E                     dE             d eps       ncg     rms          rms(c)
DAV:   1    -0.657178088617E+03    0.26486E-04   -0.28846E-03 11472   0.190E-01    0.540E-02
RMM:   2    -0.657178370327E+03   -0.28171E-03   -0.84611E-04 10803   0.739E-02    0.165E-01
RMM:   3    -0.657178100067E+03    0.27026E-03   -0.16140E-04  8674   0.452E-02    0.266E-02
RMM:   4    -0.657178099148E+03    0.91967E-06   -0.30346E-05  6738   0.161E-02
  53 F= -.65717810E+03 E0= -.65711967E+03  d E =-.122461E-03
