HECN                                    
           1
    11.240000    0.000000    0.000000
     0.000000   11.240000    0.000000
     0.000000    0.000000   11.240000
   Zr   W    Hf   N    C    Nb   V 
   7   6   7  13  19   6   6
Direct configuration=     1
   0.00000000  0.00000000  0.00000000
   0.25000000  0.00000000  0.25000000
   0.25000000  0.50000000  0.25000000
   0.50000000  0.50000000  0.00000000
   0.50000000  0.25000000  0.75000004
   0.00000000  0.50000000  0.50000000
   0.50000000  0.75000004  0.75000004
   0.00000000  0.25000000  0.25000000
   0.75000004  0.75000004  0.00000000
   0.00000000  0.25000000  0.75000004
   0.75000004  0.25000000  0.50000000
   0.00000000  0.75000004  0.75000004
   0.25000000  0.50000000  0.75000004
   0.25000000  0.25000000  0.00000000
   0.50000000  0.25000000  0.25000000
   0.75000004  0.00000000  0.25000000
   0.75000004  0.25000000  0.00000000
   0.25000000  0.75000004  0.00000000
   0.25000000  0.25000000  0.50000000
   0.25000000  0.75000004  0.50000000
   0.25000000  0.25000000  0.25000000
   0.25000000  0.00000000  0.00000000
   0.00000000  0.25000000  0.00000000
   0.75000004  0.25000000  0.25000000
   0.75000004  0.00000000  0.00000000
   0.50000000  0.00000000  0.25000000
   0.00000000  0.50000000  0.25000000
   0.50000000  0.75000004  0.00000000
   0.00000000  0.00000000  0.75000004
   0.75000004  0.25000000  0.75000004
   0.75000004  0.00000000  0.50000000
   0.50000000  0.25000000  0.50000000
   0.50000000  0.00000000  0.75000004
   0.00000000  0.00000000  0.25000000
   0.50000000  0.25000000  0.00000000
   0.25000000  0.75000004  0.25000000
   0.25000000  0.50000000  0.00000000
   0.00000000  0.75000004  0.00000000
   0.75000004  0.75000004  0.25000000
   0.75000004  0.50000000  0.00000000
   0.50000000  0.50000000  0.25000000
   0.25000000  0.25000000  0.75000004
   0.25000000  0.00000000  0.50000000
   0.00000000  0.25000000  0.50000000
   0.25000000  0.75000004  0.75000004
   0.25000000  0.50000000  0.50000000
   0.00000000  0.75000004  0.50000000
   0.00000000  0.50000000  0.75000004
   0.75000004  0.75000004  0.75000004
   0.75000004  0.50000000  0.50000000
   0.50000000  0.75000004  0.50000000
   0.50000000  0.50000000  0.75000004
   0.50000000  0.00000000  0.00000000
   0.00000000  0.50000000  0.00000000
   0.50000000  0.75000004  0.25000000
   0.25000000  0.00000000  0.75000004
   0.50000000  0.00000000  0.50000000
   0.75000004  0.00000000  0.75000004
   0.00000000  0.75000004  0.25000000
   0.75000004  0.50000000  0.25000000
   0.00000000  0.00000000  0.50000000
   0.50000000  0.50000000  0.50000000
   0.75000004  0.50000000  0.75000004
   0.75000004  0.75000004  0.50000000
HECN                                    
           1
     8.041384   -0.002884    0.000974
    -0.002884    8.050711    0.000955
     0.000974    0.000955    8.052548
   Zr   W    Hf   N    C    Nb   V 
   7   6   7  13  19   6   6
Direct configuration=     2
  -0.00069456 -0.00158817  0.00050644
   0.24828661 -0.00182468  0.25203736
   0.25040107  0.50177147  0.25020463
   0.50064758  0.49970161 -0.00006983
   0.49918807  0.25123158  0.75013319
  -0.00067065  0.50012952  0.50090920
   0.50045950  0.74889582  0.74841248
  -0.00094995  0.24732128  0.25241514
   0.75322722  0.74697656 -0.00010072
   0.00221326  0.25236193  0.74723840
   0.75312413  0.25247631  0.50085659
  -0.00078871  0.74762142  0.74943976
   0.25026044  0.50019160  0.75001057
   0.24984014  0.25168860 -0.00237906
   0.50107180  0.25178022  0.24967587
   0.75189221 -0.00164946  0.25109189
   0.74991327  0.25208591 -0.00058332
   0.24829736  0.74833407 -0.00045700
   0.24847705  0.24999789  0.50236562
   0.24980010  0.75002479  0.50057135
   0.25174007  0.24969357  0.24982717
   0.24908974  0.00028402  0.00096434
   0.00011974  0.24933063  0.00001718
   0.74880938  0.24719333  0.24910228
   0.75061840  0.00158325  0.00128887
   0.50118972  0.00167912  0.25000448
   0.00154641  0.49791496  0.25009234
   0.49858980  0.74972548 -0.00063892
  -0.00052375  0.00007332  0.75205949
   0.74953487  0.24812093  0.75098987
   0.74852467  0.00207109  0.49880239
   0.49893207  0.24834069  0.49919122
   0.50045254  0.00016514  0.74993920
  -0.00122229  0.00266822  0.24841749
   0.50020026  0.24912240  0.00093600
   0.25207793  0.75036074  0.24953664
   0.24925403  0.49973325 -0.00026638
  -0.00044900  0.74978486 -0.00216668
   0.74808835  0.75211839  0.24764536
   0.75087599  0.50006657  0.00021523
   0.49914724  0.49933199  0.24900031
   0.24905484  0.25015218  0.75020217
   0.25173515  0.00043738  0.50006725
  -0.00099515  0.25078378  0.50005802
   0.24931787  0.74986735  0.75030124
   0.24858461  0.49958698  0.50038130
   0.00156601  0.74905133  0.50264386
   0.00173358  0.49990863  0.75083463
   0.75106451  0.75193343  0.75219146
   0.75106179  0.49713090  0.49980517
   0.49841511  0.75187778  0.49961768
   0.49814539  0.49978503  0.75097161
   0.50106358  0.00137019 -0.00037501
  -0.00086961  0.50220024 -0.00211986
   0.50096140  0.74807915  0.25223804
   0.24962308 -0.00029175  0.74730449
   0.49863325 -0.00241989  0.50023114
   0.75070996 -0.00212460  0.74908618
  -0.00053454  0.75173456  0.25027365
   0.74864013  0.50203193  0.25019322
   0.00102486  0.00012967  0.49895895
   0.50046718  0.50174177  0.50006786
   0.74976141  0.50184350  0.74982815
   0.75024414  0.74830093  0.50000302
HECN                                    
           1
     9.067892   -0.001958    0.000661
    -0.001958    9.074226    0.000648
     0.000661    0.000648    9.075473
   Zr   W    Hf   N    C    Nb   V 
   7   6   7  13  19   6   6
Direct configuration=     3
  -0.00038272 -0.00087644  0.00027945
   0.24905560 -0.00100674  0.25112453
   0.25022088  0.50097770  0.25011308
   0.50035713  0.49983520 -0.00003853
   0.49955209  0.25067990  0.75007357
  -0.00036978  0.50007164  0.50050189
   0.50025347  0.74939041  0.74912360
  -0.00052326  0.24852178  0.25133307
   0.75178007  0.74833073 -0.00005559
   0.00121992  0.25130315  0.74847574
   0.75172239  0.25136633  0.50047318
  -0.00043456  0.74868728  0.74969057
   0.25014358  0.50010571  0.75000588
   0.24991145  0.25093191 -0.00131327
   0.50059071  0.25098239  0.24982122
   0.75104375 -0.00091066  0.25060279
   0.74995183  0.25115129 -0.00032191
   0.24906137  0.74908077 -0.00025247
   0.24916034  0.24999921  0.50130585
   0.24988980  0.75001376  0.50031540
   0.25095955  0.24983058  0.24990467
   0.24949807  0.00015696  0.00053232
   0.00006614  0.24963053  0.00000946
   0.74934388  0.24845102  0.24950421
   0.75034083  0.00087383  0.00071163
   0.50065577  0.00092659  0.25000262
   0.00085307  0.49884893  0.25005095
   0.49922239  0.74984869 -0.00035280
  -0.00028871  0.00004066  0.75113693
   0.74974389  0.24896298  0.75054635
   0.74918609  0.00114330  0.49933889
   0.49941134  0.24908428  0.49955337
   0.50024951  0.00009107  0.74996649
  -0.00067451  0.00147282  0.24912645
   0.50011062  0.24951563  0.00051668
   0.25114574  0.75019877  0.24974434
   0.24958868  0.49985287 -0.00014711
  -0.00024767  0.74988123 -0.00119614
   0.74894542  0.75116943  0.24870014
   0.75048306  0.50003662  0.00011887
   0.49952982  0.49963138  0.24944804
   0.24947880  0.25008416  0.75011158
   0.25095674  0.00024113  0.50003724
  -0.00054887  0.25043276  0.50003202
   0.24962390  0.74992693  0.75016627
   0.24921961  0.49977229  0.50021040
   0.00086383  0.74947630  0.50145957
   0.00095600  0.49994934  0.75046086
   0.75058682  0.75106711  0.75120996
   0.75058596  0.49841623  0.49989235
   0.49912573  0.75103668  0.49978896
   0.49897741  0.49988170  0.75053628
   0.50058624  0.00075608 -0.00020689
  -0.00047999  0.50121444 -0.00117019
   0.50053057  0.74893978  0.25123545
   0.24979206 -0.00016111  0.74851194
   0.49924674 -0.00133541  0.50012740
   0.75039180 -0.00117282  0.74949547
  -0.00029502  0.75095750  0.25015113
   0.74924984  0.50112174  0.25010670
   0.00056505  0.00007135  0.49942536
   0.50025734  0.50096129  0.50003758
   0.74986815  0.50101754  0.74990524
   0.75013492  0.74906219  0.50000159
HECN                                    
           1
     8.988846   -0.002029    0.000685
    -0.002029    8.995410    0.000672
     0.000685    0.000672    8.996703
   Zr   W    Hf   N    C    Nb   V 
   7   6   7  13  19   6   6
Direct configuration=     4
  -0.00040400 -0.00092506  0.00029496
   0.24900310 -0.00106261  0.25118689
   0.25023318  0.50103193  0.25011934
   0.50037697  0.49982607 -0.00004067
   0.49952723  0.25071759  0.75007764
  -0.00039033  0.50007560  0.50052972
   0.50026754  0.74935662  0.74907501
  -0.00055238  0.24843977  0.25140700
   0.75187890  0.74823820 -0.00005867
   0.00128774  0.25137547  0.74839120
   0.75181810  0.25144215  0.50049938
  -0.00045873  0.74861446  0.74967343
   0.25015156  0.50011158  0.75000620
   0.24990657  0.25098361 -0.00138609
   0.50062356  0.25103689  0.24981129
   0.75110170 -0.00096114  0.25063621
   0.74994918  0.25121514 -0.00033977
   0.24900920  0.74902976 -0.00026645
   0.24911368  0.24999913  0.50137826
   0.24988368  0.75001452  0.50033289
   0.25101285  0.24982121  0.24989937
   0.24947019  0.00016565  0.00056184
   0.00006980  0.24961004  0.00000998
   0.74930739  0.24836510  0.24947674
   0.75035978  0.00092230  0.00075107
   0.50069223  0.00097800  0.25000276
   0.00090042  0.49878512  0.25005378
   0.49917920  0.74984028 -0.00037236
  -0.00030476  0.00004290  0.75119996
   0.74972963  0.24890546  0.75057665
   0.74914091  0.00120669  0.49930224
   0.49937862  0.24903349  0.49952862
   0.50026338  0.00009613  0.74996463
  -0.00071193  0.00155449  0.24907802
   0.50011675  0.24948876  0.00054533
   0.25120939  0.75020983  0.24973015
   0.24956583  0.49984470 -0.00015526
  -0.00026142  0.74987464 -0.00126245
   0.74888688  0.75123427  0.24862807
   0.75050989  0.50003866  0.00012545
   0.49950370  0.49961093  0.24941745
   0.24944985  0.25008881  0.75011777
   0.25100989  0.00025453  0.50003929
  -0.00057935  0.25045675  0.50003379
   0.24960300  0.74992286  0.75017549
   0.24917625  0.49975963  0.50022207
   0.00091179  0.74944726  0.50154049
   0.00100910  0.49994655  0.75048640
   0.75061944  0.75112630  0.75127703
   0.75061847  0.49832842  0.49988639
   0.49907720  0.75109415  0.49977726
   0.49892059  0.49987510  0.75056602
   0.50061883  0.00079803 -0.00021838
  -0.00050661  0.50128179 -0.00123508
   0.50056000  0.74888098  0.25130395
   0.24978052 -0.00017004  0.74842944
   0.49920486 -0.00140949  0.50013448
   0.75041354 -0.00123785  0.74946751
  -0.00031139  0.75101059  0.25015950
   0.74920819  0.50118393  0.25011261
   0.00059645  0.00007533  0.49939349
   0.50027166  0.50101461  0.50003965
   0.74986085  0.50107397  0.74989997
   0.75014238  0.74901018  0.50000169
HECN                                    
           1
     8.946612   -0.002068    0.000698
    -0.002068    8.953299    0.000685
     0.000698    0.000685    8.954616
   Zr   W    Hf   N    C    Nb   V 
   7   6   7  13  19   6   6
Direct configuration=     5
  -0.00041548 -0.00095127  0.00030332
   0.24897480 -0.00109272  0.25122051
   0.25023981  0.50106116  0.25012271
   0.50038766  0.49982115 -0.00004182
   0.49951383  0.25073791  0.75007984
  -0.00040140  0.50007774  0.50054472
   0.50027513  0.74933840  0.74904882
  -0.00056808  0.24839557  0.25144685
   0.75193218  0.74818833 -0.00006033
   0.00132429  0.25141445  0.74834564
   0.75186969  0.25148301  0.50051351
  -0.00047176  0.74857521  0.74966419
   0.25015586  0.50011474  0.75000638
   0.24990394  0.25101147 -0.00142533
   0.50064126  0.25106627  0.24980594
   0.75113294 -0.00098835  0.25065422
   0.74994776  0.25124956 -0.00034940
   0.24898108  0.74900227 -0.00027398
   0.24908853  0.24999908  0.50141728
   0.24988037  0.75001492  0.50034231
   0.25104158  0.24981616  0.24989652
   0.24945516  0.00017033  0.00057775
   0.00007178  0.24959899  0.00001027
   0.74928772  0.24831879  0.24946193
   0.75037000  0.00094842  0.00077233
   0.50071187  0.00100571  0.25000283
   0.00092595  0.49875072  0.25005530
   0.49915591  0.74983574 -0.00038289
  -0.00031341  0.00004410  0.75123393
   0.74972194  0.24887445  0.75059298
   0.74911656  0.00124085  0.49928248
   0.49936098  0.24900611  0.49951528
   0.50027085  0.00009885  0.74996362
  -0.00073210  0.00159851  0.24905191
   0.50012005  0.24947428  0.00056077
   0.25124370  0.75021579  0.24972250
   0.24955351  0.49984030 -0.00015965
  -0.00026883  0.74987109 -0.00129820
   0.74885533  0.75126922  0.24858923
   0.75052436  0.50003976  0.00012900
   0.49948962  0.49959991  0.24940096
   0.24943424  0.25009132  0.75012111
   0.25103854  0.00026176  0.50004040
  -0.00059578  0.25046968  0.50003475
   0.24959174  0.74992067  0.75018046
   0.24915287  0.49975281  0.50022836
   0.00093764  0.74943161  0.50158410
   0.00103772  0.49994505  0.75050017
   0.75063702  0.75115820  0.75131318
   0.75063599  0.49828108  0.49988318
   0.49905104  0.75112513  0.49977095
   0.49888997  0.49987155  0.75058205
   0.50063640  0.00082064 -0.00022456
  -0.00052096  0.50131809 -0.00127005
   0.50057586  0.74884929  0.25134088
   0.24977429 -0.00017485  0.74838497
   0.49918228 -0.00144943  0.50013830
   0.75042525 -0.00127290  0.74945243
  -0.00032021  0.75103920  0.25016401
   0.74918575  0.50121745  0.25011580
   0.00061337  0.00007747  0.49937632
   0.50027938  0.50104335  0.50004077
   0.74985692  0.50110439  0.74989713
   0.75014641  0.74898215  0.50000174
HECN                                    
           1
     8.916835    0.005622    0.000932
     0.005635    8.958884    0.006168
     0.000934    0.006173    8.914976
   Zr   W    Hf   N    C    Nb   V 
   7   6   7  13  19   6   6
Direct configuration=     6
  -0.00185427 -0.00273633  0.00078248
   0.24621671 -0.00138454  0.25311403
   0.24952441  0.50205871  0.25117460
   0.50372342  0.50061526 -0.00004762
   0.50043640  0.25109914  0.74733875
  -0.00439325  0.50178064  0.49948711
   0.50353163  0.74852657  0.74614162
  -0.00335534  0.24229684  0.25590532
   0.75869578  0.74184474  0.00033436
   0.00365284  0.25559142  0.74396833
   0.75640013  0.25659231  0.50199749
  -0.00369749  0.74444935  0.74815731
   0.25253510  0.49984307  0.74978762
   0.24624663  0.24980785 -0.00310703
   0.50297970  0.25319275  0.25238532
   0.75401606 -0.00415393  0.25442994
   0.75214013  0.25450147 -0.00163138
   0.24633474  0.74946878 -0.00102987
   0.24824299  0.24972463  0.50348308
   0.24867072  0.75025473  0.50108840
   0.25092709  0.24960670  0.25042012
   0.25091489  0.00001548 -0.00081692
   0.00023213  0.25195146  0.00030649
   0.75011391  0.25120900  0.25135191
   0.74842376  0.00041975  0.00113233
   0.50382795  0.00107961  0.25042833
  -0.00517692  0.49917404  0.24727355
   0.50035791  0.75213568  0.00131091
  -0.00100665 -0.00027650  0.74581227
   0.75261574  0.25125437  0.74882909
   0.75204236  0.00005674  0.49961744
   0.50140680  0.25148009  0.49787023
   0.50077592 -0.00003409  0.74939661
  -0.00319760  0.00039986  0.25580576
   0.50090393  0.24566078  0.00211729
   0.25002252  0.75039070  0.24977996
   0.24457828  0.49996178 -0.00385265
  -0.00390876  0.74618029  0.00002775
   0.75144065  0.74549626  0.24996797
   0.75520401  0.50412406  0.00072334
   0.50748041  0.50173534  0.25680332
   0.24448435  0.25093920  0.74967544
   0.24829985  0.00034955  0.50321685
  -0.00490706  0.24339827  0.50032930
   0.24482430  0.74902386  0.74980402
   0.25450480  0.49951247  0.50450675
  -0.00493859  0.75703088  0.50146868
  -0.00180029  0.50009617  0.75396314
   0.75519703  0.74803450  0.74952963
   0.74345839  0.49899919  0.49940798
   0.50488897  0.74808106  0.49671947
   0.50091790  0.49987814  0.74311031
   0.50339032  0.00331780 -0.00084063
  -0.00422366  0.50404745 -0.00305396
   0.50392415  0.74595805  0.25533969
   0.24776541 -0.00007153  0.74510699
   0.49745383 -0.00648428  0.50020867
   0.75225651 -0.00476508  0.74653682
  -0.00247703  0.75623176  0.25052816
   0.74606263  0.50555553  0.25059618
   0.00212555  0.00094982  0.49727036
   0.50262385  0.50460271  0.49949531
   0.74747455  0.50510522  0.74970793
   0.75066954  0.74481510  0.49930858
HECN                                    
           1
     8.901069    0.009693    0.001055
     0.009714    8.961841    0.009071
     0.001060    0.009078    8.893987
   Zr   W    Hf   N    C    Nb   V 
   7   6   7  13  19   6   6
Direct configuration=     7
  -0.00261783 -0.00368042  0.00103792
   0.24475156 -0.00153832  0.25412123
   0.24914388  0.50258656  0.25173372
   0.50549521  0.50103396 -0.00005101
   0.50092641  0.25129076  0.74588079
  -0.00651472  0.50268392  0.49892413
   0.50526209  0.74809644  0.74459566
  -0.00483338  0.23906943  0.25827856
   0.76229192  0.73848475  0.00054625
   0.00488806  0.25780208  0.74163888
   0.75880462  0.25929342  0.50278502
  -0.00540929  0.74226806  0.74735726
   0.25379923  0.49969831  0.74967133
   0.24430421  0.24917316 -0.00400099
   0.50422102  0.25431610  0.25375643
   0.75554914 -0.00583158  0.25643903
   0.75330338  0.25622168 -0.00231428
   0.24492863  0.74971710 -0.00143200
   0.24779389  0.24957911  0.50458187
   0.24802795  0.75038194  0.50148515
   0.25086636  0.24949574  0.25069866
   0.25169048 -0.00006667 -0.00155864
   0.00031624  0.25319612  0.00046327
   0.75055148  0.25273739  0.25235614
   0.74739004  0.00014076  0.00132398
   0.50548336  0.00111717  0.25065456
  -0.00841929  0.49940173  0.24579404
   0.50099540  0.75335161  0.00221099
  -0.00137472 -0.00044408  0.74292889
   0.75415205  0.25251298  0.74789016
   0.75359726 -0.00057130  0.49979593
   0.50249256  0.25278884  0.49699448
   0.50104432 -0.00010449  0.74909509
  -0.00450697 -0.00023550  0.25939819
   0.50132210  0.24364194  0.00294636
   0.24937367  0.75048379  0.24981048
   0.24193513  0.50002954 -0.00581673
  -0.00584084  0.74422848  0.00073421
   0.75281675  0.74243980  0.25070309
   0.75768825  0.50628300  0.00103805
   0.51172452  0.50285928  0.26073944
   0.24185428  0.25139026  0.74943820
   0.24684481  0.00039621  0.50490625
  -0.00719425  0.23965822  0.50048832
   0.24229196  0.74855160  0.74960417
   0.25734811  0.49938145  0.50678221
  -0.00806387  0.76105485  0.50140491
  -0.00330813  0.50017630  0.75580490
   0.75762103  0.74638005  0.74858201
   0.73964489  0.49938261  0.49915511
   0.50799186  0.74646860  0.49509746
   0.50199536  0.49988314  0.73913646
   0.50485223  0.00463815 -0.00116913
  -0.00619199  0.50549399 -0.00400356
   0.50570423  0.74442528  0.25746733
   0.24669817 -0.00001486  0.74336360
   0.49653787 -0.00914777  0.50024776
   0.75323102 -0.00661289  0.74498727
  -0.00362524  0.75898034  0.25072018
   0.74440145  0.50785234  0.25085030
   0.00292854  0.00141143  0.49615000
   0.50386775  0.50648531  0.49920401
   0.74620707  0.50722346  0.74960604
   0.75094937  0.74261004  0.49894127
HECN                                    
           1
     9.009818    0.002452    0.005560
     0.002467    9.035407    0.003283
     0.005560    0.003295    9.000636
   Zr   W    Hf   N    C    Nb   V 
   7   6   7  13  19   6   6
Direct configuration=     8
  -0.00542177 -0.00471470  0.00038578
   0.24569823 -0.00085877  0.25498770
   0.24965290  0.50232960  0.25172848
   0.50441220  0.50115329 -0.00003621
   0.49956034  0.25030833  0.74495142
  -0.00844704  0.50304263  0.49819015
   0.50713947  0.74901243  0.74464267
  -0.00756110  0.23300578  0.26385569
   0.76474343  0.73517311  0.00228248
   0.00586135  0.26433415  0.73765182
   0.75886666  0.26422763  0.50295251
  -0.00754795  0.73681187  0.74730799
   0.25694116  0.49903273  0.74868671
   0.24412260  0.24917095 -0.00285676
   0.50645357  0.25554819  0.25550194
   0.75260771 -0.00818730  0.25928643
   0.75538576  0.25838385 -0.00336487
   0.24294042  0.75008868 -0.00145539
   0.24634009  0.25000752  0.50303319
   0.24642928  0.75019361  0.50155363
   0.24982002  0.24960031  0.25140395
   0.25301027 -0.00055835 -0.00177724
  -0.00020735  0.25324180  0.00153990
   0.75266867  0.25351559  0.25375233
   0.74619252 -0.00043782  0.00205749
   0.50651475  0.00111404  0.25061846
  -0.01155607  0.49738865  0.24557313
   0.50210978  0.75576841  0.00268176
  -0.00174091  0.00010459  0.74018607
   0.75658182  0.25339355  0.74660019
   0.75435761 -0.00098438  0.50096289
   0.50432908  0.25260026  0.49669556
   0.50098579 -0.00047860  0.74887789
  -0.00298515 -0.00364998  0.26186993
   0.50197229  0.24295330  0.00261657
   0.24813821  0.75007631  0.25013865
   0.24234998  0.49992690 -0.00647237
  -0.00398531  0.74514031  0.00239421
   0.75582376  0.73942056  0.25151828
   0.75543863  0.50545359  0.00126297
   0.51394991  0.50296353  0.26247585
   0.24255235  0.25147734  0.74982368
   0.24537192 -0.00023982  0.50428701
  -0.00583373  0.23865970  0.50198561
   0.24159172  0.74809344  0.74925345
   0.25779474  0.49977255  0.50753292
  -0.01134205  0.76379932  0.50050474
  -0.00566615  0.49927037  0.75287133
   0.75668762  0.74416626  0.74707592
   0.73771733  0.50024635  0.49926185
   0.50976996  0.74414641  0.49566447
   0.50413602  0.49997735  0.73708229
   0.50703491  0.00698259 -0.00266913
  -0.00517700  0.50663806 -0.00302362
   0.50844940  0.74255889  0.25788476
   0.24444135 -0.00013946  0.74334438
   0.49463471 -0.01300328  0.50092195
   0.75485396 -0.00989965  0.74194463
  -0.00560197  0.76662696  0.25183217
   0.74135948  0.51360748  0.25132171
   0.00549549  0.00067934  0.49441004
   0.50585816  0.51212348  0.49815927
   0.74210949  0.51282092  0.74854133
   0.75181739  0.73701991  0.49772811
HECN                                    
           1
     8.985387    0.004079    0.004548
     0.004095    9.018880    0.004583
     0.004549    0.004594    8.976678
   Zr   W    Hf   N    C    Nb   V 
   7   6   7  13  19   6   6
Direct configuration=     9
  -0.00479936 -0.00448364  0.00053038
   0.24548810 -0.00101049  0.25479536
   0.24953997  0.50238677  0.25172974
   0.50465254  0.50112690 -0.00003963
   0.49986360  0.25052762  0.74515772
  -0.00801833  0.50296316  0.49835282
   0.50672265  0.74880798  0.74463231
  -0.00695400  0.23435657  0.26261821
   0.76420014  0.73591031  0.00189781
   0.00564372  0.26287908  0.73853605
   0.75885202  0.26312815  0.50291462
  -0.00707232  0.73802801  0.74731948
   0.25624386  0.49918061  0.74890573
   0.24416304  0.24917131 -0.00311079
   0.50595805  0.25527300  0.25511453
   0.75326127 -0.00766228  0.25865436
   0.75492309  0.25790185 -0.00313174
   0.24338161  0.75000624 -0.00145047
   0.24666249  0.24991255  0.50337675
   0.24678413  0.75023585  0.50153828
   0.25005230  0.24957709  0.25124726
   0.25271743 -0.00044900 -0.00172850
  -0.00009103  0.25323156  0.00130084
   0.75219880  0.25334161  0.25344252
   0.74645849 -0.00030879  0.00189462
   0.50628584  0.00111456  0.25062659
  -0.01085956  0.49783780  0.24562211
   0.50186207  0.75522963  0.00257703
  -0.00166004 -0.00001720  0.74079482
   0.75604226  0.25319709  0.74688669
   0.75418906 -0.00089264  0.50070398
   0.50392149  0.25264199  0.49676215
   0.50099882 -0.00039520  0.74892616
  -0.00332201 -0.00288980  0.26132190
   0.50182808  0.24310668  0.00268995
   0.24841252  0.75016728  0.25006572
   0.24225786  0.49994979 -0.00632676
  -0.00439711  0.74493656  0.00202578
   0.75515703  0.74009264  0.25133809
   0.75593808  0.50563877  0.00121291
   0.51345618  0.50293965  0.26209062
   0.24239745  0.25145775  0.74973818
   0.24569885 -0.00009775  0.50442441
  -0.00613534  0.23888173  0.50165352
   0.24174717  0.74819570  0.74933129
   0.25769563  0.49968521  0.50736626
  -0.01061510  0.76318852  0.50070381
  -0.00514298  0.49947308  0.75352241
   0.75689501  0.74465992  0.74741047
   0.73814499  0.50005422  0.49923781
   0.50937582  0.74466344  0.49553914
   0.50366068  0.49995627  0.73753851
   0.50654990  0.00646002 -0.00233624
  -0.00540236  0.50638282 -0.00324121
   0.50784053  0.74297421  0.25779267
   0.24494224 -0.00011129  0.74334841
   0.49505787 -0.01214395  0.50077264
   0.75449402 -0.00916715  0.74262071
  -0.00516452  0.76492334  0.25158400
   0.74203362  0.51232560  0.25121589
   0.00492572  0.00084225  0.49479668
   0.50541528  0.51086697  0.49839059
   0.74301776  0.51157459  0.74877641
   0.75162562  0.73826552  0.49799832
HECN                                    
           1
     8.962352   -0.008225    0.008989
    -0.008247    8.994816   -0.005314
     0.008984   -0.005265    8.952679
   Zr   W    Hf   N    C    Nb   V 
   7   6   7  13  19   6   6
Direct configuration=    10
  -0.00764784 -0.00468083 -0.00048013
   0.24824440 -0.00098418  0.25472045
   0.25035900  0.50242818  0.25163476
   0.50207433  0.50129263  0.00001243
   0.49808094  0.24911332  0.74452751
  -0.00897416  0.50328103  0.49658904
   0.50736459  0.75051063  0.74592123
  -0.00976863  0.22880144  0.26862014
   0.76561466  0.73392649  0.00393650
   0.00747547  0.27114190  0.73505653
   0.75798334  0.26822092  0.50255120
  -0.00892226  0.73175077  0.74784789
   0.25962648  0.49790361  0.74753832
   0.24450260  0.24951425 -0.00178510
   0.50866423  0.25593840  0.25640708
   0.75004641 -0.00930344  0.26124092
   0.75630046  0.25949160 -0.00433000
   0.24215311  0.75020102 -0.00114812
   0.24618803  0.25036370  0.50212164
   0.24495198  0.74989760  0.50144987
   0.24871460  0.24957587  0.25187651
   0.25357099 -0.00071130 -0.00144089
  -0.00043300  0.25215273  0.00267039
   0.75449972  0.25272915  0.25441097
   0.74569726 -0.00065165  0.00267591
   0.50628158  0.00128827  0.25064139
  -0.01202962  0.49412579  0.24590556
   0.50286473  0.75712629  0.00279816
  -0.00200032  0.00080902  0.74003023
   0.75815781  0.25273006  0.74602793
   0.75349636 -0.00074199  0.50199029
   0.50562788  0.25101976  0.49686828
   0.50087395 -0.00060065  0.74879984
  -0.00239545 -0.00636769  0.26104996
   0.50264943  0.24370712  0.00206497
   0.24752470  0.74978160  0.25033228
   0.24417617  0.49980434 -0.00581450
  -0.00183915  0.74670111  0.00324098
   0.75754121  0.73906113  0.25158054
   0.75308516  0.50359826  0.00124530
   0.51270722  0.50230423  0.26101077
   0.24414327  0.25118641  0.75007614
   0.24526204 -0.00078490  0.50302607
  -0.00410035  0.24005707  0.50344263
   0.24210192  0.74810458  0.74923293
   0.25638079  0.50020630  0.50655272
  -0.01210398  0.76332988  0.50026234
  -0.00681798  0.49847019  0.74994102
   0.75469985  0.74353404  0.74671949
   0.73885385  0.50069887  0.49953462
   0.50888593  0.74325522  0.49695880
   0.50499121  0.50009372  0.73810163
   0.50874560  0.00834633 -0.00419178
  -0.00373507  0.50679978 -0.00154891
   0.50963939  0.74208290  0.25701896
   0.24237658 -0.00018673  0.74347327
   0.49287924 -0.01543062  0.50174961
   0.75603924 -0.01303769  0.73968725
  -0.00642922  0.77313900  0.25341131
   0.73938304  0.51762949  0.25144141
   0.00819450 -0.00094449  0.49357168
   0.50670748  0.51717043  0.49732229
   0.73814232  0.51791072  0.74736054
   0.75267263  0.73211968  0.49645964
HECN                                    
           1
     8.959774   -0.009602    0.009486
    -0.009628    8.992123   -0.006421
     0.009480   -0.006368    8.949994
   Zr   W    Hf   N    C    Nb   V 
   7   6   7  13  19   6   6
Direct configuration=    11
  -0.00796740 -0.00470352 -0.00059338
   0.24855365 -0.00098082  0.25471189
   0.25045090  0.50243294  0.25162407
   0.50178509  0.50131084  0.00001844
   0.49788075  0.24895428  0.74445672
  -0.00908125  0.50331634  0.49639122
   0.50743680  0.75070194  0.74606603
  -0.01008561  0.22817842  0.26929307
   0.76577294  0.73370436  0.00416494
   0.00768245  0.27206890  0.73466702
   0.75788669  0.26879218  0.50251110
  -0.00913081  0.73104620  0.74790651
   0.26000587  0.49776068  0.74738454
   0.24454068  0.24955294 -0.00163633
   0.50896788  0.25601363  0.25655205
   0.74968532 -0.00948777  0.26153112
   0.75645531  0.25967004 -0.00446434
   0.24201529  0.75022272 -0.00111410
   0.24613494  0.25041410  0.50198088
   0.24474637  0.74985935  0.50144001
   0.24856448  0.24957560  0.25194719
   0.25366670 -0.00074057 -0.00140870
  -0.00047161  0.25203179  0.00282395
   0.75475773  0.25266090  0.25451944
   0.74561176 -0.00069014  0.00276357
   0.50628112  0.00130776  0.25064307
  -0.01216149  0.49370913  0.24593697
   0.50297750  0.75733929  0.00282315
  -0.00203833  0.00090159  0.73994456
   0.75839515  0.25267788  0.74593139
   0.75341860 -0.00072503  0.50213468
   0.50581907  0.25083800  0.49687989
   0.50085991 -0.00062374  0.74878565
  -0.00229202 -0.00675782  0.26101896
   0.50274171  0.24377454  0.00199487
   0.24742502  0.74973822  0.25036219
   0.24439134  0.49978838 -0.00575715
  -0.00155196  0.74689965  0.00337741
   0.75780853  0.73894579  0.25160748
   0.75276476  0.50336887  0.00124884
   0.51262316  0.50223269  0.26088957
   0.24433908  0.25115627  0.75011393
   0.24521300 -0.00086224  0.50286910
  -0.00387195  0.24018948  0.50364342
   0.24214171  0.74809440  0.74922187
   0.25623339  0.50026447  0.50646157
  -0.01227098  0.76334546  0.50021290
  -0.00700586  0.49835696  0.74953913
   0.75445343  0.74340729  0.74664194
   0.73893346  0.50077135  0.49956796
   0.50883067  0.74309731  0.49711795
   0.50514048  0.50010942  0.73816475
   0.50899235  0.00855810 -0.00439987
  -0.00354803  0.50684703 -0.00135906
   0.50984112  0.74198307  0.25693193
   0.24208870 -0.00019557  0.74348741
   0.49263425 -0.01579962  0.50185895
   0.75621218 -0.01347211  0.73935753
  -0.00656995  0.77406089  0.25361744
   0.73908647  0.51822424  0.25146752
   0.00856103 -0.00114462  0.49343383
   0.50685349  0.51787779  0.49720312
   0.73759638  0.51862075  0.74720272
   0.75278924  0.73143005  0.49628617
HECN                                    
           1
     8.935684   -0.012627    0.008893
    -0.012577    9.043642   -0.011682
     0.008887   -0.011663    8.924080
   Zr   W    Hf   N    C    Nb   V 
   7   6   7  13  19   6   6
Direct configuration=    12
  -0.00836870 -0.00320048 -0.00185383
   0.25133914 -0.00186009  0.25308516
   0.25067282  0.50268742  0.25187329