  64  64   0   0
  0.1021713E+02  0.8670339E-09  0.8709028E-09  0.8659989E-09  0.5000000E-15
  1.000000000000000E-004
  CAR 
 HECN                                    
     13.22971119    -38.15613735  301      8.05757977      1.00000000
    -38.156  0.0000E+00  0.0000E+00
    -37.985  0.0000E+00  0.0000E+00
    -37.814  0.0000E+00  0.0000E+00
    -37.642  0.0000E+00  0.0000E+00
    -37.471  0.0000E+00  0.0000E+00
    -37.300  0.0000E+00  0.0000E+00
    -37.128  0.0000E+00  0.0000E+00
    -36.957  0.0000E+00  0.0000E+00
    -36.786  0.0000E+00  0.0000E+00
    -36.615  0.0000E+00  0.0000E+00
    -36.443  0.0000E+00  0.0000E+00
    -36.272  0.9875E-11  0.1691E-11
    -36.101  0.4291E-05  0.7350E-06
    -35.929  0.7207E-02  0.1235E-02
    -35.758  0.1073E+00  0.1961E-01
    -35.587  0.3843E+00  0.8543E-01
    -35.416  0.1159E+01  0.2839E+00
    -35.244  0.4342E+00  0.3583E+00
    -35.073  0.9988E-02  0.3600E+00
    -34.902  0.2559E-05  0.3600E+00
    -34.730  0.3000E-11  0.3600E+00
    -34.559  0.0000E+00  0.3600E+00
    -34.388  0.0000E+00  0.3600E+00
    -34.217  0.0000E+00  0.3600E+00
    -34.045  0.0000E+00  0.3600E+00
    -33.874  0.0000E+00  0.3600E+00
    -33.703  0.0000E+00  0.3600E+00
    -33.531  0.0000E+00  0.3600E+00
    -33.360  0.0000E+00  0.3600E+00
    -33.189  0.0000E+00  0.3600E+00
    -33.018  0.0000E+00  0.3600E+00
    -32.846  0.0000E+00  0.3600E+00
    -32.675  0.0000E+00  0.3600E+00
    -32.504  0.0000E+00  0.3600E+00
    -32.332  0.0000E+00  0.3600E+00
    -32.161  0.0000E+00  0.3600E+00
    -31.990  0.0000E+00  0.3600E+00
    -31.819  0.0000E+00  0.3600E+00
    -31.647  0.0000E+00  0.3600E+00
    -31.476  0.0000E+00  0.3600E+00
    -31.305  0.0000E+00  0.3600E+00
    -31.133  0.0000E+00  0.3600E+00
    -30.962  0.0000E+00  0.3600E+00
    -30.791  0.0000E+00  0.3600E+00
    -30.620  0.0000E+00  0.3600E+00
    -30.448  0.0000E+00  0.3600E+00
    -30.277  0.0000E+00  0.3600E+00
    -30.106  0.0000E+00  0.3600E+00
    -29.934  0.0000E+00  0.3600E+00
    -29.763  0.0000E+00  0.3600E+00
    -29.592  0.0000E+00  0.3600E+00
    -29.421  0.0000E+00  0.3600E+00
    -29.249  0.0000E+00  0.3600E+00
    -29.078  0.0000E+00  0.3600E+00
    -28.907  0.0000E+00  0.3600E+00
    -28.735  0.1156E-14  0.3600E+00
    -28.564  0.1067E-07  0.3600E+00
    -28.393  0.3686E-03  0.3601E+00
    -28.222  0.7661E-01  0.3732E+00
    -28.050  0.5085E+00  0.4603E+00
    -27.879  0.8585E+00  0.6073E+00
    -27.708  0.5129E+00  0.6952E+00
    -27.536  0.1433E+00  0.7197E+00
    -27.365  0.1491E-02  0.7200E+00
    -27.194  0.9177E-07  0.7200E+00
    -27.023  0.2072E-13  0.7200E+00
    -26.851  0.0000E+00  0.7200E+00
    -26.680  0.6482E-17  0.7200E+00
    -26.509  0.1917E-09  0.7200E+00
    -26.337  0.2944E-04  0.7200E+00
    -26.166  0.2424E-01  0.7242E+00
    -25.995  0.4012E+00  0.7929E+00
    -25.824  0.7143E+00  0.9152E+00
    -25.652  0.7042E+00  0.1036E+01
    -25.481  0.4312E+00  0.1110E+01
    -25.310  0.1737E+00  0.1139E+01
    -25.138  0.3117E-02  0.1140E+01
    -24.967  0.3794E-06  0.1140E+01
    -24.796  0.5659E-11  0.1140E+01
    -24.625  0.2946E-05  0.1140E+01
    -24.453  0.6360E-02  0.1141E+01
    -24.282  0.1512E+00  0.1167E+01
    -24.111  0.2916E+00  0.1217E+01
    -23.939  0.5497E+00  0.1311E+01
    -23.768  0.5329E+00  0.1402E+01
    -23.597  0.3532E+00  0.1463E+01
    -23.426  0.2081E+00  0.1499E+01
    -23.254  0.8573E-02  0.1500E+01
    -23.083  0.1841E-01  0.1503E+01
    -22.912  0.2082E+00  0.1539E+01
    -22.740  0.1306E+00  0.1561E+01
    -22.569  0.3314E+00  0.1618E+01
    -22.398  0.6822E+00  0.1735E+01
    -22.227  0.6968E+00  0.1854E+01
    -22.055  0.3063E+00  0.1907E+01
    -21.884  0.7609E-01  0.1920E+01
    -21.713  0.2020E-02  0.1920E+01
    -21.541  0.3358E-06  0.1920E+01
    -21.370  0.2022E-12  0.1920E+01
    -21.199  0.0000E+00  0.1920E+01
    -21.028  0.0000E+00  0.1920E+01
    -20.856  0.0000E+00  0.1920E+01
    -20.685  0.0000E+00  0.1920E+01
    -20.514  0.0000E+00  0.1920E+01
    -20.342  0.0000E+00  0.1920E+01
    -20.171  0.0000E+00  0.1920E+01
    -20.000  0.0000E+00  0.1920E+01
    -19.829  0.0000E+00  0.1920E+01
    -19.657  0.0000E+00  0.1920E+01
    -19.486  0.0000E+00  0.1920E+01
    -19.315  0.0000E+00  0.1920E+01
    -19.143  0.0000E+00  0.1920E+01
    -18.972  0.0000E+00  0.1920E+01
    -18.801  0.0000E+00  0.1920E+01
    -18.630  0.0000E+00  0.1920E+01
    -18.458  0.0000E+00  0.1920E+01
    -18.287  0.0000E+00  0.1920E+01
    -18.116  0.0000E+00  0.1920E+01
    -17.944  0.0000E+00  0.1920E+01
    -17.773  0.0000E+00  0.1920E+01
    -17.602  0.0000E+00  0.1920E+01
    -17.431  0.0000E+00  0.1920E+01
    -17.259  0.0000E+00  0.1920E+01
    -17.088  0.0000E+00  0.1920E+01
    -16.917  0.0000E+00  0.1920E+01
    -16.745  0.0000E+00  0.1920E+01
    -16.574  0.0000E+00  0.1920E+01
    -16.403  0.0000E+00  0.1920E+01
    -16.232  0.0000E+00  0.1920E+01
    -16.060  0.0000E+00  0.1920E+01
    -15.889  0.0000E+00  0.1920E+01
    -15.718  0.0000E+00  0.1920E+01
    -15.546  0.0000E+00  0.1920E+01
    -15.375  0.0000E+00  0.1920E+01
    -15.204  0.0000E+00  0.1920E+01
    -15.033  0.0000E+00  0.1920E+01
    -14.861  0.0000E+00  0.1920E+01
    -14.690  0.0000E+00  0.1920E+01
    -14.519  0.0000E+00  0.1920E+01
    -14.347  0.0000E+00  0.1920E+01
    -14.176  0.0000E+00  0.1920E+01
    -14.005  0.0000E+00  0.1920E+01
    -13.834  0.0000E+00  0.1920E+01
    -13.662  0.0000E+00  0.1920E+01
    -13.491  0.0000E+00  0.1920E+01
    -13.320  0.0000E+00  0.1920E+01
    -13.148  0.0000E+00  0.1920E+01
    -12.977  0.0000E+00  0.1920E+01
    -12.806  0.0000E+00  0.1920E+01
    -12.634  0.0000E+00  0.1920E+01
    -12.463  0.0000E+00  0.1920E+01
    -12.292  0.0000E+00  0.1920E+01
    -12.121  0.0000E+00  0.1920E+01
    -11.949  0.0000E+00  0.1920E+01
    -11.778  0.0000E+00  0.1920E+01
    -11.607  0.0000E+00  0.1920E+01
    -11.435  0.0000E+00  0.1920E+01
    -11.264  0.0000E+00  0.1920E+01
    -11.093  0.0000E+00  0.1920E+01
    -10.922  0.0000E+00  0.1920E+01
    -10.750  0.0000E+00  0.1920E+01
    -10.579  0.0000E+00  0.1920E+01
    -10.408  0.0000E+00  0.1920E+01
    -10.236  0.0000E+00  0.1920E+01
    -10.065  0.0000E+00  0.1920E+01
     -9.894  0.0000E+00  0.1920E+01
     -9.723  0.0000E+00  0.1920E+01
     -9.551  0.0000E+00  0.1920E+01
     -9.380  0.0000E+00  0.1920E+01
     -9.209  0.0000E+00  0.1920E+01
     -9.037  0.0000E+00  0.1920E+01
     -8.866  0.0000E+00  0.1920E+01
     -8.695  0.6962E-17  0.1920E+01
     -8.524  0.1091E-09  0.1920E+01
     -8.352  0.6552E-05  0.1920E+01
     -8.181  0.2999E-02  0.1921E+01
     -8.010  0.4902E-01  0.1929E+01
     -7.838  0.6226E-01  0.1940E+01
     -7.667  0.5366E-01  0.1949E+01
     -7.496  0.1657E+00  0.1977E+01
     -7.325  0.1284E+00  0.1999E+01
     -7.153  0.7695E-01  0.2012E+01
     -6.982  0.1689E+00  0.2041E+01
     -6.811  0.1900E+00  0.2074E+01
     -6.639  0.2241E+00  0.2112E+01
     -6.468  0.2261E+00  0.2151E+01
     -6.297  0.1229E+00  0.2172E+01
     -6.126  0.4642E-01  0.2180E+01
     -5.954  0.4368E-03  0.2180E+01
     -5.783  0.2039E-07  0.2180E+01
     -5.612  0.3325E-14  0.2180E+01
     -5.440  0.0000E+00  0.2180E+01
     -5.269  0.0000E+00  0.2180E+01
     -5.098  0.7422E-13  0.2180E+01
     -4.927  0.7233E-07  0.2180E+01
     -4.755  0.2785E-03  0.2180E+01
     -4.584  0.1305E-01  0.2182E+01
     -4.413  0.5707E-01  0.2192E+01
     -4.241  0.4593E-01  0.2200E+01
     -4.070  0.5666E-01  0.2210E+01
     -3.899  0.1125E+00  0.2229E+01
     -3.728  0.1432E+00  0.2253E+01
     -3.556  0.1907E+00  0.2286E+01
     -3.385  0.2250E+00  0.2325E+01
     -3.214  0.2375E+00  0.2365E+01
     -3.042  0.2356E+00  0.2406E+01
     -2.871  0.2132E+00  0.2442E+01
     -2.700  0.2074E+00  0.2478E+01
     -2.529  0.1957E+00  0.2511E+01
     -2.357  0.1359E+00  0.2534E+01
     -2.186  0.8970E-01  0.2550E+01
     -2.015  0.4211E-01  0.2557E+01
     -1.843  0.1597E-01  0.2560E+01
     -1.672  0.1170E-02  0.2560E+01
     -1.501  0.2038E-05  0.2560E+01
     -1.330  0.1956E-10  0.2560E+01
     -1.158  0.9602E-18  0.2560E+01
     -0.987  0.0000E+00  0.2560E+01
     -0.816  0.0000E+00  0.2560E+01
     -0.644  0.0000E+00  0.2560E+01
     -0.473  0.0000E+00  0.2560E+01
     -0.302  0.5482E-14  0.2560E+01
     -0.131  0.1026E-07  0.2560E+01
      0.041  0.7408E-04  0.2560E+01
      0.212  0.3889E-02  0.2561E+01
      0.383  0.8579E-02  0.2562E+01
      0.555  0.3711E-01  0.2569E+01
      0.726  0.8576E-01  0.2583E+01
      0.897  0.1021E+00  0.2601E+01
      1.068  0.1158E+00  0.2621E+01
      1.240  0.1833E+00  0.2652E+01
      1.411  0.2103E+00  0.2688E+01
      1.582  0.2662E+00  0.2734E+01
      1.754  0.3188E+00  0.2788E+01
      1.925  0.2944E+00  0.2839E+01
      2.096  0.2718E+00  0.2885E+01
      2.267  0.3360E+00  0.2943E+01
      2.439  0.3426E+00  0.3001E+01
      2.610  0.3722E+00  0.3065E+01
      2.781  0.4134E+00  0.3136E+01
      2.953  0.4363E+00  0.3211E+01
      3.124  0.5364E+00  0.3303E+01
      3.295  0.6076E+00  0.3407E+01
      3.466  0.6463E+00  0.3517E+01
      3.638  0.6614E+00  0.3631E+01
      3.809  0.6468E+00  0.3741E+01
      3.980  0.6010E+00  0.3844E+01
      4.152  0.5686E+00  0.3942E+01
      4.323  0.5174E+00  0.4030E+01
      4.494  0.4502E+00  0.4107E+01
      4.665  0.3953E+00  0.4175E+01
      4.837  0.3451E+00  0.4234E+01
      5.008  0.2951E+00  0.4285E+01
      5.179  0.2883E+00  0.4334E+01
      5.351  0.2497E+00  0.4377E+01
      5.522  0.1996E+00  0.4411E+01
      5.693  0.1572E+00  0.4438E+01
      5.864  0.1550E+00  0.4465E+01
      6.036  0.8243E-01  0.4479E+01
      6.207  0.1024E+00  0.4496E+01
      6.378  0.1349E+00  0.4519E+01
      6.550  0.1870E+00  0.4551E+01
      6.721  0.1664E+00  0.4580E+01
      6.892  0.2292E+00  0.4619E+01
      7.063  0.2478E+00  0.4662E+01
      7.235  0.1988E+00  0.4696E+01
      7.406  0.1907E+00  0.4728E+01
      7.577  0.2584E+00  0.4773E+01
      7.749  0.3010E+00  0.4824E+01
      7.920  0.2930E+00  0.4874E+01
      8.091  0.2550E+00  0.4918E+01
      8.262  0.2729E+00  0.4965E+01
      8.434  0.3159E+00  0.5019E+01
      8.605  0.3948E+00  0.5086E+01
      8.776  0.4280E+00  0.5160E+01
      8.948  0.4598E+00  0.5239E+01
      9.119  0.5281E+00  0.5329E+01
      9.290  0.5209E+00  0.5418E+01
      9.461  0.5186E+00  0.5507E+01
      9.633  0.5439E+00  0.5600E+01
      9.804  0.5243E+00  0.5690E+01
      9.975  0.5212E+00  0.5779E+01
     10.147  0.5187E+00  0.5868E+01
     10.318  0.5166E+00  0.5957E+01
     10.489  0.4986E+00  0.6042E+01
     10.660  0.4416E+00  0.6118E+01
     10.832  0.2096E+00  0.6154E+01
     11.003  0.3647E-01  0.6160E+01
     11.174  0.8933E-03  0.6160E+01
     11.346  0.3732E-06  0.6160E+01
     11.517  0.7745E-12  0.6160E+01
     11.688  0.0000E+00  0.6160E+01
     11.859  0.0000E+00  0.6160E+01
     12.031  0.0000E+00  0.6160E+01
     12.202  0.0000E+00  0.6160E+01
     12.373  0.0000E+00  0.6160E+01
     12.545  0.0000E+00  0.6160E+01
     12.716  0.0000E+00  0.6160E+01
     12.887  0.0000E+00  0.6160E+01
     13.058  0.0000E+00  0.6160E+01
     13.230  0.0000E+00  0.6160E+01
