 running   28 mpi-ranks, on    1 nodes
 distrk:  each k-point on   28 cores,    1 groups
 distr:  one band on    1 cores,   28 groups
 vasp.6.4.3 19Mar24 (build Sep 18 2024 11:30:23) complex                        
  
 POSCAR found type information on POSCAR HfNbTiN C CrMo
 POSCAR found :  7 types and      64 ions
 Reading from existing POTCAR
 scaLAPACK will be used
 -----------------------------------------------------------------------------
|                                                                             |
|           W    W    AA    RRRRR   N    N  II  N    N   GGGG   !!!           |
|           W    W   A  A   R    R  NN   N  II  NN   N  G    G  !!!           |
|           W    W  A    A  R    R  N N  N  II  N N  N  G       !!!           |
|           W WW W  AAAAAA  RRRRR   N  N N  II  N  N N  G  GGG   !            |
|           WW  WW  A    A  R   R   N   NN  II  N   NN  G    G                |
|           W    W  A    A  R    R  N    N  II  N    N   GGGG   !!!           |
|                                                                             |
|     For optimal performance we recommend to set                             |
|       NCORE = 2 up to number-of-cores-per-socket                            |
|     NCORE specifies how many cores store one orbital (NPAR=cpu/NCORE).      |
|     This setting can greatly improve the performance of VASP for DFT.       |
|     The default, NCORE=1 might be grossly inefficient on modern             |
|     multi-core architectures or massively parallel machines. Do your        |
|     own testing! More info at https://www.vasp.at/wiki/index.php/NCORE      |
|     Unfortunately you need to use the default for GW and RPA                |
|     calculations (for HF NCORE is supported but not extensively tested      |
|     yet).                                                                   |
|                                                                             |
 -----------------------------------------------------------------------------

 Reading from existing POTCAR
 -----------------------------------------------------------------------------
|                                                                             |
|               ----> ADVICE to this user running VASP <----                  |
|                                                                             |
|     You have a (more or less) 'large supercell' and for larger cells it     |
|     might be more efficient to use real-space projection operators.         |
|     Therefore, try LREAL= Auto in the INCAR file.                           |
|     Mind: If you want to do very accurate calculations, keep the            |
|     reciprocal projection scheme (i.e. LREAL=.FALSE.).                      |
|                                                                             |
 -----------------------------------------------------------------------------

 LDA part: xc-table for (Slater+PW92), standard interpolation
 POSCAR, INCAR and KPOINTS ok, starting setup
 FFT: planning ... GRIDC
 FFT: planning ... GRID_SOFT
 FFT: planning ... GRID
 WAVECAR not read
 entering main loop
       N       E                     dE             d eps       ncg     rms          rms(c)
DAV:   1     0.613796017860E+04    0.61380E+04   -0.19798E+05  8624   0.152E+03
DAV:   2     0.321363735586E+03   -0.58166E+04   -0.56060E+04  8624   0.597E+02
DAV:   3    -0.667049341341E+03   -0.98841E+03   -0.92087E+03 12992   0.201E+02
DAV:   4    -0.773948624592E+03   -0.10690E+03   -0.10352E+03 14112   0.823E+01
DAV:   5    -0.781378765886E+03   -0.74301E+01   -0.72427E+01 14140   0.219E+01    0.752E+01
RMM:   6    -0.801819264731E+03   -0.20440E+02   -0.14503E+03 11253   0.135E+02    0.103E+02
RMM:   7    -0.631036150776E+03    0.17078E+03   -0.34261E+02 11739   0.527E+01    0.445E+01
RMM:   8    -0.641630017520E+03   -0.10594E+02   -0.13840E+02 12514   0.194E+01    0.314E+01
RMM:   9    -0.635260082939E+03    0.63699E+01   -0.27220E+01 12373   0.104E+01    0.206E+01
RMM:  10    -0.633432535648E+03    0.18275E+01   -0.10940E+01 12249   0.585E+00    0.135E+01
RMM:  11    -0.632913321541E+03    0.51921E+00   -0.47667E+00 11628   0.482E+00    0.168E+01
RMM:  12    -0.631340939923E+03    0.15724E+01   -0.33887E+00 11570   0.410E+00    0.694E+00
RMM:  13    -0.631877748180E+03   -0.53681E+00   -0.29522E+00 12320   0.370E+00    0.105E+01
RMM:  14    -0.631378152177E+03    0.49960E+00   -0.13277E+00 11944   0.279E+00    0.502E+00
RMM:  15    -0.631363291970E+03    0.14860E-01   -0.49007E-01 11752   0.155E+00    0.645E+00
RMM:  16    -0.631082561734E+03    0.28073E+00   -0.31306E-01 11864   0.116E+00    0.198E+00
RMM:  17    -0.631071167029E+03    0.11395E-01   -0.22463E-01 12202   0.697E-01    0.220E+00
RMM:  18    -0.631043026734E+03    0.28140E-01   -0.20869E-01 12868   0.730E-01    0.756E-01
RMM:  19    -0.631045934657E+03   -0.29079E-02   -0.92991E-02 12389   0.463E-01    0.464E-01
RMM:  20    -0.631044018286E+03    0.19164E-02   -0.23878E-02 12191   0.208E-01    0.300E-01
RMM:  21    -0.631043417428E+03    0.60086E-03   -0.14371E-02 11779   0.173E-01    0.834E-02
RMM:  22    -0.631044135418E+03   -0.71799E-03   -0.87475E-03 11737   0.109E-01    0.389E-02
RMM:  23    -0.631044500282E+03   -0.36486E-03   -0.41468E-03 10303   0.666E-02    0.243E-02
RMM:  24    -0.631044724743E+03   -0.22446E-03   -0.25146E-03  8380   0.359E-02    0.139E-02
RMM:  25    -0.631044847925E+03   -0.12318E-03   -0.13510E-03  7016   0.314E-02    0.678E-03
RMM:  26    -0.631044929994E+03   -0.82068E-04   -0.85213E-04  6668   0.204E-02    0.566E-03
RMM:  27    -0.631044975655E+03   -0.45662E-04   -0.47025E-04  6261   0.173E-02    0.344E-03
RMM:  28    -0.631045005205E+03   -0.29550E-04   -0.30470E-04  6072   0.115E-02    0.306E-03
RMM:  29    -0.631045022415E+03   -0.17210E-04   -0.17538E-04  5962   0.114E-02    0.118E-03
RMM:  30    -0.631045034024E+03   -0.11609E-04   -0.11737E-04  5745   0.707E-03    0.121E-03
RMM:  31    -0.631045040731E+03   -0.67065E-05   -0.68077E-05  5440   0.747E-03
   1 F= -.63104504E+03 E0= -.63098712E+03  d E =-.631045E+03
 curvature:   0.00 expect dE= 0.000E+00 dE for cont linesearch  0.000E+00
 trial: gam= 0.00000 g(F)=  0.604E+01 g(S)=  0.659E+01 ort = 0.000E+00 (trialstep = 0.100E+01)
 search vector abs. value=  0.126E+02
 bond charge predicted
       N       E                     dE             d eps       ncg     rms          rms(c)
DAV:   1    -0.684098464805E+03   -0.53053E+02   -0.22138E+03 11452   0.182E+02    0.848E+01
RMM:   2    -0.101424321490E+04   -0.33014E+03   -0.50304E+02 12631   0.589E+01    0.891E+01
RMM:   3    -0.704614683332E+03    0.30963E+03   -0.15296E+02 13070   0.314E+01    0.627E+01
RMM:   4    -0.633579745457E+03    0.71035E+02   -0.72426E+01 10605   0.316E+01    0.175E+01
RMM:   5    -0.639256049687E+03   -0.56763E+01   -0.34948E+01 12072   0.143E+01    0.390E+01
RMM:   6    -0.631006217930E+03    0.82498E+01   -0.10612E+01 11773   0.918E+00    0.209E+01
RMM:   7    -0.634947096007E+03   -0.39409E+01   -0.85613E+00 11749   0.725E+00    0.288E+01
RMM:   8    -0.631649871879E+03    0.32972E+01   -0.37119E+00 12243   0.416E+00    0.216E+01
RMM:   9    -0.628590613158E+03    0.30593E+01   -0.19947E+00 10974   0.471E+00    0.943E+00
RMM:  10    -0.628473850251E+03    0.11676E+00   -0.16069E+00 12010   0.315E+00    0.785E+00
RMM:  11    -0.628399591263E+03    0.74259E-01   -0.52408E-01 11601   0.177E+00    0.842E+00
RMM:  12    -0.628158291658E+03    0.24130E+00   -0.31850E-01 11463   0.147E+00    0.374E+00
RMM:  13    -0.628122596350E+03    0.35695E-01   -0.23589E-01 11833   0.142E+00    0.253E+00
RMM:  14    -0.628151510145E+03   -0.28914E-01   -0.12398E-01 12159   0.828E-01    0.366E+00
RMM:  15    -0.628147712834E+03    0.37973E-02   -0.10394E-01 11919   0.720E-01    0.307E+00
RMM:  16    -0.628101476534E+03    0.46236E-01   -0.89181E-02 11980   0.963E-01    0.151E+00
RMM:  17    -0.628090412530E+03    0.11064E-01   -0.19643E-02 10580   0.384E-01    0.444E-01
RMM:  18    -0.628091720228E+03   -0.13077E-02   -0.15113E-02 11846   0.203E-01    0.525E-01
RMM:  19    -0.628090650580E+03    0.10696E-02   -0.56793E-03 11420   0.123E-01    0.214E-01
RMM:  20    -0.628090645822E+03    0.47577E-05   -0.40079E-03 10605   0.705E-02    0.768E-02
RMM:  21    -0.628090794773E+03   -0.14895E-03   -0.21655E-03 10295   0.495E-02    0.345E-02
RMM:  22    -0.628090936583E+03   -0.14181E-03   -0.14295E-03  9780   0.348E-02    0.618E-02
RMM:  23    -0.628090979484E+03   -0.42901E-04   -0.69589E-04  8655   0.353E-02    0.367E-02
RMM:  24    -0.628091028392E+03   -0.48907E-04   -0.52654E-04  7469   0.183E-02    0.250E-02
RMM:  25    -0.628091052086E+03   -0.23694E-04   -0.26570E-04  6401   0.192E-02    0.156E-02
RMM:  26    -0.628091071033E+03   -0.18947E-04   -0.20589E-04  6221   0.109E-02    0.462E-03
RMM:  27    -0.628091082680E+03   -0.11647E-04   -0.11125E-04  6053   0.982E-03    0.837E-03
RMM:  28    -0.628091090494E+03   -0.78144E-05   -0.83428E-05  5830   0.660E-03
   2 F= -.62809109E+03 E0= -.62801518E+03  d E =0.295395E+01
 trial-energy change:    2.953950  1 .order    1.260917  -12.631401   15.153234
 step:   0.3694(harm=  0.4546)  dis= 0.05284  next Energy=  -633.292991 (dE=-0.225E+01)
 bond charge predicted
       N       E                     dE             d eps       ncg     rms          rms(c)
DAV:   1    -0.649304262289E+03   -0.21213E+02   -0.79902E+02 11424   0.114E+02    0.382E+01
RMM:   2    -0.749030251799E+03   -0.99726E+02   -0.39630E+02 10069   0.867E+01    0.843E+01
RMM:   3    -0.634667705474E+03    0.11436E+03   -0.75431E+01 10523   0.373E+01    0.178E+01
RMM:   4    -0.641178742635E+03   -0.65110E+01   -0.21826E+01 12571   0.131E+01    0.321E+01
RMM:   5    -0.634411369439E+03    0.67674E+01   -0.10040E+01 11480   0.897E+00    0.118E+01
RMM:   6    -0.634969657956E+03   -0.55829E+00   -0.47253E+00 12108   0.546E+00    0.160E+01
RMM:   7    -0.633535737970E+03    0.14339E+01   -0.17669E+00 11535   0.387E+00    0.693E+00
RMM:   8    -0.633906733519E+03   -0.37100E+00   -0.96929E-01 11809   0.269E+00    0.111E+01
RMM:   9    -0.633314766262E+03    0.59197E+00   -0.56134E-01 11708   0.221E+00    0.348E+00
RMM:  10    -0.633421541151E+03   -0.10677E+00   -0.33375E-01 11848   0.140E+00    0.578E+00
RMM:  11    -0.633261210201E+03    0.16033E+00   -0.13538E-01 11481   0.108E+00    0.135E+00
RMM:  12    -0.633280413652E+03   -0.19203E-01   -0.68467E-02 11748   0.630E-01    0.244E+00
RMM:  13    -0.633254254923E+03    0.26159E-01   -0.33536E-02 11605   0.510E-01    0.762E-01
RMM:  14    -0.633252164418E+03    0.20905E-02   -0.21002E-02 12631   0.258E-01    0.276E-01
RMM:  15    -0.633251967553E+03    0.19687E-03   -0.85461E-03 11859   0.187E-01    0.152E-01
RMM:  16    -0.633252080944E+03   -0.11339E-03   -0.43643E-03 12039   0.102E-01    0.661E-02
RMM:  17    -0.633252227948E+03   -0.14700E-03   -0.22262E-03 11186   0.656E-02    0.476E-02
RMM:  18    -0.633252321936E+03   -0.93988E-04   -0.12382E-03  9936   0.437E-02    0.259E-02
RMM:  19    -0.633252372396E+03   -0.50460E-04   -0.68379E-04  8706   0.297E-02    0.170E-02
RMM:  20    -0.633252406526E+03   -0.34130E-04   -0.40230E-04  7175   0.218E-02    0.112E-02
RMM:  21    -0.633252426291E+03   -0.19765E-04   -0.21689E-04  6445   0.176E-02    0.623E-03
RMM:  22    -0.633252437950E+03   -0.11659E-04   -0.13243E-04  6182   0.119E-02    0.284E-03
RMM:  23    -0.633252444793E+03   -0.68427E-05   -0.74813E-05  6016   0.103E-02
   3 F= -.63325244E+03 E0= -.63318951E+03  d E =-.220740E+01
 curvature:  -0.22 expect dE=-0.220E+00 dE for cont linesearch -0.429E-02
 ZBRENT: interpolating
 opt :   0.3555  next Energy=  -633.255884 (dE=-0.221E+01)
 bond charge predicted
       N       E                     dE             d eps       ncg     rms          rms(c)
DAV:   1    -0.633265067543E+03   -0.12630E-01   -0.41079E-01 12544   0.256E+00    0.103E+00
RMM:   2    -0.633415099976E+03   -0.15003E+00   -0.16296E-01 10520   0.167E+00    0.482E+00
RMM:   3    -0.633269840318E+03    0.14526E+00   -0.61862E-02 10196   0.108E+00    0.170E+00
RMM:   4    -0.633259513549E+03    0.10327E-01   -0.16261E-02 12167   0.411E-01    0.738E-01
RMM:   5    -0.633259144480E+03    0.36907E-03   -0.64842E-03 11281   0.214E-01    0.752E-01
RMM:   6    -0.633256594011E+03    0.25505E-02   -0.27279E-03 10367   0.170E-01    0.272E-01
RMM:   7    -0.633256742965E+03   -0.14895E-03   -0.19468E-03 10826   0.107E-01    0.349E-01
RMM:   8    -0.633256242027E+03    0.50094E-03   -0.69122E-04  9569   0.850E-02    0.154E-01
RMM:   9    -0.633256373774E+03   -0.13175E-03   -0.51036E-04 10057   0.614E-02    0.225E-01
RMM:  10    -0.633256145000E+03    0.22877E-03   -0.21047E-04  8740   0.474E-02    0.469E-02
RMM:  11    -0.633256138895E+03    0.61048E-05   -0.87860E-05  8417   0.231E-02
   4 F= -.63325614E+03 E0= -.63319340E+03  d E =-.221110E+01
 curvature:  -0.18 expect dE=-0.160E+00 dE for cont linesearch -0.116E-03
 trial: gam= 0.07865 g(F)=  0.581E+00 g(S)=  0.322E+00 ort =-0.907E-01 (trialstep = 0.871E+00)
 search vector abs. value=  0.967E+00
 bond charge predicted
       N       E                     dE             d eps       ncg     rms          rms(c)
DAV:   1    -0.633276195849E+03   -0.20051E-01   -0.11579E+02 11312   0.485E+01    0.813E+00
RMM:   2    -0.640407917209E+03   -0.71317E+01   -0.20062E+01 10798   0.179E+01    0.291E+01
RMM:   3    -0.633898350677E+03    0.65096E+01   -0.56814E+00 10896   0.100E+01    0.793E+00
RMM:   4    -0.634211023776E+03   -0.31267E+00   -0.20802E+00 13002   0.411E+00    0.978E+00
RMM:   5    -0.633711776076E+03    0.49925E+00   -0.65486E-01 11884   0.247E+00    0.288E+00
RMM:   6    -0.633790527550E+03   -0.78751E-01   -0.34399E-01 12002   0.162E+00    0.501E+00
RMM:   7    -0.633655572687E+03    0.13495E+00   -0.17096E-01 11924   0.113E+00    0.178E+00
RMM:   8    -0.633686287409E+03   -0.30715E-01   -0.89515E-02 11771   0.771E-01    0.304E+00
RMM:   9    -0.633640438456E+03    0.45849E-01   -0.50563E-02 11821   0.615E-01    0.672E-01
RMM:  10    -0.633650644075E+03   -0.10206E-01   -0.24420E-02 11915   0.390E-01    0.161E+00
RMM:  11    -0.633638087297E+03    0.12557E-01   -0.98718E-03 11181   0.291E-01    0.220E-01
RMM:  12    -0.633638365591E+03   -0.27829E-03   -0.49697E-03 12377   0.121E-01    0.215E-01
RMM:  13    -0.633638591093E+03   -0.22550E-03   -0.25237E-03 10869   0.950E-02    0.228E-01
RMM:  14    -0.633638426592E+03    0.16450E-03   -0.12418E-03 10451   0.618E-02    0.482E-02
RMM:  15    -0.633638462380E+03   -0.35789E-04   -0.61737E-04  9497   0.372E-02    0.245E-02
RMM:  16    -0.633638495432E+03   -0.33051E-04   -0.34206E-04  9051   0.285E-02    0.124E-02
RMM:  17    -0.633638512038E+03   -0.16606E-04   -0.18891E-04  7237   0.220E-02    0.737E-03
RMM:  18    -0.633638518827E+03   -0.67888E-05   -0.93421E-05  6348   0.175E-02
   5 F= -.63363852E+03 E0= -.63357945E+03  d E =-.382380E+00
 trial-energy change:   -0.382380  1 .order   -0.377846   -0.780172    0.024480
 step:   0.8454(harm=  0.8446)  dis= 0.03195  next Energy=  -633.638879 (dE=-0.383E+00)
 bond charge predicted
       N       E                     dE             d eps       ncg     rms          rms(c)
DAV:   1    -0.633638601771E+03   -0.89733E-04   -0.10094E-01 12320   0.142E+00    0.249E-01
RMM:   2    -0.633646119377E+03   -0.75176E-02   -0.16678E-02 11185   0.483E-01    0.105E+00
RMM:   3    -0.633639622403E+03    0.64970E-02   -0.49299E-03 10460   0.305E-01    0.397E-01
RMM:   4    -0.633639291737E+03    0.33067E-03   -0.18939E-03 11971   0.136E-01    0.263E-01
RMM:   5    -0.633638997526E+03    0.29421E-03   -0.66614E-04 10542   0.761E-02    0.133E-01
RMM:   6    -0.633638950830E+03    0.46697E-04   -0.25722E-04  8981   0.534E-02    0.104E-01
RMM:   7    -0.633638899248E+03    0.51582E-04   -0.16319E-04  8627   0.357E-02    0.700E-02
RMM:   8    -0.633638895196E+03    0.40523E-05   -0.61154E-05  6604   0.297E-02
   6 F= -.63363890E+03 E0= -.63357978E+03  d E =-.382756E+00
 curvature:  -0.46 expect dE=-0.906E-01 dE for cont linesearch -0.258E-05
 trial: gam= 0.27593 g(F)=  0.129E+00 g(S)=  0.703E-01 ort =-0.234E-02 (trialstep = 0.866E+00)
 search vector abs. value=  0.271E+00
 bond charge predicted
       N       E                     dE             d eps       ncg     rms          rms(c)
DAV:   1    -0.633344632223E+03    0.29427E+00   -0.36356E+01 12012   0.319E+01    0.430E+00
RMM:   2    -0.636120576349E+03   -0.27759E+01   -0.65460E+00 11562   0.892E+00    0.181E+01
RMM:   3    -0.633782010575E+03    0.23386E+01   -0.17978E+00 10633   0.568E+00    0.418E+00
RMM:   4    -0.633827563624E+03   -0.45553E-01   -0.71755E-01 13113   0.227E+00    0.457E+00
RMM:   5    -0.633751393259E+03    0.76170E-01   -0.17635E-01 11785   0.126E+00    0.245E+00
RMM:   6    -0.633733876212E+03    0.17517E-01   -0.82563E-02 12328   0.750E-01    0.147E+00
RMM:   7    -0.633722299295E+03    0.11577E-01   -0.30756E-02 11654   0.403E-01    0.651E-01
RMM:   8    -0.633727234065E+03   -0.49348E-02   -0.18039E-02 11828   0.353E-01    0.118E+00
RMM:   9    -0.633719511957E+03    0.77221E-02   -0.10178E-02 11517   0.282E-01    0.259E-01
RMM:  10    -0.633719408926E+03    0.10303E-03   -0.40024E-03 12173   0.131E-01    0.273E-01
RMM:  11    -0.633719492164E+03   -0.83238E-04   -0.21817E-03 11406   0.102E-01    0.264E-01
RMM:  12    -0.633719276463E+03    0.21570E-03   -0.10205E-03 10637   0.678E-02    0.148E-01
RMM:  13    -0.633719251354E+03    0.25109E-04   -0.56468E-04  9290   0.528E-02    0.105E-01
RMM:  14    -0.633719205935E+03    0.45419E-04   -0.31455E-04  9199   0.324E-02    0.248E-02
RMM:  15    -0.633719210200E+03   -0.42645E-05   -0.15808E-04  7221   0.242E-02    0.131E-02
RMM:  16    -0.633719215995E+03   -0.57957E-05   -0.93425E-05  6359   0.177E-02
   7 F= -.63371922E+03 E0= -.63366046E+03  d E =-.803208E-01
 trial-energy change:   -0.080321  1 .order   -0.081932   -0.171719    0.007855
 step:   0.8260(harm=  0.8281)  dis= 0.01866  next Energy=  -633.719397 (dE=-0.805E-01)
 bond charge predicted
       N       E                     dE             d eps       ncg     rms          rms(c)
DAV:   1    -0.633718533321E+03    0.67688E-03   -0.76692E-02 12880   0.147E+00    0.195E-01
RMM:   2    -0.633724255188E+03   -0.57219E-02   -0.14401E-02 11121   0.436E-01    0.858E-01
RMM:   3    -0.633719629445E+03    0.46257E-02   -0.39225E-03 10365   0.266E-01    0.271E-01
RMM:   4    -0.633719500525E+03    0.12892E-03   -0.15816E-03 12294   0.114E-01    0.159E-01
RMM:   5    -0.633719468598E+03    0.31926E-04   -0.40670E-04 10246   0.590E-02    0.147E-01
RMM:   6    -0.633719376861E+03    0.91737E-04   -0.12753E-04  7834   0.416E-02    0.527E-02
RMM:   7    -0.633719371675E+03    0.51860E-05   -0.87399E-05  7789   0.250E-02
   8 F= -.63371937E+03 E0= -.63366056E+03  d E =-.804765E-01
 curvature:  -0.56 expect dE=-0.503E-01 dE for cont linesearch -0.162E-07
 trial: gam= 0.45120 g(F)=  0.539E-01 g(S)=  0.351E-01 ort =-0.882E-04 (trialstep = 0.858E+00)
 search vector abs. value=  0.144E+00
 bond charge predicted
       N       E                     dE             d eps       ncg     rms          rms(c)
DAV:   1    -0.633437357470E+03    0.28202E+00   -0.19298E+01 11368   0.250E+01    0.271E+00
RMM:   2    -0.634642269352E+03   -0.12049E+01   -0.42675E+00 11868   0.684E+00    0.114E+01
RMM:   3    -0.633803760784E+03    0.83851E+00   -0.10307E+00 10835   0.381E+00    0.376E+00
RMM:   4    -0.633793623263E+03    0.10138E-01   -0.35135E-01 12876   0.158E+00    0.256E+00
RMM:   5    -0.633761557675E+03    0.32066E-01   -0.82548E-02 11900   0.776E-01    0.796E-01
RMM:   6    -0.633768541640E+03   -0.69840E-02   -0.33602E-02 12077   0.483E-01    0.149E+00
RMM:   7    -0.633757127700E+03    0.11414E-01   -0.14263E-02 11569   0.346E-01    0.409E-01
RMM:   8    -0.633757368664E+03   -0.24096E-03   -0.94158E-03 11814   0.224E-01    0.566E-01
RMM:   9    -0.633756798918E+03    0.56975E-03   -0.41457E-03 11822   0.173E-01    0.421E-01
RMM:  10    -0.633756040827E+03    0.75809E-03   -0.16774E-03 11389   0.100E-01    0.136E-01
RMM:  11    -0.633756125972E+03   -0.85145E-04   -0.86622E-04  9954   0.668E-02    0.161E-01
RMM:  12    -0.633756016263E+03    0.10971E-03   -0.39746E-04  9505   0.443E-02    0.366E-02
RMM:  13    -0.633756035263E+03   -0.19000E-04   -0.21345E-04  8581   0.269E-02    0.213E-02
RMM:  14    -0.633756054255E+03   -0.18992E-04   -0.10726E-04  6760   0.225E-02    0.459E-02
RMM:  15    -0.633756048765E+03    0.54899E-05   -0.61870E-05  6247   0.178E-02
   9 F= -.63375605E+03 E0= -.63369815E+03  d E =-.366771E-01
 trial-energy change:   -0.036677  1 .order   -0.037136   -0.076380    0.002108
 step:   0.8341(harm=  0.8349)  dis= 0.01539  next Energy=  -633.756078 (dE=-0.367E-01)
 bond charge predicted
       N       E                     dE             d eps       ncg     rms          rms(c)
DAV:   1    -0.633755832106E+03    0.22215E-03   -0.14912E-02 11928   0.700E-01    0.766E-02
RMM:   2    -0.633756877071E+03   -0.10450E-02   -0.32299E-03 11565   0.188E-01    0.374E-01
RMM:   3    -0.633756157381E+03    0.71969E-03   -0.78529E-04  9426   0.115E-01    0.139E-01
RMM:   4    -0.633756098459E+03    0.58921E-04   -0.30926E-04  9903   0.547E-02    0.583E-02
RMM:   5    -0.633756083383E+03    0.15076E-04   -0.72323E-05  6574   0.267E-02    0.371E-02
RMM:   6    -0.633756080721E+03    0.26621E-05   -0.21488E-05  5540   0.218E-02
  10 F= -.63375608E+03 E0= -.63369819E+03  d E =-.367090E-01
 curvature:  -0.68 expect dE=-0.296E-01 dE for cont linesearch -0.326E-05
 trial: gam= 0.48237 g(F)=  0.308E-01 g(S)=  0.131E-01 ort = 0.834E-03 (trialstep = 0.853E+00)
 search vector abs. value=  0.783E-01
 bond charge predicted
       N       E                     dE             d eps       ncg     rms          rms(c)
DAV:   1    -0.633582718834E+03    0.17336E+00   -0.97058E+00  9436   0.167E+01    0.142E+00
RMM:   2    -0.633940720184E+03   -0.35800E+00   -0.20077E+00 13373   0.429E+00    0.544E+00
RMM:   3    -0.633791996547E+03    0.14872E+00   -0.41904E-01 11000   0.212E+00    0.210E+00
RMM:   4    -0.633793826925E+03   -0.18304E-02   -0.11721E-01 12181   0.969E-01    0.177E+00
RMM:   5    -0.633781649384E+03    0.12178E-01   -0.33282E-02 11921   0.517E-01    0.869E-01
RMM:   6    -0.633779745081E+03    0.19043E-02   -0.14630E-02 12476   0.294E-01    0.539E-01
RMM:   7    -0.633778406407E+03    0.13387E-02   -0.56693E-03 11588   0.171E-01    0.346E-01
RMM:   8    -0.633779018800E+03   -0.61239E-03   -0.36654E-03 11165   0.155E-01    0.476E-01
RMM:   9    -0.633777743413E+03    0.12754E-02   -0.22913E-03 11662   0.128E-01    0.122E-01
RMM:  10    -0.633778049481E+03   -0.30607E-03   -0.98664E-04 10749   0.780E-02    0.281E-01
RMM:  11    -0.633777705343E+03    0.34414E-03   -0.47875E-04  9510   0.585E-02    0.494E-02
RMM:  12    -0.633777703277E+03    0.20668E-05   -0.21269E-04  8634   0.270E-02    0.327E-02
RMM:  13    -0.633777720890E+03   -0.17613E-04   -0.10730E-04  6820   0.234E-02    0.540E-02
RMM:  14    -0.633777708202E+03    0.12688E-04   -0.62444E-05  6256   0.187E-02    0.106E-02
RMM:  15    -0.633777709868E+03   -0.16660E-05   -0.36826E-05  6037   0.129E-02
  11 F= -.63377771E+03 E0= -.63371933E+03  d E =-.216291E-01
 trial-energy change:   -0.021629  1 .order   -0.021845   -0.037797   -0.005893
 step:   1.0189(harm=  1.0108)  dis= 0.01357  next Energy=  -633.778280 (dE=-0.222E-01)
 bond charge predicted
       N       E                     dE             d eps       ncg     rms          rms(c)
DAV:   1    -0.633771053341E+03    0.66549E-02   -0.36650E-01 10332   0.325E+00    0.274E-01
RMM:   2    -0.633784467114E+03   -0.13414E-01   -0.75885E-02 13332   0.841E-01    0.104E+00
RMM:   3    -0.633778881997E+03    0.55851E-02   -0.15993E-02 10965   0.412E-01    0.406E-01
RMM:   4    -0.633779002894E+03   -0.12090E-03   -0.45378E-03 12173   0.188E-01    0.342E-01
RMM:   5    -0.633778546546E+03    0.45635E-03   -0.12931E-03 11093   0.101E-01    0.163E-01
RMM:   6    -0.633778485815E+03    0.60731E-04   -0.57324E-04 10313   0.622E-02    0.105E-01
RMM:   7    -0.633778444749E+03    0.41066E-04   -0.23848E-04  9620   0.375E-02    0.806E-02
RMM:   8    -0.633778447463E+03   -0.27139E-05   -0.13736E-04  7570   0.359E-02    0.828E-02
RMM:   9    -0.633778410446E+03    0.37017E-04   -0.95491E-05  8108   0.270E-02    0.349E-02
RMM:  10    -0.633778416124E+03   -0.56776E-05   -0.37289E-05  5962   0.216E-02
  12 F= -.63377842E+03 E0= -.63371992E+03  d E =-.223354E-01
 curvature:  -0.89 expect dE=-0.198E-01 dE for cont linesearch -0.424E-05
 trial: gam= 0.47949 g(F)=  0.162E-01 g(S)=  0.601E-02 ort = 0.611E-03 (trialstep = 0.886E+00)
 search vector abs. value=  0.408E-01
 bond charge predicted
       N       E                     dE             d eps       ncg     rms          rms(c)
DAV:   1    -0.633680224215E+03    0.98186E-01   -0.56372E+00  9352   0.128E+01    0.119E+00
RMM:   2    -0.633922685332E+03   -0.24246E+00   -0.12065E+00 13076   0.348E+00    0.463E+00
RMM:   3    -0.633797683237E+03    0.12500E+00   -0.26532E-01 10916   0.176E+00    0.163E+00
RMM:   4    -0.633800076304E+03   -0.23931E-02   -0.79913E-02 12349   0.781E-01    0.138E+00
RMM:   5    -0.633793178525E+03    0.68978E-02   -0.22062E-02 11975   0.417E-01    0.750E-01
RMM:   6    -0.633791487710E+03    0.16908E-02   -0.84243E-03 12305   0.248E-01    0.460E-01
RMM:   7    -0.633790778197E+03    0.70951E-03   -0.43251E-03 11518   0.152E-01    0.354E-01
RMM:   8    -0.633790771049E+03    0.71483E-05   -0.22010E-03 10790   0.129E-01    0.353E-01
RMM:   9    -0.633790268932E+03    0.50212E-03   -0.15697E-03 11667   0.105E-01    0.196E-01
RMM:  10    -0.633790288450E+03   -0.19519E-04   -0.72852E-04 10019   0.745E-02    0.198E-01
RMM:  11    -0.633790103845E+03    0.18461E-03   -0.33780E-04  9740   0.492E-02    0.364E-02
RMM:  12    -0.633790143966E+03   -0.40122E-04   -0.16522E-04  7425   0.299E-02    0.807E-02
RMM:  13    -0.633790115892E+03    0.28075E-04   -0.78681E-05  6405   0.246E-02    0.169E-02
RMM:  14    -0.633790122352E+03   -0.64609E-05   -0.50430E-05  6247   0.140E-02
  13 F= -.63379012E+03 E0= -.63373168E+03  d E =-.117062E-01
 trial-energy change:   -0.011706  1 .order   -0.011516   -0.019929   -0.003103
 step:   1.0378(harm=  1.0498)  dis= 0.00873  next Energy=  -633.790388 (dE=-0.120E-01)
 bond charge predicted
       N       E                     dE             d eps       ncg     rms          rms(c)
DAV:   1    -0.633787296660E+03    0.28192E-02   -0.16591E-01 10528   0.219E+00    0.206E-01
RMM:   2    -0.633794532533E+03   -0.72359E-02   -0.34307E-02 12946   0.596E-01    0.827E-01
RMM:   3    -0.633790721608E+03    0.38109E-02   -0.79053E-03 10883   0.304E-01    0.298E-01
RMM:   4    -0.633790721246E+03    0.36123E-06   -0.24110E-03 12082   0.136E-01    0.228E-01
RMM:   5    -0.633790556794E+03    0.16445E-03   -0.66336E-04 10659   0.724E-02    0.142E-01
RMM:   6    -0.633790484891E+03    0.71903E-04   -0.24939E-04  8760   0.476E-02    0.728E-02
RMM:   7    -0.633790471565E+03    0.13326E-04   -0.13603E-04  8462   0.303E-02    0.604E-02
RMM:   8    -0.633790470415E+03    0.11500E-05   -0.63013E-05  6625   0.276E-02
  14 F= -.63379047E+03 E0= -.63373205E+03  d E =-.120543E-01
 curvature:  -0.95 expect dE=-0.105E-01 dE for cont linesearch -0.996E-05
 trial: gam= 0.46014 g(F)=  0.714E-02 g(S)=  0.391E-02 ort = 0.655E-03 (trialstep = 0.917E+00)
 search vector abs. value=  0.203E-01
 bond charge predicted
       N       E                     dE             d eps       ncg     rms          rms(c)
DAV:   1    -0.633749251279E+03    0.41220E-01   -0.30623E+00 10332   0.940E+00    0.104E+00
RMM:   2    -0.633932826334E+03   -0.18358E+00   -0.61842E-01 12503   0.268E+00    0.480E+00
RMM:   3    -0.633810495406E+03    0.12233E+00   -0.14418E-01 10759   0.147E+00    0.182E+00
RMM:   4    -0.633801346321E+03    0.91491E-02   -0.51180E-02 12532   0.653E-01    0.884E-01
RMM:   5    -0.633798833159E+03    0.25132E-02   -0.13872E-02 12101   0.323E-01    0.643E-01
RMM:   6    -0.633797454786E+03    0.13784E-02   -0.51644E-03 12090   0.203E-01    0.373E-01
RMM:   7    -0.633796771572E+03    0.68321E-03   -0.26231E-03 11333   0.124E-01    0.217E-01
RMM:   8    -0.633796996071E+03   -0.22450E-03   -0.13188E-03 10562   0.106E-01    0.295E-01
RMM:   9    -0.633796495867E+03    0.50020E-03   -0.81192E-04 11160   0.816E-02    0.710E-02
RMM:  10    -0.633796614030E+03   -0.11816E-03   -0.35562E-04  9779   0.481E-02    0.176E-01
RMM:  11    -0.633796476845E+03    0.13718E-03   -0.16248E-04  7872   0.368E-02    0.295E-02
RMM:  12    -0.633796485689E+03   -0.88437E-05   -0.78157E-05  6902   0.209E-02
  15 F= -.63379649E+03 E0= -.63373788E+03  d E =-.601527E-02
 trial-energy change:   -0.006015  1 .order   -0.005615   -0.010407   -0.000822
 step:   0.9787(harm=  0.9953)  dis= 0.00693  next Energy=  -633.796514 (dE=-0.604E-02)
 bond charge predicted
       N       E                     dE             d eps       ncg     rms          rms(c)
DAV:   1    -0.633796321561E+03    0.15528E-03   -0.14337E-02 11480   0.637E-01    0.749E-02
RMM:   2    -0.633797316961E+03   -0.99540E-03   -0.28371E-03 12079   0.184E-01    0.363E-01
RMM:   3    -0.633796597967E+03    0.71899E-03   -0.67667E-04  9625   0.108E-01    0.132E-01
RMM:   4    -0.633796547659E+03    0.50308E-04   -0.27118E-04  9998   0.513E-02    0.582E-02
RMM:   5    -0.633796545705E+03    0.19535E-05   -0.71694E-05  6842   0.279E-02
  16 F= -.63379655E+03 E0= -.63373791E+03  d E =-.607529E-02
 curvature:  -0.85 expect dE=-0.402E-02 dE for cont linesearch -0.619E-05
 trial: gam= 0.39272 g(F)=  0.371E-02 g(S)=  0.102E-02 ort = 0.385E-03 (trialstep = 0.929E+00)
 search vector abs. value=  0.816E-02
 bond charge predicted
       N       E                     dE             d eps       ncg     rms          rms(c)
DAV:   1    -0.633773308843E+03    0.23239E-01   -0.13224E+00  9492   0.643E+00    0.414E-01
RMM:   2    -0.633811579763E+03   -0.38271E-01   -0.26374E-01 13540   0.147E+00    0.154E+00
RMM:   3    -0.633801307332E+03    0.10272E-01   -0.39825E-02 11324   0.681E-01    0.694E-01
RMM:   4    -0.633801415181E+03   -0.10785E-03   -0.12142E-02 12104   0.315E-01    0.533E-01
RMM:   5    -0.633800105465E+03    0.13097E-02   -0.34604E-03 11453   0.172E-01    0.177E-01
RMM:   6    -0.633800171127E+03   -0.65662E-04   -0.15401E-03 11452   0.943E-02    0.184E-01
RMM:   7    -0.633800033881E+03    0.13725E-03   -0.61149E-04 10933   0.614E-02    0.128E-01
RMM:   8    -0.633800084196E+03   -0.50315E-04   -0.37031E-04  9458   0.549E-02    0.162E-01
RMM:   9    -0.633799954574E+03    0.12962E-03   -0.24193E-04 10106   0.444E-02    0.355E-02
RMM:  10    -0.633799982103E+03   -0.27530E-04   -0.94739E-05  6943   0.285E-02    0.783E-02
RMM:  11    -0.633799956090E+03    0.26013E-04   -0.46158E-05  6125   0.240E-02    0.185E-02
RMM:  12    -0.633799963213E+03   -0.71232E-05   -0.25628E-05  5869   0.156E-02
  17 F= -.63379996E+03 E0= -.63374152E+03  d E =-.341751E-02
 trial-energy change:   -0.003418  1 .order   -0.003157   -0.004537   -0.001777
 step:   1.2666(harm=  1.5273)  dis= 0.00407  next Energy=  -633.800299 (dE=-0.375E-02)
 bond charge predicted
       N       E                     dE             d eps       ncg     rms          rms(c)
DAV:   1    -0.633796897925E+03    0.30582E-02   -0.17465E-01 10472   0.234E+00    0.153E-01
RMM:   2    -0.633801951072E+03   -0.50531E-02   -0.34640E-02 13504   0.532E-01    0.562E-01
RMM:   3    -0.633800577832E+03    0.13732E-02   -0.52247E-03 11259   0.251E-01    0.254E-01
RMM:   4    -0.633800603319E+03   -0.25487E-04   -0.16956E-03 11471   0.117E-01    0.198E-01
RMM:   5    -0.633800425367E+03    0.17795E-03   -0.47776E-04 10155   0.646E-02    0.634E-02
RMM:   6    -0.633800437016E+03   -0.11648E-04   -0.20289E-04  8563   0.370E-02    0.713E-02
RMM:   7    -0.633800419464E+03    0.17551E-04   -0.89095E-05  7583   0.273E-02    0.478E-02
RMM:   8    -0.633800427086E+03   -0.76211E-05   -0.51495E-05  6367   0.233E-02
  18 F= -.63380043E+03 E0= -.63374211E+03  d E =-.388138E-02
 curvature:  -1.03 expect dE=-0.193E-02 dE for cont linesearch -0.673E-04
 ZBRENT: increasing intervall
 opt :   1.9417  next Energy=  -633.800120 (dE=-0.357E-02)
 bond charge predicted
       N       E                     dE             d eps       ncg     rms          rms(c)
DAV:   1    -0.633786181004E+03    0.14238E-01   -0.69727E-01  9380   0.468E+00    0.305E-01
RMM:   2    -0.633806184308E+03   -0.20003E-01   -0.13806E-01 13533   0.106E+00    0.111E+00
RMM:   3    -0.633800698395E+03    0.54859E-02   -0.20181E-02 11311   0.495E-01    0.497E-01
RMM:   4    -0.633800845354E+03   -0.14696E-03   -0.65635E-03 12086   0.231E-01    0.402E-01
RMM:   5    -0.633800127356E+03    0.71800E-03   -0.19140E-03 11321   0.127E-01    0.136E-01
RMM:   6    -0.633800151865E+03   -0.24509E-04   -0.83948E-04 10886   0.713E-02    0.135E-01
RMM:   7    -0.633800074138E+03    0.77726E-04   -0.35097E-04 10239   0.473E-02    0.836E-02
RMM:   8    -0.633800133506E+03   -0.59367E-04   -0.21255E-04  8663   0.431E-02    0.136E-01
RMM:   9    -0.633800044273E+03    0.89233E-04   -0.13965E-04  8624   0.332E-02    0.282E-02
RMM:  10    -0.633800060457E+03   -0.16185E-04   -0.52340E-05  6277   0.245E-02    0.609E-02
RMM:  11    -0.633800045051E+03    0.15407E-04   -0.28779E-05  5839   0.203E-02    0.135E-02
RMM:  12    -0.633800049766E+03   -0.47148E-05   -0.16005E-05  5652   0.132E-02
  19 F= -.63380005E+03 E0= -.63374187E+03  d E =-.350406E-02
 curvature:   4.73 expect dE= 0.317E-01 dE for cont linesearch  0.201E-02
 ZBRENT: bracketing found
 ZBRENT: interpolating
 opt :   1.4565  next Energy=  -633.800496 (dE=-0.395E-02)
 bond charge predicted
       N       E                     dE             d eps       ncg     rms          rms(c)
DAV:   1    -0.633793399662E+03    0.66454E-02   -0.36114E-01  9436   0.336E+00    0.217E-01
RMM:   2    -0.633803488803E+03   -0.10089E-01   -0.70642E-02 13512   0.757E-01    0.787E-01
RMM:   3    -0.633800877070E+03    0.26117E-02   -0.10412E-02 11321   0.354E-01    0.358E-01
RMM:   4    -0.633800942743E+03   -0.65672E-04   -0.32880E-03 11808   0.167E-01    0.291E-01
RMM:   5    -0.633800537361E+03    0.40538E-03   -0.91366E-04 10622   0.926E-02    0.901E-02
RMM:   6    -0.633800556769E+03   -0.19408E-04   -0.39728E-04  9904   0.526E-02    0.101E-01
RMM:   7    -0.633800506425E+03    0.50344E-04   -0.17062E-04  8956   0.360E-02    0.605E-02
RMM:   8    -0.633800528606E+03   -0.22180E-04   -0.92012E-05  7323   0.312E-02    0.930E-02
RMM:   9    -0.633800482824E+03    0.45782E-04   -0.63398E-05  7516   0.257E-02    0.173E-02
RMM:  10    -0.633800489405E+03   -0.65812E-05   -0.22535E-05  5712   0.183E-02
  20 F= -.63380049E+03 E0= -.63374215E+03  d E =-.394370E-02
 curvature:  -0.16 expect dE=-0.483E-03 dE for cont linesearch -0.360E-07
 trial: gam= 0.73406 g(F)=  0.214E-02 g(S)=  0.826E-03 ort = 0.425E-04 (trialstep = 0.103E+01)
 search vector abs. value=  0.743E-02
 bond charge predicted
       N       E                     dE             d eps       ncg     rms          rms(c)
DAV:   1    -0.633769569227E+03    0.30914E-01   -0.16360E+00  9716   0.744E+00    0.533E-01
RMM:   2    -0.633828590654E+03   -0.59021E-01   -0.33798E-01 13257   0.168E+00    0.217E+00
RMM:   3    -0.633804416288E+03    0.24174E-01   -0.54651E-02 11081   0.828E-01    0.824E-01
RMM:   4    -0.633804199408E+03    0.21688E-03   -0.17674E-02 12154   0.377E-01    0.602E-01
RMM:   5    -0.633803102783E+03    0.10966E-02   -0.48287E-03 11898   0.198E-01    0.402E-01
RMM:   6    -0.633802490704E+03    0.61208E-03   -0.18364E-03 11626   0.119E-01    0.175E-01
RMM:   7    -0.633802359721E+03    0.13098E-03   -0.81299E-04 10793   0.679E-02    0.128E-01
RMM:   8    -0.633802426151E+03   -0.66430E-04   -0.45047E-04  9448   0.610E-02    0.172E-01
RMM:   9    -0.633802251782E+03    0.17437E-03   -0.32104E-04 10250   0.516E-02    0.504E-02
RMM:  10    -0.633802293591E+03   -0.41809E-04   -0.12867E-04  8037   0.346E-02    0.107E-01
RMM:  11    -0.633802241117E+03    0.52474E-04   -0.55036E-05  6252   0.243E-02    0.163E-02
RMM:  12    -0.633802239859E+03    0.12581E-05   -0.26383E-05  6019   0.168E-02
  21 F= -.63380224E+03 E0= -.63374376E+03  d E =-.175045E-02
 trial-energy change:   -0.001750  1 .order   -0.001741   -0.003101   -0.000381
 step:   1.1793(harm=  1.1793)  dis= 0.00375  next Energy=  -633.802257 (dE=-0.177E-02)
 bond charge predicted
       N       E                     dE             d eps       ncg     rms          rms(c)
DAV:   1    -0.633801638759E+03    0.60236E-03   -0.32101E-02 11116   0.105E+00    0.790E-02
RMM:   2    -0.633802965985E+03   -0.13272E-02   -0.67632E-03 12966   0.243E-01    0.350E-01
RMM:   3    -0.633802321685E+03    0.64430E-03   -0.11541E-03 10181   0.129E-01    0.119E-01
RMM:   4    -0.633802315532E+03    0.61533E-05   -0.40823E-04  9764   0.604E-02    0.822E-02
RMM:   5    -0.633802304509E+03    0.11023E-04   -0.10186E-04  7415   0.328E-02    0.668E-02
RMM:   6    -0.633802283893E+03    0.20617E-04   -0.36316E-05  5902   0.249E-02    0.217E-02
RMM:   7    -0.633802286133E+03   -0.22398E-05   -0.21106E-05  5668   0.173E-02
  22 F= -.63380229E+03 E0= -.63374378E+03  d E =-.179673E-02
 curvature:  -1.46 expect dE=-0.315E-02 dE for cont linesearch -0.472E-05
 trial: gam= 0.67688 g(F)=  0.136E-02 g(S)=  0.800E-03 ort =-0.155E-03 (trialstep = 0.106E+01)
 search vector abs. value=  0.535E-02
 bond charge predicted
       N       E                     dE             d eps       ncg     rms          rms(c)
DAV:   1    -0.633779841716E+03    0.22442E-01   -0.12345E+00 10024   0.638E+00    0.481E-01
RMM:   2    -0.633822248656E+03   -0.42407E-01   -0.25324E-01 13240   0.148E+00    0.177E+00
RMM:   3    -0.633804794129E+03    0.17455E-01   -0.42362E-02 11019   0.729E-01    0.659E-01
RMM:   4    -0.633805669890E+03   -0.87576E-03   -0.14036E-02 12238   0.326E-01    0.634E-01
RMM:   5    -0.633803988604E+03    0.16813E-02   -0.36699E-03 11648   0.180E-01    0.244E-01
RMM:   6    -0.633803890962E+03    0.97641E-04   -0.16258E-03 11340   0.107E-01    0.197E-01
RMM:   7    -0.633803685650E+03    0.20531E-03   -0.74273E-04 10821   0.667E-02    0.110E-01
RMM:   8    -0.633803851423E+03   -0.16577E-03   -0.43058E-04  9710   0.612E-02    0.213E-01
RMM:   9    -0.633803621126E+03    0.23030E-03   -0.29435E-04  9950   0.520E-02    0.355E-02
RMM:  10    -0.633803635362E+03   -0.14235E-04   -0.10091E-04  7900   0.287E-02    0.634E-02
RMM:  11    -0.633803618391E+03    0.16970E-04   -0.43404E-05  6054   0.210E-02    0.211E-02
RMM:  12    -0.633803625651E+03   -0.72604E-05   -0.24592E-05  5837   0.168E-02
  23 F= -.63380363E+03 E0= -.63374500E+03  d E =-.133952E-02
 trial-energy change:   -0.001340  1 .order   -0.001177   -0.002183   -0.000172
 step:   1.1235(harm=  1.1542)  dis= 0.00333  next Energy=  -633.803631 (dE=-0.134E-02)
 bond charge predicted
       N       E                     dE             d eps       ncg     rms          rms(c)
DAV:   1    -0.633803555541E+03    0.62850E-04   -0.40614E-03 11452   0.364E-01    0.303E-02
RMM:   2    -0.633803728340E+03   -0.17280E-03   -0.80156E-04 11834   0.856E-02    0.129E-01
RMM:   3    -0.633803636389E+03    0.91951E-04   -0.14523E-04  7600   0.506E-02    0.453E-02
RMM:   4    -0.633803635053E+03    0.13356E-05   -0.52181E-05  6711   0.253E-02
  24 F= -.63380364E+03 E0= -.63374501E+03  d E =-.134892E-02
 curvature:  -1.33 expect dE=-0.138E-02 dE for cont linesearch -0.200E-05
 trial: gam= 0.43001 g(F)=  0.883E-03 g(S)=  0.155E-03 ort =-0.896E-04 (trialstep = 0.108E+01)
 search vector abs. value=  0.195E-02
 bond charge predicted
       N       E                     dE             d eps       ncg     rms          rms(c)
DAV:   1    -0.633793102562E+03    0.10534E-01   -0.46719E-01  9016   0.411E+00    0.202E-01
RMM:   2    -0.633805908766E+03   -0.12806E-01   -0.10541E-01 13557   0.881E-01    0.702E-01
RMM:   3    -0.633804739266E+03    0.11695E-02   -0.15496E-02 11730   0.383E-01    0.306E-01
RMM:   4    -0.633805114429E+03   -0.37516E-03   -0.39375E-03 11921   0.181E-01    0.323E-01
RMM:   5    -0.633804707147E+03    0.40728E-03   -0.11216E-03 10814   0.102E-01    0.163E-01
RMM:   6    -0.633804618479E+03    0.88668E-04   -0.50533E-04  9878   0.562E-02    0.680E-02
RMM:   7    -0.633804607951E+03    0.10528E-04   -0.18942E-04  9240   0.331E-02    0.753E-02
RMM:   8    -0.633804599713E+03    0.82381E-05   -0.11745E-04  7858   0.302E-02    0.701E-02
RMM:   9    -0.633804566649E+03    0.33063E-04   -0.10890E-04  8617   0.269E-02    0.219E-02
RMM:  10    -0.633804579012E+03   -0.12363E-04   -0.35529E-05  6016   0.219E-02    0.543E-02
RMM:  11    -0.633804566141E+03    0.12871E-04   -0.19269E-05  5623   0.188E-02    0.125E-02
RMM:  12    -0.633804568127E+03   -0.19855E-05   -0.99353E-06  5441   0.115E-02
  25 F= -.63380457E+03 E0= -.63374578E+03  d E =-.933073E-03
 trial-energy change:   -0.000933  1 .order   -0.000795   -0.001076   -0.000514
 step:   1.4111(harm=  2.0608)  dis= 0.00328  next Energy=  -633.804653 (dE=-0.102E-02)
 bond charge predicted
       N       E                     dE             d eps       ncg     rms          rms(c)
DAV:   1    -0.633803589256E+03    0.97689E-03   -0.45493E-02  9800   0.129E+00    0.652E-02
RMM:   2    -0.633804886959E+03   -0.12977E-02   -0.10272E-02 13478   0.274E-01    0.244E-01
RMM:   3    -0.633804724778E+03    0.16218E-03   -0.15057E-03 10868   0.123E-01    0.109E-01
RMM:   4    -0.633804748064E+03   -0.23286E-04   -0.41521E-04  9996   0.614E-02    0.947E-02
RMM:   5    -0.633804711858E+03    0.36206E-04   -0.11306E-04  7260   0.342E-02    0.484E-02
RMM:   6    -0.633804704512E+03    0.73461E-05   -0.47915E-05  6346   0.231E-02
  26 F= -.63380470E+03 E0= -.63374588E+03  d E =-.106946E-02
 curvature:  -1.14 expect dE=-0.503E-03 dE for cont linesearch -0.746E-05
 ZBRENT: extrapolating
 opt :   1.5152  next Energy=  -633.804710 (dE=-0.108E-02)
 bond charge predicted
       N       E                     dE             d eps       ncg     rms          rms(c)
DAV:   1    -0.633804632549E+03    0.79309E-04   -0.45667E-03 11368   0.397E-01    0.313E-02
RMM:   2    -0.633804888605E+03   -0.25606E-03   -0.10006E-03 12044   0.920E-02    0.177E-01
RMM:   3    -0.633804730674E+03    0.15793E-03   -0.18081E-04  7781   0.568E-02    0.396E-02
RMM:   4    -0.633804730468E+03    0.20590E-06   -0.63083E-05  7331   0.262E-02
  27 F= -.63380473E+03 E0= -.63374587E+03  d E =-.109541E-02
 curvature:  -0.90 expect dE=-0.430E-03 dE for cont linesearch -0.607E-07
 trial: gam= 0.46556 g(F)=  0.476E-03 g(S)=  0.311E-05 ort =-0.115E-04 (trialstep = 0.116E+01)
 search vector abs. value=  0.891E-03
 bond charge predicted
       N       E                     dE             d eps       ncg     rms          rms(c)
DAV:   1    -0.633798645991E+03    0.60847E-02   -0.27048E-01  9464   0.327E+00    0.133E-01
RMM:   2    -0.633805132611E+03   -0.64866E-02   -0.58944E-02 13447   0.637E-01    0.393E-01
RMM:   3    -0.633805283518E+03   -0.15091E-03   -0.90074E-03 11825   0.279E-01    0.200E-01
RMM:   4    -0.633805486592E+03   -0.20307E-03   -0.19196E-03 11588   0.124E-01    0.213E-01
RMM:   5    -0.633805257894E+03    0.22870E-03   -0.47431E-04  9928   0.686E-02    0.765E-02
RMM:   6    -0.633805260430E+03   -0.25355E-05   -0.22211E-04  8480   0.346E-02    0.605E-02
RMM:   7    -0.633805241850E+03    0.18579E-04   -0.83919E-05  7937   0.247E-02    0.454E-02
RMM:   8    -0.633805252890E+03   -0.11040E-04   -0.69581E-05  7089   0.249E-02    0.700E-02
RMM:   9    -0.633805228399E+03    0.24491E-04   -0.58958E-05  7440   0.225E-02    0.226E-02
RMM:  10    -0.633805230733E+03   -0.23334E-05   -0.18103E-05  5531   0.172E-02
  28 F= -.63380523E+03 E0= -.63374637E+03  d E =-.500265E-03
 trial-energy change:   -0.000500  1 .order   -0.000443   -0.000551   -0.000335
 step:   1.7055(harm=  2.9654)  dis= 0.00234  next Energy=  -633.805315 (dE=-0.584E-03)
 bond charge predicted
       N       E                     dE             d eps       ncg     rms          rms(c)
DAV:   1    -0.633803965171E+03    0.12632E-02   -0.59162E-02 10780   0.152E+00    0.597E-02
RMM:   2    -0.633805236407E+03   -0.12712E-02   -0.12243E-02 13324   0.293E-01    0.141E-01
RMM:   3    -0.633805346422E+03   -0.11001E-03   -0.19068E-03 11247   0.130E-01    0.896E-02
RMM:   4    -0.633805391631E+03   -0.45209E-04   -0.39997E-04 10106   0.591E-02    0.101E-01
RMM:   5    -0.633805340238E+03    0.51393E-04   -0.88260E-05  6840   0.336E-02    0.263E-02
RMM:   6    -0.633805343998E+03   -0.37604E-05   -0.45376E-05  6402   0.210E-02
  29 F= -.63380534E+03 E0= -.63374651E+03  d E =-.613530E-03
 curvature:  -1.43 expect dE=-0.581E-03 dE for cont linesearch -0.593E-06
 trial: gam= 0.92498 g(F)=  0.333E-03 g(S)=  0.741E-04 ort = 0.193E-04 (trialstep = 0.940E+00)
 search vector abs. value=  0.121E-02
 bond charge predicted
       N       E                     dE             d eps       ncg     rms          rms(c)
DAV:   1    -0.633799933749E+03    0.54065E-02   -0.24040E-01  9520   0.296E+00    0.174E-01
RMM:   2    -0.633807291330E+03   -0.73576E-02   -0.56155E-02 13363   0.595E-01    0.575E-01
RMM:   3    -0.633805857950E+03    0.14334E-02   -0.82487E-03 11179   0.283E-01    0.238E-01
RMM:   4    -0.633806115237E+03   -0.25729E-03   -0.21840E-03 11429   0.128E-01    0.278E-01
RMM:   5    -0.633805765264E+03    0.34997E-03   -0.55784E-04 10113   0.725E-02    0.687E-02
RMM:   6    -0.633805782521E+03   -0.17257E-04   -0.26144E-04  8628   0.402E-02    0.867E-02
RMM:   7    -0.633805743055E+03    0.39466E-04   -0.10852E-04  7983   0.296E-02    0.404E-02
RMM:   8    -0.633805780312E+03   -0.37257E-04   -0.10231E-04  7937   0.292E-02    0.948E-02
RMM:   9    -0.633805734700E+03    0.45612E-04   -0.53945E-05  7027   0.253E-02    0.131E-02
RMM:  10    -0.633805737028E+03   -0.23281E-05   -0.21975E-05  5779   0.159E-02
  30 F= -.63380574E+03 E0= -.63374684E+03  d E =-.393030E-03
 trial-energy change:   -0.000393  1 .order   -0.000336   -0.000400   -0.000273
 step:   2.9623(harm=  2.9623)  dis= 0.00523  next Energy=  -633.805974 (dE=-0.630E-03)
 bond charge predicted
       N       E                     dE             d eps       ncg     rms          rms(c)
DAV:   1    -0.633779140492E+03    0.26594E-01   -0.11121E+00  9520   0.638E+00    0.383E-01
RMM:   2    -0.633813051176E+03   -0.33911E-01   -0.25952E-01 13401   0.128E+00    0.121E+00
RMM:   3    -0.633805743743E+03    0.73074E-02   -0.38500E-02 11208   0.610E-01    0.371E-01
RMM:   4    -0.633807873164E+03   -0.21294E-02   -0.98441E-03 12116   0.263E-01    0.676E-01
RMM:   5    -0.633805843581E+03    0.20296E-02   -0.24429E-03 11096   0.158E-01    0.167E-01
RMM:   6    -0.633805920832E+03   -0.77251E-04   -0.13122E-03 11004   0.809E-02    0.194E-01
RMM:   7    -0.633805750472E+03    0.17036E-03   -0.49166E-04 10346   0.546E-02    0.102E-01
RMM:   8    -0.633805830238E+03   -0.79766E-04   -0.34240E-04  9317   0.532E-02    0.163E-01
RMM:   9    -0.633805695692E+03    0.13455E-03   -0.27703E-04 10322   0.457E-02    0.509E-02
RMM:  10    -0.633805715249E+03   -0.19557E-04   -0.89718E-05  7106   0.309E-02    0.790E-02
RMM:  11    -0.633805685819E+03    0.29429E-04   -0.40870E-05  5981   0.223E-02    0.143E-02
RMM:  12    -0.633805690655E+03   -0.48353E-05   -0.24112E-05  5858   0.151E-02
  31 F= -.63380569E+03 E0= -.63374671E+03  d E =-.346657E-03
 curvature:  -4.20 expect dE=-0.104E-01 dE for cont linesearch -0.448E-03
 ZBRENT: interpolating
 opt :   1.8449  next Energy=  -633.805868 (dE=-0.524E-03)
 bond charge predicted
       N       E                     dE             d eps       ncg     rms          rms(c)
DAV:   1    -0.633797746184E+03    0.79396E-02   -0.33900E-01  9408   0.352E+00    0.210E-01
RMM:   2    -0.633807841683E+03   -0.10095E-01   -0.79078E-02 13356   0.703E-01    0.652E-01
RMM:   3    -0.633805954811E+03    0.18869E-02   -0.11746E-02 11239   0.337E-01    0.221E-01
RMM:   4    -0.633806578154E+03   -0.62334E-03   -0.29968E-03 11670   0.149E-01    0.379E-01
RMM:   5    -0.633805949046E+03    0.62911E-03   -0.76717E-04 10040   0.907E-02    0.104E-01
RMM:   6    -0.633805942154E+03    0.68919E-05   -0.36207E-04  9166   0.476E-02    0.909E-02
RMM:   7    -0.633805899221E+03    0.42933E-04   -0.13619E-04  8507   0.318E-02    0.593E-02
RMM:   8    -0.633805917872E+03   -0.18651E-04   -0.91891E-05  7599   0.303E-02    0.902E-02
RMM:   9    -0.633805872244E+03    0.45629E-04   -0.85747E-05  8097   0.277E-02    0.232E-02
RMM:  10    -0.633805879488E+03   -0.72438E-05   -0.23900E-05  5678   0.199E-02
  32 F= -.63380588E+03 E0= -.63374692E+03  d E =-.535490E-03
 curvature:  -1.23 expect dE=-0.995E-03 dE for cont linesearch -0.153E-07
 trial: gam= 2.25739 g(F)=  0.349E-03 g(S)=  0.459E-03 ort = 0.386E-05 (trialstep = 0.194E+00)
 search vector abs. value=  0.697E-02
 bond charge predicted
       N       E                     dE             d eps       ncg     rms          rms(c)
DAV:   1    -0.633804477347E+03    0.13949E-02   -0.63667E-02 10416   0.156E+00    0.651E-02
RMM:   2    -0.633805977719E+03   -0.15004E-02   -0.13724E-02 13174   0.288E-01    0.187E-01
RMM:   3    -0.633806036632E+03   -0.58913E-04   -0.21444E-03 10606   0.134E-01    0.109E-01
RMM:   4    -0.633806083729E+03   -0.47097E-04   -0.45152E-04  9839   0.632E-02    0.110E-01
RMM:   5    -0.633806023954E+03    0.59775E-04   -0.91555E-05  6935   0.347E-02    0.409E-02
RMM:   6    -0.633806020076E+03    0.38772E-05   -0.42966E-05  6250   0.218E-02
  33 F= -.63380602E+03 E0= -.63374702E+03  d E =-.140589E-03
 trial-energy change:   -0.000141  1 .order   -0.000112   -0.000158   -0.000066
 step:   0.3333(harm=  0.3333)  dis= 0.00152  next Energy=  -633.806016 (dE=-0.136E-03)
 bond charge predicted
       N       E                     dE             d eps       ncg     rms          rms(c)
DAV:   1    -0.633805282909E+03    0.74104E-03   -0.32790E-02 10472   0.111E+00    0.487E-02
RMM:   2    -0.633806157068E+03   -0.87416E-03   -0.72804E-03 12920   0.212E-01    0.183E-01
RMM:   3    -0.633806103542E+03    0.53526E-04   -0.11635E-03 10203   0.103E-01    0.713E-02
RMM:   4    -0.633806128493E+03   -0.24951E-04   -0.25048E-04  8900   0.463E-02    0.752E-02
RMM:   5    -0.633806104541E+03    0.23952E-04   -0.56947E-05  6315   0.272E-02    0.345E-02
RMM:   6    -0.633806100382E+03    0.41589E-05   -0.24336E-05  5767   0.192E-02
  34 F= -.63380610E+03 E0= -.63374706E+03  d E =-.220895E-03
 curvature:  -1.42 expect dE=-0.806E-03 dE for cont linesearch -0.134E-04
 ZBRENT: increasing intervall
 opt :   0.6119  next Energy=  -633.806148 (dE=-0.269E-03)
 bond charge predicted
       N       E                     dE             d eps       ncg     rms          rms(c)
DAV:   1    -0.633802929800E+03    0.31747E-02   -0.13031E-01  9660   0.223E+00    0.100E-01
RMM:   2    -0.633806802994E+03   -0.38732E-02   -0.29864E-02 13222   0.429E-01    0.466E-01
RMM:   3    -0.633806214037E+03    0.58896E-03   -0.45576E-03 10982   0.200E-01    0.117E-01
RMM:   4    -0.633806378827E+03   -0.16479E-03   -0.10914E-03 10861   0.902E-02    0.171E-01
RMM:   5    -0.633806256751E+03    0.12208E-03   -0.24805E-04  8558   0.494E-02    0.746E-02
RMM:   6    -0.633806237745E+03    0.19005E-04   -0.11004E-04  7265   0.288E-02    0.344E-02
RMM:   7    -0.633806241112E+03   -0.33671E-05   -0.42133E-05  6167   0.209E-02
  35 F= -.63380624E+03 E0= -.63374716E+03  d E =-.361625E-03
 curvature:  -5.06 expect dE=-0.255E-02 dE for cont linesearch -0.110E-04
 ZBRENT: increasing intervall
 opt :   1.1691  next Energy=  -633.806236 (dE=-0.356E-03)
 bond charge predicted
       N       E                     dE             d eps       ncg     rms          rms(c)
DAV:   1    -0.633793127211E+03    0.13111E-01   -0.52054E-01  9604   0.446E+00    0.184E-01
RMM:   2    -0.633805835617E+03   -0.12708E-01   -0.11737E-01 13419   0.839E-01    0.523E-01
RMM:   3    -0.633806474863E+03   -0.63925E-03   -0.17999E-02 11760   0.369E-01    0.319E-01
RMM:   4    -0.633806844639E+03   -0.36978E-03   -0.38300E-03 11736   0.170E-01    0.309E-01
RMM:   5    -0.633806364134E+03    0.48050E-03   -0.86703E-04 10161   0.916E-02    0.106E-01
RMM:   6    -0.633806358443E+03    0.56912E-05   -0.42827E-04  9584   0.453E-02    0.776E-02
RMM:   7    -0.633806326034E+03    0.32409E-04   -0.16246E-04  9136   0.307E-02    0.568E-02
RMM:   8    -0.633806345483E+03   -0.19449E-04   -0.11225E-04  7821   0.322E-02    0.881E-02
RMM:   9    -0.633806306815E+03    0.38668E-04   -0.93028E-05  8194   0.261E-02    0.253E-02
RMM:  10    -0.633806317099E+03   -0.10285E-04   -0.31557E-05  5922   0.211E-02    0.504E-02
RMM:  11    -0.633806304163E+03    0.12936E-04   -0.16213E-05  5522   0.173E-02    0.711E-03
RMM:  12    -0.633806304072E+03    0.90877E-07   -0.96750E-06  5461   0.921E-03
  36 F= -.63380630E+03 E0= -.63374704E+03  d E =-.424585E-03
 curvature:   2.47 expect dE= 0.202E-02 dE for cont linesearch  0.545E-05
 trial: gam= 0.73173 g(F)=  0.770E-03 g(S)=  0.484E-04 ort =-0.124E-03 (trialstep = 0.389E+00)
 search vector abs. value=  0.437E-02
 bond charge predicted
       N       E                     dE             d eps       ncg     rms          rms(c)
DAV:   1    -0.633802678852E+03    0.36253E-02   -0.16512E-01 10668   0.248E+00    0.895E-02
RMM:   2    -0.633806046455E+03   -0.33676E-02   -0.33701E-02 13079   0.454E-01    0.178E-01
RMM:   3    -0.633806580677E+03   -0.53422E-03   -0.57798E-03 12139   0.197E-01    0.143E-01
RMM:   4    -0.633806630021E+03   -0.49343E-04   -0.85264E-04 11151   0.786E-02    0.132E-01
RMM:   5    -0.633806558558E+03    0.71462E-04   -0.18164E-04  8614   0.415E-02    0.393E-02
RMM:   6    -0.633806563273E+03   -0.47149E-05   -0.77810E-05  7021   0.233E-02
  37 F= -.63380656E+03 E0= -.63374723E+03  d E =-.259201E-03
 trial-energy change:   -0.000259  1 .order   -0.000208   -0.000283   -0.000132
 step:   0.4851(harm=  0.7309)  dis= 0.00162  next Energy=  -633.806580 (dE=-0.276E-03)
 bond charge predicted
       N       E                     dE             d eps       ncg     rms          rms(c)
DAV:   1    -0.633806363418E+03    0.19514E-03   -0.10201E-02 11760   0.613E-01    0.315E-02
RMM:   2    -0.633806671991E+03   -0.30857E-03   -0.20965E-03 12194   0.115E-01    0.154E-01
RMM:   3    -0.633806593389E+03    0.78603E-04   -0.35307E-04  8570   0.648E-02    0.348E-02
RMM:   4    -0.633806601664E+03   -0.82755E-05   -0.80784E-05  7346   0.280E-02
  38 F= -.63380660E+03 E0= -.63374730E+03  d E =-.297592E-03
 curvature:  -1.06 expect dE=-0.414E-03 dE for cont linesearch -0.813E-06
 trial: gam=-0.03808 g(F)=  0.341E-03 g(S)=  0.494E-04 ort = 0.579E-04 (trialstep = 0.408E+00)
 search vector abs. value=  0.393E-03
 bond charge predicted
       N       E                     dE             d eps       ncg     rms          rms(c)
DAV:   1    -0.633806567050E+03    0.26339E-04   -0.11185E-02 11424   0.554E-01    0.731E-02
RMM:   2    -0.633807317811E+03   -0.75076E-03   -0.21320E-03 11469   0.162E-01    0.306E-01
RMM:   3    -0.633806715740E+03    0.60207E-03   -0.56592E-04  9129   0.982E-02    0.851E-02
RMM:   4    -0.633806718814E+03   -0.30741E-05   -0.21924E-04  9791   0.462E-02    0.718E-02
RMM:   5    -0.633806691659E+03    0.27155E-04   -0.47118E-05  6231   0.241E-02    0.230E-02
RMM:   6    -0.633806699981E+03   -0.83218E-05   -0.23813E-05  5651   0.206E-02
  39 F= -.63380670E+03 E0= -.63374739E+03  d E =-.983168E-04
 trial-energy change:   -0.000098  1 .order   -0.000114   -0.000159   -0.000069
 step:   0.7232(harm=  0.7232)  dis= 0.00058  next Energy=  -633.806742 (dE=-0.141E-03)
 bond charge predicted
       N       E                     dE             d eps       ncg     rms          rms(c)
DAV:   1    -0.633806651483E+03    0.40176E-04   -0.67885E-03 11760   0.428E-01    0.560E-02
RMM:   2    -0.633807123950E+03   -0.47247E-03   -0.12543E-03 11097   0.126E-01    0.256E-01
RMM:   3    -0.633806743679E+03    0.38027E-03   -0.35279E-04  8712   0.787E-02    0.736E-02
RMM:   4    -0.633806740584E+03    0.30952E-05   -0.13643E-04  8955   0.380E-02    0.567E-02
RMM:   5    -0.633806736958E+03    0.36256E-05   -0.34904E-05  5900   0.225E-02
  40 F= -.63380674E+03 E0= -.63374727E+03  d E =-.135294E-03
 curvature:  -0.37 expect dE=-0.761E-04 dE for cont linesearch -0.314E-05
 ZBRENT: increasing intervall
 opt :   1.3532  next Energy=  -633.806704 (dE=-0.102E-03)
 bond charge predicted
       N       E                     dE             d eps       ncg     rms          rms(c)
DAV:   1    -0.633806390449E+03    0.35014E-03   -0.27012E-02 11648   0.856E-01    0.103E-01
RMM:   2    -0.633807822968E+03   -0.14325E-02   -0.47181E-03 11600   0.240E-01    0.424E-01
RMM:   3    -0.633806773122E+03    0.10498E-02   -0.12377E-03 10146   0.139E-01    0.144E-01
RMM:   4    -0.633806765046E+03    0.80760E-05   -0.50289E-04 10619   0.658E-02    0.114E-01
RMM:   5    -0.633806728734E+03    0.36312E-04   -0.13480E-04  8319   0.376E-02    0.847E-02
RMM:   6    -0.633806699229E+03    0.29505E-04   -0.58790E-05  6211   0.279E-02    0.395E-02
RMM:   7    -0.633806696449E+03    0.27800E-05   -0.35219E-05  5994   0.221E-02
  41 F= -.63380670E+03 E0= -.63374727E+03  d E =-.947848E-04
 curvature:   3.88 expect dE= 0.219E-02 dE for cont linesearch  0.226E-03
 ZBRENT: bracketing found
 ZBRENT: interpolating
 opt :   0.8982  next Energy=  -633.806742 (dE=-0.140E-03)
 bond charge predicted
       N       E                     dE             d eps       ncg     rms          rms(c)
DAV:   1    -0.633806536686E+03    0.16254E-03   -0.13992E-02 11256   0.621E-01    0.715E-02
RMM:   2    -0.633807306392E+03   -0.76971E-03   -0.26103E-03 11660   0.179E-01    0.308E-01
RMM:   3    -0.633806742857E+03    0.56353E-03   -0.70639E-04  9571   0.103E-01    0.774E-02
RMM:   4    -0.633806763671E+03   -0.20814E-04   -0.23780E-04  9632   0.480E-02    0.904E-02
RMM:   5    -0.633806739593E+03    0.24078E-04   -0.56293E-05  6407   0.282E-02    0.587E-02
RMM:   6    -0.633806725678E+03    0.13915E-04   -0.26502E-05  5678   0.228E-02    0.225E-02
RMM:   7    -0.633806722088E+03    0.35897E-05   -0.12936E-05  5282   0.137E-02
  42 F= -.63380672E+03 E0= -.63374731E+03  d E =-.120424E-03
 curvature:  -0.09 expect dE=-0.696E-04 dE for cont linesearch -0.128E-06
 trial: gam= 2.07963 g(F)=  0.133E-03 g(S)=  0.663E-03 ort =-0.240E-04 (trialstep = 0.830E-01)
 search vector abs. value=  0.240E-02
 bond charge predicted
       N       E                     dE             d eps       ncg     rms          rms(c)
DAV:   1    -0.633806736596E+03   -0.10919E-04   -0.27812E-03 11032   0.269E-01    0.449E-02
RMM:   2    -0.633807193279E+03   -0.45668E-03   -0.61052E-04 10247   0.916E-02    0.285E-01
RMM:   3    -0.633806780673E+03    0.41261E-03   -0.19935E-04  7792   0.630E-02    0.606E-02
RMM:   4    -0.633806765628E+03    0.15045E-04   -0.59621E-05  7300   0.279E-02    0.282E-02
RMM:   5    -0.633806771987E+03   -0.63593E-05   -0.19093E-05  5653   0.185E-02
  43 F= -.63380677E+03 E0= -.63374729E+03  d E =-.498993E-04
 trial-energy change:   -0.000050  1 .order   -0.000052   -0.000062   -0.000042
 step:   0.2639(harm=  0.2639)  dis= 0.00054  next Energy=  -633.806821 (dE=-0.985E-04)
 bond charge predicted
       N       E                     dE             d eps       ncg     rms          rms(c)
DAV:   1    -0.633806661402E+03    0.10423E-03   -0.13469E-02 11144   0.584E-01    0.719E-02
RMM:   2    -0.633807426660E+03   -0.76526E-03   -0.23035E-03 11790   0.165E-01    0.315E-01
RMM:   3    -0.633806868221E+03    0.55844E-03   -0.54382E-04  9472   0.986E-02    0.125E-01
RMM:   4    -0.633806828335E+03    0.39887E-04   -0.22824E-04  9651   0.483E-02    0.621E-02
RMM:   5    -0.633806813610E+03    0.14725E-04   -0.56876E-05  6575   0.259E-02    0.382E-02
RMM:   6    -0.633806810660E+03    0.29506E-05   -0.21421E-05  5550   0.214E-02
  44 F= -.63380681E+03 E0= -.63374736E+03  d E =-.885716E-04
 curvature:  -0.42 expect dE=-0.183E-03 dE for cont linesearch -0.532E-06
 trial: gam=-0.04373 g(F)=  0.163E-03 g(S)=  0.270E-03 ort = 0.549E-04 (trialstep = 0.119E+00)
 search vector abs. value=  0.432E-03
 bond charge predicted
       N       E                     dE             d eps       ncg     rms          rms(c)
DAV:   1    -0.633806848858E+03   -0.35247E-04   -0.12094E-03 12600   0.209E-01    0.587E-02
RMM:   2    -0.633807341423E+03   -0.49256E-03   -0.53595E-04  8832   0.943E-02    0.282E-01
RMM:   3    -0.633806867260E+03    0.47416E-03   -0.22249E-04  7629   0.705E-02    0.870E-02
RMM:   4    -0.633806839178E+03    0.28082E-04   -0.53424E-05  6757   0.292E-02    0.423E-02
RMM:   5    -0.633806843458E+03   -0.42795E-05   -0.21662E-05  5637   0.194E-02
  45 F= -.63380684E+03 E0= -.63374738E+03  d E =-.327979E-04
 ZBRENT: can't locate minimum, use default step
 trial-energy change:   -0.000033  1 .order   -0.000046   -0.000051   -0.000040
 step:   0.4767(harm=  0.5520)  dis= 0.00048  next Energy=  -633.806929 (dE=-0.119E-03)
 bond charge predicted
       N       E                     dE             d eps       ncg     rms          rms(c)
DAV:   1    -0.633806957390E+03   -0.11821E-03   -0.11066E-02 12460   0.621E-01    0.153E-01
RMM:   2    -0.633809687658E+03   -0.27303E-02   -0.37982E-03 10340   0.254E-01    0.635E-01
RMM:   3    -0.633807026209E+03    0.26614E-02   -0.14854E-03  9353   0.169E-01    0.202E-01
RMM:   4    -0.633806937255E+03    0.88954E-04   -0.42385E-04  9857   0.739E-02    0.141E-01
RMM:   5    -0.633806878320E+03    0.58935E-04   -0.18895E-04  9379   0.408E-02    0.969E-02
RMM:   6    -0.633806846147E+03    0.32173E-04   -0.66567E-05  6557   0.309E-02    0.590E-02
RMM:   7    -0.633806839651E+03    0.64964E-05   -0.42410E-05  6079   0.233E-02
  46 F= -.63380684E+03 E0= -.63374739E+03  d E =-.289911E-04
 curvature:  -0.27 expect dE=-0.242E-04 dE for cont linesearch -0.278E-06
 ZBRENT: interpolating
 opt :   0.4556  next Energy=  -633.806840 (dE=-0.292E-04)
 bond charge predicted
       N       E                     dE             d eps       ncg     rms          rms(c)
DAV:   1    -0.633806836697E+03    0.94505E-05   -0.18894E-04 12936   0.674E-02    0.289E-02
RMM:   2    -0.633807075832E+03   -0.23913E-03   -0.13651E-04  7491   0.427E-02    0.214E-01
RMM:   3    -0.633806838986E+03    0.23685E-03   -0.64448E-05  6518   0.359E-02    0.268E-02
RMM:   4    -0.633806836547E+03    0.24388E-05   -0.81626E-06  4701   0.120E-02
  47 F= -.63380684E+03 E0= -.63374741E+03  d E =-.258878E-04
 curvature:  -0.22 expect dE=-0.525E-04 dE for cont linesearch -0.729E-05
 ZBRENT: bisectioning
 opt :   0.2874  next Energy=  -633.806924 (dE=-0.113E-03)
 bond charge predicted
       N       E                     dE             d eps       ncg     rms          rms(c)
DAV:   1    -0.633806881927E+03   -0.42941E-04   -0.25351E-03 12572   0.295E-01    0.732E-02
RMM:   2    -0.633807649545E+03   -0.76762E-03   -0.88363E-04  9551   0.123E-01    0.356E-01
RMM:   3    -0.633806938144E+03    0.71140E-03   -0.35411E-04  8263   0.845E-02    0.132E-01
RMM:   4    -0.633806867631E+03    0.70513E-04   -0.99555E-05  8125   0.392E-02    0.496E-02
RMM:   5    -0.633806858997E+03    0.86331E-05   -0.34423E-05  6022   0.209E-02
  48 F= -.63380686E+03 E0= -.63374745E+03  d E =-.483378E-04
 curvature:  -2.58 expect dE=-0.932E-03 dE for cont linesearch -0.123E-04
 trial: gam= 0.96210 g(F)=  0.178E-03 g(S)=  0.183E-03 ort =-0.455E-04 (trialstep = 0.981E-01)
 search vector abs. value=  0.674E-03
 bond charge predicted
       N       E                     dE             d eps       ncg     rms          rms(c)
DAV:   1    -0.633806829797E+03    0.37834E-04   -0.17077E-03 13076   0.276E-01    0.263E-02
RMM:   2    -0.633807054263E+03   -0.22447E-03   -0.44114E-04  9735   0.617E-02    0.200E-01
RMM:   3    -0.633806864974E+03    0.18929E-03   -0.11518E-04  6632   0.456E-02    0.187E-02
RMM:   4    -0.633806867419E+03   -0.24458E-05   -0.30865E-05  6225   0.176E-02
  49 F= -.63380687E+03 E0= -.63374748E+03  d E =-.842200E-05
 trial-energy change:   -0.000008  1 .order   -0.000018   -0.000031   -0.000004
 step:   0.1144(harm=  0.1144)  dis= 0.00020  next Energy=  -633.806877 (dE=-0.181E-04)
 reached required accuracy - stopping structural energy minimisation
