  64  64   0   0
  0.1101531E+02  0.8885107E-09  0.8962140E-09  0.8853254E-09  0.5000000E-15
  1.000000000000000E-004
  CAR 
 HECN                                    
     14.82015552    -60.62564660  301      7.72010797      1.00000000
    -60.626  0.0000E+00  0.0000E+00
    -60.374  0.0000E+00  0.0000E+00
    -60.123  0.0000E+00  0.0000E+00
    -59.871  0.0000E+00  0.0000E+00
    -59.620  0.0000E+00  0.0000E+00
    -59.368  0.0000E+00  0.0000E+00
    -59.117  0.0000E+00  0.0000E+00
    -58.865  0.0000E+00  0.0000E+00
    -58.614  0.0000E+00  0.0000E+00
    -58.362  0.0000E+00  0.0000E+00
    -58.111  0.0000E+00  0.0000E+00
    -57.859  0.0000E+00  0.0000E+00
    -57.608  0.3216E-09  0.8087E-10
    -57.356  0.1679E-02  0.4224E-03
    -57.105  0.2829E+00  0.7157E-01
    -56.853  0.1923E+00  0.1199E+00
    -56.602  0.3126E-03  0.1200E+00
    -56.350  0.1209E-10  0.1200E+00
    -56.099  0.0000E+00  0.1200E+00
    -55.847  0.0000E+00  0.1200E+00
    -55.596  0.0000E+00  0.1200E+00
    -55.344  0.0000E+00  0.1200E+00
    -55.093  0.0000E+00  0.1200E+00
    -54.841  0.0000E+00  0.1200E+00
    -54.590  0.0000E+00  0.1200E+00
    -54.338  0.0000E+00  0.1200E+00
    -54.087  0.0000E+00  0.1200E+00
    -53.836  0.0000E+00  0.1200E+00
    -53.584  0.0000E+00  0.1200E+00
    -53.333  0.0000E+00  0.1200E+00
    -53.081  0.0000E+00  0.1200E+00
    -52.830  0.0000E+00  0.1200E+00
    -52.578  0.0000E+00  0.1200E+00
    -52.327  0.0000E+00  0.1200E+00
    -52.075  0.0000E+00  0.1200E+00
    -51.824  0.0000E+00  0.1200E+00
    -51.572  0.0000E+00  0.1200E+00
    -51.321  0.0000E+00  0.1200E+00
    -51.069  0.0000E+00  0.1200E+00
    -50.818  0.0000E+00  0.1200E+00
    -50.566  0.4415E-17  0.1200E+00
    -50.315  0.6475E-07  0.1200E+00
    -50.063  0.8574E-02  0.1222E+00
    -49.812  0.8364E-01  0.1432E+00
    -49.560  0.3241E+00  0.2247E+00
    -49.309  0.1400E+00  0.2599E+00
    -49.057  0.3976E-03  0.2600E+00
    -48.806  0.2844E-10  0.2600E+00
    -48.554  0.0000E+00  0.2600E+00
    -48.303  0.0000E+00  0.2600E+00
    -48.051  0.0000E+00  0.2600E+00
    -47.800  0.0000E+00  0.2600E+00
    -47.548  0.0000E+00  0.2600E+00
    -47.297  0.0000E+00  0.2600E+00
    -47.045  0.0000E+00  0.2600E+00
    -46.794  0.0000E+00  0.2600E+00
    -46.542  0.0000E+00  0.2600E+00
    -46.291  0.0000E+00  0.2600E+00
    -46.039  0.0000E+00  0.2600E+00
    -45.788  0.0000E+00  0.2600E+00
    -45.536  0.0000E+00  0.2600E+00
    -45.285  0.0000E+00  0.2600E+00
    -45.034  0.0000E+00  0.2600E+00
    -44.782  0.0000E+00  0.2600E+00
    -44.531  0.0000E+00  0.2600E+00
    -44.279  0.0000E+00  0.2600E+00
    -44.028  0.0000E+00  0.2600E+00
    -43.776  0.0000E+00  0.2600E+00
    -43.525  0.0000E+00  0.2600E+00
    -43.273  0.0000E+00  0.2600E+00
    -43.022  0.0000E+00  0.2600E+00
    -42.770  0.0000E+00  0.2600E+00
    -42.519  0.0000E+00  0.2600E+00
    -42.267  0.0000E+00  0.2600E+00
    -42.016  0.3052E-09  0.2600E+00
    -41.764  0.1075E-02  0.2603E+00
    -41.513  0.1143E+00  0.2890E+00
    -41.261  0.8953E-01  0.3115E+00
    -41.010  0.1590E+00  0.3515E+00
    -40.758  0.9949E-01  0.3765E+00
    -40.507  0.2737E-01  0.3834E+00
    -40.255  0.6560E-01  0.3999E+00
    -40.004  0.3659E-03  0.4000E+00
    -39.752  0.2875E-10  0.4000E+00
    -39.501  0.0000E+00  0.4000E+00
    -39.249  0.0000E+00  0.4000E+00
    -38.998  0.0000E+00  0.4000E+00
    -38.746  0.0000E+00  0.4000E+00
    -38.495  0.0000E+00  0.4000E+00
    -38.243  0.0000E+00  0.4000E+00
    -37.992  0.0000E+00  0.4000E+00
    -37.740  0.0000E+00  0.4000E+00
    -37.489  0.0000E+00  0.4000E+00
    -37.237  0.0000E+00  0.4000E+00
    -36.986  0.0000E+00  0.4000E+00
    -36.734  0.0000E+00  0.4000E+00
    -36.483  0.0000E+00  0.4000E+00
    -36.232  0.0000E+00  0.4000E+00
    -35.980  0.0000E+00  0.4000E+00
    -35.729  0.0000E+00  0.4000E+00
    -35.477  0.0000E+00  0.4000E+00
    -35.226  0.0000E+00  0.4000E+00
    -34.974  0.0000E+00  0.4000E+00
    -34.723  0.0000E+00  0.4000E+00
    -34.471  0.0000E+00  0.4000E+00
    -34.220  0.0000E+00  0.4000E+00
    -33.968  0.0000E+00  0.4000E+00
    -33.717  0.0000E+00  0.4000E+00
    -33.465  0.0000E+00  0.4000E+00
    -33.214  0.0000E+00  0.4000E+00
    -32.962  0.0000E+00  0.4000E+00
    -32.711  0.0000E+00  0.4000E+00
    -32.459  0.1306E-13  0.4000E+00
    -32.208  0.7748E-05  0.4000E+00
    -31.956  0.3557E-01  0.4089E+00
    -31.705  0.3291E+00  0.4917E+00
    -31.453  0.6405E+00  0.6528E+00
    -31.202  0.5939E+00  0.8022E+00
    -30.950  0.1077E+01  0.1073E+01
    -30.699  0.1873E+00  0.1120E+01
    -30.447  0.4085E-04  0.1120E+01
    -30.196  0.1544E-12  0.1120E+01
    -29.944  0.0000E+00  0.1120E+01
    -29.693  0.0000E+00  0.1120E+01
    -29.441  0.0000E+00  0.1120E+01
    -29.190  0.0000E+00  0.1120E+01
    -28.938  0.0000E+00  0.1120E+01
    -28.687  0.0000E+00  0.1120E+01
    -28.435  0.0000E+00  0.1120E+01
    -28.184  0.0000E+00  0.1120E+01
    -27.932  0.0000E+00  0.1120E+01
    -27.681  0.0000E+00  0.1120E+01
    -27.429  0.0000E+00  0.1120E+01
    -27.178  0.0000E+00  0.1120E+01
    -26.927  0.3975E-15  0.1120E+01
    -26.675  0.1399E-05  0.1120E+01
    -26.424  0.4094E-01  0.1130E+01
    -26.172  0.2917E+00  0.1204E+01
    -25.921  0.9434E+00  0.1441E+01
    -25.669  0.3895E+00  0.1539E+01
    -25.418  0.4463E-02  0.1540E+01
    -25.166  0.8321E-08  0.1540E+01
    -24.915  0.0000E+00  0.1540E+01
    -24.663  0.0000E+00  0.1540E+01
    -24.412  0.0000E+00  0.1540E+01
    -24.160  0.0000E+00  0.1540E+01
    -23.909  0.1127E-11  0.1540E+01
    -23.657  0.7737E-04  0.1540E+01
    -23.406  0.6026E-01  0.1555E+01
    -23.154  0.4068E+00  0.1657E+01
    -22.903  0.2987E+00  0.1733E+01
    -22.651  0.5071E+00  0.1860E+01
    -22.400  0.1582E+00  0.1900E+01
    -22.148  0.2615E-03  0.1900E+01
    -21.897  0.6406E-11  0.1900E+01
    -21.645  0.0000E+00  0.1900E+01
    -21.394  0.0000E+00  0.1900E+01
    -21.142  0.0000E+00  0.1900E+01
    -20.891  0.0000E+00  0.1900E+01
    -20.639  0.1668E-16  0.1900E+01
    -20.388  0.1953E-06  0.1900E+01
    -20.136  0.1747E-01  0.1904E+01
    -19.885  0.2614E+00  0.1970E+01
    -19.633  0.3113E+00  0.2048E+01
    -19.382  0.3523E+00  0.2137E+01
    -19.130  0.3800E+00  0.2233E+01
    -18.879  0.1291E+00  0.2265E+01
    -18.627  0.2093E+00  0.2318E+01
    -18.376  0.9241E-02  0.2320E+01
    -18.125  0.2660E-07  0.2320E+01
    -17.873  0.0000E+00  0.2320E+01
    -17.622  0.0000E+00  0.2320E+01
    -17.370  0.0000E+00  0.2320E+01
    -17.119  0.0000E+00  0.2320E+01
    -16.867  0.0000E+00  0.2320E+01
    -16.616  0.0000E+00  0.2320E+01
    -16.364  0.0000E+00  0.2320E+01
    -16.113  0.0000E+00  0.2320E+01
    -15.861  0.0000E+00  0.2320E+01
    -15.610  0.0000E+00  0.2320E+01
    -15.358  0.0000E+00  0.2320E+01
    -15.107  0.0000E+00  0.2320E+01
    -14.855  0.0000E+00  0.2320E+01
    -14.604  0.0000E+00  0.2320E+01
    -14.352  0.0000E+00  0.2320E+01
    -14.101  0.0000E+00  0.2320E+01
    -13.849  0.0000E+00  0.2320E+01
    -13.598  0.0000E+00  0.2320E+01
    -13.346  0.0000E+00  0.2320E+01
    -13.095  0.0000E+00  0.2320E+01
    -12.843  0.0000E+00  0.2320E+01
    -12.592  0.0000E+00  0.2320E+01
    -12.340  0.0000E+00  0.2320E+01
    -12.089  0.0000E+00  0.2320E+01
    -11.837  0.0000E+00  0.2320E+01
    -11.586  0.0000E+00  0.2320E+01
    -11.334  0.0000E+00  0.2320E+01
    -11.083  0.0000E+00  0.2320E+01
    -10.831  0.0000E+00  0.2320E+01
    -10.580  0.0000E+00  0.2320E+01
    -10.328  0.0000E+00  0.2320E+01
    -10.077  0.0000E+00  0.2320E+01
     -9.825  0.0000E+00  0.2320E+01
     -9.574  0.0000E+00  0.2320E+01
     -9.323  0.0000E+00  0.2320E+01
     -9.071  0.4014E-12  0.2320E+01
     -8.820  0.1374E-04  0.2320E+01
     -8.568  0.1277E-01  0.2323E+01
     -8.317  0.6131E-01  0.2339E+01
     -8.065  0.6263E-02  0.2340E+01
     -7.814  0.7419E-01  0.2359E+01
     -7.562  0.1570E+00  0.2398E+01
     -7.311  0.2468E+00  0.2460E+01
     -7.059  0.1929E+00  0.2509E+01
     -6.808  0.1789E+00  0.2554E+01
     -6.556  0.7314E-01  0.2572E+01
     -6.305  0.2985E-01  0.2580E+01
     -6.053  0.6809E-03  0.2580E+01
     -5.802  0.2366E-08  0.2580E+01
     -5.550  0.1283E-14  0.2580E+01
     -5.299  0.1016E-05  0.2580E+01
     -5.047  0.9663E-02  0.2582E+01
     -4.796  0.6700E-01  0.2599E+01
     -4.544  0.2607E-01  0.2606E+01
     -4.293  0.1080E+00  0.2633E+01
     -4.041  0.1025E+00  0.2659E+01
     -3.790  0.1481E+00  0.2696E+01
     -3.538  0.1847E+00  0.2742E+01
     -3.287  0.2282E+00  0.2800E+01
     -3.035  0.1941E+00  0.2849E+01
     -2.784  0.1849E+00  0.2895E+01
     -2.532  0.1658E+00  0.2937E+01
     -2.281  0.8302E-01  0.2958E+01
     -2.029  0.8892E-02  0.2960E+01
     -1.778  0.2105E-04  0.2960E+01
     -1.526  0.2627E-11  0.2960E+01
     -1.275  0.0000E+00  0.2960E+01
     -1.023  0.0000E+00  0.2960E+01
     -0.772  0.1358E-13  0.2960E+01
     -0.520  0.1679E-05  0.2960E+01
     -0.269  0.2687E-02  0.2961E+01
     -0.018  0.1576E-01  0.2965E+01
      0.234  0.6445E-01  0.2981E+01
      0.485  0.8442E-01  0.3002E+01
      0.737  0.1158E+00  0.3031E+01
      0.988  0.1616E+00  0.3072E+01
      1.240  0.2322E+00  0.3130E+01
      1.491  0.2803E+00  0.3201E+01
      1.743  0.2759E+00  0.3270E+01
      1.994  0.3018E+00  0.3346E+01
      2.246  0.3319E+00  0.3429E+01
      2.497  0.3956E+00  0.3529E+01
      2.749  0.4895E+00  0.3652E+01
      3.000  0.5500E+00  0.3790E+01
      3.252  0.5726E+00  0.3934E+01
      3.503  0.5978E+00  0.4085E+01
      3.755  0.5650E+00  0.4227E+01
      4.006  0.5229E+00  0.4358E+01
      4.258  0.4740E+00  0.4477E+01
      4.509  0.4362E+00  0.4587E+01
      4.761  0.3798E+00  0.4683E+01
      5.012  0.2695E+00  0.4750E+01
      5.264  0.2311E+00  0.4809E+01
      5.515  0.1721E+00  0.4852E+01
      5.767  0.1042E+00  0.4878E+01
      6.018  0.6852E-01  0.4895E+01
      6.270  0.1867E+00  0.4942E+01
      6.521  0.1513E+00  0.4980E+01
      6.773  0.1313E+00  0.5013E+01
      7.024  0.1711E+00  0.5056E+01
      7.276  0.1811E+00  0.5102E+01
      7.527  0.1916E+00  0.5150E+01
      7.779  0.2071E+00  0.5202E+01
      8.030  0.2558E+00  0.5267E+01
      8.282  0.3741E+00  0.5361E+01
      8.533  0.4091E+00  0.5463E+01
      8.784  0.4396E+00  0.5574E+01
      9.036  0.4720E+00  0.5693E+01
      9.287  0.4763E+00  0.5813E+01
      9.539  0.5070E+00  0.5940E+01
      9.790  0.4817E+00  0.6061E+01
     10.042  0.5007E+00  0.6187E+01
     10.293  0.4824E+00  0.6308E+01
     10.545  0.4229E+00  0.6415E+01
     10.796  0.4480E+00  0.6527E+01
     11.048  0.4236E+00  0.6634E+01
     11.299  0.2847E+00  0.6706E+01
     11.551  0.5731E-01  0.6720E+01
     11.802  0.1555E-03  0.6720E+01
     12.054  0.2192E-10  0.6720E+01
     12.305  0.0000E+00  0.6720E+01
     12.557  0.0000E+00  0.6720E+01
     12.808  0.0000E+00  0.6720E+01
     13.060  0.0000E+00  0.6720E+01
     13.311  0.0000E+00  0.6720E+01
     13.563  0.0000E+00  0.6720E+01
     13.814  0.0000E+00  0.6720E+01
     14.066  0.0000E+00  0.6720E+01
     14.317  0.0000E+00  0.6720E+01
     14.569  0.0000E+00  0.6720E+01
     14.820  0.0000E+00  0.6720E+01
