 running   28 mpi-ranks, on    1 nodes
 distrk:  each k-point on   28 cores,    1 groups
 distr:  one band on    1 cores,   28 groups
 vasp.6.4.3 19Mar24 (build Sep 18 2024 11:30:23) complex                        
  
 POSCAR found type information on POSCAR TiW HfN C ZrV 
 POSCAR found :  7 types and      64 ions
 Reading from existing POTCAR
 scaLAPACK will be used
 -----------------------------------------------------------------------------
|                                                                             |
|           W    W    AA    RRRRR   N    N  II  N    N   GGGG   !!!           |
|           W    W   A  A   R    R  NN   N  II  NN   N  G    G  !!!           |
|           W    W  A    A  R    R  N N  N  II  N N  N  G       !!!           |
|           W WW W  AAAAAA  RRRRR   N  N N  II  N  N N  G  GGG   !            |
|           WW  WW  A    A  R   R   N   NN  II  N   NN  G    G                |
|           W    W  A    A  R    R  N    N  II  N    N   GGGG   !!!           |
|                                                                             |
|     For optimal performance we recommend to set                             |
|       NCORE = 2 up to number-of-cores-per-socket                            |
|     NCORE specifies how many cores store one orbital (NPAR=cpu/NCORE).      |
|     This setting can greatly improve the performance of VASP for DFT.       |
|     The default, NCORE=1 might be grossly inefficient on modern             |
|     multi-core architectures or massively parallel machines. Do your        |
|     own testing! More info at https://www.vasp.at/wiki/index.php/NCORE      |
|     Unfortunately you need to use the default for GW and RPA                |
|     calculations (for HF NCORE is supported but not extensively tested      |
|     yet).                                                                   |
|                                                                             |
 -----------------------------------------------------------------------------

 Reading from existing POTCAR
 -----------------------------------------------------------------------------
|                                                                             |
|               ----> ADVICE to this user running VASP <----                  |
|                                                                             |
|     You have a (more or less) 'large supercell' and for larger cells it     |
|     might be more efficient to use real-space projection operators.         |
|     Therefore, try LREAL= Auto in the INCAR file.                           |
|     Mind: If you want to do very accurate calculations, keep the            |
|     reciprocal projection scheme (i.e. LREAL=.FALSE.).                      |
|                                                                             |
 -----------------------------------------------------------------------------

 LDA part: xc-table for (Slater+PW92), standard interpolation
 POSCAR, INCAR and KPOINTS ok, starting setup
 FFT: planning ... GRIDC
 FFT: planning ... GRID_SOFT
 FFT: planning ... GRID
 WAVECAR not read
 entering main loop
       N       E                     dE             d eps       ncg     rms          rms(c)
DAV:   1     0.547914502257E+04    0.54791E+04   -0.22419E+05  9408   0.141E+03
DAV:   2     0.134911050353E+02   -0.54657E+04   -0.52486E+04  9408   0.499E+02
DAV:   3    -0.725992598366E+03   -0.73948E+03   -0.71095E+03 13524   0.156E+02
DAV:   4    -0.790029190651E+03   -0.64037E+02   -0.63468E+02 16100   0.480E+01
DAV:   5    -0.793164395112E+03   -0.31352E+01   -0.31277E+01 15624   0.993E+00    0.682E+01
RMM:   6    -0.712015517627E+03    0.81149E+02   -0.11002E+03 12767   0.586E+01    0.753E+01
RMM:   7    -0.677748690951E+03    0.34267E+02   -0.23453E+02 13115   0.304E+01    0.405E+01
RMM:   8    -0.649529498826E+03    0.28219E+02   -0.46181E+01 13861   0.133E+01    0.160E+01
RMM:   9    -0.647096093577E+03    0.24334E+01   -0.14099E+01 14323   0.579E+00    0.102E+01
RMM:  10    -0.646912535668E+03    0.18356E+00   -0.53555E+00 15096   0.366E+00    0.101E+01
RMM:  11    -0.646430920725E+03    0.48161E+00   -0.28849E+00 15136   0.277E+00    0.598E+00
RMM:  12    -0.646675343250E+03   -0.24442E+00   -0.27725E+00 14558   0.274E+00    0.675E+00
RMM:  13    -0.646423648472E+03    0.25169E+00   -0.13568E+00 15062   0.213E+00    0.298E+00
RMM:  14    -0.646401910011E+03    0.21738E-01   -0.67046E-01 14821   0.132E+00    0.241E+00
RMM:  15    -0.646400588159E+03    0.13219E-02   -0.51600E-01 15356   0.105E+00    0.177E+00
RMM:  16    -0.646415818601E+03   -0.15230E-01   -0.42108E-01 15072   0.875E-01    0.120E+00
RMM:  17    -0.646436009003E+03   -0.20190E-01   -0.22337E-01 15387   0.684E-01    0.117E+00
RMM:  18    -0.646442082646E+03   -0.60736E-02   -0.12953E-01 15379   0.560E-01    0.100E+00
RMM:  19    -0.646438451885E+03    0.36308E-02   -0.10210E-01 15293   0.459E-01    0.609E-01
RMM:  20    -0.646439957580E+03   -0.15057E-02   -0.73829E-02 15438   0.386E-01    0.300E-01
RMM:  21    -0.646443002335E+03   -0.30448E-02   -0.42018E-02 15813   0.271E-01    0.206E-01
RMM:  22    -0.646444724917E+03   -0.17226E-02   -0.24657E-02 15912   0.213E-01    0.116E-01
RMM:  23    -0.646446181293E+03   -0.14564E-02   -0.18035E-02 15740   0.177E-01    0.700E-02
RMM:  24    -0.646447181129E+03   -0.99984E-03   -0.12037E-02 15500   0.147E-01    0.710E-02
RMM:  25    -0.646447954686E+03   -0.77356E-03   -0.88424E-03 15242   0.120E-01    0.380E-02
RMM:  26    -0.646448500397E+03   -0.54571E-03   -0.60675E-03 14873   0.102E-01    0.151E-02
RMM:  27    -0.646448903727E+03   -0.40333E-03   -0.44537E-03 14378   0.845E-02    0.205E-02
RMM:  28    -0.646449190006E+03   -0.28628E-03   -0.31722E-03 14337   0.721E-02    0.772E-03
RMM:  29    -0.646449399922E+03   -0.20992E-03   -0.23163E-03 14045   0.618E-02    0.504E-03
RMM:  30    -0.646449556526E+03   -0.15660E-03   -0.17257E-03 13829   0.531E-02    0.450E-03
RMM:  31    -0.646449671547E+03   -0.11502E-03   -0.12725E-03 13599   0.457E-02    0.284E-03
RMM:  32    -0.646449759093E+03   -0.87546E-04   -0.96819E-04 13142   0.395E-02    0.180E-03
RMM:  33    -0.646449824569E+03   -0.65476E-04   -0.73060E-04 12699   0.345E-02    0.617E-03
RMM:  34    -0.646449874529E+03   -0.49960E-04   -0.56052E-04 12365   0.301E-02    0.488E-03
RMM:  35    -0.646449913066E+03   -0.38538E-04   -0.43466E-04 11801   0.268E-02    0.755E-03
RMM:  36    -0.646449943433E+03   -0.30366E-04   -0.34322E-04 11494   0.232E-02    0.130E-02
RMM:  37    -0.646449967048E+03   -0.23615E-04   -0.26823E-04 11085   0.209E-02    0.181E-02
RMM:  38    -0.646449985154E+03   -0.18106E-04   -0.21283E-04 10571   0.185E-02    0.171E-02
RMM:  39    -0.646449999194E+03   -0.14040E-04   -0.16837E-04 10079   0.170E-02    0.157E-02
RMM:  40    -0.646450010636E+03   -0.11442E-04   -0.13844E-04  9649   0.157E-02    0.159E-02
RMM:  41    -0.646450019613E+03   -0.89769E-05   -0.11003E-04  9161   0.146E-02    0.176E-02
RMM:  42    -0.646450026901E+03   -0.72881E-05   -0.92887E-05  9020   0.137E-02
   1 F= -.64645003E+03 E0= -.64639687E+03  d E =-.646450E+03
 curvature:   0.00 expect dE= 0.000E+00 dE for cont linesearch  0.000E+00
 trial: gam= 0.00000 g(F)=  0.197E-01 g(S)=  0.146E+00 ort = 0.000E+00 (trialstep = 0.100E+01)
 search vector abs. value=  0.166E+00
 bond charge predicted
       N       E                     dE             d eps       ncg     rms          rms(c)
DAV:   1    -0.647625354430E+03   -0.11753E+01   -0.32763E+01 11872   0.174E+01    0.879E+00
RMM:   2    -0.650244991241E+03   -0.26196E+01   -0.10877E+01 10759   0.860E+00    0.193E+01
RMM:   3    -0.646741953929E+03    0.35030E+01   -0.24249E+00 11606   0.439E+00    0.512E+00
RMM:   4    -0.646653921830E+03    0.88032E-01   -0.69597E-01 13702   0.191E+00    0.487E+00
RMM:   5    -0.646460630440E+03    0.19329E+00   -0.31655E-01 12973   0.135E+00    0.246E+00
RMM:   6    -0.646436531114E+03    0.24099E-01   -0.21213E-01 13835   0.992E-01    0.221E+00
RMM:   7    -0.646406947840E+03    0.29583E-01   -0.79813E-02 13892   0.666E-01    0.108E+00
RMM:   8    -0.646399142971E+03    0.78049E-02   -0.26556E-02 15169   0.344E-01    0.450E-01
RMM:   9    -0.646399309702E+03   -0.16673E-03   -0.97155E-03 15747   0.204E-01    0.406E-01
RMM:  10    -0.646398891004E+03    0.41870E-03   -0.49220E-03 15721   0.148E-01    0.186E-01
RMM:  11    -0.646399447790E+03   -0.55679E-03   -0.32425E-03 15844   0.107E-01    0.188E-01
RMM:  12    -0.646399684155E+03   -0.23637E-03   -0.22837E-03 15709   0.919E-02    0.125E-01
RMM:  13    -0.646399956338E+03   -0.27218E-03   -0.18131E-03 16040   0.765E-02    0.427E-02
RMM:  14    -0.646400116365E+03   -0.16003E-03   -0.13248E-03 15707   0.584E-02    0.473E-02
RMM:  15    -0.646400203609E+03   -0.87244E-04   -0.89862E-04 15072   0.495E-02    0.403E-02
RMM:  16    -0.646400265137E+03   -0.61528E-04   -0.65003E-04 14766   0.411E-02    0.283E-02
RMM:  17    -0.646400314504E+03   -0.49367E-04   -0.47516E-04 14395   0.358E-02    0.112E-02
RMM:  18    -0.646400345113E+03   -0.30609E-04   -0.34869E-04 14138   0.308E-02    0.647E-03
WARNING in EDDRMM: call to ZHEGV failed, returncode =   8  4      2
RMM:  19    -0.646400367471E+03   -0.22357E-04   -0.26657E-04 13683   0.262E-02    0.694E-03
RMM:  20    -0.646400384806E+03   -0.17336E-04   -0.19573E-04 12917   0.228E-02    0.504E-03
RMM:  21    -0.646400397966E+03   -0.13160E-04   -0.14576E-04 11896   0.201E-02    0.175E-03
RMM:  22    -0.646400407947E+03   -0.99805E-05   -0.11166E-04 11028   0.182E-02    0.334E-03
RMM:  23    -0.646400415432E+03   -0.74852E-05   -0.85313E-05 10048   0.165E-02
   2 F= -.64640042E+03 E0= -.64634815E+03  d E =0.496115E-01
 trial-energy change:    0.049611  1 .order    0.049843   -0.165913    0.265598
 step:   0.3845(harm=  0.3845)  dis= 0.00372  next Energy=  -646.481923 (dE=-0.319E-01)
 bond charge predicted
       N       E                     dE             d eps       ncg     rms          rms(c)
DAV:   1    -0.646973475237E+03   -0.57307E+00   -0.12522E+01 12096   0.107E+01    0.596E+00
RMM:   2    -0.648436389769E+03   -0.14629E+01   -0.37784E+00 11204   0.499E+00    0.120E+01
RMM:   3    -0.646563693971E+03    0.18727E+01   -0.10912E+00 11281   0.291E+00    0.218E+00
RMM:   4    -0.646559633888E+03    0.40601E-02   -0.26416E-01 13766   0.114E+00    0.278E+00
RMM:   5    -0.646501662408E+03    0.57971E-01   -0.11291E-01 13447   0.796E-01    0.139E+00
RMM:   6    -0.646486021919E+03    0.15640E-01   -0.70155E-02 13919   0.563E-01    0.741E-01
RMM:   7    -0.646486764297E+03   -0.74238E-03   -0.23805E-02 14867   0.330E-01    0.830E-01
RMM:   8    -0.646481815767E+03    0.49485E-02   -0.77628E-03 14747   0.204E-01    0.272E-01
RMM:   9    -0.646482089588E+03   -0.27382E-03   -0.38445E-03 15735   0.119E-01    0.293E-01
RMM:  10    -0.646481641148E+03    0.44844E-03   -0.19116E-03 15435   0.908E-02    0.105E-01
RMM:  11    -0.646481721357E+03   -0.80209E-04   -0.12090E-03 15558   0.644E-02    0.839E-02
RMM:  12    -0.646481845857E+03   -0.12450E-03   -0.85708E-04 14974   0.566E-02    0.104E-01
RMM:  13    -0.646481832562E+03    0.13295E-04   -0.64564E-04 14838   0.481E-02    0.333E-02
RMM:  14    -0.646481878255E+03   -0.45693E-04   -0.45676E-04 14340   0.357E-02    0.389E-02
RMM:  15    -0.646481900458E+03   -0.22203E-04   -0.32131E-04 13843   0.302E-02    0.235E-02
RMM:  16    -0.646481920591E+03   -0.20133E-04   -0.23418E-04 13298   0.252E-02    0.155E-02
RMM:  17    -0.646481932715E+03   -0.12124E-04   -0.17033E-04 12667   0.220E-02    0.473E-03
RMM:  18    -0.646481942859E+03   -0.10143E-04   -0.12048E-04 11737   0.186E-02    0.331E-03
RMM:  19    -0.646481950540E+03   -0.76813E-05   -0.86247E-05 10633   0.165E-02
   3 F= -.64648195E+03 E0= -.64642915E+03  d E =-.319236E-01
 curvature:  -0.19 expect dE=-0.324E-02 dE for cont linesearch -0.413E-05
 trial: gam= 0.09028 g(F)=  0.150E-01 g(S)=  0.182E-02 ort = 0.189E-02 (trialstep = 0.877E+00)
 search vector abs. value=  0.186E-01
 bond charge predicted
       N       E                     dE             d eps       ncg     rms          rms(c)
DAV:   1    -0.646467524044E+03    0.14419E-01   -0.23096E+00 10192   0.520E+00    0.349E-01
RMM:   2    -0.646486223590E+03   -0.18700E-01   -0.21206E-01 12943   0.123E+00    0.299E-01
RMM:   3    -0.646492155253E+03   -0.59317E-02   -0.55385E-02 14461   0.545E-01    0.401E-01
RMM:   4    -0.646492028255E+03    0.12700E-03   -0.12072E-02 15008   0.227E-01    0.225E-01
RMM:   5    -0.646491854331E+03    0.17392E-03   -0.28025E-03 14589   0.957E-02    0.152E-01
RMM:   6    -0.646491752158E+03    0.10217E-03   -0.12632E-03 14121   0.611E-02    0.104E-01
WARNING in EDDRMM: call to ZHEGV failed, returncode =   6  3      7
RMM:   7    -0.646491795367E+03   -0.43209E-04   -0.92925E-04 13972   0.581E-02    0.141E-01
RMM:   8    -0.646491679173E+03    0.11619E-03   -0.56678E-04 13770   0.439E-02    0.516E-02
RMM:   9    -0.646491682782E+03   -0.36087E-05   -0.32063E-04 12774   0.289E-02    0.304E-02
RMM:  10    -0.646491694392E+03   -0.11610E-04   -0.20267E-04 12072   0.221E-02    0.262E-02
RMM:  11    -0.646491696280E+03   -0.18872E-05   -0.12094E-04 11587   0.165E-02    0.978E-03
RMM:  12    -0.646491701662E+03   -0.53825E-05   -0.73922E-05 10919   0.133E-02
   4 F= -.64649170E+03 E0= -.64643874E+03  d E =-.975112E-02
 trial-energy change:   -0.009751  1 .order   -0.009814   -0.014940   -0.004688
 step:   1.3011(harm=  1.2779)  dis= 0.01340  next Energy=  -646.492829 (dE=-0.109E-01)
 bond charge predicted
       N       E                     dE             d eps       ncg     rms          rms(c)
DAV:   1    -0.646487136964E+03    0.45593E-02   -0.53947E-01 10360   0.252E+00    0.168E-01
RMM:   2    -0.646491552491E+03   -0.44155E-02   -0.49769E-02 13123   0.594E-01    0.146E-01
RMM:   3    -0.646492931018E+03   -0.13785E-02   -0.12954E-02 14461   0.260E-01    0.194E-01
RMM:   4    -0.646492910782E+03    0.20236E-04   -0.29198E-03 14760   0.110E-01    0.108E-01
RMM:   5    -0.646492878391E+03    0.32391E-04   -0.75586E-04 13453   0.483E-02    0.730E-02
RMM:   6    -0.646492861426E+03    0.16965E-04   -0.36328E-04 12704   0.324E-02    0.515E-02
RMM:   7    -0.646492876538E+03   -0.15112E-04   -0.25937E-04 12680   0.300E-02    0.697E-02
RMM:   8    -0.646492848342E+03    0.28196E-04   -0.16088E-04 11903   0.235E-02    0.238E-02
RMM:   9    -0.646492850512E+03   -0.21693E-05   -0.89845E-05 11031   0.164E-02
   5 F= -.64649285E+03 E0= -.64643981E+03  d E =-.109000E-01
 curvature:  -0.69 expect dE=-0.648E-02 dE for cont linesearch -0.110E-06
 trial: gam= 0.55735 g(F)=  0.632E-02 g(S)=  0.302E-02 ort = 0.543E-04 (trialstep = 0.962E+00)
 search vector abs. value=  0.152E-01
 bond charge predicted
       N       E                     dE             d eps       ncg     rms          rms(c)
DAV:   1    -0.646483313028E+03    0.95353E-02   -0.24215E+00 10192   0.516E+00    0.515E-01
RMM:   2    -0.646497050930E+03   -0.13738E-01   -0.17716E-01 12863   0.116E+00    0.563E-01
RMM:   3    -0.646500031344E+03   -0.29804E-02   -0.48497E-02 14224   0.508E-01    0.492E-01
RMM:   4    -0.646499571117E+03    0.46023E-03   -0.12114E-02 14560   0.237E-01    0.442E-01
RMM:   5    -0.646498107598E+03    0.14635E-02   -0.36865E-03 14665   0.122E-01    0.176E-01
RMM:   6    -0.646498086323E+03    0.21274E-04   -0.18592E-03 14211   0.802E-02    0.171E-01
RMM:   7    -0.646497964815E+03    0.12151E-03   -0.11991E-03 14104   0.625E-02    0.113E-01
RMM:   8    -0.646497886327E+03    0.78488E-04   -0.59241E-04 13170   0.431E-02    0.390E-02
RMM:   9    -0.646497924315E+03   -0.37989E-04   -0.39973E-04 12594   0.296E-02    0.473E-02
RMM:  10    -0.646497927081E+03   -0.27654E-05   -0.24060E-04 12140   0.228E-02    0.135E-02
RMM:  11    -0.646497941126E+03   -0.14045E-04   -0.15788E-04 11631   0.167E-02    0.905E-03
RMM:  12    -0.646497949455E+03   -0.83289E-05   -0.86343E-05 11231   0.133E-02
   6 F= -.64649795E+03 E0= -.64644546E+03  d E =-.509894E-02
 trial-energy change:   -0.005099  1 .order   -0.005063   -0.009011   -0.001115
 step:   1.0976(harm=  1.0976)  dis= 0.01528  next Energy=  -646.497992 (dE=-0.514E-02)
 bond charge predicted
       N       E                     dE             d eps       ncg     rms          rms(c)
DAV:   1    -0.646497721017E+03    0.22011E-03   -0.48264E-02 11508   0.729E-01    0.732E-02
RMM:   2    -0.646498020430E+03   -0.29941E-03   -0.36214E-03 13166   0.165E-01    0.879E-02
RMM:   3    -0.646498061300E+03   -0.40871E-04   -0.99546E-04 13931   0.724E-02    0.656E-02
RMM:   4    -0.646498064441E+03   -0.31407E-05   -0.31812E-04 13140   0.368E-02    0.635E-02
RMM:   5    -0.646498037422E+03    0.27019E-04   -0.11097E-04 11098   0.207E-02    0.256E-02
RMM:   6    -0.646498040759E+03   -0.33368E-05   -0.62606E-05 10216   0.145E-02
   7 F= -.64649804E+03 E0= -.64644564E+03  d E =-.519025E-02
 curvature:  -0.89 expect dE=-0.315E-02 dE for cont linesearch -0.370E-06
 trial: gam= 0.36375 g(F)=  0.251E-02 g(S)=  0.103E-02 ort = 0.795E-04 (trialstep = 0.989E+00)
 search vector abs. value=  0.561E-02
 bond charge predicted
       N       E                     dE             d eps       ncg     rms          rms(c)
DAV:   1    -0.646494836060E+03    0.32014E-02   -0.96384E-01 10192   0.301E+00    0.269E-01
RMM:   2    -0.646501258640E+03   -0.64226E-02   -0.60390E-02 12712   0.666E-01    0.460E-01
RMM:   3    -0.646500872525E+03    0.38611E-03   -0.16332E-02 14206   0.305E-01    0.218E-01
RMM:   4    -0.646501028380E+03   -0.15585E-03   -0.38667E-03 14882   0.127E-01    0.224E-01
RMM:   5    -0.646500673406E+03    0.35497E-03   -0.11571E-03 14114   0.664E-02    0.957E-02
WARNING in EDDRMM: call to ZHEGV failed, returncode =   8  4      9
RMM:   6    -0.646500685312E+03   -0.11907E-04   -0.59219E-04 13479   0.452E-02    0.116E-01
RMM:   7    -0.646500612592E+03    0.72721E-04   -0.36911E-04 13087   0.386E-02    0.639E-02
RMM:   8    -0.646500583347E+03    0.29244E-04   -0.19122E-04 11931   0.252E-02    0.267E-02
RMM:   9    -0.646500589057E+03   -0.57096E-05   -0.11390E-04 10959   0.188E-02    0.263E-02
RMM:  10    -0.646500587862E+03    0.11947E-05   -0.61542E-05 10065   0.136E-02
   8 F= -.64650059E+03 E0= -.64644807E+03  d E =-.254710E-02
 trial-energy change:   -0.002547  1 .order   -0.002480   -0.003535   -0.001424
 step:   1.5054(harm=  1.6561)  dis= 0.01500  next Energy=  -646.500969 (dE=-0.293E-02)
 bond charge predicted
       N       E                     dE             d eps       ncg     rms          rms(c)
DAV:   1    -0.646499453543E+03    0.11355E-02   -0.26288E-01 10192   0.157E+00    0.141E-01
RMM:   2    -0.646501224322E+03   -0.17708E-02   -0.16650E-02 12838   0.349E-01    0.238E-01
RMM:   3    -0.646501106285E+03    0.11804E-03   -0.44530E-03 14244   0.159E-01    0.111E-01
RMM:   4    -0.646501166645E+03   -0.60361E-04   -0.11778E-03 14301   0.692E-02    0.118E-01
RMM:   5    -0.646501074190E+03    0.92455E-04   -0.37408E-04 12644   0.372E-02    0.496E-02
RMM:   6    -0.646501080682E+03   -0.64915E-05   -0.19669E-04 11912   0.255E-02    0.603E-02
RMM:   7    -0.646501063657E+03    0.17024E-04   -0.12568E-04 11477   0.216E-02    0.341E-02
RMM:   8    -0.646501056100E+03    0.75573E-05   -0.67557E-05 10223   0.154E-02
   9 F= -.64650106E+03 E0= -.64644849E+03  d E =-.301534E-02
 curvature:  -1.23 expect dE=-0.258E-02 dE for cont linesearch -0.235E-04
 trial: gam= 0.49444 g(F)=  0.166E-02 g(S)=  0.428E-03 ort = 0.327E-03 (trialstep = 0.109E+01)
 search vector abs. value=  0.378E-02
 bond charge predicted
       N       E                     dE             d eps       ncg     rms          rms(c)
DAV:   1    -0.646497210422E+03    0.38532E-02   -0.79538E-01 10136   0.299E+00    0.402E-01
RMM:   2    -0.646509001992E+03   -0.11792E-01   -0.72394E-02 12154   0.754E-01    0.902E-01
RMM:   3    -0.646502573577E+03    0.64284E-02   -0.21710E-02 13192   0.394E-01    0.254E-01
RMM:   4    -0.646502834446E+03   -0.26087E-03   -0.59996E-03 14877   0.158E-01    0.260E-01
RMM:   5    -0.646502299482E+03    0.53496E-03   -0.15865E-03 14123   0.809E-02    0.116E-01
RMM:   6    -0.646502239860E+03    0.59623E-04   -0.74177E-04 14070   0.539E-02    0.106E-01
RMM:   7    -0.646502245759E+03   -0.58988E-05   -0.48673E-04 13958   0.444E-02    0.109E-01
RMM:   8    -0.646502174785E+03    0.70974E-04   -0.25523E-04 12893   0.314E-02    0.504E-02
RMM:   9    -0.646502172589E+03    0.21957E-05   -0.13207E-04 11490   0.205E-02    0.351E-02
RMM:  10    -0.646502170069E+03    0.25207E-05   -0.68910E-05 10545   0.152E-02
  10 F= -.64650217E+03 E0= -.64644961E+03  d E =-.111397E-02
 trial-energy change:   -0.001114  1 .order   -0.001124   -0.002458    0.000210
 step:   1.0062(harm=  1.0062)  dis= 0.00765  next Energy=  -646.502188 (dE=-0.113E-02)
 bond charge predicted
       N       E                     dE             d eps       ncg     rms          rms(c)
DAV:   1    -0.646502164946E+03    0.76431E-05   -0.50418E-03 11760   0.236E-01    0.348E-02
RMM:   2    -0.646502259598E+03   -0.94652E-04   -0.48242E-04 12193   0.612E-02    0.884E-02
RMM:   3    -0.646502196793E+03    0.62806E-04   -0.13692E-04 10995   0.320E-02    0.215E-02
RMM:   4    -0.646502200217E+03   -0.34239E-05   -0.45058E-05  9653   0.156E-02
  11 F= -.64650220E+03 E0= -.64644961E+03  d E =-.114412E-02
 curvature:  -0.85 expect dE=-0.190E-02 dE for cont linesearch -0.623E-06
 trial: gam= 1.22510 g(F)=  0.457E-03 g(S)=  0.180E-02 ort =-0.528E-04 (trialstep = 0.521E+00)
 search vector abs. value=  0.780E-02
 bond charge predicted
       N       E                     dE             d eps       ncg     rms          rms(c)
DAV:   1    -0.646500135467E+03    0.20613E-02   -0.37891E-01 10192   0.211E+00    0.275E-01
RMM:   2    -0.646505463508E+03   -0.53280E-02   -0.35937E-02 12221   0.523E-01    0.567E-01
RMM:   3    -0.646502902010E+03    0.25615E-02   -0.10680E-02 13226   0.273E-01    0.169E-01
RMM:   4    -0.646503017338E+03   -0.11533E-03   -0.28059E-03 14775   0.108E-01    0.173E-01
RMM:   5    -0.646502805555E+03    0.21178E-03   -0.74882E-04 13687   0.539E-02    0.832E-02
RMM:   6    -0.646502778357E+03    0.27198E-04   -0.33221E-04 13423   0.367E-02    0.819E-02
WARNING in EDDRMM: call to ZHEGV failed, returncode =   8  4      8
RMM:   7    -0.646502758385E+03    0.19972E-04   -0.20195E-04 12654   0.299E-02    0.668E-02
RMM:   8    -0.646502727718E+03    0.30667E-04   -0.11992E-04 12181   0.213E-02    0.299E-02
WARNING in EDDRMM: call to ZHEGV failed, returncode =   8  4      8
RMM:   9    -0.646502725514E+03    0.22039E-05   -0.54490E-05 10220   0.151E-02
  12 F= -.64650273E+03 E0= -.64645013E+03  d E =-.525297E-03
 trial-energy change:   -0.000525  1 .order   -0.000582   -0.001140   -0.000024
 step:   0.5379(harm=  0.5327)  dis= 0.00595  next Energy=  -646.502726 (dE=-0.526E-03)
 bond charge predicted
       N       E                     dE             d eps       ncg     rms          rms(c)
DAV:   1    -0.646502721318E+03    0.63996E-05   -0.44943E-04 12404   0.697E-02    0.117E-02
RMM:   2    -0.646502730322E+03   -0.90036E-05   -0.58429E-05 11384   0.195E-02
  13 F= -.64650273E+03 E0= -.64645015E+03  d E =-.530105E-03
 curvature:  -0.75 expect dE=-0.472E-03 dE for cont linesearch -0.168E-04
 ZBRENT: interpolating
 opt :   0.5230  next Energy=  -646.502726 (dE=-0.525E-03)
 bond charge predicted
       N       E                     dE             d eps       ncg     rms          rms(c)
DAV:   1    -0.646502721638E+03   -0.32019E-06   -0.34549E-04 11088   0.621E-02    0.103E-02
RMM:   2    -0.646502732106E+03   -0.10467E-04   -0.38596E-05  8315   0.154E-02    0.335E-02
RMM:   3    -0.646502722318E+03    0.97882E-05   -0.10087E-05  5739   0.943E-03
  14 F= -.64650272E+03 E0= -.64645011E+03  d E =-.522101E-03
 curvature:  -0.00 expect dE=-0.928E-06 dE for cont linesearch -0.353E-08
 ZBRENT: bisectioning
 opt :   0.5304  next Energy=  -646.502725 (dE=-0.524E-03)
 bond charge predicted
       N       E                     dE             d eps       ncg     rms          rms(c)
DAV:   1    -0.646502721994E+03    0.10112E-04   -0.77856E-05  9548   0.305E-02    0.466E-03
RMM:   2    -0.646502724622E+03   -0.26283E-05   -0.97253E-06  5493   0.809E-03
  15 F= -.64650272E+03 E0= -.64645010E+03  d E =-.524406E-03
 curvature:  -1.11 expect dE=-0.650E-03 dE for cont linesearch -0.105E-06
 trial: gam= 0.06809 g(F)=  0.553E-03 g(S)=  0.334E-04 ort =-0.272E-04 (trialstep = 0.523E+00)
 search vector abs. value=  0.619E-03
 bond charge predicted
       N       E                     dE             d eps       ncg     rms          rms(c)
DAV:   1    -0.646502773980E+03   -0.51986E-04   -0.28392E-02 10192   0.539E-01    0.835E-02
RMM:   2    -0.646503258829E+03   -0.48485E-03   -0.27970E-03 12357   0.149E-01    0.189E-01
RMM:   3    -0.646502954403E+03    0.30443E-03   -0.81298E-04 12778   0.792E-02    0.515E-02
RMM:   4    -0.646502970042E+03   -0.15639E-04   -0.25559E-04 13118   0.335E-02    0.567E-02
WARNING in EDDRMM: call to ZHEGV failed, returncode =   6  3      8
RMM:   5    -0.646502947124E+03    0.22918E-04   -0.75481E-05 10955   0.178E-02    0.252E-02
WARNING in EDDRMM: call to ZHEGV failed, returncode =   8  4      6
RMM:   6    -0.646502946496E+03    0.62776E-06   -0.37018E-05  9571   0.119E-02
  16 F= -.64650295E+03 E0= -.64645035E+03  d E =-.221873E-03
 trial-energy change:   -0.000222  1 .order   -0.000217   -0.000306   -0.000128
 step:   0.8998(harm=  0.8998)  dis= 0.00151  next Energy=  -646.502988 (dE=-0.263E-03)
 bond charge predicted
       N       E                     dE             d eps       ncg     rms          rms(c)
DAV:   1    -0.646502904477E+03    0.42646E-04   -0.14615E-02 10192   0.386E-01    0.645E-02
RMM:   2    -0.646503204117E+03   -0.29964E-03   -0.15096E-03 12525   0.109E-01    0.156E-01
RMM:   3    -0.646502992650E+03    0.21147E-03   -0.42965E-04 12500   0.577E-02    0.446E-02
RMM:   4    -0.646503003032E+03   -0.10382E-04   -0.15102E-04 11971   0.255E-02    0.477E-02
WARNING in EDDRMM: call to ZHEGV failed, returncode =   6  3      6
WARNING in EDDRMM: call to ZHEGV failed, returncode =   6  3      6
RMM:   5    -0.646502984557E+03    0.18475E-04   -0.52532E-05 10367   0.150E-02    0.154E-02
RMM:   6    -0.646502986108E+03   -0.15512E-05   -0.30330E-05  8267   0.107E-02
  17 F= -.64650299E+03 E0= -.64645037E+03  d E =-.261485E-03
 curvature:  -0.48 expect dE=-0.113E-03 dE for cont linesearch -0.582E-07
 trial: gam= 0.44079 g(F)=  0.130E-03 g(S)=  0.107E-03 ort =-0.870E-05 (trialstep = 0.599E+00)
 search vector abs. value=  0.349E-03
 bond charge predicted
       N       E                     dE             d eps       ncg     rms          rms(c)
DAV:   1    -0.646502978057E+03    0.64995E-05   -0.21966E-02 10136   0.525E-01    0.945E-02
RMM:   2    -0.646503524264E+03   -0.54621E-03   -0.27641E-03 12005   0.150E-01    0.212E-01
RMM:   3    -0.646503111340E+03    0.41292E-03   -0.82684E-04 12343   0.793E-02    0.574E-02
RMM:   4    -0.646503112945E+03   -0.16049E-05   -0.24571E-04 13205   0.339E-02    0.544E-02
WARNING in EDDRMM: call to ZHEGV failed, returncode =   6  3      7
RMM:   5    -0.646503089524E+03    0.23421E-04   -0.71489E-05 11214   0.192E-02    0.276E-02
RMM:   6    -0.646503085794E+03    0.37302E-05   -0.39572E-05 10654   0.138E-02
  18 F= -.64650309E+03 E0= -.64645046E+03  d E =-.996863E-04
 trial-energy change:   -0.000100  1 .order   -0.000111   -0.000139   -0.000082
 step:   1.4625(harm=  1.4625)  dis= 0.00197  next Energy=  -646.503157 (dE=-0.170E-03)
 bond charge predicted
       N       E                     dE             d eps       ncg     rms          rms(c)
DAV:   1    -0.646502874269E+03    0.21526E-03   -0.45354E-02 10080   0.757E-01    0.141E-01
RMM:   2    -0.646504110491E+03   -0.12362E-02   -0.57999E-03 11906   0.216E-01    0.323E-01
RMM:   3    -0.646503140205E+03    0.97029E-03   -0.17006E-03 12360   0.115E-01    0.897E-02
RMM:   4    -0.646503171486E+03   -0.31281E-04   -0.51346E-04 14144   0.484E-02    0.102E-01
RMM:   5    -0.646503087952E+03    0.83534E-04   -0.14482E-04 11758   0.272E-02    0.384E-02
RMM:   6    -0.646503094259E+03   -0.63071E-05   -0.89218E-05 11691   0.190E-02
  19 F= -.64650309E+03 E0= -.64645050E+03  d E =-.108151E-03
 curvature:  -1.10 expect dE=-0.270E-03 dE for cont linesearch -0.687E-05
 ZBRENT: interpolating
 opt :   1.2434  next Energy=  -646.503099 (dE=-0.113E-03)
 bond charge predicted
       N       E                     dE             d eps       ncg     rms          rms(c)
DAV:   1    -0.646503088477E+03   -0.52485E-06   -0.32768E-03 10388   0.202E-01    0.396E-02
RMM:   2    -0.646503221961E+03   -0.13348E-03   -0.46396E-04 11688   0.604E-02    0.116E-01
RMM:   3    -0.646503108681E+03    0.11328E-03   -0.13054E-04 10614   0.313E-02    0.258E-02
RMM:   4    -0.646503106651E+03    0.20301E-05   -0.35166E-05  8338   0.151E-02
  20 F= -.64650311E+03 E0= -.64645052E+03  d E =-.120543E-03
 curvature:  -0.82 expect dE=-0.584E-03 dE for cont linesearch -0.233E-04
 ZBRENT: bisectioning
 opt :   0.9209  next Energy=  -646.503151 (dE=-0.165E-03)
 bond charge predicted
       N       E                     dE             d eps       ncg     rms          rms(c)
DAV:   1    -0.646503094256E+03    0.14425E-04   -0.63254E-03 10192   0.282E-01    0.544E-02
RMM:   2    -0.646503223312E+03   -0.12906E-03   -0.79325E-04 12002   0.810E-02    0.106E-01
RMM:   3    -0.646503127223E+03    0.96090E-04   -0.24070E-04 11574   0.426E-02    0.407E-02
WARNING in EDDRMM: call to ZHEGV failed, returncode =   6  3      6
RMM:   4    -0.646503129156E+03   -0.19328E-05   -0.82214E-05 11323   0.202E-02
  21 F= -.64650313E+03 E0= -.64645050E+03  d E =-.143048E-03
 curvature:  -1.57 expect dE=-0.106E-02 dE for cont linesearch -0.123E-04
 ZBRENT: bisectioning
 opt :   0.7597  next Energy=  -646.503136 (dE=-0.150E-03)
 bond charge predicted
       N       E                     dE             d eps       ncg     rms          rms(c)
DAV:   1    -0.646503107404E+03    0.19819E-04   -0.16030E-03 10164   0.142E-01    0.329E-02
RMM:   2    -0.646503140307E+03   -0.32903E-04   -0.22302E-04 12369   0.415E-02    0.624E-02
RMM:   3    -0.646503112802E+03    0.27504E-04   -0.63968E-05 10375   0.215E-02    0.316E-02
RMM:   4    -0.646503107999E+03    0.48029E-05   -0.25626E-05  7252   0.121E-02
  22 F= -.64650311E+03 E0= -.64645049E+03  d E =-.121892E-03
 curvature:  -0.83 expect dE=-0.291E-03 dE for cont linesearch -0.342E-06
 trial: gam= 1.59228 g(F)=  0.138E-03 g(S)=  0.212E-03 ort = 0.120E-04 (trialstep = 0.173E+00)
 search vector abs. value=  0.127E-02
 bond charge predicted
       N       E                     dE             d eps       ncg     rms          rms(c)
DAV:   1    -0.646503072802E+03    0.40000E-04   -0.69264E-03 10136   0.311E-01    0.225E-02
RMM:   2    -0.646503129273E+03   -0.56470E-04   -0.66279E-04 11741   0.693E-02    0.188E-02
RMM:   3    -0.646503150993E+03   -0.21720E-04   -0.20095E-04 12222   0.326E-02    0.268E-02
RMM:   4    -0.646503148791E+03    0.22015E-05   -0.36133E-05  7314   0.142E-02
  23 F= -.64650315E+03 E0= -.64645055E+03  d E =-.407919E-04
 trial-energy change:   -0.000041  1 .order   -0.000047   -0.000064   -0.000031
 step:   0.3337(harm=  0.3337)  dis= 0.00087  next Energy=  -646.503170 (dE=-0.616E-04)
 bond charge predicted
       N       E                     dE             d eps       ncg     rms          rms(c)
DAV:   1    -0.646503104638E+03    0.46354E-04   -0.59654E-03 10108   0.288E-01    0.184E-02
RMM:   2    -0.646503162171E+03   -0.57532E-04   -0.59164E-04 12164   0.660E-02    0.261E-02
RMM:   3    -0.646503177120E+03   -0.14949E-04   -0.19260E-04 11502   0.303E-02    0.176E-02
RMM:   4    -0.646503177532E+03   -0.41194E-06   -0.29794E-05  7716   0.128E-02
  24 F= -.64650318E+03 E0= -.64645057E+03  d E =-.695324E-04
 curvature:  -0.58 expect dE=-0.525E-04 dE for cont linesearch -0.715E-05
 ZBRENT: increasing intervall
 opt :   0.6551  next Energy=  -646.503201 (dE=-0.933E-04)
 bond charge predicted
       N       E                     dE             d eps       ncg     rms          rms(c)
DAV:   1    -0.646502925323E+03    0.25180E-03   -0.23829E-02 10080   0.576E-01    0.365E-02
RMM:   2    -0.646503158491E+03   -0.23317E-03   -0.23468E-03 12381   0.131E-01    0.537E-02
RMM:   3    -0.646503212146E+03   -0.53655E-04   -0.76152E-04 13702   0.609E-02    0.291E-02
RMM:   4    -0.646503215044E+03   -0.28980E-05   -0.10587E-04 10892   0.216E-02    0.227E-02
RMM:   5    -0.646503213039E+03    0.20052E-05   -0.31456E-05  8841   0.125E-02
  25 F= -.64650321E+03 E0= -.64645062E+03  d E =-.105039E-03
 curvature:  -1.91 expect dE=-0.203E-03 dE for cont linesearch -0.261E-06
 trial: gam= 0.22100 g(F)=  0.100E-03 g(S)=  0.632E-05 ort = 0.132E-04 (trialstep = 0.269E+00)
 search vector abs. value=  0.174E-03
 bond charge predicted
       N       E                     dE             d eps       ncg     rms          rms(c)
DAV:   1    -0.646503213545E+03    0.14995E-05   -0.22102E-03 10164   0.164E-01    0.161E-02
RMM:   2    -0.646503246314E+03   -0.32770E-04   -0.24599E-04 12264   0.412E-02    0.411E-02
RMM:   3    -0.646503239988E+03    0.63263E-05   -0.73614E-05  9494   0.195E-02
  26 F= -.64650324E+03 E0= -.64645066E+03  d E =-.269490E-04
 trial-energy change:   -0.000027  1 .order   -0.000023   -0.000029   -0.000017
 step:   0.6550(harm=  0.6550)  dis= 0.00057  next Energy=  -646.503249 (dE=-0.358E-04)
 reached required accuracy - stopping structural energy minimisation
