HECN                                    
           1
     8.885105   -0.001258    0.006208
    -0.001217    8.962139   -0.003492
     0.006201   -0.003456    8.853251
   Ti   W    Hf   N    C    Zr   V 
     7     6     6    13    19     7     6
Direct configuration=     1
   0.99700207  0.99734577  0.01157851
   0.24227823  0.99498849  0.25325437
   0.26082161  0.50654625  0.25195297
   0.50036505  0.50318573  0.00149329
   0.49118473  0.26038309  0.74945882
   0.99952785  0.50025258  0.48683316
   0.50781128  0.73892782  0.74744983
   0.99320738  0.23303252  0.26644981
   0.76158601  0.73551409  0.99942054
   0.01310775  0.27828283  0.73801297
   0.75681321  0.27835935  0.49885962
   0.98851843  0.72327652  0.73978450
   0.26709686  0.50073918  0.74786942
   0.24684945  0.25247434  0.00265785
   0.50486697  0.25605661  0.25139169
   0.75542447  0.99328700  0.25635408
   0.75076991  0.26009333  0.98991283
   0.24271088  0.74782693  0.00075626
   0.25057506  0.25343057  0.49878068
   0.24603931  0.24839479  0.25089482
   0.24502501  0.00095316  0.00637614
   0.99906785  0.24125262  0.00284635
   0.75269685  0.25254020  0.25265950
   0.75584801  0.00409184  0.00094229
   0.50175888  0.00474715  0.24943567
   0.99939008  0.48591997  0.25814826
   0.49992427  0.74641613  0.99431255
   0.99792437  0.00443857  0.75251435
   0.75191260  0.25495959  0.74276778
   0.75643596  0.01156638  0.49831504
   0.50642528  0.25456269  0.50398542
   0.50385923  0.00067035  0.75012805
   0.00330946  0.99627981  0.25144282
   0.50090192  0.25353485  0.99705121
   0.24095791  0.74946828  0.24860462
   0.25526740  0.49962045  0.00207889
   0.99420385  0.75584333  0.00149457
   0.76025882  0.74035024  0.25185098
   0.74329270  0.50471769  0.99984958
   0.50253458  0.49968211  0.25234721
   0.25067206  0.25516761  0.74997745
   0.24153515  0.00289460  0.49341770
   0.99713376  0.24852408  0.50423304
   0.24830267  0.74247209  0.75191076
   0.25329820  0.49845491  0.49915908
   0.98820344  0.75262976  0.49689813
   0.99748492  0.50085874  0.74181735
   0.74703529  0.73986579  0.74804798
   0.75013708  0.50370428  0.49954815
   0.50796396  0.74008724  0.50681891
   0.50291212  0.49979532  0.74816636
   0.50137784  0.00077049  0.99650498
   0.99836976  0.50143313  0.01248985
   0.50247987  0.74598934  0.25102745
   0.23872659  0.99675081  0.74900702
   0.49881093  0.99331727  0.50306696
   0.76148914  0.99200877  0.74198515
   0.24434179  0.74616551  0.50044043
   0.99835805  0.77226832  0.26214585
   0.73386002  0.51043081  0.24710820
   0.00698794  0.99757116  0.48272237
   0.50115218  0.50744920  0.49866553
   0.72896557  0.50807640  0.75301029
   0.75285078  0.71930181  0.50151432
HECN                                    
           1
     8.827831   -0.003930    0.005953
    -0.003909    8.923228   -0.004680
     0.005950   -0.004640    8.790913
   Ti   W    Hf   N    C    Zr   V 
     7     6     6    13    19     7     6
Direct configuration=     2
   0.99699266  0.99750703  0.01153040
   0.24205795  0.99543279  0.25326522
   0.26070243  0.50614483  0.25196185
   0.50017600  0.50322898  0.00131024
   0.49108704  0.26035874  0.74940679
   0.99993240  0.50024448  0.48731387
   0.50772607  0.73905496  0.74778904
   0.99318239  0.23334915  0.26690524
   0.76144564  0.73592018  0.99928069
   0.01336664  0.27774281  0.73751909
   0.75689017  0.27794017  0.49860807
   0.98855631  0.72343959  0.73944006
   0.26729090  0.50064778  0.74795118
   0.24672945  0.25235366  0.00268780
   0.50458904  0.25569304  0.25160042
   0.75615333  0.99365645  0.25616488
   0.75111147  0.26016725  0.99048065
   0.24242855  0.74823821  0.00066205
   0.25050674  0.25337619  0.49858101
   0.24613664  0.24831173  0.25121405
   0.24472137  0.00084179  0.00651655
   0.99902601  0.24101613  0.00283161
   0.75300541  0.25286169  0.25251888
   0.75614174  0.00387864  0.00093452
   0.50160212  0.00475293  0.24938245
   0.99968583  0.48538370  0.25832422
   0.49983792  0.74625023  0.99406597
   0.99799651  0.00463208  0.75256673
   0.75165768  0.25535329  0.74287732
   0.75656312  0.01264546  0.49818912
   0.50621820  0.25473829  0.50401279
   0.50398261  0.00068818  0.75008252
   0.00309464  0.99601800  0.25166460
   0.50092223  0.25375850  0.99683452
   0.24064012  0.74949294  0.24899336
   0.25531314  0.49959026  0.00216914
   0.99418217  0.75593770  0.00173343
   0.76026895  0.74005426  0.25172832
   0.74334318  0.50421572  0.99986591
   0.50272915  0.49956788  0.25230383
   0.25077012  0.25510786  0.75009218
   0.24137569  0.00260376  0.49346002
   0.99717186  0.24822459  0.50412315
   0.24821075  0.74247489  0.75191560
   0.25365561  0.49861321  0.49912704
   0.98823510  0.75241173  0.49694253
   0.99739554  0.50097709  0.74169020
   0.74726578  0.73953798  0.74811718
   0.74991840  0.50395318  0.49944535
   0.50812835  0.73979947  0.50675188
   0.50300130  0.49971997  0.74802335
   0.50120612  0.00060117  0.99631624
   0.99807446  0.50114744  0.01207978
   0.50276654  0.74660144  0.25110584
   0.23927601  0.99717242  0.74910259
   0.49875358  0.99357295  0.50322190
   0.76084331  0.99206031  0.74163193
   0.24425386  0.74583075  0.50041232
   0.99815789  0.77274362  0.26204401
   0.73375058  0.51023937  0.24677370
   0.00697234  0.99766724  0.48275125
   0.50086344  0.50733106  0.49885436
   0.72889650  0.50801523  0.75333890
   0.75306364  0.71910825  0.50141096
HECN                                    
           1
     8.863084   -0.002285    0.006110
    -0.002252    8.947178   -0.003949
     0.006105   -0.003911    8.829283
   Ti   W    Hf   N    C    Zr   V 
     7     6     6    13    19     7     6
Direct configuration=     3
   0.99699846  0.99740734  0.01156021
   0.24219433  0.99515817  0.25325846
   0.26077634  0.50639300  0.25195638
   0.50029311  0.50320230  0.00142371
   0.49114756  0.26037381  0.74943905
   0.99968178  0.50024937  0.48701589
   0.50777883  0.73897635  0.74757876
   0.99319781  0.23315338  0.26662290
   0.76153252  0.73566917  0.99936735
   0.01320637  0.27807664  0.73782528
   0.75684258  0.27819931  0.49876403
   0.98853282  0.72333880  0.73965355
   0.26717071  0.50070424  0.74790050
   0.24680381  0.25242828  0.00266925
   0.50476128  0.25591783  0.25147107
   0.75570174  0.99342794  0.25628212
   0.75089986  0.26012144  0.99012866
   0.24260338  0.74798402  0.00072042
   0.25054908  0.25340983  0.49870478
   0.24607635  0.24836303  0.25101617
   0.24490949  0.00091069  0.00642953
   0.99905197  0.24116234  0.00284077
   0.75281420  0.25266290  0.25260601
   0.75595981  0.00401038  0.00093935
   0.50169923  0.00474939  0.24941544
   0.99950271  0.48571515  0.25821519
   0.49989145  0.74635282  0.99421883
   0.99795179  0.00451243  0.75253424
   0.75181552  0.25510995  0.74280939
   0.75648414  0.01197837  0.49826708
   0.50634646  0.25462977  0.50399581
   0.50390617  0.00067714  0.75011074
   0.00322776  0.99617987  0.25152715
   0.50090961  0.25362026  0.99696882
   0.24083698  0.74947772  0.24875239
   0.25528481  0.49960891  0.00211320
   0.99419558  0.75587935  0.00158536
   0.76026273  0.74023724  0.25180438
   0.74331200  0.50452602  0.99985583
   0.50260864  0.49963846  0.25233073
   0.25070938  0.25514477  0.75002106
   0.24147453  0.00278358  0.49343382
   0.99714832  0.24840973  0.50419130
   0.24826769  0.74247318  0.75191260
   0.25343417  0.49851529  0.49914689
   0.98821553  0.75254651  0.49691502
   0.99745089  0.50090396  0.74176901
   0.74712306  0.73974058  0.74807431
   0.75005383  0.50379936  0.49950906
   0.50802656  0.73997734  0.50679345
   0.50294607  0.49976655  0.74811200
   0.50131253  0.00070589  0.99643325
   0.99825746  0.50132414  0.01233400
   0.50258883  0.74622298  0.25105720
   0.23893557  0.99691167  0.74904331
   0.49878906  0.99341489  0.50312583
   0.76124339  0.99202860  0.74185089
   0.24430839  0.74603771  0.50042977
   0.99828180  0.77244984  0.26210710
   0.73381842  0.51035777  0.24698106
   0.00698199  0.99760785  0.48273334
   0.50104233  0.50740413  0.49873733
   0.72893930  0.50805303  0.75313521
   0.75293181  0.71922788  0.50147504
HECN                                    
           1
     8.862516   -0.004059    0.005910
    -0.004041    8.951327   -0.004720
     0.005907   -0.004676    8.827550
   Ti   W    Hf   N    C    Zr   V 
     7     6     6    13    19     7     6
Direct configuration=     4
   0.99703371  0.99756292  0.01139234
   0.24209657  0.99557060  0.25323299
   0.26060373  0.50601644  0.25191932
   0.50014308  0.50320792  0.00126447
   0.49119528  0.26026643  0.74940688
   0.00006650  0.50021921  0.48756717
   0.50764558  0.73916631  0.74791346
   0.99331382  0.23345212  0.26666403
   0.76122092  0.73608674  0.99929510
   0.01321639  0.27745196  0.73772151
   0.75669787  0.27781944  0.49857243
   0.98868982  0.72372581  0.73953420
   0.26707697  0.50059303  0.74805045
   0.24675123  0.25230932  0.00273185
   0.50449452  0.25560372  0.25157685
   0.75599424  0.99372555  0.25604373
   0.75109744  0.26002969  0.99063924
   0.24243829  0.74827460  0.00075442
   0.25061843  0.25331158  0.49860067
   0.24616032  0.24829414  0.25121808
   0.24462418  0.00085611  0.00660045
   0.99904328  0.24093247  0.00280155
   0.75301172  0.25297724  0.25237110
   0.75620371  0.00379590  0.00089343
   0.50148804  0.00476516  0.24937214
   0.99974868  0.48527287  0.25832980
   0.49983668  0.74621107  0.99396515
   0.99801382  0.00472539  0.75253513
   0.75156620  0.25542415  0.74290394
   0.75665623  0.01298795  0.49816686
   0.50618735  0.25479455  0.50410679
   0.50397529  0.00070271  0.75006569
   0.00324088  0.99603661  0.25163426
   0.50089808  0.25379465  0.99675158
   0.24052780  0.74949892  0.24898928
   0.25532306  0.49960797  0.00222399
   0.99423620  0.75597637  0.00181800
   0.76035426  0.74005104  0.25180647
   0.74323992  0.50416636  0.99987110
   0.50273253  0.49960107  0.25230309
   0.25090349  0.25505541  0.75009653
   0.24133834  0.00258934  0.49344121
   0.99727168  0.24810591  0.50413573
   0.24825031  0.74254149  0.75191237
   0.25373401  0.49856686  0.49904464
   0.98820263  0.75239802  0.49683599
   0.99733721  0.50090767  0.74163883
   0.74718035  0.73955775  0.74802172
   0.74989252  0.50398694  0.49942714
   0.50820006  0.73979305  0.50680000
   0.50311169  0.49970430  0.74800920
   0.50118324  0.00059452  0.99640916
   0.99813946  0.50113530  0.01191898
   0.50273436  0.74668199  0.25106417
   0.23943624  0.99723769  0.74913470
   0.49872819  0.99360508  0.50309427
   0.76070647  0.99208267  0.74169560
   0.24433720  0.74591062  0.50040755
   0.99814131  0.77259501  0.26191240
   0.73386090  0.51007422  0.24672175
   0.00690425  0.99765469  0.48307458
   0.50080654  0.50723904  0.49885681
   0.72910035  0.50789466  0.75338920
   0.75303725  0.71922236  0.50134914
HECN                                    
           1
     8.862242   -0.004917    0.005813
    -0.004906    8.953335   -0.005093
     0.005811   -0.005047    8.826712
   Ti   W    Hf   N    C    Zr   V 
     7     6     6    13    19     7     6
Direct configuration=     5
   0.99705078  0.99763814  0.01131112
   0.24204932  0.99577002  0.25322069
   0.26052019  0.50583433  0.25190137
   0.50007049  0.50321062  0.00118742
   0.49121836  0.26021451  0.74939132
   0.00025262  0.50020468  0.48783391
   0.50758114  0.73925817  0.74807541
   0.99336997  0.23359658  0.26668394
   0.76107021  0.73628861  0.99926016
   0.01322118  0.27714990  0.73767128
   0.75662783  0.27763574  0.49847971
   0.98876582  0.72391295  0.73947646
   0.26703161  0.50053925  0.74812299
   0.24672578  0.25225179  0.00276213
   0.50436543  0.25545181  0.25162801
   0.75613577  0.99386947  0.25592841
   0.75119303  0.25998536  0.99088629
   0.24235844  0.74841509  0.00077089
   0.25065197  0.25326407  0.49855029
   0.24620093  0.24826084  0.25131578
   0.24448615  0.00082970  0.00668315
   0.99903906  0.24082132  0.00278257
   0.75310731  0.25312925  0.25225745
   0.75632168  0.00369221  0.00087120
   0.50138587  0.00477276  0.24935118
   0.99986763  0.48505904  0.25838524
   0.49981016  0.74614252  0.99384239
   0.99804385  0.00482837  0.75253557
   0.75144561  0.25557605  0.74294970
   0.75673959  0.01347614  0.49811841
   0.50611039  0.25487421  0.50416049
   0.50400873  0.00071508  0.75004389
   0.00324721  0.99596735  0.25168609
   0.50089252  0.25387896  0.99664647
   0.24037822  0.74950914  0.24910390
   0.25534157  0.49960753  0.00227760
   0.99425587  0.75602330  0.00193057
   0.76039853  0.73996101  0.25180747
   0.74320501  0.50399244  0.99987847
   0.50279246  0.49958301  0.25228972
   0.25099738  0.25501223  0.75013304
   0.24127244  0.00249541  0.49344478
   0.99733134  0.24795902  0.50410884
   0.24824190  0.74257452  0.75191226
   0.25387908  0.49859183  0.49899518
   0.98819637  0.75232621  0.49679774
   0.99728221  0.50090945  0.74157585
   0.74720806  0.73946934  0.74799626
   0.74981450  0.50407763  0.49938751
   0.50828397  0.73970395  0.50680316
   0.50319180  0.49967422  0.74795946
   0.50112067  0.00054066  0.99639750
   0.99808236  0.50104396  0.01171816
   0.50280481  0.74690395  0.25106757
   0.23967849  0.99739539  0.74917894
   0.49869876  0.99369703  0.50307901
   0.76044672  0.99210876  0.74162046
   0.24435112  0.74584916  0.50039680
   0.99807335  0.77266518  0.26181819
   0.73388142  0.50993712  0.24659626
   0.00686665  0.99767735  0.48323969
   0.50069246  0.50715919  0.49891462
   0.72917825  0.50781811  0.75351209
   0.75308825  0.71921969  0.50128822
HECN                                    
           1
     8.863042   -0.005068    0.005422
    -0.005064    8.944073   -0.005394
     0.005419   -0.005336    8.830703
   Ti   W    Hf   N    C    Zr   V 
     7     6     6    13    19     7     6
Direct configuration=     6
   0.99706845  0.99764189  0.01109905
   0.24185206  0.99597649  0.25335022
   0.26039366  0.50569216  0.25180244
   0.50010233  0.50312073  0.00107982
   0.49135441  0.26019628  0.74948524
   0.00058652  0.49998351  0.48843022
   0.50752275  0.73927198  0.74817596
   0.99354548  0.23361931  0.26671099
   0.76107127  0.73620297  0.99918011
   0.01335483  0.27687962  0.73761476
   0.75648162  0.27774652  0.49821795
   0.98878909  0.72395792  0.73947536
   0.26684966  0.50032525  0.74831697
   0.24676193  0.25223001  0.00275942
   0.50424145  0.25538923  0.25152036
   0.75622508  0.99416874  0.25580218
   0.75113161  0.25971306  0.99133259
   0.24214821  0.74841506  0.00104340
   0.25077825  0.25314282  0.49881777
   0.24635452  0.24817659  0.25137811
   0.24427404  0.00089073  0.00683099
   0.99912852  0.24067718  0.00269395
   0.75315174  0.25345911  0.25190231
   0.75640776  0.00347174  0.00075608
   0.50122135  0.00483875  0.24929437
   0.00017039  0.48436998  0.25840674
   0.49967576  0.74608861  0.99370211
   0.99797305  0.00516130  0.75248955
   0.75118889  0.25583585  0.74311415
   0.75683507  0.01497105  0.49796515
   0.50593270  0.25500840  0.50423013
   0.50404451  0.00074048  0.75001139
   0.00336563  0.99608928  0.25183705
   0.50086591  0.25385257  0.99656296
   0.24010684  0.74951026  0.24909752
   0.25522203  0.49962590  0.00234740
   0.99403602  0.75599958  0.00209223
   0.76049353  0.73995860  0.25181764
   0.74304570  0.50404380  0.99991921
   0.50292508  0.49961124  0.25225640
   0.25114087  0.25499601  0.75013270
   0.24118289  0.00244605  0.49349878
   0.99736832  0.24766086  0.50408955
   0.24822937  0.74268129  0.75198065
   0.25418051  0.49841014  0.49894957
   0.98821895  0.75217748  0.49668495
   0.99721925  0.50079011  0.74151691
   0.74724934  0.73946097  0.74787157
   0.74979412  0.50400546  0.49927212
   0.50843720  0.73968649  0.50684947
   0.50324501  0.49966158  0.74792574
   0.50109311  0.00060950  0.99651077
   0.99806754  0.50117168  0.01124476
   0.50282154  0.74686108  0.25107814
   0.23997055  0.99765564  0.74912456
   0.49860783  0.99375187  0.50286266
   0.76025989  0.99216780  0.74157345
   0.24449977  0.74591103  0.50038616
   0.99795099  0.77287223  0.26166643
   0.73382562  0.50965582  0.24633761
   0.00687392  0.99764845  0.48364997
   0.50046827  0.50708443  0.49895672
   0.72945228  0.50776401  0.75379133
   0.75316584  0.71881614  0.50112585
HECN                                    
           1
     8.863155   -0.005090    0.005366
    -0.005087    8.942764   -0.005436
     0.005363   -0.005376    8.831267
   Ti   W    Hf   N    C    Zr   V 
     7     6     6    13    19     7     6
Direct configuration=     7
   0.99707094  0.99764242  0.01106910
   0.24182420  0.99600569  0.25336850
   0.26037579  0.50567206  0.25178847
   0.50010683  0.50310802  0.00106462
   0.49137363  0.26019370  0.74949850
   0.00063368  0.49995224  0.48851441
   0.50751451  0.73927393  0.74819016
   0.99357027  0.23362253  0.26671481
   0.76107142  0.73619086  0.99916881
   0.01337371  0.27684141  0.73760678
   0.75646097  0.27776218  0.49818099
   0.98879238  0.72396428  0.73947520
   0.26682396  0.50029500  0.74834436
   0.24676703  0.25222693  0.00275903
   0.50422394  0.25538038  0.25150516
   0.75623769  0.99421105  0.25578436
   0.75112293  0.25967456  0.99139560
   0.24211852  0.74841506  0.00108187
   0.25079609  0.25312567  0.49885554
   0.24637621  0.24816468  0.25138691
   0.24424408  0.00089936  0.00685186
   0.99914115  0.24065680  0.00268144
   0.75315801  0.25350575  0.25185218
   0.75641992  0.00344056  0.00073983
   0.50119812  0.00484808  0.24928635
   0.00021314  0.48427255  0.25840978
   0.49965678  0.74608098  0.99368230
   0.99796306  0.00520838  0.75248306
   0.75115263  0.25587258  0.74313737
   0.75684855  0.01518242  0.49794353
   0.50590761  0.25502738  0.50423996
   0.50404956  0.00074408  0.75000680
   0.00338235  0.99610653  0.25185837
   0.50086215  0.25384884  0.99655117
   0.24006852  0.74951041  0.24909662
   0.25520515  0.49962850  0.00235725
   0.99400497  0.75599623  0.00211505
   0.76050694  0.73995825  0.25181908
   0.74302320  0.50405107  0.99992496
   0.50294381  0.49961523  0.25225169
   0.25116113  0.25499371  0.75013266
   0.24117024  0.00243907  0.49350640
   0.99737354  0.24761870  0.50408683
   0.24822760  0.74269639  0.75199031
   0.25422308  0.49838445  0.49894313
   0.98822214  0.75215645  0.49666903
   0.99721036  0.50077324  0.74150859
   0.74725517  0.73945978  0.74785397
   0.74979123  0.50399525  0.49925583
   0.50845884  0.73968402  0.50685601
   0.50325253  0.49965979  0.74792098
   0.50108922  0.00061924  0.99652676
   0.99806545  0.50118973  0.01117793
   0.50282390  0.74685502  0.25107963
   0.24001180  0.99769244  0.74911689
   0.49859499  0.99375963  0.50283211
   0.76023350  0.99217615  0.74156681
   0.24452076  0.74591977  0.50038466
   0.99793370  0.77290150  0.26164500
   0.73381774  0.50961604  0.24630109
   0.00687495  0.99764436  0.48370789
   0.50043661  0.50707386  0.49896267
   0.72949098  0.50775636  0.75383075
   0.75317680  0.71875908  0.50110292
HECN                                    
           1
     8.863641   -0.003973    0.005064
    -0.003958    8.946599   -0.005497
     0.005062   -0.005439    8.830623
   Ti   W    Hf   N    C    Zr   V 
     7     6     6    13    19     7     6
Direct configuration=     8
   0.99704963  0.99761217  0.01100444
   0.24172384  0.99597732  0.25351180
   0.26029734  0.50568052  0.25174287
   0.50014581  0.50308183  0.00104031
   0.49154559  0.26017861  0.74961076
   0.00082471  0.49975325  0.48859874
   0.50757550  0.73923675  0.74802920
   0.99371575  0.23367674  0.26678807
   0.76113097  0.73609221  0.99908690
   0.01344688  0.27659394  0.73765593
   0.75634574  0.27763860  0.49794578
   0.98870476  0.72398805  0.73945388
   0.26677666  0.50027862  0.74841521
   0.24676662  0.25221251  0.00269582
   0.50421789  0.25554148  0.25142318
   0.75617363  0.99433068  0.25595415
   0.75108080  0.25951156  0.99144733
   0.24201754  0.74839540  0.00113558
   0.25093893  0.25306854  0.49901237
   0.24644482  0.24810735  0.25136486
   0.24423731  0.00096217  0.00685858
   0.99923104  0.24067258  0.00256856
   0.75309683  0.25375693  0.25167474
   0.75628936  0.00334653  0.00065537
   0.50119926  0.00486732  0.24925486
   0.00043502  0.48380253  0.25828393
   0.49952469  0.74607815  0.99377404
   0.99791794  0.00546712  0.75243578
   0.75107242  0.25602762  0.74322730
   0.75674248  0.01628419  0.49787869
   0.50587624  0.25513741  0.50416993
   0.50402603  0.00074372  0.74998891
   0.00334043  0.99623425  0.25194606
   0.50084554  0.25375966  0.99667041
   0.24003646  0.74945517  0.24903661
   0.25510927  0.49964554  0.00232865
   0.99387697  0.75595872  0.00208701
   0.76049147  0.74010698  0.25178927
   0.74298793  0.50415080  0.99995866
   0.50293798  0.49959732  0.25220936
   0.25119826  0.25500382  0.75018258
   0.24121874  0.00250587  0.49360959
   0.99729000  0.24755471  0.50412593
   0.24818672  0.74273517  0.75211456
   0.25432591  0.49827891  0.49902506
   0.98826004  0.75204299  0.49665903
   0.99723968  0.50070327  0.74158313
   0.74725971  0.73960937  0.74776604
   0.74997711  0.50400915  0.49917155
   0.50848329  0.73977093  0.50681451
   0.50318404  0.49969458  0.74800008
   0.50107673  0.00062058  0.99655610
   0.99802347  0.50113464  0.01113922
   0.50279696  0.74665176  0.25105171
   0.23994585  0.99764748  0.74912539
   0.49869293  0.99377453  0.50274074
   0.76033640  0.99235498  0.74144884
   0.24455500  0.74591721  0.50043098
   0.99793021  0.77294079  0.26173902
   0.73378737  0.50937833  0.24619888
   0.00689101  0.99752821  0.48381594
   0.50033494  0.50697450  0.49894060
   0.72959426  0.50765377  0.75402111
   0.75321396  0.71850432  0.50102619
HECN                                    
           1
     8.863895   -0.003390    0.004907
    -0.003369    8.948602   -0.005529
     0.004905   -0.005471    8.830287
   Ti   W    Hf   N    C    Zr   V 
     7     6     6    13    19     7     6
Direct configuration=     9
   0.99703850  0.99759639  0.01097066
   0.24167142  0.99596251  0.25358665
   0.26025637  0.50568494  0.25171905
   0.50016617  0.50306815  0.00102761
   0.49163541  0.26017071  0.74966940
   0.00092450  0.49964935  0.48864279
   0.50760736  0.73921733  0.74794512
   0.99379174  0.23370504  0.26682635
   0.76116208  0.73604070  0.99904411
   0.01348512  0.27646474  0.73768160
   0.75628556  0.27757409  0.49782291
   0.98865900  0.72400047  0.73944274
   0.26675195  0.50027008  0.74845221
   0.24676640  0.25220499  0.00266280
   0.50421472  0.25562558  0.25138037
   0.75614017  0.99439314  0.25604284
   0.75105880  0.25942646  0.99147436
   0.24196480  0.74838514  0.00116364
   0.25101354  0.25303870  0.49909429
   0.24648066  0.24807742  0.25135334
   0.24423377  0.00099497  0.00686209
   0.99927798  0.24068081  0.00250960
   0.75306485  0.25388807  0.25158206
   0.75622118  0.00329745  0.00061126
   0.50119986  0.00487736  0.24923841
   0.00055094  0.48355712  0.25821819
   0.49945571  0.74607668  0.99382195
   0.99789436  0.00560221  0.75241108
   0.75103052  0.25610857  0.74327427
   0.75668701  0.01685942  0.49784483
   0.50585984  0.25519485  0.50413335
   0.50401374  0.00074354  0.74997957
   0.00331853  0.99630093  0.25199187
   0.50083687  0.25371310  0.99673269
   0.24001972  0.74942633  0.24900527
   0.25505920  0.49965445  0.00231371
   0.99381012  0.75593915  0.00207236
   0.76048338  0.74018462  0.25177371
   0.74296951  0.50420287  0.99997626
   0.50293493  0.49958796  0.25218724
   0.25121764  0.25500909  0.75020866
   0.24124406  0.00254073  0.49366349
   0.99724638  0.24752130  0.50414635
   0.24816537  0.74275542  0.75217946
   0.25437962  0.49822380  0.49906785
   0.98827984  0.75198375  0.49665381
   0.99725500  0.50066674  0.74162207
   0.74726207  0.73968746  0.74772011
   0.75007418  0.50401639  0.49912752
   0.50849606  0.73981630  0.50679283
   0.50314826  0.49971275  0.74804139
   0.50107021  0.00062128  0.99657142
   0.99800155  0.50110587  0.01111900
   0.50278289  0.74654564  0.25103713
   0.23991141  0.99762401  0.74912984
   0.49874408  0.99378230  0.50269302
   0.76039013  0.99244834  0.74138722
   0.24457289  0.74591586  0.50045517
   0.99792839  0.77296130  0.26178813
   0.73377153  0.50925422  0.24614550
   0.00689940  0.99746756  0.48387239
   0.50028185  0.50692262  0.49892907
   0.72964822  0.50760021  0.75412055
   0.75323339  0.71837131  0.50098611
HECN                                    
           1
     8.860943   -0.003276    0.005240
    -0.003253    8.948063   -0.005513
     0.005238   -0.005457    8.826469
   Ti   W    Hf   N    C    Zr   V 
     7     6     6    13    19     7     6
Direct configuration=    10
   0.99697847  0.99760431  0.01108330
   0.24165891  0.99588264  0.25361817
   0.26018676  0.50569493  0.25172217
   0.50008239  0.50312700  0.00103868
   0.49166697  0.26024424  0.74970799
   0.00107966  0.49948225  0.48856584
   0.50771645  0.73917372  0.74781105
   0.99382476  0.23373801  0.26691405
   0.76105494  0.73605845  0.99896629
   0.01357926  0.27658101  0.73776118
   0.75611790  0.27764235  0.49756505
   0.98858458  0.72364557  0.73935674
   0.26675624  0.50032845  0.74850274
   0.24675415  0.25220807  0.00265771
   0.50414317  0.25574664  0.25140522
   0.75609669  0.99442093  0.25608594
   0.75112573  0.25952317  0.99144916
   0.24192242  0.74839749  0.00106993
   0.25111299  0.25305632  0.49904172
   0.24645197  0.24800557  0.25139334
   0.24426833  0.00096979  0.00685886
   0.99924147  0.24070978  0.00239598
   0.75309465  0.25403521  0.25147111
   0.75611172  0.00334770  0.00060595
   0.50127406  0.00484107  0.24924234
   0.00073130  0.48321822  0.25815595
   0.49938952  0.74610071  0.99388177
   0.99793089  0.00584163  0.75237866
   0.75102382  0.25619840  0.74330406
   0.75653147  0.01778682  0.49785415
   0.50588279  0.25526843  0.50407737
   0.50401960  0.00073425  0.74995986
   0.00318848  0.99627019  0.25199395
   0.50087006  0.25363470  0.99677870
   0.24006601  0.74937084  0.24911257
   0.25504175  0.49964320  0.00225453
   0.99382676  0.75586960  0.00197472
   0.76045946  0.74033853  0.25173012
   0.74301119  0.50406105  0.99998393
   0.50284027  0.49952990  0.25213961
   0.25129387  0.25496948  0.75028008
   0.24135698  0.00253248  0.49371874
   0.99725133  0.24752858  0.50421691
   0.24810230  0.74271868  0.75216274
   0.25436757  0.49824532  0.49915496
   0.98826037  0.75190719  0.49669602
   0.99729276  0.50065359  0.74166377
   0.74727242  0.73989792  0.74764656
   0.75026092  0.50404656  0.49907544
   0.50849296  0.73990201  0.50671555
   0.50315333  0.49972192  0.74811010
   0.50101089  0.00047469  0.99654661
   0.99796088  0.50095562  0.01121306
   0.50282771  0.74652187  0.25101479
   0.23985688  0.99747975  0.74919475
   0.49870941  0.99376778  0.50274617
   0.76036348  0.99263684  0.74127932
   0.24456963  0.74580010  0.50052754
   0.99788558  0.77315481  0.26198221
   0.73377758  0.50908909  0.24618189
   0.00700216  0.99735291  0.48389415
   0.50032267  0.50680450  0.49894102
   0.72964407  0.50755665  0.75421830
   0.75326690  0.71795118  0.50094954
HECN                                    
           1
     8.861176   -0.003285    0.005214
    -0.003262    8.948105   -0.005514
     0.005211   -0.005459    8.826769
   Ti   W    Hf   N    C    Zr   V 
     7     6     6    13    19     7     6
Direct configuration=    11
   0.99698320  0.99760369  0.01107442
   0.24165989  0.99588893  0.25361568
   0.26019225  0.50569414  0.25172193
   0.50008899  0.50312237  0.00103781
   0.49166449  0.26023845  0.74970495
   0.00106744  0.49949541  0.48857190
   0.50770786  0.73917715  0.74782161
   0.99382216  0.23373541  0.26690714
   0.76106338  0.73605705  0.99897242
   0.01357185  0.27657185  0.73775491
   0.75613110  0.27763697  0.49758536
   0.98859044  0.72367352  0.73936351
   0.26675591  0.50032386  0.74849876
   0.24675511  0.25220783  0.00265811
   0.50414881  0.25573711  0.25140326
   0.75610011  0.99441874  0.25608254
   0.75112046  0.25951555  0.99145115
   0.24192576  0.74839652  0.00107731
   0.25110516  0.25305493  0.49904586
   0.24645423  0.24801123  0.25139019
   0.24426561  0.00097177  0.00685911
   0.99924434  0.24070750  0.00240493
   0.75309230  0.25402363  0.25147985
   0.75612034  0.00334374  0.00060637
   0.50126822  0.00484392  0.24924203
   0.00071710  0.48324490  0.25816085
   0.49939474  0.74609882  0.99387706
   0.99792801  0.00582278  0.75238121
   0.75102435  0.25619133  0.74330171
   0.75654372  0.01771380  0.49785342
   0.50588098  0.25526263  0.50408178
   0.50401914  0.00073498  0.74996141
   0.00319872  0.99627261  0.25199378
   0.50086745  0.25364087  0.99677507
   0.24006236  0.74937521  0.24910411
   0.25504312  0.49964409  0.00225920
   0.99382545  0.75587507  0.00198241
   0.76046134  0.74032641  0.25173355
   0.74300790  0.50407222  0.99998333
   0.50284773  0.49953447  0.25214336
   0.25128787  0.25497260  0.75027445
   0.24134809  0.00253313  0.49371439
   0.99725094  0.24752801  0.50421135
   0.24810727  0.74272158  0.75216406
   0.25436852  0.49824363  0.49914810
   0.98826190  0.75191322  0.49669270
   0.99728978  0.50065462  0.74166048
   0.74727160  0.73988135  0.74765235
   0.75024622  0.50404418  0.49907954
   0.50849320  0.73989526  0.50672163
   0.50315293  0.49972120  0.74810469
   0.50101556  0.00048623  0.99654856
   0.99796408  0.50096745  0.01120566
   0.50282418  0.74652374  0.25101655
   0.23986118  0.99749111  0.74918964
   0.49871214  0.99376893  0.50274198
   0.76036558  0.99262200  0.74128782
   0.24456989  0.74580922  0.50052184
   0.99788895  0.77313958  0.26196692
   0.73377711  0.50910209  0.24617902
   0.00699407  0.99736194  0.48389244
   0.50031946  0.50681380  0.49894008
   0.72964440  0.50756007  0.75421060
   0.75326426  0.71798426  0.50095242
HECN                                    
           1
     8.862347   -0.003488    0.005498
    -0.003466    8.950219   -0.005529
     0.005494   -0.005473    8.828338
   Ti   W    Hf   N    C    Zr   V 