  64  64   0   0
  0.2218804E+02  0.1124000E-08  0.1124000E-08  0.1124000E-08  0.5000000E-15
  1.000000000000000E-004
  CAR 
 HECN                                    
     15.50923233    -51.27390920  301      9.64840495      1.00000000
    -51.274  0.0000E+00  0.0000E+00
    -51.051  0.0000E+00  0.0000E+00
    -50.829  0.0000E+00  0.0000E+00
    -50.606  0.0000E+00  0.0000E+00
    -50.383  0.0000E+00  0.0000E+00
    -50.161  0.0000E+00  0.0000E+00
    -49.938  0.0000E+00  0.0000E+00
    -49.716  0.0000E+00  0.0000E+00
    -49.493  0.0000E+00  0.0000E+00
    -49.270  0.0000E+00  0.0000E+00
    -49.048  0.0000E+00  0.0000E+00
    -48.825  0.4987E-17  0.1110E-17
    -48.603  0.1160E-07  0.2583E-08
    -48.380  0.2027E-02  0.4513E-03
    -48.157  0.7726E-01  0.1765E-01
    -47.935  0.2172E+00  0.6599E-01
    -47.712  0.2763E+00  0.1275E+00
    -47.490  0.5598E-01  0.1400E+00
    -47.267  0.1831E-03  0.1400E+00
    -47.044  0.7817E-10  0.1400E+00
    -46.822  0.1901E-07  0.1400E+00
    -46.599  0.3481E-02  0.1408E+00
    -46.376  0.1674E+00  0.1780E+00
    -46.154  0.3319E+00  0.2519E+00
    -45.931  0.1120E+00  0.2769E+00
    -45.709  0.1404E-01  0.2800E+00
    -45.486  0.1442E-05  0.2800E+00
    -45.263  0.1235E-13  0.2800E+00
    -45.041  0.0000E+00  0.2800E+00
    -44.818  0.0000E+00  0.2800E+00
    -44.596  0.0000E+00  0.2800E+00
    -44.373  0.0000E+00  0.2800E+00
    -44.150  0.0000E+00  0.2800E+00
    -43.928  0.0000E+00  0.2800E+00
    -43.705  0.0000E+00  0.2800E+00
    -43.483  0.0000E+00  0.2800E+00
    -43.260  0.0000E+00  0.2800E+00
    -43.037  0.0000E+00  0.2800E+00
    -42.815  0.0000E+00  0.2800E+00
    -42.592  0.0000E+00  0.2800E+00
    -42.369  0.0000E+00  0.2800E+00
    -42.147  0.0000E+00  0.2800E+00
    -41.924  0.0000E+00  0.2800E+00
    -41.702  0.0000E+00  0.2800E+00
    -41.479  0.0000E+00  0.2800E+00
    -41.256  0.0000E+00  0.2800E+00
    -41.034  0.0000E+00  0.2800E+00
    -40.811  0.0000E+00  0.2800E+00
    -40.589  0.0000E+00  0.2800E+00
    -40.366  0.0000E+00  0.2800E+00
    -40.143  0.0000E+00  0.2800E+00
    -39.921  0.0000E+00  0.2800E+00
    -39.698  0.0000E+00  0.2800E+00
    -39.476  0.0000E+00  0.2800E+00
    -39.253  0.0000E+00  0.2800E+00
    -39.030  0.0000E+00  0.2800E+00
    -38.808  0.0000E+00  0.2800E+00
    -38.585  0.0000E+00  0.2800E+00
    -38.363  0.0000E+00  0.2800E+00
    -38.140  0.0000E+00  0.2800E+00
    -37.917  0.0000E+00  0.2800E+00
    -37.695  0.0000E+00  0.2800E+00
    -37.472  0.0000E+00  0.2800E+00
    -37.249  0.0000E+00  0.2800E+00
    -37.027  0.0000E+00  0.2800E+00
    -36.804  0.0000E+00  0.2800E+00
    -36.582  0.0000E+00  0.2800E+00
    -36.359  0.0000E+00  0.2800E+00
    -36.136  0.0000E+00  0.2800E+00
    -35.914  0.0000E+00  0.2800E+00
    -35.691  0.0000E+00  0.2800E+00
    -35.469  0.0000E+00  0.2800E+00
    -35.246  0.0000E+00  0.2800E+00
    -35.023  0.0000E+00  0.2800E+00
    -34.801  0.0000E+00  0.2800E+00
    -34.578  0.0000E+00  0.2800E+00
    -34.356  0.0000E+00  0.2800E+00
    -34.133  0.0000E+00  0.2800E+00
    -33.910  0.0000E+00  0.2800E+00
    -33.688  0.0000E+00  0.2800E+00
    -33.465  0.0000E+00  0.2800E+00
    -33.242  0.0000E+00  0.2800E+00
    -33.020  0.0000E+00  0.2800E+00
    -32.797  0.0000E+00  0.2800E+00
    -32.575  0.0000E+00  0.2800E+00
    -32.352  0.0000E+00  0.2800E+00
    -32.129  0.0000E+00  0.2800E+00
    -31.907  0.0000E+00  0.2800E+00
    -31.684  0.0000E+00  0.2800E+00
    -31.462  0.0000E+00  0.2800E+00
    -31.239  0.0000E+00  0.2800E+00
    -31.016  0.0000E+00  0.2800E+00
    -30.794  0.0000E+00  0.2800E+00
    -30.571  0.0000E+00  0.2800E+00
    -30.349  0.8595E-10  0.2800E+00
    -30.126  0.2137E-03  0.2800E+00
    -29.903  0.1124E+00  0.3051E+00
    -29.681  0.6369E+00  0.4468E+00
    -29.458  0.8244E+00  0.6304E+00
    -29.235  0.4331E-01  0.6400E+00
    -29.013  0.2605E-05  0.6400E+00
    -28.790  0.2141E-13  0.6400E+00
    -28.568  0.0000E+00  0.6400E+00
    -28.345  0.0000E+00  0.6400E+00
    -28.122  0.0000E+00  0.6400E+00
    -27.900  0.0000E+00  0.6400E+00
    -27.677  0.0000E+00  0.6400E+00
    -27.455  0.0000E+00  0.6400E+00
    -27.232  0.0000E+00  0.6400E+00
    -27.009  0.0000E+00  0.6400E+00
    -26.787  0.2921E-10  0.6400E+00
    -26.564  0.1359E-03  0.6400E+00
    -26.342  0.9414E-01  0.6610E+00
    -26.119  0.3187E+00  0.7319E+00
    -25.896  0.5571E+00  0.8559E+00
    -25.674  0.4742E+00  0.9615E+00
    -25.451  0.1723E+00  0.9999E+00
    -25.228  0.6076E-03  0.1000E+01
    -25.006  0.9864E-08  0.1000E+01
    -24.783  0.2914E-02  0.1001E+01
    -24.561  0.2114E+00  0.1048E+01
    -24.338  0.5834E+00  0.1178E+01
    -24.115  0.8653E+00  0.1370E+01
    -23.893  0.2204E+00  0.1419E+01
    -23.670  0.3282E-02  0.1420E+01
    -23.448  0.1686E-07  0.1420E+01
    -23.225  0.5893E-09  0.1420E+01
    -23.002  0.5037E-03  0.1420E+01
    -22.780  0.7741E-01  0.1437E+01
    -22.557  0.4080E+00  0.1528E+01
    -22.335  0.8634E+00  0.1720E+01
    -22.112  0.4893E+00  0.1829E+01
    -21.889  0.4808E-01  0.1840E+01
    -21.667  0.8717E-05  0.1840E+01
    -21.444  0.1749E-12  0.1840E+01
    -21.221  0.0000E+00  0.1840E+01
    -20.999  0.0000E+00  0.1840E+01
    -20.776  0.0000E+00  0.1840E+01
    -20.554  0.0000E+00  0.1840E+01
    -20.331  0.0000E+00  0.1840E+01
    -20.108  0.0000E+00  0.1840E+01
    -19.886  0.0000E+00  0.1840E+01
    -19.663  0.0000E+00  0.1840E+01
    -19.441  0.0000E+00  0.1840E+01
    -19.218  0.0000E+00  0.1840E+01
    -18.995  0.0000E+00  0.1840E+01
    -18.773  0.0000E+00  0.1840E+01
    -18.550  0.0000E+00  0.1840E+01
    -18.328  0.0000E+00  0.1840E+01
    -18.105  0.0000E+00  0.1840E+01
    -17.882  0.0000E+00  0.1840E+01
    -17.660  0.0000E+00  0.1840E+01
    -17.437  0.0000E+00  0.1840E+01
    -17.215  0.0000E+00  0.1840E+01
    -16.992  0.0000E+00  0.1840E+01
    -16.769  0.0000E+00  0.1840E+01
    -16.547  0.0000E+00  0.1840E+01
    -16.324  0.0000E+00  0.1840E+01
    -16.101  0.0000E+00  0.1840E+01
    -15.879  0.0000E+00  0.1840E+01
    -15.656  0.0000E+00  0.1840E+01
    -15.434  0.0000E+00  0.1840E+01
    -15.211  0.0000E+00  0.1840E+01
    -14.988  0.0000E+00  0.1840E+01
    -14.766  0.0000E+00  0.1840E+01
    -14.543  0.0000E+00  0.1840E+01
    -14.321  0.0000E+00  0.1840E+01
    -14.098  0.0000E+00  0.1840E+01
    -13.875  0.0000E+00  0.1840E+01
    -13.653  0.0000E+00  0.1840E+01
    -13.430  0.0000E+00  0.1840E+01
    -13.208  0.0000E+00  0.1840E+01
    -12.985  0.0000E+00  0.1840E+01
    -12.762  0.0000E+00  0.1840E+01
    -12.540  0.0000E+00  0.1840E+01
    -12.317  0.0000E+00  0.1840E+01
    -12.094  0.0000E+00  0.1840E+01
    -11.872  0.0000E+00  0.1840E+01
    -11.649  0.0000E+00  0.1840E+01
    -11.427  0.0000E+00  0.1840E+01
    -11.204  0.0000E+00  0.1840E+01
    -10.981  0.0000E+00  0.1840E+01
    -10.759  0.0000E+00  0.1840E+01
    -10.536  0.0000E+00  0.1840E+01
    -10.314  0.0000E+00  0.1840E+01
    -10.091  0.0000E+00  0.1840E+01
     -9.868  0.0000E+00  0.1840E+01
     -9.646  0.0000E+00  0.1840E+01
     -9.423  0.0000E+00  0.1840E+01
     -9.201  0.0000E+00  0.1840E+01
     -8.978  0.0000E+00  0.1840E+01
     -8.755  0.0000E+00  0.1840E+01
     -8.533  0.0000E+00  0.1840E+01
     -8.310  0.0000E+00  0.1840E+01
     -8.087  0.0000E+00  0.1840E+01
     -7.865  0.0000E+00  0.1840E+01
     -7.642  0.3281E-11  0.1840E+01
     -7.420  0.9202E-05  0.1840E+01
     -7.197  0.6188E-02  0.1841E+01
     -6.974  0.5259E-01  0.1853E+01
     -6.752  0.7839E-01  0.1871E+01
     -6.529  0.1235E+00  0.1898E+01
     -6.307  0.9785E-01  0.1920E+01
     -6.084  0.7270E-01  0.1936E+01
     -5.861  0.1880E+00  0.1978E+01
     -5.639  0.2366E+00  0.2031E+01
     -5.416  0.2052E+00  0.2076E+01
     -5.194  0.1056E+00  0.2100E+01
     -4.971  0.1425E-02  0.2100E+01
     -4.748  0.9863E-08  0.2100E+01
     -4.526  0.5911E-17  0.2100E+01
     -4.303  0.3849E-13  0.2100E+01
     -4.080  0.9500E-06  0.2100E+01
     -3.858  0.3837E-02  0.2101E+01
     -3.635  0.5668E-01  0.2113E+01
     -3.413  0.2947E-01  0.2120E+01
     -3.190  0.5543E-01  0.2132E+01
     -2.967  0.8057E-01  0.2150E+01
     -2.745  0.1242E+00  0.2178E+01
     -2.522  0.2017E+00  0.2223E+01
     -2.300  0.2858E+00  0.2286E+01
     -2.077  0.2611E+00  0.2345E+01
     -1.854  0.1933E+00  0.2388E+01
     -1.632  0.1882E+00  0.2430E+01
     -1.409  0.1395E+00  0.2461E+01
     -1.187  0.7762E-01  0.2478E+01
     -0.964  0.9480E-02  0.2480E+01
     -0.741  0.1258E-03  0.2480E+01
     -0.519  0.1011E-08  0.2480E+01
     -0.296  0.7389E-18  0.2480E+01
     -0.074  0.0000E+00  0.2480E+01
      0.149  0.0000E+00  0.2480E+01
      0.372  0.5586E-15  0.2480E+01
      0.594  0.6170E-07  0.2480E+01
      0.817  0.6787E-03  0.2480E+01
      1.040  0.5987E-02  0.2481E+01
      1.262  0.2884E-01  0.2488E+01
      1.485  0.6984E-01  0.2503E+01
      1.707  0.8651E-01  0.2523E+01
      1.930  0.1356E+00  0.2553E+01
      2.153  0.1790E+00  0.2593E+01
      2.375  0.2490E+00  0.2648E+01
      2.598  0.2960E+00  0.2714E+01
      2.820  0.2417E+00  0.2768E+01
      3.043  0.2645E+00  0.2827E+01
      3.266  0.3348E+00  0.2901E+01
      3.488  0.3440E+00  0.2978E+01
      3.711  0.4080E+00  0.3069E+01
      3.933  0.4679E+00  0.3173E+01
      4.156  0.5915E+00  0.3305E+01
      4.379  0.6642E+00  0.3452E+01
      4.601  0.6693E+00  0.3601E+01
      4.824  0.6451E+00  0.3745E+01
      5.047  0.6383E+00  0.3887E+01
      5.269  0.5237E+00  0.4004E+01
      5.492  0.4014E+00  0.4093E+01
      5.714  0.3203E+00  0.4164E+01
      5.937  0.2519E+00  0.4220E+01
      6.160  0.2647E+00  0.4279E+01
      6.382  0.2120E+00  0.4327E+01
      6.605  0.1665E+00  0.4364E+01
      6.827  0.1204E+00  0.4390E+01
      7.050  0.6052E-01  0.4404E+01
      7.273  0.1271E+00  0.4432E+01
      7.495  0.1786E+00  0.4472E+01
      7.718  0.1661E+00  0.4509E+01
      7.940  0.1659E+00  0.4546E+01
      8.163  0.1821E+00  0.4586E+01
      8.386  0.1633E+00  0.4623E+01
      8.608  0.2031E+00  0.4668E+01
      8.831  0.2055E+00  0.4714E+01
      9.054  0.2402E+00  0.4767E+01
      9.276  0.2119E+00  0.4814E+01
      9.499  0.2167E+00  0.4863E+01
      9.721  0.2516E+00  0.4919E+01
      9.944  0.2871E+00  0.4982E+01
     10.167  0.3347E+00  0.5057E+01
     10.389  0.3588E+00  0.5137E+01
     10.612  0.4394E+00  0.5235E+01
     10.834  0.4880E+00  0.5343E+01
     11.057  0.5295E+00  0.5461E+01
     11.280  0.5922E+00  0.5593E+01
     11.502  0.6473E+00  0.5737E+01
     11.725  0.6117E+00  0.5873E+01
     11.947  0.5678E+00  0.6000E+01
     12.170  0.6248E+00  0.6139E+01
     12.393  0.3935E+00  0.6226E+01
     12.615  0.6103E-01  0.6240E+01
     12.838  0.3791E-03  0.6240E+01
     13.061  0.1193E-08  0.6240E+01
     13.283  0.0000E+00  0.6240E+01
     13.506  0.0000E+00  0.6240E+01
     13.728  0.0000E+00  0.6240E+01
     13.951  0.0000E+00  0.6240E+01
     14.174  0.0000E+00  0.6240E+01
     14.396  0.0000E+00  0.6240E+01
     14.619  0.0000E+00  0.6240E+01
     14.841  0.0000E+00  0.6240E+01
     15.064  0.0000E+00  0.6240E+01
     15.287  0.0000E+00  0.6240E+01
     15.509  0.0000E+00  0.6240E+01
