       N       E                     dE             d eps       ncg     rms          rms(c)
DAV:   1     0.445693949528E+04    0.44569E+04   -0.20725E+05  9528   0.124E+03
DAV:   2     0.789290835414E+02   -0.43780E+04   -0.42639E+04 10512   0.494E+02
DAV:   3    -0.540750020725E+03   -0.61968E+03   -0.60141E+03 14856   0.154E+02
DAV:   4    -0.600186882765E+03   -0.59437E+02   -0.57394E+02 14160   0.495E+01
DAV:   5    -0.613120984579E+03   -0.12934E+02   -0.12577E+02 17448   0.195E+01    0.665E+01
RMM:   6    -0.532691117350E+03    0.80430E+02   -0.15362E+03 12755   0.546E+01    0.610E+01
RMM:   7    -0.465717274374E+03    0.66974E+02   -0.18538E+02 12146   0.371E+01    0.253E+01
RMM:   8    -0.459277612338E+03    0.64397E+01   -0.81219E+01 13023   0.993E+00    0.186E+01
RMM:   9    -0.458199058132E+03    0.10786E+01   -0.26038E+01 13165   0.784E+00    0.156E+01
RMM:  10    -0.457804911270E+03    0.39415E+00   -0.20498E+01 13053   0.428E+00    0.133E+01
RMM:  11    -0.457455953267E+03    0.34896E+00   -0.13402E+01 13304   0.453E+00    0.136E+01
RMM:  12    -0.457050187079E+03    0.40577E+00   -0.85084E+00 13025   0.440E+00    0.111E+01
RMM:  13    -0.456833191225E+03    0.21700E+00   -0.43647E+00 13131   0.294E+00    0.908E+00
RMM:  14    -0.456575588789E+03    0.25760E+00   -0.25183E+00 13358   0.189E+00    0.767E+00
RMM:  15    -0.456325049580E+03    0.25054E+00   -0.23010E+00 13310   0.158E+00    0.563E+00
RMM:  16    -0.456337793211E+03   -0.12744E-01   -0.22896E+00 13350   0.137E+00    0.418E+00
RMM:  17    -0.456360785176E+03   -0.22992E-01   -0.13468E+00 13356   0.145E+00    0.366E+00
RMM:  18    -0.456375425048E+03   -0.14640E-01   -0.96350E-01 13390   0.927E-01    0.295E+00
RMM:  19    -0.456388964692E+03   -0.13540E-01   -0.64066E-01 13434   0.866E-01    0.246E+00
RMM:  20    -0.456389443037E+03   -0.47835E-03   -0.48686E-01 13486   0.645E-01    0.200E+00
RMM:  21    -0.456390838667E+03   -0.13956E-02   -0.40569E-01 13538   0.606E-01    0.149E+00
RMM:  22    -0.456408636995E+03   -0.17798E-01   -0.32694E-01 13642   0.537E-01    0.126E+00
RMM:  23    -0.456420275867E+03   -0.11639E-01   -0.30402E-01 13580   0.410E-01    0.801E-01
RMM:  24    -0.456436421334E+03   -0.16145E-01   -0.23783E-01 13397   0.389E-01    0.571E-01
RMM:  25    -0.456450066701E+03   -0.13645E-01   -0.17151E-01 13246   0.288E-01    0.386E-01
RMM:  26    -0.456462694177E+03   -0.12627E-01   -0.14739E-01 13043   0.230E-01    0.314E-01
RMM:  27    -0.456473113772E+03   -0.10420E-01   -0.11975E-01 12908   0.188E-01    0.210E-01
RMM:  28    -0.456482826573E+03   -0.97128E-02   -0.10174E-01 12568   0.155E-01    0.170E-01
RMM:  29    -0.456491019820E+03   -0.81932E-02   -0.85833E-02 12505   0.129E-01    0.122E-01
RMM:  30    -0.456498108407E+03   -0.70886E-02   -0.73186E-02 12506   0.116E-01    0.102E-01
RMM:  31    -0.456504229016E+03   -0.61206E-02   -0.62445E-02 12231   0.107E-01    0.644E-02
RMM:  32    -0.456509653925E+03   -0.54249E-02   -0.55061E-02 11581   0.945E-02    0.365E-02
RMM:  33    -0.456514278123E+03   -0.46242E-02   -0.46677E-02 10811   0.765E-02    0.308E-02
RMM:  34    -0.456518359711E+03   -0.40816E-02   -0.41110E-02 10911   0.700E-02    0.280E-02
RMM:  35    -0.456521864381E+03   -0.35047E-02   -0.35342E-02 10261   0.618E-02    0.242E-02
RMM:  36    -0.456524936083E+03   -0.30717E-02   -0.30950E-02 10301   0.569E-02    0.198E-02
RMM:  37    -0.456527601767E+03   -0.26657E-02   -0.26855E-02 10480   0.542E-02    0.169E-02
RMM:  38    -0.456529939483E+03   -0.23377E-02   -0.23533E-02 10483   0.498E-02    0.123E-02
RMM:  39    -0.456531976259E+03   -0.20368E-02   -0.20500E-02 10498   0.477E-02    0.122E-02
RMM:  40    -0.456533772291E+03   -0.17960E-02   -0.18083E-02 10054   0.435E-02    0.111E-02
RMM:  41    -0.456535338186E+03   -0.15659E-02   -0.15781E-02  8253   0.385E-02    0.978E-03
RMM:  42    -0.456536713674E+03   -0.13755E-02   -0.13859E-02  8102   0.365E-02    0.983E-03
RMM:  43    -0.456537923168E+03   -0.12095E-02   -0.12180E-02  7635   0.342E-02    0.134E-02
RMM:  44    -0.456538996760E+03   -0.10736E-02   -0.10788E-02  7408   0.319E-02    0.217E-02
RMM:  45    -0.456539937815E+03   -0.94105E-03   -0.94561E-03  7433   0.295E-02    0.285E-02
RMM:  46    -0.456540766082E+03   -0.82827E-03   -0.83372E-03  6987   0.278E-02    0.334E-02
RMM:  47    -0.456541496576E+03   -0.73049E-03   -0.73541E-03  6685   0.254E-02    0.379E-02
RMM:  48    -0.456542140391E+03   -0.64382E-03   -0.64919E-03  6533   0.244E-02    0.415E-02
RMM:  49    -0.456542721905E+03   -0.58151E-03   -0.57779E-03  7354   0.231E-02    0.488E-02
RMM:  50    -0.456543238713E+03   -0.51681E-03   -0.51206E-03  7409   0.225E-02    0.560E-02
RMM:  51    -0.456543692322E+03   -0.45361E-03   -0.45189E-03  7085   0.218E-02    0.619E-02
RMM:  52    -0.456544092315E+03   -0.39999E-03   -0.40008E-03  6862   0.204E-02    0.663E-02
RMM:  53    -0.456544441264E+03   -0.34895E-03   -0.35400E-03  6388   0.196E-02    0.684E-02
RMM:  54    -0.456544752662E+03   -0.31140E-03   -0.31287E-03  5905   0.177E-02    0.714E-02
RMM:  55    -0.456545029709E+03   -0.27705E-03   -0.27935E-03  5911   0.172E-02    0.739E-02
RMM:  56    -0.456545278218E+03   -0.24851E-03   -0.24725E-03  6087   0.160E-02    0.771E-02
RMM:  57    -0.456545489565E+03   -0.21135E-03   -0.21921E-03  5869   0.157E-02    0.775E-02
RMM:  58    -0.456545680277E+03   -0.19071E-03   -0.19421E-03  5678   0.138E-02    0.790E-02
RMM:  59    -0.456545849271E+03   -0.16899E-03   -0.17249E-03  5652   0.138E-02    0.801E-02
RMM:  60    -0.456546001599E+03   -0.15233E-03   -0.15391E-03  5612   0.125E-02
   1 F= -.45654600E+03 E0= -.45626361E+03  d E =-.456546E+03
       N       E                     dE             d eps       ncg     rms          rms(c)
DAV:   1    -0.348471404015E+04   -0.30282E+04   -0.10850E+05  9864   0.118E+03    0.346E+02
RMM:   2    -0.137343432735E+04    0.21113E+04   -0.75597E+03 13213   0.293E+02    0.183E+02
RMM:   3    -0.594536934339E+03    0.77890E+03   -0.24385E+03  9792   0.198E+02    0.582E+01
RMM:   4    -0.576488735546E+03    0.18048E+02   -0.86672E+02 12067   0.720E+01    0.307E+01
RMM:   5    -0.566482686809E+03    0.10006E+02   -0.13252E+02 13173   0.367E+01    0.152E+01
RMM:   6    -0.570170258183E+03   -0.36876E+01   -0.67791E+01 15294   0.154E+01    0.861E+00
RMM:   7    -0.574538268507E+03   -0.43680E+01   -0.23983E+01 15125   0.134E+01    0.624E+00
RMM:   8    -0.577803009001E+03   -0.32647E+01   -0.22908E+01 15383   0.740E+00    0.602E+00
RMM:   9    -0.579642935427E+03   -0.18399E+01   -0.11302E+01 15321   0.748E+00    0.420E+00
RMM:  10    -0.580974096680E+03   -0.13312E+01   -0.95186E+00 15193   0.511E+00    0.390E+00
RMM:  11    -0.581642764338E+03   -0.66867E+00   -0.52665E+00 15350   0.447E+00    0.167E+00
RMM:  12    -0.582007571458E+03   -0.36481E+00   -0.38826E+00 15147   0.355E+00    0.534E-01
RMM:  13    -0.582150422909E+03   -0.14285E+00   -0.19500E+00 15322   0.270E+00    0.689E-01
RMM:  14    -0.582247316087E+03   -0.96893E-01   -0.12126E+00 15483   0.197E+00    0.685E-01
RMM:  15    -0.582291912129E+03   -0.44596E-01   -0.61064E-01 15345   0.155E+00    0.173E-01
RMM:  16    -0.582324157578E+03   -0.32245E-01   -0.38859E-01 15314   0.115E+00    0.442E-01
RMM:  17    -0.582339324180E+03   -0.15167E-01   -0.19963E-01 15409   0.881E-01    0.423E-01
RMM:  18    -0.582349574548E+03   -0.10250E-01   -0.12599E-01 15307   0.678E-01    0.130E-01
RMM:  19    -0.582355021657E+03   -0.54471E-02   -0.68162E-02 15381   0.529E-01    0.190E-01
RMM:  20    -0.582358517454E+03   -0.34958E-02   -0.42459E-02 15317   0.409E-01    0.577E-02
RMM:  21    -0.582360536730E+03   -0.20193E-02   -0.23811E-02 15352   0.322E-01    0.192E-02
RMM:  22    -0.582361905747E+03   -0.13690E-02   -0.15741E-02 15184   0.249E-01    0.303E-02
RMM:  23    -0.582362662034E+03   -0.75629E-03   -0.88303E-03 15271   0.195E-01    0.154E-02
RMM:  24    -0.582363184816E+03   -0.52278E-03   -0.60226E-03 14876   0.154E-01    0.202E-02
RMM:  25    -0.582363483799E+03   -0.29898E-03   -0.34428E-03 15100   0.124E-01    0.214E-02
RMM:  26    -0.582363697081E+03   -0.21328E-03   -0.24154E-03 14557   0.985E-02    0.149E-02
RMM:  27    -0.582363820152E+03   -0.12307E-03   -0.13918E-03 14781   0.789E-02    0.157E-02
RMM:  28    -0.582363909757E+03   -0.89605E-04   -0.10080E-03 14220   0.646E-02    0.201E-02
RMM:  29    -0.582363960664E+03   -0.50907E-04   -0.58480E-04 13926   0.515E-02    0.659E-03
RMM:  30    -0.582363998919E+03   -0.38255E-04   -0.43507E-04 12856   0.446E-02    0.157E-02
RMM:  31    -0.582364019489E+03   -0.20570E-04   -0.24471E-04 12232   0.342E-02    0.398E-03
RMM:  32    -0.582364035600E+03   -0.16111E-04   -0.18622E-04 10980   0.290E-02    0.998E-03
RMM:  33    -0.582364044209E+03   -0.86090E-05   -0.10530E-04 10327   0.258E-02    0.264E-03
RMM:  34    -0.582364051265E+03   -0.70566E-05   -0.84809E-05  9391   0.212E-02
   2 F= -.58236405E+03 E0= -.58232264E+03  d E =-.125818E+03
       N       E                     dE             d eps       ncg     rms          rms(c)
DAV:   1    -0.100269953218E+04   -0.42034E+03   -0.10325E+04 10512   0.375E+02    0.167E+02
RMM:   2    -0.114764818629E+04   -0.14495E+03   -0.24476E+03 11626   0.123E+02    0.852E+01
RMM:   3    -0.801206542876E+03    0.34644E+03   -0.47906E+02 12904   0.584E+01    0.532E+01
RMM:   4    -0.716219117295E+03    0.84987E+02   -0.11954E+02 13124   0.266E+01    0.411E+01
RMM:   5    -0.664829572332E+03    0.51390E+02   -0.18400E+02 13491   0.287E+01    0.187E+01
RMM:   6    -0.681890212286E+03   -0.17061E+02   -0.18654E+02 13412   0.255E+01    0.331E+01
RMM:   7    -0.660338493007E+03    0.21552E+02   -0.22003E+01 12511   0.133E+01    0.860E+00
RMM:   8    -0.659177290699E+03    0.11612E+01   -0.80189E+00 13767   0.603E+00    0.416E+00
RMM:   9    -0.659307305887E+03   -0.13002E+00   -0.36077E+00 14306   0.416E+00    0.306E+00
RMM:  10    -0.659497764880E+03   -0.19046E+00   -0.22884E+00 15132   0.227E+00    0.256E+00
RMM:  11    -0.659627641669E+03   -0.12988E+00   -0.11770E+00 15322   0.189E+00    0.263E+00
RMM:  12    -0.659642656470E+03   -0.15015E-01   -0.78393E-01 14609   0.149E+00    0.149E+00
RMM:  13    -0.659763571313E+03   -0.12091E+00   -0.81638E-01 14748   0.156E+00    0.154E+00
RMM:  14    -0.659797063300E+03   -0.33492E-01   -0.36136E-01 14893   0.104E+00    0.109E+00
RMM:  15    -0.659801720109E+03   -0.46568E-02   -0.22744E-01 14910   0.664E-01    0.696E-01
RMM:  16    -0.659804730279E+03   -0.30102E-02   -0.15302E-01 14921   0.539E-01    0.437E-01
RMM:  17    -0.659808998467E+03   -0.42682E-02   -0.12094E-01 14795   0.523E-01    0.278E-01
RMM:  18    -0.659813901046E+03   -0.49026E-02   -0.60167E-02 15285   0.398E-01    0.329E-01
RMM:  19    -0.659815432027E+03   -0.15310E-02   -0.32525E-02 15023   0.247E-01    0.251E-01
RMM:  20    -0.659815978988E+03   -0.54696E-03   -0.22468E-02 14974   0.208E-01    0.119E-01
RMM:  21    -0.659816848257E+03   -0.86927E-03   -0.13607E-02 15096   0.171E-01    0.648E-02
RMM:  22    -0.659817497538E+03   -0.64928E-03   -0.85311E-03 14850   0.127E-01    0.238E-02
RMM:  23    -0.659817947219E+03   -0.44968E-03   -0.55858E-03 14550   0.102E-01    0.121E-02
RMM:  24    -0.659818245174E+03   -0.29796E-03   -0.36114E-03 14429   0.797E-02    0.204E-02
RMM:  25    -0.659818447474E+03   -0.20230E-03   -0.24769E-03 14214   0.662E-02    0.166E-02
RMM:  26    -0.659818578923E+03   -0.13145E-03   -0.16940E-03 14182   0.558E-02    0.384E-03
RMM:  27    -0.659818676285E+03   -0.97362E-04   -0.11713E-03 13661   0.464E-02    0.452E-03
RMM:  28    -0.659818740397E+03   -0.64112E-04   -0.79412E-04 13269   0.388E-02    0.349E-03
RMM:  29    -0.659818784306E+03   -0.43910E-04   -0.55401E-04 12558   0.325E-02    0.392E-03
RMM:  30    -0.659818817140E+03   -0.32833E-04   -0.38253E-04 11983   0.283E-02    0.484E-03
RMM:  31    -0.659818838176E+03   -0.21036E-04   -0.26865E-04 11015   0.243E-02    0.226E-03
RMM:  32    -0.659818852422E+03   -0.14246E-04   -0.18668E-04 10268   0.222E-02    0.144E-03
RMM:  33    -0.659818862099E+03   -0.96769E-05   -0.12875E-04  9535   0.193E-02    0.110E-03
RMM:  34    -0.659818869207E+03   -0.71080E-05   -0.94073E-05  9055   0.182E-02
   3 F= -.65981887E+03 E0= -.65975167E+03  d E =-.203273E+03
       N       E                     dE             d eps       ncg     rms          rms(c)
DAV:   1    -0.662879459479E+03   -0.30606E+01   -0.70716E+01 10704   0.302E+01    0.900E+00
RMM:   2    -0.662342108053E+03    0.53735E+00   -0.10697E+01 12485   0.896E+00    0.724E+00
RMM:   3    -0.661244807919E+03    0.10973E+01   -0.20044E+00 12820   0.347E+00    0.420E+00
RMM:   4    -0.660986537452E+03    0.25827E+00   -0.10537E+00 12719   0.285E+00    0.247E+00
RMM:   5    -0.660866868777E+03    0.11967E+00   -0.39666E-01 12904   0.140E+00    0.960E-01
RMM:   6    -0.660853508431E+03    0.13360E-01   -0.92549E-02 11167   0.957E-01    0.553E-01
RMM:   7    -0.660852229428E+03    0.12790E-02   -0.32692E-02 14501   0.336E-01    0.338E-01
RMM:   8    -0.660852426834E+03   -0.19741E-03   -0.79290E-03 13782   0.234E-01    0.210E-01
RMM:   9    -0.660853686524E+03   -0.12597E-02   -0.51159E-03 15043   0.116E-01    0.180E-01
RMM:  10    -0.660854911497E+03   -0.12250E-02   -0.31035E-03 14701   0.109E-01    0.135E-01
RMM:  11    -0.660856147609E+03   -0.12361E-02   -0.38343E-03 14734   0.930E-02    0.106E-01
RMM:  12    -0.660856546190E+03   -0.39858E-03   -0.23826E-03 14282   0.739E-02    0.680E-02
RMM:  13    -0.660856812254E+03   -0.26606E-03   -0.18352E-03 13945   0.627E-02    0.439E-02
RMM:  14    -0.660856914571E+03   -0.10232E-03   -0.11202E-03 13343   0.509E-02    0.246E-02
RMM:  15    -0.660856951462E+03   -0.36891E-04   -0.63830E-04 12293   0.388E-02    0.207E-02
RMM:  16    -0.660856978770E+03   -0.27308E-04   -0.39266E-04 11872   0.312E-02    0.157E-02
RMM:  17    -0.660856996767E+03   -0.17997E-04   -0.23842E-04 10680   0.257E-02    0.939E-03
RMM:  18    -0.660857009746E+03   -0.12978E-04   -0.15591E-04 10200   0.221E-02    0.481E-03
RMM:  19    -0.660857014634E+03   -0.48885E-05   -0.97146E-05  9328   0.193E-02
   4 F= -.66085701E+03 E0= -.66079299E+03  d E =-.204311E+03
       N       E                     dE             d eps       ncg     rms          rms(c)
DAV:   1    -0.661538089317E+03   -0.68108E+00   -0.19347E+01 11208   0.159E+01    0.472E+00
RMM:   2    -0.661404876960E+03    0.13321E+00   -0.29516E+00 12499   0.472E+00    0.382E+00
RMM:   3    -0.661096536895E+03    0.30834E+00   -0.55041E-01 12844   0.182E+00    0.216E+00
RMM:   4    -0.661028912323E+03    0.67625E-01   -0.27613E-01 12722   0.148E+00    0.132E+00
RMM:   5    -0.660994760444E+03    0.34152E-01   -0.11054E-01 12880   0.741E-01    0.500E-01
RMM:   6    -0.660991179146E+03    0.35813E-02   -0.26739E-02 11328   0.505E-01    0.286E-01
RMM:   7    -0.660990882928E+03    0.29622E-03   -0.89747E-03 14546   0.179E-01    0.173E-01
RMM:   8    -0.660991011052E+03   -0.12812E-03   -0.22469E-03 13847   0.126E-01    0.110E-01
RMM:   9    -0.660991394696E+03   -0.38364E-03   -0.15438E-03 14704   0.623E-02    0.983E-02
RMM:  10    -0.660991748819E+03   -0.35412E-03   -0.84190E-04 13899   0.566E-02    0.751E-02
RMM:  11    -0.660992140369E+03   -0.39155E-03   -0.10274E-03 13601   0.499E-02    0.557E-02
RMM:  12    -0.660992289024E+03   -0.14866E-03   -0.70491E-04 12704   0.428E-02    0.327E-02
RMM:  13    -0.660992373264E+03   -0.84240E-04   -0.54144E-04 12221   0.374E-02    0.212E-02
RMM:  14    -0.660992400423E+03   -0.27159E-04   -0.30680E-04 11214   0.311E-02    0.142E-02
RMM:  15    -0.660992412676E+03   -0.12253E-04   -0.17777E-04 10485   0.249E-02    0.121E-02
RMM:  16    -0.660992421040E+03   -0.83641E-05   -0.10619E-04  9286   0.203E-02    0.805E-03
RMM:  17    -0.660992426739E+03   -0.56991E-05   -0.68266E-05  8927   0.182E-02
   5 F= -.66099243E+03 E0= -.66092998E+03  d E =-.204446E+03
       N       E                     dE             d eps       ncg     rms          rms(c)
DAV:   1    -0.660993165564E+03   -0.74452E-03   -0.18932E-02 11952   0.497E-01    0.150E-01
RMM:   2    -0.660993097725E+03    0.67839E-04   -0.31715E-03 12687   0.152E-01    0.126E-01
RMM:   3    -0.660992765473E+03    0.33225E-03   -0.71812E-04 12979   0.612E-02    0.679E-02
RMM:   4    -0.660992694616E+03    0.70857E-04   -0.28354E-04 12506   0.477E-02    0.448E-02
RMM:   5    -0.660992651621E+03    0.42995E-04   -0.12308E-04 11362   0.250E-02    0.179E-02
RMM:   6    -0.660992641423E+03    0.10198E-04   -0.25688E-05  5848   0.188E-02    0.973E-03
RMM:   7    -0.660992637476E+03    0.39474E-05   -0.97206E-06  5299   0.144E-02
   6 F= -.66099264E+03 E0= -.66093015E+03  d E =-.204447E+03
       N       E                     dE             d eps       ncg     rms          rms(c)
DAV:   1    -0.660015885931E+03    0.97676E+00   -0.18491E+02  9072   0.373E+01    0.241E+00
RMM:   2    -0.661951975520E+03   -0.19361E+01   -0.20831E+01 14022   0.122E+01    0.161E+00
RMM:   3    -0.661868021340E+03    0.83954E-01   -0.12470E+00 13219   0.364E+00    0.120E+00
RMM:   4    -0.661862428481E+03    0.55929E-02   -0.34357E-01 13850   0.168E+00    0.828E-01
RMM:   5    -0.661868090141E+03   -0.56617E-02   -0.21579E-01 13365   0.790E-01    0.698E-01
RMM:   6    -0.661864909726E+03    0.31804E-02   -0.94558E-02 13614   0.661E-01    0.322E-01
RMM:   7    -0.661867146558E+03   -0.22368E-02   -0.43423E-02 14342   0.398E-01    0.268E-01
RMM:   8    -0.661868601348E+03   -0.14548E-02   -0.28313E-02 13886   0.254E-01    0.149E-01
RMM:   9    -0.661869737964E+03   -0.11366E-02   -0.13863E-02 14720   0.189E-01    0.111E-01
RMM:  10    -0.661870265306E+03   -0.52734E-03   -0.78994E-03 14264   0.137E-01    0.772E-02
RMM:  11    -0.661870677999E+03   -0.41269E-03   -0.49767E-03 13970   0.105E-01    0.594E-02
RMM:  12    -0.661870916301E+03   -0.23830E-03   -0.29805E-03 13222   0.842E-02    0.263E-02
RMM:  13    -0.661871051213E+03   -0.13491E-03   -0.17309E-03 12688   0.609E-02    0.146E-02
RMM:  14    -0.661871148397E+03   -0.97184E-04   -0.11390E-03 12376   0.489E-02    0.116E-02
RMM:  15    -0.661871208101E+03   -0.59704E-04   -0.69737E-04 12019   0.392E-02    0.965E-03
RMM:  16    -0.661871243339E+03   -0.35238E-04   -0.44787E-04 11616   0.327E-02    0.629E-03
RMM:  17    -0.661871264131E+03   -0.20792E-04   -0.28017E-04 10842   0.268E-02    0.362E-03
RMM:  18    -0.661871281414E+03   -0.17283E-04   -0.20057E-04 10518   0.228E-02    0.271E-03
RMM:  19    -0.661871289491E+03   -0.80764E-05   -0.10801E-04  9468   0.197E-02    0.206E-03
RMM:  20    -0.661871295373E+03   -0.58829E-05   -0.74217E-05  9053   0.163E-02
   7 F= -.66187130E+03 E0= -.66180520E+03  d E =-.878658E+00
       N       E                     dE             d eps       ncg     rms          rms(c)
DAV:   1    -0.661316578670E+03    0.55471E+00   -0.70737E+01  9072   0.231E+01    0.150E+00
RMM:   2    -0.662056173430E+03   -0.73959E+00   -0.79619E+00 14023   0.752E+00    0.100E+00
RMM:   3    -0.662024801103E+03    0.31372E-01   -0.47852E-01 13240   0.226E+00    0.770E-01
RMM:   4    -0.662023019219E+03    0.17819E-02   -0.13670E-01 13863   0.103E+00    0.534E-01
RMM:   5    -0.662024634716E+03   -0.16155E-02   -0.79455E-02 13422   0.480E-01    0.437E-01
RMM:   6    -0.662023552062E+03    0.10827E-02   -0.39448E-02 13531   0.416E-01    0.211E-01
RMM:   7    -0.662024272789E+03   -0.72073E-03   -0.16904E-02 14142   0.271E-01    0.164E-01
RMM:   8    -0.662024870174E+03   -0.59739E-03   -0.11057E-02 13691   0.158E-01    0.101E-01
RMM:   9    -0.662025310818E+03   -0.44064E-03   -0.55295E-03 14025   0.119E-01    0.691E-02
RMM:  10    -0.662025525161E+03   -0.21434E-03   -0.30379E-03 13303   0.877E-02    0.502E-02
RMM:  11    -0.662025679961E+03   -0.15480E-03   -0.19026E-03 13056   0.669E-02    0.361E-02
RMM:  12    -0.662025773484E+03   -0.93523E-04   -0.11396E-03 12653   0.545E-02    0.174E-02
RMM:  13    -0.662025825093E+03   -0.51609E-04   -0.65842E-04 11820   0.400E-02    0.102E-02
RMM:  14    -0.662025862183E+03   -0.37090E-04   -0.43818E-04 11375   0.327E-02    0.748E-03
RMM:  15    -0.662025885352E+03   -0.23169E-04   -0.27497E-04 10928   0.274E-02    0.541E-03
RMM:  16    -0.662025898275E+03   -0.12922E-04   -0.17658E-04 10534   0.231E-02    0.334E-03
RMM:  17    -0.662025905818E+03   -0.75433E-05   -0.10608E-04  9543   0.195E-02    0.209E-03
RMM:  18    -0.662025911771E+03   -0.59533E-05   -0.74864E-05  9255   0.171E-02
   8 F= -.66202591E+03 E0= -.66195654E+03  d E =-.103327E+01
       N       E                     dE             d eps       ncg     rms          rms(c)
DAV:   1    -0.662305637507E+03   -0.27973E+00   -0.69309E+01 10848   0.267E+01    0.538E+00
RMM:   2    -0.662727595844E+03   -0.42196E+00   -0.99684E+00 13224   0.922E+00    0.473E+00
RMM:   3    -0.662323565724E+03    0.40403E+00   -0.15884E+00 13762   0.351E+00    0.283E+00
RMM:   4    -0.662213347861E+03    0.11022E+00   -0.45827E-01 13720   0.185E+00    0.206E+00
RMM:   5    -0.662139792814E+03    0.73555E-01   -0.21216E-01 13333   0.121E+00    0.905E-01
RMM:   6    -0.662133312858E+03    0.64800E-02   -0.93468E-02 13504   0.863E-01    0.528E-01
RMM:   7    -0.662130486664E+03    0.28262E-02   -0.33403E-02 14348   0.369E-01    0.293E-01
RMM:   8    -0.662129789541E+03    0.69712E-03   -0.13152E-02 15048   0.238E-01    0.169E-01
RMM:   9    -0.662130260598E+03   -0.47106E-03   -0.70047E-03 14887   0.140E-01    0.125E-01
RMM:  10    -0.662130695665E+03   -0.43507E-03   -0.40583E-03 14966   0.114E-01    0.932E-02
RMM:  11    -0.662131028231E+03   -0.33257E-03   -0.28090E-03 14501   0.898E-02    0.751E-02
RMM:  12    -0.662131211423E+03   -0.18319E-03   -0.21844E-03 14464   0.744E-02    0.486E-02
RMM:  13    -0.662131300474E+03   -0.89052E-04   -0.12474E-03 13725   0.611E-02    0.364E-02
RMM:  14    -0.662131346353E+03   -0.45878E-04   -0.74222E-04 13388   0.455E-02    0.260E-02
RMM:  15    -0.662131376350E+03   -0.29998E-04   -0.47856E-04 12694   0.370E-02    0.143E-02
RMM:  16    -0.662131395662E+03   -0.19312E-04   -0.30072E-04 11979   0.299E-02    0.501E-03
RMM:  17    -0.662131409822E+03   -0.14160E-04   -0.19141E-04 11439   0.243E-02    0.399E-03
RMM:  18    -0.662131418590E+03   -0.87678E-05   -0.11761E-04 10595   0.207E-02    0.403E-03
RMM:  19    -0.662131424428E+03   -0.58382E-05   -0.84154E-05 10011   0.179E-02
   9 F= -.66213142E+03 E0= -.66205892E+03  d E =-.105513E+00
       N       E                     dE             d eps       ncg     rms          rms(c)
DAV:   1    -0.662158694593E+03   -0.27276E-01   -0.48293E+00 10968   0.706E+00    0.141E+00
RMM:   2    -0.662184238814E+03   -0.25544E-01   -0.69526E-01 13212   0.243E+00    0.115E+00
RMM:   3    -0.662159594342E+03    0.24644E-01   -0.10866E-01 13735   0.938E-01    0.757E-01
RMM:   4    -0.662151980193E+03    0.76141E-02   -0.31150E-02 13498   0.514E-01    0.517E-01
RMM:   5    -0.662147251099E+03    0.47291E-02   -0.14462E-02 13298   0.319E-01    0.222E-01
RMM:   6    -0.662146900852E+03    0.35025E-03   -0.58038E-03 13629   0.218E-01    0.128E-01
RMM:   7    -0.662146760844E+03    0.14001E-03   -0.20183E-03 14273   0.893E-02    0.687E-02
RMM:   8    -0.662146747372E+03    0.13473E-04   -0.77449E-04 13614   0.611E-02    0.411E-02
RMM:   9    -0.662146797463E+03   -0.50091E-04   -0.43639E-04 12377   0.366E-02    0.302E-02
RMM:  10    -0.662146844475E+03   -0.47012E-04   -0.25911E-04 12334   0.326E-02    0.223E-02
RMM:  11    -0.662146878769E+03   -0.34294E-04   -0.16696E-04 11352   0.251E-02    0.178E-02
RMM:  12    -0.662146903998E+03   -0.25228E-04   -0.13543E-04 11176   0.229E-02    0.118E-02
RMM:  13    -0.662146914666E+03   -0.10668E-04   -0.72723E-05  9919   0.206E-02    0.812E-03
RMM:  14    -0.662146919456E+03   -0.47899E-05   -0.44204E-05  8893   0.164E-02
  10 F= -.66214692E+03 E0= -.66207525E+03  d E =-.121008E+00
       N       E                     dE             d eps       ncg     rms          rms(c)
DAV:   1    -0.661952976617E+03    0.19394E+00   -0.32042E+01  9072   0.145E+01    0.105E+00
RMM:   2    -0.662289861724E+03   -0.33689E+00   -0.36285E+00 13820   0.489E+00    0.767E-01
RMM:   3    -0.662276510457E+03    0.13351E-01   -0.22908E-01 13407   0.146E+00    0.551E-01
RMM:   4    -0.662275533278E+03    0.97718E-03   -0.60627E-02 13152   0.756E-01    0.343E-01
RMM:   5    -0.662276982215E+03   -0.14489E-02   -0.37626E-02 13460   0.325E-01    0.262E-01
RMM:   6    -0.662276636643E+03    0.34557E-03   -0.15098E-02 13441   0.259E-01    0.116E-01
RMM:   7    -0.662277211598E+03   -0.57496E-03   -0.80683E-03 14030   0.148E-01    0.945E-02
RMM:   8    -0.662277376121E+03   -0.16452E-03   -0.39782E-03 13728   0.973E-02    0.526E-02
RMM:   9    -0.662277547001E+03   -0.17088E-03   -0.22525E-03 12758   0.725E-02    0.332E-02
RMM:  10    -0.662277641131E+03   -0.94130E-04   -0.11564E-03 12140   0.535E-02    0.220E-02
RMM:  11    -0.662277704996E+03   -0.63865E-04   -0.72648E-04 11537   0.400E-02    0.160E-02
RMM:  12    -0.662277747610E+03   -0.42614E-04   -0.44675E-04 11414   0.330E-02    0.912E-03
RMM:  13    -0.662277772197E+03   -0.24587E-04   -0.27946E-04 10879   0.264E-02    0.488E-03
RMM:  14    -0.662277786911E+03   -0.14714E-04   -0.17463E-04 10315   0.220E-02    0.339E-03
RMM:  15    -0.662277795284E+03   -0.83725E-05   -0.10636E-04  9632   0.185E-02    0.214E-03
RMM:  16    -0.662277800242E+03   -0.49584E-05   -0.66867E-05  9173   0.167E-02
  11 F= -.66227780E+03 E0= -.66220483E+03  d E =-.130881E+00
       N       E                     dE             d eps       ncg     rms          rms(c)
DAV:   1    -0.662029985376E+03    0.24781E+00   -0.28781E+01  9072   0.138E+01    0.998E-01
RMM:   2    -0.662333385522E+03   -0.30340E+00   -0.32791E+00 13817   0.464E+00    0.720E-01
RMM:   3    -0.662321406382E+03    0.11979E-01   -0.20788E-01 13383   0.139E+00    0.522E-01
RMM:   4    -0.662320641920E+03    0.76446E-03   -0.55594E-02 13164   0.725E-01    0.325E-01
RMM:   5    -0.662322087800E+03   -0.14459E-02   -0.34900E-02 13432   0.313E-01    0.254E-01
RMM:   6    -0.662321787087E+03    0.30071E-03   -0.14070E-02 13443   0.249E-01    0.116E-01
RMM:   7    -0.662322310074E+03   -0.52299E-03   -0.75700E-03 14123   0.143E-01    0.909E-02
RMM:   8    -0.662322460216E+03   -0.15014E-03   -0.37962E-03 13690   0.946E-02    0.453E-02
RMM:   9    -0.662322629866E+03   -0.16965E-03   -0.21067E-03 12825   0.710E-02    0.300E-02
RMM:  10    -0.662322721064E+03   -0.91198E-04   -0.11129E-03 12090   0.519E-02    0.198E-02
RMM:  11    -0.662322783506E+03   -0.62442E-04   -0.70222E-04 11533   0.392E-02    0.148E-02
RMM:  12    -0.662322824039E+03   -0.40534E-04   -0.42852E-04 11300   0.324E-02    0.823E-03
RMM:  13    -0.662322848068E+03   -0.24028E-04   -0.27271E-04 10809   0.262E-02    0.416E-03
RMM:  14    -0.662322862886E+03   -0.14818E-04   -0.17529E-04 10280   0.220E-02    0.319E-03
RMM:  15    -0.662322871392E+03   -0.85067E-05   -0.10735E-04  9602   0.184E-02    0.214E-03
RMM:  16    -0.662322876222E+03   -0.48296E-05   -0.65373E-05  9112   0.165E-02
  12 F= -.66232288E+03 E0= -.66224834E+03  d E =-.175957E+00
       N       E                     dE             d eps       ncg     rms          rms(c)
DAV:   1    -0.662267438837E+03    0.55433E-01   -0.22037E+01  9408   0.116E+01    0.113E+00
RMM:   2    -0.662433804016E+03   -0.16637E+00   -0.19748E+00 13761   0.373E+00    0.750E-01
RMM:   3    -0.662427089014E+03    0.67150E-02   -0.15153E-01 13173   0.119E+00    0.635E-01
RMM:   4    -0.662420685559E+03    0.64035E-02   -0.39570E-02 13048   0.692E-01    0.304E-01
RMM:   5    -0.662422335731E+03   -0.16502E-02   -0.31184E-02 13592   0.256E-01    0.259E-01
RMM:   6    -0.662421415087E+03    0.92064E-03   -0.98215E-03 13705   0.207E-01    0.929E-02
RMM:   7    -0.662421808036E+03   -0.39295E-03   -0.61736E-03 13393   0.110E-01    0.577E-02
RMM:   8    -0.662421965606E+03   -0.15757E-03   -0.27321E-03 12642   0.851E-02    0.326E-02
RMM:   9    -0.662422112576E+03   -0.14697E-03   -0.17589E-03 11901   0.563E-02    0.236E-02
RMM:  10    -0.662422184776E+03   -0.72200E-04   -0.91632E-04 11377   0.451E-02    0.156E-02
RMM:  11    -0.662422234887E+03   -0.50110E-04   -0.57589E-04 11298   0.337E-02    0.986E-03
RMM:  12    -0.662422265962E+03   -0.31075E-04   -0.36101E-04 10958   0.284E-02    0.570E-03
RMM:  13    -0.662422284630E+03   -0.18668E-04   -0.22386E-04 10348   0.224E-02    0.349E-03
RMM:  14    -0.662422296305E+03   -0.11675E-04   -0.14258E-04  9929   0.196E-02    0.236E-03
RMM:  15    -0.662422302651E+03   -0.63467E-05   -0.81788E-05  9133   0.162E-02
  13 F= -.66242230E+03 E0= -.66234698E+03  d E =-.994264E-01
       N       E                     dE             d eps       ncg     rms          rms(c)
DAV:   1    -0.662204018017E+03    0.21828E+00   -0.39423E+01  9408   0.155E+01    0.152E+00
RMM:   2    -0.662501260570E+03   -0.29724E+00   -0.35394E+00 13740   0.499E+00    0.997E-01
RMM:   3    -0.662489611286E+03    0.11649E-01   -0.27520E-01 13155   0.160E+00    0.850E-01
RMM:   4    -0.662477970896E+03    0.11640E-01   -0.71426E-02 13041   0.934E-01    0.400E-01
RMM:   5    -0.662480649676E+03   -0.26788E-02   -0.56060E-02 13601   0.345E-01    0.318E-01
RMM:   6    -0.662479330646E+03    0.13190E-02   -0.17550E-02 13697   0.281E-01    0.109E-01
RMM:   7    -0.662480142463E+03   -0.81182E-03   -0.11270E-02 13758   0.146E-01    0.774E-02
RMM:   8    -0.662480424089E+03   -0.28163E-03   -0.49379E-03 13465   0.114E-01    0.406E-02
RMM:   9    -0.662480690896E+03   -0.26681E-03   -0.31535E-03 12468   0.736E-02    0.303E-02
RMM:  10    -0.662480825813E+03   -0.13492E-03   -0.16978E-03 11901   0.596E-02    0.189E-02
RMM:  11    -0.662480917029E+03   -0.91216E-04   -0.10525E-03 11612   0.434E-02    0.114E-02
RMM:  12    -0.662480972789E+03   -0.55760E-04   -0.65244E-04 11332   0.369E-02    0.683E-03
RMM:  13    -0.662481005569E+03   -0.32780E-04   -0.39393E-04 10820   0.280E-02    0.469E-03
RMM:  14    -0.662481027866E+03   -0.22297E-04   -0.26308E-04 10654   0.242E-02    0.308E-03
RMM:  15    -0.662481040509E+03   -0.12644E-04   -0.15612E-04  9874   0.192E-02    0.158E-03
RMM:  16    -0.662481048363E+03   -0.78531E-05   -0.98819E-05  9467   0.173E-02
  14 F= -.66248105E+03 E0= -.66240593E+03  d E =-.158172E+00
       N       E                     dE             d eps       ncg     rms          rms(c)
DAV:   1    -0.662454653779E+03    0.26387E-01   -0.20902E+01  9624   0.130E+01    0.183E+00
RMM:   2    -0.662597745506E+03   -0.14309E+00   -0.22953E+00 13331   0.441E+00    0.132E+00
RMM:   3    -0.662569293676E+03    0.28452E-01   -0.26102E-01 13494   0.166E+00    0.945E-01
RMM:   4    -0.662558540754E+03    0.10753E-01   -0.80996E-02 13594   0.718E-01    0.526E-01
RMM:   5    -0.662555848152E+03    0.26926E-02   -0.31048E-02 13248   0.482E-01    0.315E-01
RMM:   6    -0.662555053282E+03    0.79487E-03   -0.14619E-02 13794   0.260E-01    0.140E-01
RMM:   7    -0.662555198395E+03   -0.14511E-03   -0.64596E-03 14210   0.152E-01    0.872E-02
RMM:   8    -0.662555340256E+03   -0.14186E-03   -0.33540E-03 14503   0.930E-02    0.503E-02
RMM:   9    -0.662555462314E+03   -0.12206E-03   -0.17651E-03 13550   0.661E-02    0.357E-02
RMM:  10    -0.662555550731E+03   -0.88417E-04   -0.11044E-03 13014   0.502E-02    0.267E-02
RMM:  11    -0.662555600256E+03   -0.49525E-04   -0.66575E-04 12366   0.400E-02    0.187E-02
RMM:  12    -0.662555632729E+03   -0.32473E-04   -0.42399E-04 11759   0.327E-02    0.144E-02
RMM:  13    -0.662555650090E+03   -0.17361E-04   -0.26406E-04 11231   0.273E-02    0.623E-03
RMM:  14    -0.662555661531E+03   -0.11441E-04   -0.16705E-04 10644   0.223E-02    0.355E-03
RMM:  15    -0.662555668139E+03   -0.66080E-05   -0.95693E-05  9763   0.190E-02
  15 F= -.66255567E+03 E0= -.66248157E+03  d E =-.746198E-01
       N       E                     dE             d eps       ncg     rms          rms(c)
DAV:   1    -0.662548913843E+03    0.67477E-02   -0.28199E+00 10080   0.477E+00    0.670E-01
RMM:   2    -0.662567982608E+03   -0.19069E-01   -0.30801E-01 13362   0.161E+00    0.479E-01
RMM:   3    -0.662564180812E+03    0.38018E-02   -0.34880E-02 13482   0.604E-01    0.345E-01
RMM:   4    -0.662562692012E+03    0.14888E-02   -0.11014E-02 13563   0.267E-01    0.188E-01
RMM:   5    -0.662562377621E+03    0.31439E-03   -0.43669E-03 13214   0.179E-01    0.113E-01
RMM:   6    -0.662562282877E+03    0.94744E-04   -0.20760E-03 13792   0.968E-02    0.509E-02
RMM:   7    -0.662562303897E+03   -0.21019E-04   -0.95060E-04 13142   0.564E-02    0.313E-02
RMM:   8    -0.662562322192E+03   -0.18295E-04   -0.49038E-04 12125   0.384E-02    0.187E-02
RMM:   9    -0.662562336204E+03   -0.14012E-04   -0.26551E-04 11198   0.289E-02    0.130E-02
RMM:  10    -0.662562345908E+03   -0.97042E-05   -0.16827E-04 10664   0.239E-02    0.917E-03
RMM:  11    -0.662562351632E+03   -0.57238E-05   -0.11206E-04 10130   0.207E-02    0.634E-03
RMM:  12    -0.662562354928E+03   -0.32960E-05   -0.62950E-05  9055   0.180E-02
  16 F= -.66256235E+03 E0= -.66248882E+03  d E =-.813066E-01
       N       E                     dE             d eps       ncg     rms          rms(c)
DAV:   1    -0.662557927568E+03    0.44241E-02   -0.11218E+01  9408   0.947E+00    0.122E+00
RMM:   2    -0.662641694290E+03   -0.83767E-01   -0.11539E+00 13568   0.291E+00    0.987E-01
RMM:   3    -0.662624172594E+03    0.17522E-01   -0.11499E-01 13367   0.115E+00    0.640E-01
RMM:   4    -0.662618557598E+03    0.56150E-02   -0.41002E-02 13587   0.507E-01    0.354E-01
RMM:   5    -0.662616956350E+03    0.16012E-02   -0.16617E-02 13290   0.340E-01    0.168E-01
RMM:   6    -0.662617117066E+03   -0.16072E-03   -0.85695E-03 13836   0.177E-01    0.752E-02
RMM:   7    -0.662617318426E+03   -0.20136E-03   -0.38477E-03 13812   0.102E-01    0.491E-02
RMM:   8    -0.662617478249E+03   -0.15982E-03   -0.21368E-03 12564   0.688E-02    0.321E-02
RMM:   9    -0.662617586210E+03   -0.10796E-03   -0.12524E-03 11960   0.542E-02    0.212E-02
RMM:  10    -0.662617655986E+03   -0.69776E-04   -0.74944E-04 11613   0.415E-02    0.138E-02
RMM:  11    -0.662617699968E+03   -0.43982E-04   -0.47546E-04 11394   0.340E-02    0.956E-03
RMM:  12    -0.662617724917E+03   -0.24949E-04   -0.28658E-04 11051   0.273E-02    0.689E-03
RMM:  13    -0.662617741065E+03   -0.16148E-04   -0.18319E-04 10443   0.221E-02    0.400E-03
RMM:  14    -0.662617749677E+03   -0.86122E-05   -0.10170E-04  9847   0.185E-02    0.196E-03
RMM:  15    -0.662617755017E+03   -0.53395E-05   -0.64981E-05  9120   0.157E-02
  17 F= -.66261776E+03 E0= -.66254622E+03  d E =-.554001E-01
       N       E                     dE             d eps       ncg     rms          rms(c)
DAV:   1    -0.662597413142E+03    0.20337E-01   -0.64055E+00  9408   0.716E+00    0.921E-01
RMM:   2    -0.662645032542E+03   -0.47619E-01   -0.66035E-01 13586   0.220E+00    0.733E-01
RMM:   3    -0.662635215347E+03    0.98172E-02   -0.65458E-02 13387   0.866E-01    0.478E-01
RMM:   4    -0.662632107202E+03    0.31081E-02   -0.23431E-02 13603   0.383E-01    0.262E-01
RMM:   5    -0.662631289438E+03    0.81776E-03   -0.95845E-03 13300   0.255E-01    0.130E-01
RMM:   6    -0.662631394071E+03   -0.10463E-03   -0.49721E-03 13863   0.135E-01    0.603E-02
RMM:   7    -0.662631513453E+03   -0.11938E-03   -0.23018E-03 13315   0.794E-02    0.379E-02
RMM:   8    -0.662631611214E+03   -0.97761E-04   -0.12735E-03 12003   0.545E-02    0.246E-02
RMM:   9    -0.662631677948E+03   -0.66733E-04   -0.74840E-04 11724   0.435E-02    0.161E-02
RMM:  10    -0.662631722205E+03   -0.44257E-04   -0.45633E-04 11342   0.332E-02    0.105E-02
RMM:  11    -0.662631749028E+03   -0.26823E-04   -0.28756E-04 11069   0.283E-02    0.707E-03
RMM:  12    -0.662631763717E+03   -0.14689E-04   -0.16857E-04 10416   0.221E-02    0.504E-03
RMM:  13    -0.662631772900E+03   -0.91830E-05   -0.10574E-04  9839   0.185E-02    0.280E-03
RMM:  14    -0.662631777316E+03   -0.44160E-05   -0.54951E-05  9078   0.159E-02
  18 F= -.66263178E+03 E0= -.66256177E+03  d E =-.694224E-01
       N       E                     dE             d eps       ncg     rms          rms(c)
DAV:   1    -0.662589939555E+03    0.41833E-01   -0.91072E+00  9408   0.827E+00    0.603E-01
RMM:   2    -0.662676346085E+03   -0.86407E-01   -0.96430E-01 13711   0.254E+00    0.378E-01
RMM:   3    -0.662672765324E+03    0.35808E-02   -0.64046E-02 13096   0.897E-01    0.287E-01
RMM:   4    -0.662672905925E+03   -0.14060E-03   -0.21679E-02 13854   0.373E-01    0.177E-01
RMM:   5    -0.662673067096E+03   -0.16117E-03   -0.90455E-03 13335   0.197E-01    0.116E-01
RMM:   6    -0.662673123113E+03   -0.56017E-04   -0.48892E-03 13676   0.123E-01    0.434E-02
RMM:   7    -0.662673242420E+03   -0.11931E-03   -0.19804E-03 13295   0.835E-02    0.285E-02
RMM:   8    -0.662673348925E+03   -0.10651E-03   -0.13508E-03 11933   0.506E-02    0.207E-02
RMM:   9    -0.662673391793E+03   -0.42868E-04   -0.63932E-04 11670   0.410E-02    0.144E-02
RMM:  10    -0.662673424579E+03   -0.32786E-04   -0.42176E-04 11170   0.317E-02    0.929E-03
RMM:  11    -0.662673442595E+03   -0.18016E-04   -0.24538E-04 10909   0.258E-02    0.644E-03
RMM:  12    -0.662673453169E+03   -0.10574E-04   -0.14867E-04 10119   0.212E-02    0.341E-03
RMM:  13    -0.662673459769E+03   -0.65999E-05   -0.87698E-05  9605   0.178E-02
  19 F= -.66267346E+03 E0= -.66260435E+03  d E =-.416825E-01
       N       E                     dE             d eps       ncg     rms          rms(c)
DAV:   1    -0.662575944404E+03    0.97509E-01   -0.12861E+01  9408   0.983E+00    0.716E-01
RMM:   2    -0.662697825433E+03   -0.12188E+00   -0.13611E+00 13700   0.302E+00    0.445E-01
RMM:   3    -0.662692951050E+03    0.48744E-02   -0.91887E-02 13115   0.108E+00    0.341E-01
RMM:   4    -0.662693181211E+03   -0.23016E-03   -0.30794E-02 13837   0.444E-01    0.209E-01
RMM:   5    -0.662693440384E+03   -0.25917E-03   -0.13039E-02 13352   0.235E-01    0.137E-01
RMM:   6    -0.662693535811E+03   -0.95428E-04   -0.69589E-03 13666   0.147E-01    0.526E-02
RMM:   7    -0.662693714682E+03   -0.17887E-03   -0.28787E-03 13615   0.996E-02    0.337E-02
RMM:   8    -0.662693867819E+03   -0.15314E-03   -0.19196E-03 12461   0.599E-02    0.263E-02
RMM:   9    -0.662693934173E+03   -0.66355E-04   -0.94862E-04 12014   0.487E-02    0.170E-02
RMM:  10    -0.662693983900E+03   -0.49727E-04   -0.62450E-04 11426   0.364E-02    0.112E-02
RMM:  11    -0.662694011444E+03   -0.27544E-04   -0.36528E-04 11324   0.307E-02    0.712E-03
RMM:  12    -0.662694028518E+03   -0.17074E-04   -0.22762E-04 10632   0.242E-02    0.371E-03
RMM:  13    -0.662694039517E+03   -0.10999E-04   -0.13815E-04 10049   0.203E-02    0.294E-03
RMM:  14    -0.662694045255E+03   -0.57384E-05   -0.77610E-05  9435   0.169E-02
  20 F= -.66269405E+03 E0= -.66262604E+03  d E =-.622679E-01
       N       E                     dE             d eps       ncg     rms          rms(c)
DAV:   1    -0.662659176714E+03    0.34863E-01   -0.92883E+00  9696   0.890E+00    0.123E+00
RMM:   2    -0.662744798428E+03   -0.85622E-01   -0.12040E+00 13422   0.313E+00    0.996E-01
RMM:   3    -0.662725583269E+03    0.19215E-01   -0.11797E-01 13473   0.117E+00    0.605E-01
RMM:   4    -0.662721873544E+03    0.37097E-02   -0.37537E-02 13580   0.458E-01    0.377E-01
RMM:   5    -0.662719960560E+03    0.19130E-02   -0.11899E-02 13155   0.339E-01    0.197E-01
RMM:   6    -0.662719836576E+03    0.12398E-03   -0.68323E-03 13617   0.167E-01    0.898E-02
RMM:   7    -0.662719880194E+03   -0.43618E-04   -0.25083E-03 14102   0.108E-01    0.489E-02
RMM:   8    -0.662719983529E+03   -0.10334E-03   -0.14091E-03 13435   0.562E-02    0.324E-02
RMM:   9    -0.662720052076E+03   -0.68547E-04   -0.68816E-04 12265   0.456E-02    0.224E-02
RMM:  10    -0.662720109606E+03   -0.57530E-04   -0.44976E-04 11547   0.321E-02    0.161E-02
RMM:  11    -0.662720146304E+03   -0.36697E-04   -0.28173E-04 11561   0.300E-02    0.968E-03
RMM:  12    -0.662720163448E+03   -0.17144E-04   -0.16685E-04 10799   0.231E-02    0.779E-03
RMM:  13    -0.662720173460E+03   -0.10012E-04   -0.10097E-04 10174   0.196E-02    0.494E-03
RMM:  14    -0.662720178040E+03   -0.45801E-05   -0.48246E-05  8783   0.156E-02
  21 F= -.66272018E+03 E0= -.66265340E+03  d E =-.261328E-01
       N       E                     dE             d eps       ncg     rms          rms(c)
DAV:   1    -0.662717624304E+03    0.25492E-02   -0.53817E-01 10224   0.214E+00    0.295E-01
RMM:   2    -0.662722656840E+03   -0.50325E-02   -0.70285E-02 13453   0.756E-01    0.240E-01
RMM:   3    -0.662721525478E+03    0.11314E-02   -0.69177E-03 13527   0.281E-01    0.143E-01
RMM:   4    -0.662721339744E+03    0.18573E-03   -0.22643E-03 13534   0.110E-01    0.892E-02
RMM:   5    -0.662721245028E+03    0.94716E-04   -0.74547E-04 13126   0.829E-02    0.463E-02
RMM:   6    -0.662721252273E+03   -0.72444E-05   -0.44648E-04 12985   0.415E-02    0.210E-02
RMM:   7    -0.662721260984E+03   -0.87116E-05   -0.17439E-04 11505   0.296E-02    0.120E-02
RMM:   8    -0.662721269575E+03   -0.85912E-05   -0.86877E-05  9948   0.196E-02
  22 F= -.66272127E+03 E0= -.66265479E+03  d E =-.272243E-01
       N       E                     dE             d eps       ncg     rms          rms(c)
DAV:   1    -0.662685183680E+03    0.36077E-01   -0.58372E+00  9408   0.676E+00    0.594E-01
RMM:   2    -0.662743807779E+03   -0.58624E-01   -0.68911E-01 13584   0.216E+00    0.374E-01
RMM:   3    -0.662740854370E+03    0.29534E-02   -0.48278E-02 13050   0.825E-01    0.278E-01
RMM:   4    -0.662740841172E+03    0.13198E-04   -0.17823E-02 14002   0.294E-01    0.161E-01
RMM:   5    -0.662740814245E+03    0.26927E-04   -0.53855E-03 13288   0.196E-01    0.108E-01
RMM:   6    -0.662740828170E+03   -0.13925E-04   -0.34979E-03 13529   0.101E-01    0.391E-02
RMM:   7    -0.662740898833E+03   -0.70663E-04   -0.13312E-03 13124   0.720E-02    0.254E-02
RMM:   8    -0.662740964008E+03   -0.65176E-04   -0.86154E-04 11862   0.425E-02    0.198E-02
RMM:   9    -0.662740993582E+03   -0.29574E-04   -0.44918E-04 11556   0.370E-02    0.118E-02
RMM:  10    -0.662741014951E+03   -0.21369E-04   -0.28857E-04 10890   0.265E-02    0.831E-03
RMM:  11    -0.662741026288E+03   -0.11337E-04   -0.16996E-04 10572   0.228E-02    0.508E-03
RMM:  12    -0.662741032318E+03   -0.60298E-05   -0.96456E-05  9597   0.187E-02
  23 F= -.66274103E+03 E0= -.66267524E+03  d E =-.197627E-01
       N       E                     dE             d eps       ncg     rms          rms(c)
DAV:   1    -0.662712258119E+03    0.28768E-01   -0.36530E+00  9408   0.535E+00    0.469E-01
RMM:   2    -0.662748962460E+03   -0.36704E-01   -0.43147E-01 13578   0.171E+00    0.293E-01
RMM:   3    -0.662747063949E+03    0.18985E-02   -0.30159E-02 13061   0.651E-01    0.218E-01
RMM:   4    -0.662747068896E+03   -0.49467E-05   -0.11183E-02 13975   0.234E-01    0.125E-01
RMM:   5    -0.662747063267E+03    0.56288E-05   -0.34444E-03 13268   0.153E-01    0.848E-02
RMM:   6    -0.662747079527E+03   -0.16260E-04   -0.22505E-03 13481   0.809E-02    0.315E-02
RMM:   7    -0.662747127003E+03   -0.47475E-04   -0.88807E-04 12611   0.580E-02    0.209E-02
RMM:   8    -0.662747167453E+03   -0.40450E-04   -0.55200E-04 11436   0.357E-02    0.160E-02
RMM:   9    -0.662747187995E+03   -0.20542E-04   -0.30989E-04 11279   0.312E-02    0.971E-03
RMM:  10    -0.662747200959E+03   -0.12964E-04   -0.18794E-04 10428   0.229E-02    0.678E-03
RMM:  11    -0.662747208225E+03   -0.72657E-05   -0.11602E-04  9928   0.201E-02    0.403E-03
RMM:  12    -0.662747211614E+03   -0.33894E-05   -0.64238E-05  9186   0.173E-02
  24 F= -.66274721E+03 E0= -.66268198E+03  d E =-.259420E-01
       N       E                     dE             d eps       ncg     rms          rms(c)
DAV:   1    -0.662745850069E+03    0.13582E-02   -0.16396E-01 10080   0.113E+00    0.990E-02
RMM:   2    -0.662747530310E+03   -0.16802E-02   -0.19688E-02 13594   0.361E-01    0.615E-02
RMM:   3    -0.662747429212E+03    0.10110E-03   -0.14133E-03 13118   0.137E-01    0.455E-02
RMM:   4    -0.662747433004E+03   -0.37915E-05   -0.55591E-04 13103   0.521E-02    0.257E-02
RMM:   5    -0.662747433671E+03   -0.66758E-06   -0.19199E-04 11555   0.386E-02    0.177E-02
RMM:   6    -0.662747434612E+03   -0.94096E-06   -0.12282E-04 10580   0.221E-02    0.684E-03
RMM:   7    -0.662747437885E+03   -0.32725E-05   -0.65108E-05  9572   0.173E-02
  25 F= -.66274744E+03 E0= -.66268233E+03  d E =-.261683E-01
       N       E                     dE             d eps       ncg     rms          rms(c)
DAV:   1    -0.662739251455E+03    0.81832E-02   -0.17901E+00  9408   0.375E+00    0.265E-01
RMM:   2    -0.662758907048E+03   -0.19656E-01   -0.21443E-01 13822   0.118E+00    0.171E-01
RMM:   3    -0.662758043231E+03    0.86382E-03   -0.13281E-02 13186   0.370E-01    0.125E-01
RMM:   4    -0.662758021659E+03    0.21572E-04   -0.36382E-03 12905   0.189E-01    0.774E-02
RMM:   5    -0.662758160390E+03   -0.13873E-03   -0.23381E-03 12823   0.780E-02    0.645E-02
RMM:   6    -0.662758149957E+03    0.10433E-04   -0.10180E-03 12965   0.651E-02    0.196E-02
RMM:   7    -0.662758188112E+03   -0.38155E-04   -0.50104E-04 11535   0.396E-02    0.161E-02
RMM:   8    -0.662758204905E+03   -0.16793E-04   -0.26144E-04 10779   0.275E-02    0.792E-03
RMM:   9    -0.662758219123E+03   -0.14218E-04   -0.16581E-04 10527   0.215E-02    0.558E-03
RMM:  10    -0.662758227127E+03   -0.80044E-05   -0.97994E-05  9812   0.179E-02
  26 F= -.66275823E+03 E0= -.66269360E+03  d E =-.107892E-01
       N       E                     dE             d eps       ncg     rms          rms(c)
DAV:   1    -0.662730400186E+03    0.27819E-01   -0.33431E+00  9408   0.513E+00    0.362E-01
RMM:   2    -0.662767193308E+03   -0.36793E-01   -0.40130E-01 13810   0.161E+00    0.231E-01
RMM:   3    -0.662765544377E+03    0.16489E-02   -0.25063E-02 13180   0.507E-01    0.169E-01
RMM:   4    -0.662765514615E+03    0.29763E-04   -0.68239E-03 13045   0.260E-01    0.105E-01
RMM:   5    -0.662765796197E+03   -0.28158E-03   -0.45526E-03 13027   0.106E-01    0.884E-02
RMM:   6    -0.662765778873E+03    0.17324E-04   -0.19426E-03 13250   0.891E-02    0.268E-02
RMM:   7    -0.662765852952E+03   -0.74079E-04   -0.97042E-04 12053   0.532E-02    0.219E-02
RMM:   8    -0.662765887520E+03   -0.34568E-04   -0.51954E-04 11222   0.374E-02    0.109E-02
RMM:   9    -0.662765915011E+03   -0.27491E-04   -0.31863E-04 11087   0.278E-02    0.782E-03
RMM:  10    -0.662765930942E+03   -0.15931E-04   -0.19044E-04 10641   0.232E-02    0.483E-03
RMM:  11    -0.662765939772E+03   -0.88300E-05   -0.10844E-04  9733   0.183E-02    0.310E-03
RMM:  12    -0.662765945227E+03   -0.54551E-05   -0.69492E-05  9115   0.167E-02
  27 F= -.66276595E+03 E0= -.66270195E+03  d E =-.185073E-01
       N       E                     dE             d eps       ncg     rms          rms(c)
DAV:   1    -0.662760336774E+03    0.56030E-02   -0.59622E-01  9792   0.217E+00    0.153E-01
RMM:   2    -0.662766949583E+03   -0.66128E-02   -0.72063E-02 13806   0.680E-01    0.981E-02
RMM:   3    -0.662766637917E+03    0.31167E-03   -0.46154E-03 13174   0.215E-01    0.710E-02
RMM:   4    -0.662766637772E+03    0.14523E-06   -0.12640E-03 12534   0.111E-01    0.442E-02
RMM:   5    -0.662766692583E+03   -0.54810E-04   -0.85471E-04 12113   0.503E-02    0.375E-02
RMM:   6    -0.662766694828E+03   -0.22452E-05   -0.39655E-04 12204   0.406E-02    0.114E-02
RMM:   7    -0.662766709772E+03   -0.14944E-04   -0.19770E-04 11034   0.262E-02    0.933E-03
RMM:   8    -0.662766716868E+03   -0.70962E-05   -0.10443E-04  9817   0.186E-02    0.464E-03
RMM:   9    -0.662766722230E+03   -0.53623E-05   -0.64985E-05  9435   0.161E-02
  28 F= -.66276672E+03 E0= -.66270299E+03  d E =-.192843E-01
       N       E                     dE             d eps       ncg     rms          rms(c)
DAV:   1    -0.662743100153E+03    0.23617E-01   -0.33461E+00  9408   0.504E+00    0.318E-01
RMM:   2    -0.662777299541E+03   -0.34199E-01   -0.36919E-01 13704   0.157E+00    0.197E-01
RMM:   3    -0.662776048218E+03    0.12513E-02   -0.22976E-02 13206   0.490E-01    0.144E-01
RMM:   4    -0.662776053857E+03   -0.56384E-05   -0.55151E-03 12620   0.254E-01    0.972E-02
RMM:   5    -0.662776276605E+03   -0.22275E-03   -0.44128E-03 12995   0.996E-02    0.616E-02
RMM:   6    -0.662776304355E+03   -0.27750E-04   -0.15230E-03 13180   0.727E-02    0.290E-02
RMM:   7    -0.662776354595E+03   -0.50240E-04   -0.75580E-04 11761   0.486E-02    0.183E-02
RMM:   8    -0.662776381706E+03   -0.27111E-04   -0.40735E-04 10898   0.317E-02    0.132E-02
RMM:   9    -0.662776402726E+03   -0.21020E-04   -0.26591E-04 10830   0.259E-02    0.781E-03
RMM:  10    -0.662776413556E+03   -0.10830E-04   -0.14414E-04 10068   0.206E-02    0.554E-03
RMM:  11    -0.662776421466E+03   -0.79095E-05   -0.99993E-05  9712   0.173E-02
  29 F= -.66277642E+03 E0= -.66271319E+03  d E =-.969924E-02
       N       E                     dE             d eps       ncg     rms          rms(c)
DAV:   1    -0.662764559555E+03    0.11854E-01   -0.14466E+00  9456   0.332E+00    0.209E-01
RMM:   2    -0.662779436271E+03   -0.14877E-01   -0.16040E-01 13696   0.103E+00    0.132E-01
RMM:   3    -0.662778855385E+03    0.58089E-03   -0.10240E-02 13170   0.323E-01    0.949E-02
RMM:   4    -0.662778855237E+03    0.14797E-06   -0.24319E-03 12450   0.170E-01    0.640E-02
RMM:   5    -0.662778965116E+03   -0.10988E-03   -0.20486E-03 12678   0.679E-02    0.406E-02
RMM:   6    -0.662778979473E+03   -0.14357E-04   -0.71147E-04 12634   0.508E-02    0.188E-02
RMM:   7    -0.662779004777E+03   -0.25303E-04   -0.37257E-04 11340   0.343E-02    0.118E-02
RMM:   8    -0.662779016666E+03   -0.11890E-04   -0.18484E-04 10128   0.233E-02    0.873E-03
RMM:   9    -0.662274217167E+03    0.50480E+00    0.50480E+00 10331   0.195E-02    0.363E-01
RMM:  10    -0.662526554515E+03   -0.25234E+00   -0.74225E-05  9409   0.179E-02    0.162E-01
RMM:  11    -0.662559345979E+03   -0.32791E-01   -0.16866E+00  8959   0.777E-02    0.116E-01
RMM:  12    -0.662650499093E+03   -0.91153E-01   -0.96742E-01  7765   0.407E-02    0.673E-02
RMM:  13    -0.662704709057E+03   -0.54210E-01   -0.59348E-01  7843   0.386E-02    0.371E-02
RMM:  14    -0.662737100163E+03   -0.32391E-01   -0.36061E-01  7593   0.290E-02    0.187E-02
RMM:  15    -0.662754701268E+03   -0.17601E-01   -0.20514E-01  7380   0.275E-02    0.909E-03
RMM:  16    -0.662764493490E+03   -0.97922E-02   -0.11530E-01  7264   0.219E-02    0.407E-03
RMM:  17    -0.662770828836E+03   -0.63353E-02   -0.74643E-02  7011   0.200E-02    0.354E-03
RMM:  18    -0.662773900300E+03   -0.30715E-02   -0.38628E-02  6636   0.174E-02    0.434E-03
RMM:  19    -0.662776052292E+03   -0.21520E-02   -0.25366E-02  6335   0.151E-02    0.507E-03
RMM:  20    -0.662777085712E+03   -0.10334E-02   -0.13168E-02  6218   0.136E-02    0.604E-03
RMM:  21    -0.662777858458E+03   -0.77275E-03   -0.90809E-03  6060   0.126E-02    0.562E-03
RMM:  22    -0.662778263696E+03   -0.40524E-03   -0.50786E-03  6189   0.117E-02    0.501E-03
RMM:  23    -0.662778567910E+03   -0.30421E-03   -0.35894E-03  6048   0.109E-02    0.495E-03
RMM:  24    -0.662778732378E+03   -0.16447E-03   -0.20560E-03  5672   0.101E-02    0.488E-03
RMM:  25    -0.662778851447E+03   -0.11907E-03   -0.14196E-03  5454   0.956E-03    0.514E-03
RMM:  26    -0.662778917889E+03   -0.66442E-04   -0.83201E-04  5362   0.903E-03    0.476E-03
RMM:  27    -0.662778964930E+03   -0.47041E-04   -0.56651E-04  5195   0.832E-03    0.489E-03
RMM:  28    -0.662778992250E+03   -0.27320E-04   -0.34169E-04  4818   0.807E-03    0.504E-03
RMM:  29    -0.662779010849E+03   -0.18599E-04   -0.23047E-04  5067   0.767E-03    0.457E-03
RMM:  30    -0.662779022078E+03   -0.11229E-04   -0.14305E-04  4795   0.729E-03    0.449E-03
RMM:  31    -0.662779029613E+03   -0.75345E-05   -0.96760E-05  4929   0.701E-03
  30 F= -.66277903E+03 E0= -.66271611E+03  d E =-.123074E-01
       N       E                     dE             d eps       ncg     rms          rms(c)
DAV:   1    -0.662777201210E+03    0.18209E-02   -0.20462E-01 10080   0.125E+00    0.790E-02
RMM:   2    -0.662779306724E+03   -0.21055E-02   -0.22693E-02 13689   0.389E-01    0.500E-02
RMM:   3    -0.662779220721E+03    0.86003E-04   -0.14420E-03 12942   0.122E-01    0.357E-02
RMM:   4    -0.662779219868E+03    0.85306E-06   -0.33846E-04 11574   0.640E-02    0.240E-02
RMM:   5    -0.662779232637E+03   -0.12769E-04   -0.25976E-04 11074   0.303E-02    0.153E-02
RMM:   6    -0.662779235533E+03   -0.28952E-05   -0.10553E-04 10550   0.232E-02    0.705E-03
RMM:   7    -0.662779239849E+03   -0.43168E-05   -0.64693E-05  9283   0.165E-02
  31 F= -.66277924E+03 E0= -.66271644E+03  d E =-.125176E-01
       N       E                     dE             d eps       ncg     rms          rms(c)
DAV:   1    -0.662767067116E+03    0.12168E-01   -0.22621E+00  9408   0.386E+00    0.280E-01
RMM:   2    -0.662785339698E+03   -0.18273E-01   -0.20009E-01 13714   0.119E+00    0.200E-01
RMM:   3    -0.662784566297E+03    0.77340E-03   -0.15141E-02 13166   0.372E-01    0.137E-01
RMM:   4    -0.662784482212E+03    0.84085E-04   -0.37242E-03 13116   0.195E-01    0.862E-02
RMM:   5    -0.662784625036E+03   -0.14282E-03   -0.27988E-03 13091   0.804E-02    0.586E-02
RMM:   6    -0.662784618878E+03    0.61577E-05   -0.10257E-03 13077   0.649E-02    0.208E-02
RMM:   7    -0.662784660120E+03   -0.41242E-04   -0.53494E-04 11579   0.379E-02    0.145E-02
RMM:   8    -0.662784679943E+03   -0.19823E-04   -0.26628E-04 10531   0.289E-02    0.895E-03
RMM:   9    -0.662784696982E+03   -0.17039E-04   -0.18615E-04 10481   0.214E-02    0.669E-03
RMM:  10    -0.662784705204E+03   -0.82227E-05   -0.98467E-05  9713   0.182E-02
  32 F= -.66278471E+03 E0= -.66272223E+03  d E =-.546536E-02
       N       E                     dE             d eps       ncg     rms          rms(c)
DAV:   1    -0.662781510221E+03    0.31868E-02   -0.52352E-01  9456   0.186E+00    0.135E-01
RMM:   2    -0.662785796212E+03   -0.42860E-02   -0.46796E-02 13708   0.574E-01    0.978E-02
RMM:   3    -0.662785603240E+03    0.19297E-03   -0.37205E-03 13144   0.181E-01    0.655E-02
RMM:   4    -0.662785591094E+03    0.12146E-04   -0.94142E-04 12776   0.962E-02    0.413E-02
RMM:   5    -0.662785632709E+03   -0.41615E-04   -0.72106E-04 12145   0.441E-02    0.286E-02
RMM:   6    -0.662785637049E+03   -0.43406E-05   -0.29807E-04 11687   0.350E-02    0.102E-02
RMM:   7    -0.662785649704E+03   -0.12655E-04   -0.16124E-04 10624   0.225E-02    0.728E-03
RMM:   8    -0.662785655546E+03   -0.58414E-05   -0.78794E-05  9339   0.179E-02
  33 F= -.66278566E+03 E0= -.66272335E+03  d E =-.641570E-02
       N       E                     dE             d eps       ncg     rms          rms(c)
DAV:   1    -0.662780367410E+03    0.52823E-02   -0.11043E+00  9456   0.293E+00    0.314E-01
RMM:   2    -0.662789725565E+03   -0.93582E-02   -0.11656E-01 13576   0.961E-01    0.244E-01
RMM:   3    -0.662788699806E+03    0.10258E-02   -0.10795E-02 13343   0.358E-01    0.159E-01
RMM:   4    -0.662788487454E+03    0.21235E-03   -0.35592E-03 13772   0.142E-01    0.944E-02
RMM:   5    -0.662788433850E+03    0.53604E-04   -0.12391E-03 13147   0.954E-02    0.621E-02
RMM:   6    -0.662788412785E+03    0.21065E-04   -0.74308E-04 13106   0.526E-02    0.277E-02
RMM:   7    -0.662788420332E+03   -0.75472E-05   -0.31989E-04 11818   0.342E-02    0.159E-02
RMM:   8    -0.662788427272E+03   -0.69392E-05   -0.17569E-04 10883   0.248E-02    0.930E-03
RMM:   9    -0.662788431035E+03   -0.37630E-05   -0.95386E-05  9980   0.194E-02
  34 F= -.66278843E+03 E0= -.66272622E+03  d E =-.277549E-02
       N       E                     dE             d eps       ncg     rms          rms(c)
DAV:   1    -0.662788266009E+03    0.16126E-03   -0.38361E-02 10128   0.545E-01    0.579E-02
RMM:   2    -0.662788604022E+03   -0.33801E-03   -0.41484E-03 13538   0.178E-01    0.455E-02
RMM:   3    -0.662788567239E+03    0.36783E-04   -0.42867E-04 13098   0.680E-02    0.285E-02
RMM:   4    -0.662788562738E+03    0.45010E-05   -0.16702E-04 12243   0.307E-02    0.164E-02
RMM:   5    -0.662788562126E+03    0.61176E-06   -0.72454E-05 10358   0.216E-02
  35 F= -.66278856E+03 E0= -.66272638E+03  d E =-.290658E-02
       N       E                     dE             d eps       ncg     rms          rms(c)
DAV:   1    -0.662786204585E+03    0.23582E-02   -0.61838E-01  9552   0.226E+00    0.269E-01
RMM:   2    -0.662791377643E+03   -0.51731E-02   -0.69042E-02 13555   0.739E-01    0.208E-01
RMM:   3    -0.662790560972E+03    0.81667E-03   -0.68734E-03 13484   0.280E-01    0.134E-01
RMM:   4    -0.662790424807E+03    0.13617E-03   -0.21960E-03 13674   0.115E-01    0.808E-02
RMM:   5    -0.662790379236E+03    0.45570E-04   -0.77759E-04 13046   0.765E-02    0.501E-02
RMM:   6    -0.662790379965E+03   -0.72920E-06   -0.46711E-04 12729   0.425E-02    0.198E-02
RMM:   7    -0.662790389587E+03   -0.96218E-05   -0.18652E-04 11425   0.293E-02    0.111E-02
RMM:   8    -0.662790399552E+03   -0.99650E-05   -0.10300E-04  9881   0.205E-02    0.717E-03
RMM:   9    -0.662790407599E+03   -0.80468E-05   -0.69319E-05  9650   0.175E-02
  36 F= -.66279041E+03 E0= -.66272842E+03  d E =-.184547E-02
       N       E                     dE             d eps       ncg     rms          rms(c)
DAV:   1    -0.662789925486E+03    0.47407E-03   -0.10623E-01 10080   0.937E-01    0.111E-01
RMM:   2    -0.662790825218E+03   -0.89973E-03   -0.11924E-02 13518   0.305E-01    0.847E-02
RMM:   3    -0.662790684382E+03    0.14084E-03   -0.12013E-03 13374   0.117E-01    0.531E-02
RMM:   4    -0.662790670088E+03    0.14294E-04   -0.41260E-04 13242   0.494E-02    0.311E-02
RMM:   5    -0.662790669552E+03    0.53615E-06   -0.15728E-04 11903   0.350E-02    0.199E-02
RMM:   6    -0.662790674446E+03   -0.48938E-05   -0.97124E-05 10758   0.198E-02
  37 F= -.66279067E+03 E0= -.66272879E+03  d E =-.211232E-02
       N       E                     dE             d eps       ncg     rms          rms(c)
DAV:   1    -0.662788557822E+03    0.21117E-02   -0.36747E-01  9408   0.168E+00    0.124E-01
RMM:   2    -0.662792157201E+03   -0.35994E-02   -0.40125E-02 13726   0.520E-01    0.796E-02
RMM:   3    -0.662792022477E+03    0.13472E-03   -0.28432E-03 13222   0.178E-01    0.636E-02
RMM:   4    -0.662792010906E+03    0.11571E-04   -0.84303E-04 12774   0.843E-02    0.372E-02
RMM:   5    -0.662792029912E+03   -0.19006E-04   -0.49394E-04 12241   0.447E-02    0.240E-02
RMM:   6    -0.662792032988E+03   -0.30763E-05   -0.20607E-04 11513   0.299E-02    0.110E-02
RMM:   7    -0.662792039146E+03   -0.61581E-05   -0.10489E-04 10416   0.205E-02    0.704E-03
RMM:   8    -0.662792041706E+03   -0.25591E-05   -0.54382E-05  9170   0.160E-02
  38 F= -.66279204E+03 E0= -.66273017E+03  d E =-.136726E-02
       N       E                     dE             d eps       ncg     rms          rms(c)
DAV:   1    -0.662791099809E+03    0.93934E-03   -0.15158E-01  9792   0.108E+00    0.797E-02
RMM:   2    -0.662792606291E+03   -0.15065E-02   -0.16713E-02 13720   0.334E-01    0.519E-02
RMM:   3    -0.662792541921E+03    0.64370E-04   -0.12206E-03 13107   0.115E-01    0.403E-02
RMM:   4    -0.662792538292E+03    0.36294E-05   -0.36558E-04 12325   0.561E-02    0.232E-02
RMM:   5    -0.662792546765E+03   -0.84737E-05   -0.20975E-04 11137   0.315E-02    0.164E-02
RMM:   6    -0.662792548758E+03   -0.19923E-05   -0.10395E-04 10764   0.230E-02    0.714E-03
RMM:   7    -0.662792551331E+03   -0.25733E-05   -0.49514E-05  8845   0.151E-02
  39 F= -.66279255E+03 E0= -.66273071E+03  d E =-.187689E-02
       N       E                     dE             d eps       ncg     rms          rms(c)
DAV:   1    -0.662786955960E+03    0.55928E-02   -0.60576E-01  9408   0.215E+00    0.160E-01
RMM:   2    -0.662792888583E+03   -0.59326E-02   -0.66070E-02 13726   0.666E-01    0.103E-01
RMM:   3    -0.662792653333E+03    0.23525E-03   -0.46237E-03 13222   0.229E-01    0.805E-02
RMM:   4    -0.662792632796E+03    0.20537E-04   -0.13656E-03 12994   0.108E-01    0.463E-02
RMM:   5    -0.662792663173E+03   -0.30377E-04   -0.79569E-04 12690   0.546E-02    0.299E-02
RMM:   6    -0.662792667664E+03   -0.44907E-05   -0.32566E-04 11927   0.370E-02    0.138E-02
RMM:   7    -0.662792678155E+03   -0.10492E-04   -0.16915E-04 11073   0.241E-02    0.894E-03
RMM:   8    -0.662792682882E+03   -0.47264E-05   -0.88423E-05  9738   0.191E-02
  40 F= -.66279268E+03 E0= -.66273091E+03  d E =-.200844E-02
       N       E                     dE             d eps       ncg     rms          rms(c)
DAV:   1    -0.662791603782E+03    0.10744E-02   -0.12927E-01  9696   0.993E-01    0.740E-02
RMM:   2    -0.662792820567E+03   -0.12168E-02   -0.13662E-02 13676   0.307E-01    0.471E-02
RMM:   3    -0.662792779262E+03    0.41305E-04   -0.84794E-04 12934   0.104E-01    0.366E-02
RMM:   4    -0.662792770544E+03    0.87181E-05   -0.23286E-04 11879   0.437E-02    0.210E-02
RMM:   5    -0.662792772341E+03   -0.17964E-05   -0.10594E-04 10803   0.264E-02    0.133E-02
RMM:   6    -0.662792771819E+03    0.52133E-06   -0.39382E-05  8024   0.159E-02
  41 F= -.66279277E+03 E0= -.66273096E+03  d E =-.209737E-02
       N       E                     dE             d eps       ncg     rms          rms(c)
DAV:   1    -0.662789280782E+03    0.34916E-02   -0.51713E-01  9408   0.198E+00    0.137E-01
RMM:   2    -0.662794173267E+03   -0.48925E-02   -0.53079E-02 13881   0.605E-01    0.104E-01
RMM:   3    -0.662793901038E+03    0.27223E-03   -0.35270E-03 13234   0.182E-01    0.649E-02
RMM:   4    -0.662793872937E+03    0.28101E-04   -0.76733E-04 11667   0.105E-01    0.390E-02
RMM:   5    -0.662793907769E+03   -0.34832E-04   -0.57645E-04 11971   0.419E-02    0.294E-02
RMM:   6    -0.662793906294E+03    0.14744E-05   -0.21099E-04 11724   0.349E-02    0.115E-02
RMM:   7    -0.662793915263E+03   -0.89684E-05   -0.12296E-04 10521   0.208E-02    0.813E-03
RMM:   8    -0.662793918990E+03   -0.37279E-05   -0.60784E-05  9562   0.161E-02
  42 F= -.66279392E+03 E0= -.66273206E+03  d E =-.114717E-02
       N       E                     dE             d eps       ncg     rms          rms(c)
DAV:   1    -0.662787555139E+03    0.63601E-02   -0.76225E-01  9408   0.241E+00    0.166E-01
RMM:   2    -0.662794863318E+03   -0.73082E-02   -0.79396E-02 13890   0.735E-01    0.123E-01
RMM:   3    -0.662794469890E+03    0.39343E-03   -0.56345E-03 13286   0.224E-01    0.791E-02
RMM:   4    -0.662794433869E+03    0.36021E-04   -0.12412E-03 12039   0.132E-01    0.476E-02
RMM:   5    -0.663005177910E+03   -0.21074E+00   -0.21078E+00 12253   0.516E-02    0.791E-01
RMM:   6    -0.660387725532E+03    0.26175E+01   -0.31570E-04 11411   0.425E-02    0.365E-01
RMM:   7    -0.660387360581E+03    0.36495E-03   -0.27625E-04 10862   0.255E-02    0.360E-01
RMM:   8    -0.660387236694E+03    0.12389E-03   -0.11799E-04 10428   0.196E-02    0.356E-01
RMM:   9    -0.660386771307E+03    0.46539E-03   -0.13732E-04 10699   0.192E-02    0.343E-01
RMM:  10    -0.660385516344E+03    0.12550E-02   -0.50099E-04 11975   0.321E-02    0.306E-01
RMM:  11    -0.660384071082E+03    0.14453E-02   -0.10927E-03 12221   0.490E-02    0.263E-01
RMM:  12    -0.660382656616E+03    0.14145E-02   -0.23201E-03 12369   0.677E-02    0.221E-01
RMM:  13    -0.660381987251E+03    0.66937E-03   -0.22451E-03 12326   0.744E-02    0.209E-01
RMM:  14    -0.660455578917E+03   -0.73592E-01   -0.37954E-03 12457   0.794E-02    0.423E-01
RMM:  15    -0.660842648123E+03   -0.38707E+00   -0.36012E+00  9391   0.252E-01    0.492E-01
RMM:  16    -0.661105619382E+03   -0.26297E+00   -0.30705E+00  9955   0.129E-01    0.511E-01
RMM:  17    -0.661658679958E+03   -0.55306E+00   -0.59300E+00  8119   0.338E-01    0.506E-01
RMM:  18    -0.662423066181E+03   -0.76439E+00   -0.80500E+00  6700   0.231E-01    0.439E-01
RMM:  19    -0.662613982875E+03   -0.19092E+00   -0.20671E+00 10268   0.257E-01    0.395E-01
RMM:  20    -0.662746922858E+03   -0.13294E+00   -0.13328E+00 10303   0.935E-02    0.348E-01
RMM:  21    -0.662757850192E+03   -0.10927E-01   -0.20228E-01  8806   0.138E-01    0.332E-01
RMM:  22    -0.662783175633E+03   -0.25325E-01   -0.25999E-01 10658   0.494E-02    0.294E-01
RMM:  23    -0.662789102367E+03   -0.59267E-02   -0.77907E-02 10745   0.458E-02    0.259E-01
RMM:  24    -0.662791506971E+03   -0.24046E-02   -0.37777E-02 11871   0.602E-02    0.185E-01
RMM:  25    -0.662792545746E+03   -0.10388E-02   -0.20486E-02 11988   0.765E-02    0.961E-02
RMM:  26    -0.662793463108E+03   -0.91736E-03   -0.11005E-02 10450   0.633E-02    0.664E-02
RMM:  27    -0.662794096547E+03   -0.63344E-03   -0.55209E-03  9223   0.288E-02    0.746E-02
RMM:  28    -0.662794435766E+03   -0.33922E-03   -0.30117E-03  6944   0.175E-02    0.805E-02
RMM:  29    -0.662794605372E+03   -0.16961E-03   -0.15833E-03  5818   0.122E-02    0.832E-02
RMM:  30    -0.662794609880E+03   -0.45085E-05   -0.91105E-04  6512   0.127E-02    0.723E-02
RMM:  31    -0.662794513112E+03    0.96768E-04   -0.77456E-04 10924   0.235E-02    0.358E-02
RMM:  32    -0.662794516782E+03   -0.36696E-05   -0.38172E-04  9241   0.250E-02    0.224E-02
RMM:  33    -0.662794530659E+03   -0.13877E-04   -0.23749E-04  8410   0.153E-02    0.156E-02
RMM:  34    -0.662794537300E+03   -0.66411E-05   -0.11000E-04  6291   0.150E-02    0.127E-02
RMM:  35    -0.662794542786E+03   -0.54860E-05   -0.52797E-05  5327   0.114E-02
  43 F= -.66279454E+03 E0= -.66273266E+03  d E =-.177097E-02
       N       E                     dE             d eps       ncg     rms          rms(c)
DAV:   1    -0.662791618083E+03    0.29192E-02   -0.44400E-01  9408   0.184E+00    0.137E-01
RMM:   2    -0.662795762469E+03   -0.41444E-02   -0.45710E-02 13878   0.554E-01    0.100E-01
RMM:   3    -0.662795545419E+03    0.21705E-03   -0.32638E-03 13063   0.173E-01    0.665E-02
RMM:   4    -0.662795502461E+03    0.42958E-04   -0.75655E-04 11977   0.101E-01    0.381E-02
RMM:   5    -0.662795539372E+03   -0.36911E-04   -0.60967E-04 12057   0.435E-02    0.287E-02
RMM:   6    -0.662795538199E+03    0.11730E-05   -0.22397E-04 11745   0.347E-02    0.110E-02
RMM:   7    -0.662795547384E+03   -0.91854E-05   -0.12540E-04 10424   0.208E-02    0.772E-03
RMM:   8    -0.662795551863E+03   -0.44788E-05   -0.67329E-05  9805   0.166E-02
  44 F= -.66279555E+03 E0= -.66273356E+03  d E =-.100908E-02
       N       E                     dE             d eps       ncg     rms          rms(c)
DAV:   1    -0.662793420262E+03    0.21271E-02   -0.26797E-01  9504   0.143E+00    0.106E-01
RMM:   2    -0.662795959914E+03   -0.25397E-02   -0.27969E-02 13874   0.431E-01    0.759E-02
RMM:   3    -0.662795828037E+03    0.13188E-03   -0.21378E-03 13016   0.136E-01    0.515E-02
RMM:   4    -0.662795804848E+03    0.23189E-04   -0.50906E-04 11935   0.814E-02    0.293E-02
RMM:   5    -0.662795833004E+03   -0.28155E-04   -0.42616E-04 11589   0.369E-02    0.222E-02
RMM:   6    -0.662795835863E+03   -0.28592E-05   -0.17739E-04 11388   0.296E-02    0.838E-03
RMM:   7    -0.662795843111E+03   -0.72478E-05   -0.98783E-05  9988   0.187E-02
  45 F= -.66279584E+03 E0= -.66273377E+03  d E =-.130032E-02
       N       E                     dE             d eps       ncg     rms          rms(c)
DAV:   1    -0.662791159264E+03    0.46766E-02   -0.56950E-01  9336   0.217E+00    0.180E-01
RMM:   2    -0.662796950856E+03   -0.57916E-02   -0.65880E-02 13715   0.661E-01    0.129E-01
RMM:   3    -0.662796639232E+03    0.31162E-03   -0.52647E-03 13342   0.242E-01    0.884E-02
RMM:   4    -0.662796626208E+03    0.13023E-04   -0.17579E-03 13647   0.104E-01    0.515E-02
RMM:   5    -0.662796634909E+03   -0.87007E-05   -0.68574E-04 12801   0.587E-02    0.343E-02
RMM:   6    -0.662796640187E+03   -0.52774E-05   -0.39345E-04 12027   0.402E-02    0.160E-02
RMM:   7    -0.662796648343E+03   -0.81569E-05   -0.17758E-04 11468   0.266E-02    0.923E-03
RMM:   8    -0.662796653438E+03   -0.50948E-05   -0.93547E-05  9899   0.196E-02
  46 F= -.66279665E+03 E0= -.66273437E+03  d E =-.810328E-03
       N       E                     dE             d eps       ncg     rms          rms(c)
DAV:   1    -0.662796547520E+03    0.10082E-03   -0.14620E-02 10080   0.348E-01    0.288E-02
RMM:   2    -0.662796710660E+03   -0.16314E-03   -0.18232E-03 13690   0.107E-01    0.215E-02
RMM:   3    -0.662796701856E+03    0.88041E-05   -0.19000E-04 12085   0.413E-02    0.140E-02
RMM:   4    -0.662796703302E+03   -0.14459E-05   -0.78660E-05 10614   0.221E-02
  47 F= -.66279670E+03 E0= -.66273439E+03  d E =-.860191E-03
       N       E                     dE             d eps       ncg     rms          rms(c)
DAV:   1    -0.662794385974E+03    0.23159E-02   -0.35667E-01  9648   0.182E+00    0.243E-01
RMM:   2    -0.662797825796E+03   -0.34398E-02   -0.48691E-02 13498   0.606E-01    0.183E-01
RMM:   3    -0.662797176613E+03    0.64918E-03   -0.49992E-03 13480   0.229E-01    0.116E-01
RMM:   4    -0.662797053059E+03    0.12355E-03   -0.16327E-03 13538   0.988E-02    0.655E-02
RMM:   5    -0.662797034889E+03    0.18170E-04   -0.57588E-04 13036   0.654E-02    0.435E-02
RMM:   6    -0.662797031469E+03    0.34195E-05   -0.31110E-04 12252   0.362E-02    0.163E-02
RMM:   7    -0.662797041079E+03   -0.96098E-05   -0.14019E-04 11198   0.256E-02    0.941E-03
RMM:   8    -0.662797047985E+03   -0.69057E-05   -0.68965E-05  9502   0.188E-02
  48 F= -.66279705E+03 E0= -.66273468E+03  d E =-.344683E-03
       N       E                     dE             d eps       ncg     rms          rms(c)
DAV:   1    -0.662796995142E+03    0.45937E-04   -0.16027E-02 10080   0.386E-01    0.523E-02
RMM:   2    -0.662797145777E+03   -0.15064E-03   -0.21585E-03 13209   0.127E-01    0.391E-02
RMM:   3    -0.662797114176E+03    0.31601E-04   -0.20352E-04 11738   0.496E-02    0.265E-02
RMM:   4    -0.662797105785E+03    0.83909E-05   -0.69605E-05  9148   0.220E-02
  49 F= -.66279711E+03 E0= -.66273474E+03  d E =-.402483E-03
       N       E                     dE             d eps       ncg     rms          rms(c)
DAV:   1    -0.662796138977E+03    0.97520E-03   -0.11463E-01  9552   0.967E-01    0.713E-02
RMM:   2    -0.662797383691E+03   -0.12447E-02   -0.13641E-02 13874   0.289E-01    0.488E-02
RMM:   3    -0.662797324930E+03    0.58760E-04   -0.91738E-04 12962   0.911E-02    0.347E-02
RMM:   4    -0.662797316761E+03    0.81690E-05   -0.22560E-04 11363   0.493E-02    0.184E-02
RMM:   5    -0.662797322058E+03   -0.52971E-05   -0.11995E-04 10191   0.247E-02    0.148E-02
RMM:   6    -0.662797323024E+03   -0.96534E-06   -0.72815E-05 10374   0.214E-02
  50 F= -.66279732E+03 E0= -.66273488E+03  d E =-.217239E-03
       N       E                     dE             d eps       ncg     rms          rms(c)
DAV:   1    -0.662796784646E+03    0.53741E-03   -0.56703E-02  9840   0.680E-01    0.493E-02
RMM:   2    -0.662797425431E+03   -0.64078E-03   -0.70223E-03 13889   0.205E-01    0.300E-02
RMM:   3    -0.662797401788E+03    0.23642E-04   -0.54879E-04 12693   0.666E-02    0.230E-02
RMM:   4    -0.662797401720E+03    0.68314E-07   -0.15296E-04 11192   0.383E-02    0.130E-02
RMM:   5    -0.662797405903E+03   -0.41832E-05   -0.80202E-05  9567   0.198E-02
  51 F= -.66279741E+03 E0= -.66273490E+03  d E =-.300118E-03
       N       E                     dE             d eps       ncg     rms          rms(c)
DAV:   1    -0.662797683334E+03   -0.28161E-03   -0.17954E-02 11784   0.448E-01    0.944E-02
RMM:   2    -0.662797701605E+03   -0.18271E-04   -0.24085E-03 13223   0.142E-01    0.690E-02
RMM:   3    -0.662797596341E+03    0.10526E-03   -0.42463E-04 13601   0.543E-02    0.472E-02
RMM:   4    -0.662797553339E+03    0.43002E-04   -0.13561E-04 12307   0.378E-02    0.251E-02
RMM:   5    -0.662797543160E+03    0.10179E-04   -0.69538E-05 10738   0.201E-02    0.136E-02
RMM:   6    -0.662797537579E+03    0.55807E-05   -0.16164E-05  5575   0.170E-02
  52 F= -.66279754E+03 E0= -.66273500E+03  d E =-.131676E-03
       N       E                     dE             d eps       ncg     rms          rms(c)
DAV:   1    -0.662797537307E+03    0.58529E-05   -0.26649E-05  8880   0.187E-02    0.482E-03
RMM:   2    -0.662797536762E+03    0.54479E-06   -0.83393E-06  5147   0.114E-02
  53 F= -.66279754E+03 E0= -.66273500E+03  d E =-.130859E-03
       N       E                     dE             d eps       ncg     rms          rms(c)
DAV:   1    -0.662797543075E+03   -0.57683E-05   -0.69211E-03  9744   0.235E-01    0.258E-02
RMM:   2    -0.662797606431E+03   -0.63356E-04   -0.81434E-04 13523   0.765E-02    0.188E-02
RMM:   3    -0.662797597194E+03    0.92374E-05   -0.75578E-05 10964   0.305E-02
  54 F= -.66279760E+03 E0= -.66273506E+03  d E =-.604312E-04
