HECN                                    
           1
    11.240000    0.000000    0.000000
     0.000000   11.240000    0.000000
     0.000000    0.000000   11.240000
   Ti   Mo   Nb   N    C    Ta   W 
   7   6   7  13  19   6   6
Direct configuration=     1
   0.00000000  0.00000000  0.00000000
   0.25000000  0.00000000  0.25000000
   0.25000000  0.50000000  0.25000000
   0.50000000  0.50000000  0.00000000
   0.50000000  0.25000000  0.75000004
   0.00000000  0.50000000  0.50000000
   0.50000000  0.75000004  0.75000004
   0.00000000  0.25000000  0.25000000
   0.75000004  0.75000004  0.00000000
   0.00000000  0.25000000  0.75000004
   0.75000004  0.25000000  0.50000000
   0.00000000  0.75000004  0.75000004
   0.25000000  0.50000000  0.75000004
   0.25000000  0.25000000  0.00000000
   0.50000000  0.25000000  0.25000000
   0.75000004  0.00000000  0.25000000
   0.75000004  0.25000000  0.00000000
   0.25000000  0.75000004  0.00000000
   0.25000000  0.25000000  0.50000000
   0.25000000  0.75000004  0.50000000
   0.25000000  0.25000000  0.25000000
   0.25000000  0.00000000  0.00000000
   0.00000000  0.25000000  0.00000000
   0.75000004  0.25000000  0.25000000
   0.75000004  0.00000000  0.00000000
   0.50000000  0.00000000  0.25000000
   0.00000000  0.50000000  0.25000000
   0.50000000  0.75000004  0.00000000
   0.00000000  0.00000000  0.75000004
   0.75000004  0.25000000  0.75000004
   0.75000004  0.00000000  0.50000000
   0.50000000  0.25000000  0.50000000
   0.50000000  0.00000000  0.75000004
   0.00000000  0.00000000  0.25000000
   0.50000000  0.25000000  0.00000000
   0.25000000  0.75000004  0.25000000
   0.25000000  0.50000000  0.00000000
   0.00000000  0.75000004  0.00000000
   0.75000004  0.75000004  0.25000000
   0.75000004  0.50000000  0.00000000
   0.50000000  0.50000000  0.25000000
   0.25000000  0.25000000  0.75000004
   0.25000000  0.00000000  0.50000000
   0.00000000  0.25000000  0.50000000
   0.25000000  0.75000004  0.75000004
   0.25000000  0.50000000  0.50000000
   0.00000000  0.75000004  0.50000000
   0.00000000  0.50000000  0.75000004
   0.75000004  0.75000004  0.75000004
   0.75000004  0.50000000  0.50000000
   0.50000000  0.75000004  0.50000000
   0.50000000  0.50000000  0.75000004
   0.50000000  0.00000000  0.00000000
   0.00000000  0.50000000  0.00000000
   0.50000000  0.75000004  0.25000000
   0.25000000  0.00000000  0.75000004
   0.50000000  0.00000000  0.50000000
   0.75000004  0.00000000  0.75000004
   0.00000000  0.75000004  0.25000000
   0.75000004  0.50000000  0.25000000
   0.00000000  0.00000000  0.50000000
   0.50000000  0.50000000  0.50000000
   0.75000004  0.50000000  0.75000004
   0.75000004  0.75000004  0.50000000
HECN                                    
           1
     7.937902   -0.001116   -0.001156
    -0.001116    7.946568   -0.001101
    -0.001156   -0.001101    7.942578
   Ti   Mo   Nb   N    C    Ta   W 
   7   6   7  13  19   6   6
Direct configuration=     2
  -0.00041763 -0.00102577  0.00123747
   0.24858216 -0.00083804  0.25138667
   0.25117851  0.50090757  0.25011801
   0.50019843  0.49861476 -0.00012861
   0.49925279  0.25159397  0.75087656
  -0.00006485  0.49979567  0.50119688
   0.50008382  0.74842058  0.74876074
  -0.00021911  0.24745938  0.25215988
   0.75264980  0.74789561 -0.00010289
   0.00180004  0.25180414  0.74784586
   0.75245818  0.25197987  0.49987900
  -0.00002183  0.74808666  0.74994724
   0.25026165  0.50014291  0.74987852
   0.25126507  0.25221340 -0.00192588
   0.50052171  0.25197645  0.24869444
   0.75193970 -0.00164209  0.25030231
   0.74857433  0.25198408  0.00011476
   0.24773600  0.74773651 -0.00034171
   0.24791645  0.25038009  0.50199416
   0.24931223  0.74968095  0.50040988
   0.25114260  0.24989615  0.25003048
   0.25210874 -0.00002381 -0.00190484
  -0.00018912  0.25209343 -0.00001874
   0.74916767  0.25017217  0.24917923
   0.74791835  0.00114143 -0.00120566
   0.50078721 -0.00104620  0.24984305
  -0.00131620  0.50106000  0.24769889
   0.49883127  0.75241240  0.00197861
  -0.00018167  0.00010718  0.74891387
   0.74993800  0.24880794  0.75086597
   0.74926153 -0.00101439  0.50116526
   0.49913400  0.24899993  0.49915345
   0.50017753 -0.00002082  0.75009461
  -0.00149907 -0.00118586  0.25209363
   0.50019839  0.24733006  0.00135418
   0.25056045  0.75003043  0.24986243
   0.24739860  0.49994510 -0.00035365
   0.00044534  0.74768546  0.00123295
   0.74965336  0.74922079  0.25124628
   0.75242819  0.49935324  0.00011408
   0.50204451  0.50094303  0.25180882
   0.24909236  0.24814905  0.74995475
   0.25042840  0.00019662  0.50227345
   0.00020053  0.24795085  0.50000187
   0.24949695  0.75193190  0.75009278
   0.25185260  0.49976469  0.50038006
  -0.00096401  0.75194220  0.49886627
  -0.00138764  0.49989359  0.75241965
   0.75058472  0.75048202  0.74867397
   0.74822633  0.50109066  0.49994309
   0.50087965  0.75054138  0.49781641
   0.50144960  0.49998184  0.74789509
   0.50070070  0.00207845  0.00037343
  -0.00024510  0.50122160 -0.00156326
   0.50024033  0.74797524  0.25166234
   0.24905916 -0.00019904  0.74812393
   0.49837563 -0.00155877  0.49968897
   0.75098897 -0.00188348  0.74972503
  -0.00021859  0.75258117  0.24993743
   0.74777715  0.50223538  0.24989719
   0.00191029  0.00034808  0.49796604
   0.50000095  0.50191339  0.50013712
   0.74979517  0.50246164  0.75011079
   0.75073939  0.74782785  0.50016807
HECN                                    
           1
     8.905991   -0.000789   -0.000817
    -0.000789    8.912117   -0.000778
    -0.000817   -0.000778    8.909297
   Ti   Mo   Nb   N    C    Ta   W 
   7   6   7  13  19   6   6
Direct configuration=     3
  -0.00024427 -0.00060045  0.00072414
   0.24917072 -0.00049052  0.25081149
   0.25068922  0.50053114  0.25006893
   0.50011614  0.49918918 -0.00007518
   0.49956284  0.25093298  0.75051286
  -0.00003799  0.49988033  0.50070033
   0.50004919  0.74907562  0.74927500
  -0.00012813  0.24851281  0.25126393
   0.75154993  0.74876813 -0.00006024
   0.00105281  0.25105602  0.74873939
   0.75143762  0.25115872  0.49992894
  -0.00001265  0.74888010  0.74996926
   0.25015303  0.50008364  0.74992892
   0.25073988  0.25129559 -0.00112706
   0.50030510  0.25115690  0.24923595
   0.75113456 -0.00096128  0.25017686
   0.74916606  0.25116140  0.00006712
   0.24867601  0.74867530 -0.00019967
   0.24878126  0.25022248  0.50116691
   0.24959774  0.74981329  0.50023989
   0.25066827  0.24993914  0.25001777
   0.25123345 -0.00001395 -0.00111467
  -0.00011073  0.25122534 -0.00001107
   0.74951325  0.25010087  0.24951980
   0.74878253  0.00066829 -0.00070539
   0.50046048 -0.00061240  0.24990818
  -0.00076973  0.50062065  0.24865361
   0.49931619  0.75141200  0.00115764
  -0.00010619  0.00006281  0.74936452
   0.74996378  0.24930222  0.75050678
   0.74956810 -0.00059377  0.50068191
   0.49949361  0.24941474  0.49950478
   0.50010383 -0.00001220  0.75005536
  -0.00087682 -0.00069414  0.25122517
   0.50011611  0.24843714  0.00079249
   0.25032780  0.75001780  0.24991947
   0.24847855  0.49996804 -0.00020676
   0.00026053  0.74864517  0.00072152
   0.74979725  0.74954388  0.25072928
   0.75142022  0.49962129  0.00006664
   0.50119561  0.50055175  0.25105818
   0.24946926  0.24891666  0.74997370
   0.25025041  0.00011493  0.50133018
   0.00011740  0.24880058  0.50000120
   0.24970567  0.75113082  0.75005423
   0.25108352  0.49986214  0.50022228
  -0.00056386  0.75113695  0.49933659
  -0.00081173  0.49993766  0.75141588
   0.75034205  0.75028219  0.74922408
   0.74896260  0.50063849  0.49996674
   0.50051458  0.75031697  0.49872227
   0.50084795  0.49998941  0.74876832
   0.50040967  0.00121650  0.00021834
  -0.00014333  0.50071513 -0.00091474
   0.50014058  0.74881477  0.25097276
   0.24944986 -0.00011634  0.74890237
   0.49905007 -0.00091227  0.49981820
   0.75057856 -0.00110248  0.74983918
  -0.00012799  0.75151085  0.24996326
   0.74869982  0.50130855  0.24993985
   0.00111737  0.00020374  0.49880977
   0.50000043  0.50111994  0.50008012
   0.74988007  0.50144086  0.75006471
   0.75043258  0.74872856  0.50009842
HECN                                    
           1
     8.822848   -0.000817   -0.000846
    -0.000817    8.829192   -0.000806
    -0.000846   -0.000806    8.826271
   Ti   Mo   Nb   N    C    Ta   W 
   7   6   7  13  19   6   6
Direct configuration=     4
  -0.00025754 -0.00063302  0.00076345
   0.24912566 -0.00051713  0.25085553
   0.25072667  0.50055997  0.25007268
   0.50012244  0.49914519 -0.00007927
   0.49953910  0.25098360  0.75054070
  -0.00004005  0.49987385  0.50073835
   0.50005184  0.74902546  0.74923562
  -0.00013510  0.24843214  0.25133254
   0.75163413  0.74870131 -0.00006351
   0.00111001  0.25111331  0.74867097
   0.75151574  0.25122160  0.49992511
  -0.00001335  0.74881934  0.74996758
   0.25016134  0.50008818  0.74992506
   0.25078009  0.25136587 -0.00118823
   0.50032168  0.25121967  0.24919449
   0.75119619 -0.00101342  0.25018646
   0.74912076  0.25122440  0.00007076
   0.24860406  0.74860342 -0.00021054
   0.24871505  0.25023455  0.50123025
   0.24957588  0.74980315  0.50025291
   0.25070458  0.24993585  0.25001874
   0.25130046 -0.00001470 -0.00117517
  -0.00011674  0.25129182 -0.00001166
   0.74948680  0.25010633  0.24949373
   0.74871638  0.00070453 -0.00074369
   0.50048550 -0.00064562  0.24990319
  -0.00081156  0.50065430  0.24858051
   0.49927906  0.75148861  0.00122050
  -0.00011197  0.00006621  0.74933001
   0.74996180  0.24926436  0.75053429
   0.74954463 -0.00062598  0.50071892
   0.49946609  0.24938298  0.49947789
   0.50010947 -0.00001286  0.75005837
  -0.00092445 -0.00073180  0.25129167
   0.50012241  0.24835236  0.00083550
   0.25034561  0.75001877  0.24991511
   0.24839588  0.49996629 -0.00021801
   0.00027468  0.74857168  0.00076068
   0.74978623  0.74951914  0.25076886
   0.75149738  0.49960076  0.00007027
   0.50126058  0.50058171  0.25111565
   0.24944041  0.24885788  0.74997226
   0.25026403  0.00012118  0.50140240
   0.00012377  0.24873551  0.50000126
   0.24968969  0.75119217  0.75005718
   0.25114239  0.49985467  0.50023435
  -0.00059449  0.75119862  0.49930058
  -0.00085582  0.49993428  0.75149273
   0.75036063  0.75029750  0.74918196
   0.74890624  0.50067312  0.49996493
   0.50054253  0.75033416  0.49865291
   0.50089401  0.49998883  0.74870146
   0.50043195  0.00128250  0.00023021
  -0.00015111  0.50075392 -0.00096440
   0.50014822  0.74875048  0.25102556
   0.24941995 -0.00012267  0.74884277
   0.49899845 -0.00096177  0.49980831
   0.75060998 -0.00116229  0.74983044
  -0.00013493  0.75159281  0.24996128
   0.74862919  0.50137953  0.24993658
   0.00117807  0.00021480  0.49874517
   0.50000047  0.50118070  0.50008448
   0.74987356  0.50151903  0.75006824
   0.75045607  0.74865958  0.50010375
HECN                                    
           1
     8.779485   -0.000831   -0.000861
    -0.000831    8.785943   -0.000820
    -0.000861   -0.000820    8.782970
   Ti   Mo   Nb   N    C    Ta   W 
   7   6   7  13  19   6   6
Direct configuration=     5
  -0.00026453 -0.00065017  0.00078414
   0.24910194 -0.00053114  0.25087872
   0.25074639  0.50057514  0.25007466
   0.50012576  0.49912204 -0.00008142
   0.49952660  0.25101024  0.75055536
  -0.00004113  0.49987043  0.50075836
   0.50005324  0.74899905  0.74921490
  -0.00013876  0.24838967  0.25136865
   0.75167845  0.74866613 -0.00006523
   0.00114012  0.25114347  0.74863495
   0.75155687  0.25125470  0.49992309
  -0.00001372  0.74878735  0.74996669
   0.25016572  0.50009057  0.74992302
   0.25080125  0.25140288 -0.00122043
   0.50033041  0.25125271  0.24917266
   0.75122864 -0.00104087  0.25019152
   0.74909692  0.25125757  0.00007268
   0.24856618  0.74856557 -0.00021626
   0.24868020  0.25024091  0.50126360
   0.24956438  0.74979782  0.50025976
   0.25072370  0.24993411  0.25001926
   0.25133573 -0.00001510 -0.00120703
  -0.00011990  0.25132681 -0.00001197
   0.74947287  0.25010921  0.24948000
   0.74868155  0.00072361 -0.00076386
   0.50049866 -0.00066311  0.24990057
  -0.00083358  0.50067202  0.24854203
   0.49925952  0.75152894  0.00125359
  -0.00011501  0.00006800  0.74931185
   0.74996076  0.24924444  0.75054876
   0.74953228 -0.00064293  0.50073841
   0.49945160  0.24936625  0.49946373
   0.50011244 -0.00001321  0.75005995
  -0.00094953 -0.00075162  0.25132668
   0.50012572  0.24830772  0.00085814
   0.25035498  0.75001928  0.24991281
   0.24835236  0.49996536 -0.00022392
   0.00028212  0.74853298  0.00078130
   0.74978044  0.74950611  0.25078970
   0.75153800  0.49958995  0.00007218
   0.50129479  0.50059748  0.25114590
   0.24942522  0.24882693  0.74997150
   0.25027120  0.00012447  0.50144042
   0.00012712  0.24870125  0.50000129
   0.24968127  0.75122446  0.75005873
   0.25117338  0.49985074  0.50024071
  -0.00061062  0.75123108  0.49928162
  -0.00087903  0.49993250  0.75153320
   0.75037041  0.75030555  0.74915978
   0.74887656  0.50069135  0.49996398
   0.50055724  0.75034321  0.49861640
   0.50091826  0.49998853  0.74866626
   0.50044367  0.00131725  0.00023645
  -0.00015522  0.50077434 -0.00099054
   0.50015224  0.74871663  0.25105336
   0.24940421 -0.00012600  0.74881140
   0.49897127 -0.00098783  0.49980310
   0.75062652 -0.00119378  0.74982584
  -0.00013858  0.75163596  0.24996023
   0.74859200  0.50141690  0.24993486
   0.00121002  0.00022062  0.49871116
   0.50000049  0.50121269  0.50008678
   0.74987014  0.50156018  0.75007009
   0.75046844  0.74862327  0.50010656
HECN                                    
           1
     8.780836   -0.000831   -0.000861
    -0.000831    8.787290   -0.000820
    -0.000861   -0.000820    8.784319
   Ti   Mo   Nb   N    C    Ta   W 
   7   6   7  13  19   6   6
Direct configuration=     6
  -0.00026431 -0.00064963  0.00078349
   0.24910269 -0.00053070  0.25087799
   0.25074577  0.50057467  0.25007460
   0.50012566  0.49912276 -0.00008136
   0.49952699  0.25100941  0.75055490
  -0.00004110  0.49987054  0.50075773
   0.50005320  0.74899988  0.74921555
  -0.00013865  0.24839100  0.25136752
   0.75167707  0.74866723 -0.00006517
   0.00113918  0.25114253  0.74863608
   0.75155558  0.25125367  0.49992315
  -0.00001371  0.74878835  0.74996672
   0.25016558  0.50009049  0.74992309
   0.25080059  0.25140172 -0.00121942
   0.50033013  0.25125167  0.24917334
   0.75122763 -0.00104001  0.25019136
   0.74909766  0.25125653  0.00007262
   0.24856737  0.74856676 -0.00021608
   0.24868129  0.25024071  0.50126256
   0.24956474  0.74979799  0.50025954
   0.25072310  0.24993417  0.25001924
   0.25133463 -0.00001509 -0.00120603
  -0.00011980  0.25132572 -0.00001196
   0.74947331  0.25010912  0.24948043
   0.74868264  0.00072301 -0.00076322
   0.50049825 -0.00066256  0.24990065
  -0.00083289  0.50067146  0.24854324
   0.49926013  0.75152767  0.00125255
  -0.00011491  0.00006794  0.74931242
   0.74996080  0.24924506  0.75054831
   0.74953266 -0.00064240  0.50073780
   0.49945205  0.24936678  0.49946417
   0.50011234 -0.00001320  0.75005990
  -0.00094874 -0.00075100  0.25132558
   0.50012562  0.24830912  0.00085743
   0.25035469  0.75001926  0.24991288
   0.24835372  0.49996539 -0.00022374
   0.00028189  0.74853420  0.00078065
   0.74978062  0.74950652  0.25078905
   0.75153673  0.49959029  0.00007212
   0.50129372  0.50059699  0.25114496
   0.24942570  0.24882790  0.74997152
   0.25027098  0.00012437  0.50143923
   0.00012702  0.24870232  0.50000128
   0.24968154  0.75122345  0.75005868
   0.25117241  0.49985087  0.50024051
  -0.00061012  0.75123007  0.49928221
  -0.00087830  0.49993256  0.75153193
   0.75037010  0.75030530  0.74916048
   0.74887749  0.50069078  0.49996401
   0.50055678  0.75034293  0.49861754
   0.50091750  0.49998854  0.74866736
   0.50044331  0.00131616  0.00023626
  -0.00015509  0.50077370 -0.00098972
   0.50015211  0.74871769  0.25105249
   0.24940470 -0.00012590  0.74881238
   0.49897212 -0.00098702  0.49980327
   0.75062600 -0.00119279  0.74982598
  -0.00013847  0.75163461  0.24996027
   0.74859317  0.50141573  0.24993492
   0.00120902  0.00022043  0.49871222
   0.50000049  0.50121168  0.50008671
   0.74987025  0.50155889  0.75007003
   0.75046805  0.74862441  0.50010648
HECN                                    
           1
     8.769477   -0.000569    0.000572
    -0.000567    8.796057    0.000461
     0.000572    0.000458    8.764334
   Ti   Mo   Nb   N    C    Ta   W 
   7   6   7  13  19   6   6
Direct configuration=     7
  -0.00099374 -0.00184777  0.00294957
   0.24663989 -0.00080521  0.25263348
   0.25256134  0.50087285  0.25027572
   0.49977511  0.49693554 -0.00082880
   0.49822814  0.25391763  0.75220610
   0.00033171  0.49915163  0.50162233
   0.49979534  0.74599477  0.74808480
   0.00161328  0.24367064  0.25488248
   0.75620930  0.74529515 -0.00076985
   0.00483387  0.25490159  0.74535256
   0.75525215  0.25458303  0.49998763
   0.00006499  0.74473922  0.75002325
   0.25186205  0.49982402  0.75018989
   0.25184668  0.25398617 -0.00219484
   0.49922426  0.25498536  0.24713123
   0.75446240 -0.00229119  0.24988924
   0.74699201  0.25349398 -0.00026124
   0.24573610  0.74520827  0.00014792
   0.24605974  0.25083189  0.50241288
   0.24869217  0.74923107  0.49991080
   0.25112488  0.24979893  0.25007089
   0.24926737  0.00007074  0.00138981
  -0.00014871  0.24958195 -0.00003112
   0.75001710  0.25161728  0.24993334
   0.75193600  0.00092414 -0.00172238
   0.49655035 -0.00148734  0.24949828
   0.00101936  0.50156432  0.25063609
   0.49856626  0.75003162 -0.00135999
  -0.00048870  0.00012719  0.75184847
   0.74629649  0.24942092  0.75006661
   0.75058155 -0.00162031  0.50155442
   0.49908985  0.24977388  0.50331741
   0.50027191  0.00001723  0.75030772
   0.00238982 -0.00133785  0.24960753
   0.50018294  0.25151139 -0.00257391
   0.24964771  0.75033515  0.24952982
   0.25071389  0.49965576  0.00262785
  -0.00085679  0.75143897  0.00130666
   0.75082922  0.74777830  0.25122309
   0.74886508  0.50052609  0.00023100
   0.49923526  0.50033465  0.24877223
   0.25163487  0.24961688  0.74982724
   0.24853631  0.00052221  0.49772259
  -0.00178120  0.25126003  0.50028535
   0.25279833  0.75079673  0.75036676
   0.24958331  0.49933886  0.49747728
  -0.00245287  0.74933359  0.49893845
  -0.00138145  0.49969791  0.74821929
   0.74721556  0.74885933  0.74866968
   0.75161182  0.50072147  0.49974255
   0.50172875  0.74891039  0.50237561
   0.50151227  0.49988582  0.75011921
   0.50102642  0.00390568 -0.00024186
   0.00000124  0.50124285 -0.00196241
   0.49874674  0.74474347  0.25154428
   0.24758262 -0.00023783  0.74779256
   0.49575903 -0.00282773  0.50050914
   0.75249471 -0.00338725  0.75047180
   0.00155152  0.75563615  0.24999238
   0.74591126  0.50419568  0.24975256
   0.00464965  0.00086690  0.49552056
   0.49929714  0.50463887  0.50106665
   0.74788088  0.50551139  0.75080390
   0.75181616  0.74402765  0.50112814
HECN                                    
           1
     8.762454   -0.000407    0.001458
    -0.000404    8.801476    0.001253
     0.001458    0.001248    8.751979
   Ti   Mo   Nb   N    C    Ta   W 
   7   6   7  13  19   6   6
Direct configuration=     8
  -0.00144547 -0.00258791  0.00429191
   0.24511521 -0.00097486  0.25372150
   0.25368518  0.50105696  0.25040013
   0.49955823  0.49558479 -0.00129170
   0.49742391  0.25571361  0.75322909
   0.00056240  0.49870754  0.50215809
   0.49963590  0.74413893  0.74738447
   0.00269748  0.24075501  0.25706068
   0.75901494  0.74321255 -0.00120664
   0.00712119  0.25722341  0.74331730
   0.75754032  0.25663916  0.50002691
   0.00011377  0.74223848  0.75005863
   0.25291216  0.49965940  0.75035506
   0.25249427  0.25558239 -0.00279957
   0.49853985  0.25729148  0.24586566
   0.75646482 -0.00306395  0.24970182
   0.74568858  0.25487589 -0.00046810
   0.24398353  0.74313410  0.00037405
   0.24443684  0.25119694  0.50312586
   0.24815209  0.74888099  0.49969485
   0.25137358  0.24971539  0.25010287
   0.24798745  0.00012355  0.00299846
  -0.00016658  0.24850501 -0.00004283
   0.75035363  0.25254866  0.25021378
   0.75394997  0.00104838 -0.00231704
   0.49410661 -0.00199662  0.24924943
   0.00216569  0.50211552  0.25193260
   0.49813704  0.74910791 -0.00297858
  -0.00072034  0.00016356  0.75341990
   0.74402828  0.24952964  0.74976849
   0.75123076 -0.00222436  0.50206041
   0.49886524  0.25002497  0.50570497
   0.50037065  0.00003600  0.75046126
   0.00445662 -0.00170019  0.24854271
   0.50021870  0.25348941 -0.00470034
   0.24921011  0.75053028  0.24929251
   0.25217458  0.49946423  0.00439454
  -0.00156175  0.75323292  0.00163244
   0.75147830  0.74671090  0.25149208
   0.74721126  0.50110407  0.00032963
   0.49796129  0.50017288  0.24730226
   0.25300238  0.25010413  0.74973755
   0.24746289  0.00076828  0.49541981
  -0.00296250  0.25283967  0.50046133
   0.25472764  0.75053310  0.75055737
   0.24859992  0.49902292  0.49576532
  -0.00359350  0.74816240  0.49872580
  -0.00169256  0.49955330  0.74616678
   0.74526294  0.74796640  0.74836602
   0.75330443  0.50074040  0.49960506
   0.50245387  0.74802530  0.50470421
   0.50188030  0.49982224  0.75101876
   0.50138737  0.00550499 -0.00053840
   0.00009810  0.50153268 -0.00256517
   0.49787682  0.74228898  0.25184950
   0.24645483 -0.00030683  0.74716085
   0.49377005 -0.00396455  0.50094700
   0.75365144 -0.00474264  0.75087197
   0.00259757  0.75810746  0.25001174
   0.74425109  0.50591263  0.24963958
   0.00677975  0.00126638  0.49354253
   0.49886160  0.50675541  0.50167361
   0.74664929  0.50795242  0.75125847
   0.75265063  0.74118859  0.50176146
HECN                                    
           1
     8.815517   -0.003795    0.003288
    -0.003806    8.846826   -0.001051
     0.003284   -0.001045    8.810476
   Ti   Mo   Nb   N    C    Ta   W 
   7   6   7  13  19   6   6
Direct configuration=     9
  -0.00226270 -0.00246180  0.00515303
   0.24481557 -0.00089029  0.25389414
   0.25428896  0.50084403  0.25057894
   0.49861150  0.49401782 -0.00222825
   0.49680712  0.25714733  0.75370196
   0.00178086  0.49889234  0.50156092
   0.49882872  0.74272130  0.74773956
   0.00257006  0.23727136  0.25866859
   0.76254533  0.74243562 -0.00102094
   0.00944019  0.25971817  0.74358580
   0.75958661  0.25881058  0.49883812
  -0.00046258  0.73953560  0.74999622
   0.25441656  0.49995165  0.75071209
   0.25346435  0.25621431 -0.00306292
   0.49942993  0.25772619  0.24496500
   0.75613992 -0.00364059  0.24970972
   0.74466323  0.25497235 -0.00032239
   0.24274855  0.74214838  0.00026862
   0.24426661  0.25128491  0.50272756
   0.24784535  0.74883546  0.49970596
   0.25154475  0.24945145  0.25019247
   0.24843926  0.00015402  0.00304554
  -0.00038016  0.24884309  0.00046834
   0.75119141  0.25296972  0.25028573
   0.75461863  0.00087498 -0.00207427
   0.49380903 -0.00218046  0.24905499
   0.00166528  0.50169670  0.25119984
   0.49794754  0.75052369 -0.00266900
  -0.00121278  0.00043022  0.75364865
   0.74291715  0.24867734  0.74937387
   0.75060254 -0.00288181  0.50261474
   0.49895993  0.24885035  0.50606323
   0.50047716  0.00025775  0.75038602
   0.00520141 -0.00165164  0.24777287
   0.49961092  0.25455464 -0.00521737
   0.24940915  0.75070007  0.24910376
   0.25111765  0.49947092  0.00461379
  -0.00083852  0.75235615  0.00117017
   0.75121917  0.74833720  0.25082402
   0.74760609  0.50139960  0.00051117
   0.49657753  0.49978990  0.24758496
   0.25344493  0.25004598  0.74960439
   0.24834937  0.00038136  0.49544732
  -0.00311551  0.25307931  0.50116974
   0.25406988  0.75051883  0.75086525
   0.24892436  0.49914009  0.49608550
  -0.00347780  0.74910418  0.49931990
  -0.00189191  0.49869342  0.74615942
   0.74492103  0.74906788  0.74944122
   0.75300902  0.49946532  0.49961366
   0.50178427  0.74931478  0.50402525
   0.50124360  0.49992096  0.75078761
   0.50215611  0.00766724 -0.00050741
  -0.00038801  0.50199863 -0.00309222
   0.49834286  0.74185735  0.25292900
   0.24478364 -0.00075655  0.74656346
   0.49164446 -0.00566752  0.50103709
   0.75513430 -0.00629316  0.75066930
   0.00367036  0.75904697  0.25075769
   0.74174957  0.50606705  0.24945031
   0.00834776  0.00249696  0.49184839
   0.49879408  0.50862389  0.50168145
   0.74514896  0.50985732  0.75187463
   0.75334807  0.73821180  0.50114447
HECN                                    
           1
     8.801448   -0.002897    0.002803
    -0.002904    8.834802   -0.000440
     0.002800   -0.000437    8.794966
   Ti   Mo   Nb   N    C    Ta   W 
   7   6   7  13  19   6   6
Direct configuration=    10
  -0.00204729 -0.00249505  0.00492618
   0.24489454 -0.00091258  0.25384865
   0.25412987  0.50090012  0.25053189
   0.49886111  0.49443131 -0.00198153
   0.49696955  0.25676918  0.75357728
   0.00145970  0.49884352  0.50171825
   0.49904161  0.74309530  0.74764609
   0.00260409  0.23819017  0.25824534
   0.76161502  0.74264018 -0.00106960
   0.00882880  0.25905986  0.74351504
   0.75904705  0.25823769  0.49915118
  -0.00031042  0.74024861  0.75001281
   0.25402008  0.49987438  0.75061812
   0.25320862  0.25604754 -0.00299355
   0.49919527  0.25761150  0.24520223
   0.75622560 -0.00348845  0.24970766
   0.74493344  0.25494700 -0.00036083
   0.24307411  0.74240853  0.00029639
   0.24431144  0.25126175  0.50283245
   0.24792619  0.74884750  0.49970302
   0.25149968  0.24952105  0.25016890
   0.24832019  0.00014593  0.00303316
  -0.00032388  0.24875390  0.00033368
   0.75097058  0.25285856  0.25026680
   0.75444244  0.00092063 -0.00213816
   0.49388746 -0.00213193  0.24910620
   0.00179716  0.50180727  0.25139283
   0.49799735  0.75015024 -0.00275065
  -0.00108302  0.00035991  0.75358836
   0.74321004  0.24890229  0.74947780
   0.75076819 -0.00270837  0.50246876
   0.49893511  0.24916015  0.50596896
   0.50044907  0.00019925  0.75040583
   0.00500508 -0.00166447  0.24797566
   0.49977096  0.25427375 -0.00508131
   0.24935667  0.75065528  0.24915347
   0.25139620  0.49946925  0.00455599
  -0.00102906  0.75258738  0.00129202
   0.75128726  0.74790829  0.25099985
   0.74750202  0.50132159  0.00046335
   0.49694226  0.49989104  0.24751046
   0.25332830  0.25006128  0.74963949
   0.24811579  0.00048333  0.49544015
  -0.00307517  0.25301606  0.50098313
   0.25424324  0.75052264  0.75078412
   0.24883886  0.49910913  0.49600119
  -0.00350836  0.74885571  0.49916337
  -0.00183929  0.49892025  0.74616141
   0.74501108  0.74877730  0.74915794
   0.75308700  0.49980169  0.49961147
   0.50196057  0.74897476  0.50420395
   0.50141137  0.49989500  0.75084845
   0.50195330  0.00709682 -0.00051568
  -0.00025997  0.50187581 -0.00295347
   0.49822015  0.74197108  0.25264474
   0.24522407 -0.00063772  0.74672074
   0.49220482 -0.00521811  0.50101336
   0.75474365 -0.00588430  0.75072287
   0.00338758  0.75879899  0.25056122
   0.74240879  0.50602659  0.24950001
   0.00793431  0.00217232  0.49229458
   0.49881168  0.50813104  0.50167925
   0.74554420  0.50935496  0.75171214
   0.75316454  0.73899698  0.50130721
HECN                                    
           1
     8.797521   -0.005215    0.005079
    -0.005231    8.829538   -0.002286
     0.005074   -0.002274    8.790497
   Ti   Mo   Nb   N    C    Ta   W 
   7   6   7  13  19   6   6
Direct configuration=    11
  -0.00276545 -0.00228861  0.00538757
   0.24505258 -0.00073315  0.25385343
   0.25455457  0.50061654  0.25062161
   0.49813617  0.49328743 -0.00261088
   0.49651095  0.25769301  0.75386089
   0.00245487  0.49902758  0.50113233
   0.49832700  0.74227372  0.74788407
   0.00195590  0.23534862  0.25972175
   0.76477627  0.74217740 -0.00077103
   0.01099721  0.26105306  0.74421053
   0.76110167  0.26017346  0.49765270
  -0.00090367  0.73795562  0.74997768
   0.25509224  0.50011295  0.75098413
   0.25396809  0.25625555 -0.00322843
   0.50024769  0.25745771  0.24444165
   0.75570079 -0.00383122  0.24982256
   0.74405452  0.25486192 -0.00034928
   0.24219471  0.74195953  0.00017800
   0.24426703  0.25118399  0.50251007
   0.24764305  0.74885907  0.49983994
   0.25162831  0.24931190  0.25020270
   0.24919101  0.00020412  0.00256880
  -0.00051631  0.24930104  0.00103570
   0.75180760  0.25327400  0.25013190
   0.75447247  0.00073901 -0.00188049
   0.49417182 -0.00217967  0.24900786
   0.00094051  0.50134681  0.25036924
   0.49791677  0.75183997 -0.00201681
  -0.00155136  0.00055826  0.75327364
   0.74259127  0.24799962  0.74913780
   0.75002844 -0.00322775  0.50296468
   0.49908995  0.24790923  0.50565107
   0.50049017  0.00043402  0.75029176
   0.00504633 -0.00196377  0.24757048
   0.49933529  0.25485565 -0.00511628
   0.24962336  0.75068762  0.24899521
   0.25014185  0.49949619  0.00440603
  -0.00010487  0.75158357  0.00103514
   0.75108933  0.74929015  0.25047499
   0.74794367  0.50149579  0.00064284
   0.49595249  0.49968288  0.24805653
   0.25340141  0.24991946  0.74947540
   0.24887587  0.00018607  0.49588652
  -0.00293606  0.25290815  0.50190817
   0.25315733  0.75056048  0.75102548
   0.24947176  0.49920652  0.49667404
  -0.00340383  0.75009150  0.49967151
  -0.00212021  0.49817197  0.74649197
   0.74497395  0.74973085  0.74995430
   0.75251661  0.49870485  0.49970166
   0.50148888  0.75009884  0.50337388
   0.50089386  0.50004439  0.75039008
   0.50256206  0.00881774 -0.00041867
  -0.00072217  0.50210825 -0.00334506
   0.49868572  0.74197386  0.25338418
   0.24371404 -0.00099538  0.74634966
   0.49068496 -0.00658549  0.50107687
   0.75606291 -0.00709724  0.75043142
   0.00399198  0.75945386  0.25130255
   0.74004081  0.50595956  0.24928705
   0.00928612  0.00344520  0.49098173
   0.49874214  0.50980824  0.50157080
   0.74431547  0.51086406  0.75233584
   0.75366275  0.73654214  0.50056924
HECN                                    
           1
     8.793798   -0.007413    0.007237
    -0.007437    8.824547   -0.004035
     0.007230   -0.004016    8.786260
   Ti   Mo   Nb   N    C    Ta   W 
   7   6   7  13  19   6   6
Direct configuration=    12
  -0.00344661 -0.00209288  0.00582540
   0.24520251 -0.00056292  0.25385797
   0.25495727  0.50034767  0.25070654