HECN                                    
           1
     8.932500    0.000000    0.000000
     0.005753    9.055598    0.000000
     0.032102   -0.015743    8.937128
   Zr   Ta   Nb   N    C    W    Mo
     7     6     7    13    19     6     6
Direct configuration=     1
   0.99688001  0.99204997  0.99924002
   0.25398003  0.99714995  0.24912000
   0.24803003  0.50165000  0.24955001
   0.50501006  0.49745998  0.99834003
   0.50479003  0.24631001  0.74710002
   0.99427992  0.50449999  0.49779000
   0.49950005  0.75481999  0.74817004
   0.99437004  0.23617001  0.26379999
   0.75718000  0.74102998  0.01100000
   0.00201000  0.25541000  0.73894001
   0.75307001  0.26163001  0.50533002
   0.99514004  0.74492004  0.74511997
   0.25679999  0.49462002  0.74545002
   0.24788999  0.24839000  0.99657997
   0.50833000  0.25676999  0.25376001
   0.74879004  0.98787999  0.26967001
   0.75719000  0.25603001  0.99591997
   0.24762001  0.74973999  0.99974006
   0.25272001  0.24823001  0.50015003
   0.24457999  0.75048999  0.49983999
   0.24982001  0.24942998  0.24825000
   0.26146999  0.99984002  0.99295996
   0.00281000  0.25024000  0.00130000
   0.75313998  0.24617000  0.25492002
   0.74767001  0.99748000  0.01202000
   0.50714994  0.99977000  0.24673000
   0.99051999  0.48088002  0.24100998
   0.50519005  0.76130999  0.00855000
   0.98896989  0.00202000  0.73708999
   0.75744996  0.24437997  0.74896999
   0.73632001  0.00417000  0.51063000
   0.50563996  0.23264999  0.49544997
   0.50008998  0.00061000  0.73471998
   0.99720000  0.99771992  0.25899999
   0.50427997  0.24673000  0.00262000
   0.25133999  0.74958002  0.24910999
   0.24328000  0.50072997  0.99510994
   0.99837005  0.74313996  0.00460000
   0.75633000  0.73891003  0.25767000
   0.75839004  0.50315998  0.00288000
   0.50700002  0.50333002  0.25878999
   0.24900999  0.25315000  0.74854000
   0.24446000  0.99823996  0.50287998
   0.99804009  0.24229999  0.50128003
   0.24177002  0.75340997  0.75018002
   0.25841001  0.50062002  0.50129001
   0.99000004  0.76215003  0.49746000
   0.99203996  0.50055999  0.75138002
   0.75036005  0.74888000  0.74756004
   0.74036002  0.50197000  0.50067003
   0.50575006  0.74958002  0.49720000
   0.50501003  0.50217998  0.73912003
   0.51588997  0.01358000  0.98075008
   0.99841994  0.50976998  0.98613004
   0.50379003  0.73926997  0.25905001
   0.23780002  0.01082000  0.74607998
   0.47957999  0.98308000  0.49717999
   0.74279003  0.97869994  0.76450995
   0.99864998  0.77573999  0.26102000
   0.73551001  0.51468004  0.26666001
   0.02362000  0.99783001  0.49557002
   0.50539000  0.52833005  0.49917999
   0.73876003  0.52828003  0.73814999
   0.75400003  0.72937999  0.49116997
HECN                                    
           1
     8.936433    0.007359    0.013843
     0.013216    9.016641   -0.007032
     0.045953   -0.022598    8.975213
   Zr   Ta   Nb   N    C    W    Mo
     7     6     7    13    19     6     6
Direct configuration=     2
   0.99840115  0.99470297  0.99773765
   0.25640403  0.99883948  0.24581374
   0.24843772  0.49991880  0.24762925
   0.50292153  0.49524578  0.99905357
   0.50350267  0.24580760  0.74894138
   0.99850353  0.50225268  0.49913483
   0.49557628  0.75737596  0.75174554
   0.99381317  0.23510524  0.26221749
   0.75768457  0.74315068  0.01009486
   0.00477984  0.25487054  0.74186937
   0.75183625  0.25971474  0.50309749
   0.99987255  0.74525150  0.74797057
   0.25487195  0.49572859  0.74727338
   0.25300118  0.25256872  0.99347349
   0.50901454  0.25761165  0.24938439
   0.74849534  0.98711374  0.27132869
   0.75110769  0.25767058  0.99567193
   0.24290499  0.74527760  0.00001552
   0.25017057  0.25115142  0.50248307
   0.24474483  0.74762574  0.49947253
   0.24818491  0.24912721  0.24814047
   0.26220409  0.99955215  0.99180535
   0.00287772  0.25063655  0.00127365
   0.75443880  0.24542100  0.25522269
   0.74676732  0.99614979  0.01262052
   0.50621832  0.99849810  0.24515929
   0.99307205  0.47989641  0.24162836
   0.50593717  0.76144403  0.00889425
   0.98798880  0.00239394  0.74079784
   0.75812623  0.24339097  0.74798156
   0.73599765  0.00649243  0.51166856
   0.50707852  0.23115014  0.49616452
   0.49889860  0.00074930  0.73593920
   0.99684425  0.00262350  0.25516553
   0.50389295  0.24705245  0.00358309
   0.25315260  0.74943040  0.24875019
   0.24353277  0.49987051  0.99353772
   0.99886127  0.74202571  0.00336042
   0.75550168  0.74327242  0.25210821
   0.75906886  0.50020792  0.00311622
   0.50038792  0.50191885  0.25630979
   0.24810542  0.25248005  0.74863868
   0.25195012  0.99755091  0.50492557
   0.99722709  0.24439000  0.50107593
   0.24137653  0.75375693  0.75042714
   0.25680476  0.49982573  0.50241634
   0.99363802  0.76054066  0.50110624
   0.99491777  0.50026849  0.75088978
   0.75095112  0.75454713  0.74954870
   0.74425671  0.49615534  0.50244760
   0.50350855  0.75589069  0.49641694
   0.49985750  0.50075832  0.74215307
   0.51680274  0.01514501  0.97995512
   0.00050112  0.50970195  0.98598667
   0.50250032  0.73946825  0.25822850
   0.23710173  0.01156723  0.74846391
   0.48159756  0.98559193  0.49406097
   0.74186174  0.97819741  0.76672590
   0.99933032  0.77596128  0.25962606
   0.73550829  0.50916850  0.26019898
   0.01960533  0.00041548  0.49476172
   0.50212860  0.52283217  0.49777662
   0.74167347  0.52262317  0.74529606
   0.75371871  0.73487532  0.49123746
HECN                                    
           1
     8.937002    0.008424    0.015846
     0.014296    9.011004   -0.008050
     0.047957   -0.023590    8.980723
   Zr   Ta   Nb   N    C    W    Mo
     7     6     7    13    19     6     6
Direct configuration=     3
   0.99862115  0.99508815  0.99752116
   0.25675514  0.99908435  0.24533704
   0.24849732  0.49966698  0.24735223
   0.50261958  0.49492435  0.99915659
   0.50331614  0.24573494  0.74920691
   0.99911436  0.50192575  0.49932738
   0.49500769  0.75774823  0.75226185
   0.99373312  0.23495041  0.26198949
   0.75775749  0.74345869  0.00996459
   0.00517985  0.25479214  0.74229074
   0.75165855  0.25943633  0.50277589
   0.00055633  0.74529942  0.74838025
   0.25459256  0.49589011  0.74753663
   0.25374057  0.25317501  0.99302525
   0.50911440  0.25773340  0.24875392
   0.74845245  0.98700260  0.27156764
   0.75022788  0.25790967  0.99563774
   0.24222355  0.74462973  0.00005575
   0.24980097  0.25157651  0.50282011
   0.24476910  0.74720946  0.49941923
   0.24794849  0.24908340  0.24812502
   0.26231056  0.99951011  0.99163880
   0.00288747  0.25069416  0.00126988
   0.75462667  0.24531204  0.25526593
   0.74663680  0.99595666  0.01270709
   0.50608409  0.99831322  0.24493305
   0.99344113  0.47975324  0.24171677
   0.50604513  0.76146346  0.00894369
   0.98784604  0.00244880  0.74133231
   0.75822437  0.24324706  0.74783889
   0.73595052  0.00683006  0.51181853
   0.50728660  0.23093210  0.49626698
   0.49872601  0.00076982  0.73611514
   0.99679305  0.00333569  0.25461371
   0.50383672  0.24709946  0.00372197
   0.25341485  0.74940840  0.24869793
   0.24356978  0.49974542  0.99331104
   0.99893272  0.74186360  0.00318159
   0.75538258  0.74390583  0.25130757
   0.75916734  0.49977889  0.00314976
   0.49943235  0.50171430  0.25595377
   0.24797466  0.25238281  0.74865303
   0.25303303  0.99745011  0.50521854
   0.99710930  0.24469379  0.50104694
   0.24131952  0.75380742  0.75046288
   0.25657244  0.49971063  0.50257889
   0.99416356  0.76030676  0.50163058
   0.99533412  0.50022574  0.75081847
   0.75103548  0.75537080  0.74983574
   0.74482059  0.49531011  0.50270217
   0.50318377  0.75680790  0.49630534
   0.49911180  0.50055267  0.74259104
   0.51693473  0.01537223  0.97984056
   0.00080216  0.50969180  0.98596554
   0.50231394  0.73949713  0.25811045
   0.23700012  0.01167616  0.74880762
   0.48188973  0.98595637  0.49361143
   0.74172705  0.97812474  0.76704532
   0.99942900  0.77599321  0.25942511
   0.73551014  0.50836689  0.25926747
   0.01902457  0.00079157  0.49464645
   0.50165790  0.52203348  0.49757453
   0.74209395  0.52180157  0.74632434
   0.75367733  0.73567392  0.49124787
HECN                                    
           1
     8.912996    0.011170    0.017102
     0.017052    8.980683   -0.007017
     0.049179   -0.022517    8.926028
   Zr   Ta   Nb   N    C    W    Mo
     7     6     7    13    19     6     6
Direct configuration=     4
   0.99983006  0.99693029  0.99643921
   0.25695286  0.99978549  0.24487836
   0.24644305  0.49840994  0.24736009
   0.50242576  0.49629629  0.99892403
   0.50279209  0.24564861  0.75001982
   0.99995174  0.50155513  0.50045798
   0.49419298  0.75618220  0.75296752
   0.99363479  0.23697729  0.26112620
   0.75932734  0.74341685  0.00806172
   0.00569539  0.25418091  0.74358504
   0.75222996  0.25743433  0.50135070
   0.00211546  0.74453579  0.75035724
   0.25289243  0.49654627  0.74803509
   0.25752273  0.25550882  0.99063914
   0.51083708  0.25868713  0.24689612
   0.74822596  0.98736102  0.27390083
   0.74640279  0.25757009  0.99590633
   0.23846837  0.74152254  0.00133985
   0.24639708  0.25140938  0.50484424
   0.24556187  0.74673112  0.49851186
   0.24699358  0.24849410  0.24804588
   0.26296560  0.99906023  0.99092757
   0.00241176  0.25129124  0.00134062
   0.75432069  0.24487605  0.25459670
   0.74674716  0.99490339  0.01339136
   0.50637501  0.99653886  0.24261396
   0.99531184  0.48018364  0.24221473
   0.50633442  0.76172839  0.00918385
   0.98701969  0.00304510  0.74300759
   0.75818460  0.24344413  0.74705818
   0.73754260  0.00791909  0.51441390
   0.50829603  0.23184666  0.49636262
   0.49747359  0.00147889  0.73674188
   0.99771810  0.00288922  0.25240395
   0.50233998  0.24779503  0.00353365
   0.25485965  0.74945128  0.24835338
   0.24413567  0.49893583  0.99298993
   0.99787308  0.74327261  0.00375142
   0.75429414  0.74283499  0.24973629
   0.75911337  0.49881907  0.00363907
   0.49794292  0.50203143  0.25492692
   0.24852926  0.25262651  0.74841002
   0.25276235  0.99812775  0.50649025
   0.99680377  0.24626127  0.50160480
   0.24139415  0.75401934  0.75056481
   0.25639375  0.49921927  0.50239917
   0.99561881  0.75924999  0.50284701
   0.99827292  0.50010519  0.75086878
   0.75080990  0.75388693  0.75001130
   0.74558586  0.49632975  0.50264643
   0.50226943  0.75505135  0.49681673
   0.49750336  0.50132842  0.74336981
   0.51806542  0.01432922  0.97892063
   0.00067218  0.50792450  0.98452938
   0.50091680  0.73799268  0.25943636
   0.23496192  0.01090905  0.75003243
   0.48641813  0.98923975  0.48825668
   0.73971890  0.98045707  0.76997101
   0.00037758  0.77821804  0.25890293
   0.73288771  0.50627985  0.25676818
   0.02049396  0.00256661  0.49359782
   0.50221197  0.52234504  0.49590319
   0.74430056  0.52119581  0.75335087
   0.75287840  0.73480762  0.48946673
HECN                                    
           1
     8.913391    0.011125    0.017081
     0.017007    8.981183   -0.007034
     0.049159   -0.022535    8.926929
   Zr   Ta   Nb   N    C    W    Mo
     7     6     7    13    19     6     6
Direct configuration=     5
   0.99981010  0.99689984  0.99645714
   0.25694960  0.99977391  0.24488597
   0.24647698  0.49843071  0.24735996
   0.50242897  0.49627361  0.99892789
   0.50280075  0.24565003  0.75000635
   0.99993790  0.50156126  0.50043924
   0.49420643  0.75620808  0.75295582
   0.99363642  0.23694379  0.26114051
   0.75930141  0.74341755  0.00809327
   0.00568687  0.25419102  0.74356359
   0.75222051  0.25746742  0.50137432
   0.00208971  0.74454842  0.75032447
   0.25292052  0.49653542  0.74802683
   0.25746026  0.25547025  0.99067871
   0.51080862  0.25867137  0.24692692
   0.74822971  0.98735509  0.27386215
   0.74646598  0.25757568  0.99590187
   0.23853039  0.74157389  0.00131855
   0.24645331  0.25141213  0.50481069
   0.24554877  0.74673903  0.49852690
   0.24700935  0.24850383  0.24804719
   0.26295478  0.99906767  0.99093936
   0.00241962  0.25128136  0.00133945
   0.75432574  0.24488326  0.25460779
   0.74674534  0.99492081  0.01338001
   0.50637019  0.99656819  0.24265240
   0.99528095  0.48017654  0.24220648
   0.50632965  0.76172401  0.00917987
   0.98703335  0.00303524  0.74297982
   0.75818526  0.24344087  0.74707112
   0.73751631  0.00790111  0.51437089
   0.50827937  0.23183154  0.49636104
   0.49749429  0.00146717  0.73673149
   0.99770281  0.00289660  0.25244057
   0.50236471  0.24778353  0.00353677
   0.25483579  0.74945058  0.24835910
   0.24412631  0.49894922  0.99299526
   0.99789059  0.74324932  0.00374197
   0.75431211  0.74285268  0.24976233
   0.75911426  0.49883493  0.00363096
   0.49796752  0.50202618  0.25494394
   0.24852010  0.25262249  0.74841405
   0.25276683  0.99811655  0.50646917
   0.99680882  0.24623536  0.50159556
   0.24139292  0.75401584  0.75056312
   0.25639669  0.49922740  0.50240214
   0.99559477  0.75926747  0.50282685
   0.99822437  0.50010720  0.75086795
   0.75081362  0.75391146  0.75000838
   0.74557323  0.49631290  0.50264735
   0.50228453  0.75508038  0.49680825
   0.49752994  0.50131560  0.74335690
   0.51804673  0.01434646  0.97893588
   0.00067431  0.50795371  0.98455318
   0.50093988  0.73801754  0.25941438
   0.23499558  0.01092172  0.75001212
   0.48634333  0.98918549  0.48834545
   0.73975209  0.98041851  0.76992252
   0.00036192  0.77818127  0.25891159
   0.73293101  0.50631433  0.25680959
   0.02046969  0.00253728  0.49361520
   0.50220281  0.52233989  0.49593089
   0.74426412  0.52120585  0.75323441
   0.75289159  0.73482193  0.48949625
HECN                                    
           1
     8.947667    0.011964    0.016246
     0.017884    9.002865   -0.003474
     0.048455   -0.019025    8.953441
   Zr   Ta   Nb   N    C    W    Mo
     7     6     7    13    19     6     6
Direct configuration=     6
   0.00085987  0.99862948  0.99573578
   0.25722722  0.00015167  0.24502387
   0.24496248  0.49763270  0.24787015
   0.50256646  0.49828201  0.99873164
   0.50291242  0.24605897  0.74976698
   0.99934614  0.50187747  0.50118433
   0.49448025  0.75543372  0.75276401
   0.99375736  0.23818096  0.26012400
   0.76061280  0.74333282  0.00637332
   0.00543663  0.25376416  0.74456701
   0.75315905  0.25679866  0.50059402
   0.00205198  0.74435094  0.75135844
   0.25211445  0.49704114  0.74758866
   0.25937756  0.25624049  0.98960208
   0.51202726  0.25920757  0.24644255
   0.74771248  0.98759831  0.27538067
   0.74417589  0.25603033  0.99631171
   0.23620798  0.74000149  0.00242421
   0.24413515  0.25027097  0.50589512
   0.24667879  0.74741911  0.49768443
   0.24654299  0.24812732  0.24793119
   0.26367915  0.99861120  0.99066526
   0.00185371  0.25201487  0.00141202
   0.75376957  0.24448753  0.25352828
   0.74745550  0.99415440  0.01460457
   0.50691108  0.99507549  0.23995981
   0.99619547  0.48073178  0.24256094
   0.50627368  0.76193702  0.00930400
   0.98614687  0.00335518  0.74314356
   0.75793668  0.24364420  0.74667181
   0.73909517  0.00840793  0.51735663
   0.50867635  0.23295803  0.49614006
   0.49601784  0.00148627  0.73682739
   0.99840133  0.00319876  0.25145990
   0.50102538  0.24836384  0.00306771
   0.25553639  0.74936247  0.24816545
   0.24455369  0.49834067  0.99321836
   0.99692383  0.74436389  0.00479418
   0.75371730  0.74122805  0.24924925
   0.75894272  0.49846754  0.00437284
   0.49702230  0.50217500  0.25430465
   0.24917113  0.25279265  0.74824611
   0.25321325  0.99868788  0.50731863
   0.99662113  0.24712623  0.50210393
   0.24163073  0.75420411  0.75078420
   0.25670586  0.49892349  0.50214910
   0.99601181  0.75910981  0.50309637
   0.00011855  0.49994202  0.75060684
   0.75062093  0.75290545  0.74983036
   0.74553706  0.49758063  0.50263872
   0.50185548  0.75353033  0.49759193
   0.49750660  0.50215695  0.74318800
   0.51889039  0.01313656  0.97892395
   0.99986682  0.50646908  0.98381692
   0.50006991  0.73741174  0.26045433
   0.23247373  0.01012367  0.75055834
   0.49017149  0.99119104  0.48350815
   0.73794953  0.98167787  0.77153069
   0.00081926  0.77876603  0.25864816
   0.73105207  0.50522445  0.25579450
   0.02150738  0.00342573  0.49349091
   0.50336855  0.52250226  0.49472352
   0.74622187  0.52080693  0.75848130
   0.75213762  0.73351044  0.48835430
HECN                                    
           1
     8.956920    0.012191    0.016021
     0.018121    9.008719   -0.002513
     0.048265   -0.018077    8.960598
   Zr   Ta   Nb   N    C    W    Mo
     7     6     7    13    19     6     6
Direct configuration=     7
   0.00114212  0.99909535  0.99554146
   0.25730187  0.00025339  0.24506095
   0.24455522  0.49741777  0.24800752
   0.50260338  0.49882292  0.99867860
   0.50294243  0.24616913  0.74970251
   0.99918701  0.50196257  0.50138483
   0.49455390  0.75522519  0.75271246
   0.99378983  0.23851426  0.25985026
   0.76096543  0.74331016  0.00591042
   0.00536937  0.25364910  0.74483713
   0.75341145  0.25661861  0.50038408
   0.00204187  0.74429764  0.75163677
   0.25189765  0.49717741  0.74747065
   0.25989314  0.25644799  0.98931226
   0.51235497  0.25935199  0.24631215
   0.74757342  0.98766366  0.27578936
   0.74356006  0.25561416  0.99642212
   0.23558349  0.73957795  0.00272193
   0.24351178  0.24996358  0.50618708
   0.24698266  0.74760232  0.49745763
   0.24641758  0.24802595  0.24790000
   0.26387396  0.99848828  0.99059155
   0.00170150  0.25221243  0.00143147
   0.75361998  0.24438108  0.25323774
   0.74764654  0.99394785  0.01493429
   0.50705651  0.99467376  0.23923524
   0.99644141  0.48088126  0.24265632
   0.50625862  0.76199438  0.00933739
   0.98590847  0.00344134  0.74318758
   0.75786981  0.24369900  0.74656430
   0.73951984  0.00854407  0.51816028
   0.50878308  0.23326142  0.49608047
   0.49562079  0.00149144  0.73685316
   0.99858915  0.00328022  0.25119593
   0.50066516  0.24852021  0.00294135
   0.25572480  0.74933874  0.24811336
   0.24466865  0.49817674  0.99327849
   0.99666384  0.74466398  0.00507725
   0.75355736  0.74079058  0.24911131
   0.75889662  0.49836852  0.00457256
   0.49676809  0.50221517  0.25413253
   0.24934621  0.25283848  0.74820091
   0.25333332  0.99884164  0.50754723
   0.99657065  0.24736610  0.50224066
   0.24169469  0.75425478  0.75084369
   0.25678901  0.49884166  0.50208103
   0.99612397  0.75906731  0.50316895
   0.00062795  0.49989751  0.75053662
   0.75056913  0.75263454  0.74978255
   0.74552730  0.49792205  0.50263626
   0.50174016  0.75311280  0.49780303
   0.49750030  0.50238356  0.74314245
   0.51911730  0.01281070  0.97892089
   0.99964968  0.50606934  0.98361888
   0.49983599  0.73724850  0.26073429
   0.23179557  0.00990874  0.75070538
   0.49120082  0.99173159  0.48220600
   0.73746477  0.98201691  0.77196337
   0.00094223  0.77892353  0.25857720
   0.73054676  0.50493108  0.25552133
   0.02178642  0.00366499  0.49345738
   0.50368202  0.52254608  0.49439855
   0.74674851  0.52069888  0.75989368
   0.75193486  0.73315738  0.48804705
HECN                                    
           1
     8.953932    0.011151    0.015120
     0.017094    8.986219    0.001186
     0.047324   -0.014353    8.971943
   Zr   Ta   Nb   N    C    W    Mo
     7     6     7    13    19     6     6
Direct configuration=     8
   0.00181835  0.00031261  0.99527196
   0.25793463  0.00029288  0.24546019
   0.24438710  0.49713812  0.24870887
   0.50268287  0.50012848  0.99872431
   0.50360356  0.24651997  0.74868148
   0.99796029  0.50258397  0.50165161
   0.49539357  0.75601486  0.75202215
   0.99374643  0.23824629  0.25934150
   0.76174937  0.74360978  0.00525298
   0.00489115  0.25371300  0.74525409
   0.75427844  0.25731159  0.50010768
   0.00113909  0.74467243  0.75150623
   0.25234333  0.49744040  0.74642739
   0.25981302  0.25594196  0.98933948
   0.51271254  0.25930967  0.24678609
   0.74672345  0.98730740  0.27635151
   0.74248845  0.25344202  0.99667118
   0.23465235  0.73950854  0.00320170
   0.24258356  0.24854359  0.50639512
   0.24794732  0.74905262  0.49694398
   0.24631808  0.24801817  0.24778991
   0.26460082  0.99819916  0.99069279
   0.00113075  0.25288449  0.00147206
   0.75344180  0.24397448  0.25231933
   0.74862171  0.99347597  0.01616343
   0.50748946  0.99365730  0.23649767
   0.99635649  0.48118121  0.24294367
   0.50604272  0.76199271  0.00921362
   0.98487537  0.00331608  0.74212648
   0.75759036  0.24375403  0.74655124
   0.74025878  0.00856520  0.52066637
   0.50867960  0.23393184  0.49565002
   0.49431594  0.00106343  0.73666403
   0.99869127  0.00447084  0.25161340
   0.50009197  0.24881831  0.00235956
   0.25558918  0.74912464  0.24807686
   0.24469259  0.49792593  0.99367238
   0.99635452  0.74477911  0.00590381
   0.75350754  0.73973300  0.24905023
   0.75878566  0.49815069  0.00573801
   0.49592083  0.50211147  0.25377329
   0.24949799  0.25261686  0.74826914
   0.25573149  0.99903435  0.50811696
   0.99642445  0.24753377  0.50233042
   0.24168870  0.75437520  0.75123972
   0.25714023  0.49879339  0.50214079
   0.99574210  0.75975165  0.50283258
   0.00103480  0.49984627  0.75032244
   0.75063603  0.75312800  0.74966353
   0.74514832  0.49812403  0.50294336
   0.50178880  0.75324650  0.49811710
   0.49859357  0.50280300  0.74251441
   0.51990418  0.01241772  0.97949662
   0.99880105  0.50571364  0.98336938
   0.49971928  0.73769912  0.26137840
   0.22925131  0.00959521  0.75028531
   0.49380736  0.99200408  0.47943116
   0.73610909  0.98161222  0.77201752
   0.00071111  0.77841565  0.25883153
   0.72989467  0.50485657  0.25596737
   0.02179305  0.00354012  0.49410775
   0.50475461  0.52199646  0.49361855
   0.74834634  0.52029784  0.76206196
   0.75127753  0.73237987  0.48790650
HECN                                    
           1
     8.951437    0.010283    0.014369
     0.016236    8.967435    0.004274
     0.046539   -0.011244    8.981414
   Zr   Ta   Nb   N    C    W    Mo
     7     6     7    13    19     6     6
Direct configuration=     9
   0.00238317  0.00133152  0.99504689
   0.25846309  0.00032585  0.24579310
   0.24424674  0.49690382  0.24929371
   0.50274938  0.50122112  0.99876197
   0.50415562  0.24681402  0.74783010
   0.99693592  0.50310382  0.50187372
   0.49609480  0.75667608  0.75144638
   0.99371012  0.23802219  0.25891739
   0.76240401  0.74386085  0.00470478
   0.00449183  0.25376628  0.74560169
   0.75500252  0.25789175  0.49987706
   0.00038518  0.74498606  0.75139718
   0.25271546  0.49766091  0.74555749
   0.25974606  0.25551843  0.98936234
   0.51301120  0.25927413  0.24718129
   0.74601366  0.98700897  0.27682027
   0.74159335  0.25162392  0.99687949
   0.23387479  0.73945019  0.00360166
   0.24180827  0.24735500  0.50656899
   0.24875302  0.75026668  0.49651528
   0.24623498  0.24801169  0.24769811
   0.26520782  0.99795721  0.99077736
   0.00065417  0.25344689  0.00150563
   0.75329288  0.24363450  0.25155371
   0.74943617  0.99308071  0.01718851
   0.50785066  0.99280760  0.23421553
   0.99628563  0.48143214  0.24318314
   0.50586240  0.76199134  0.00911041
   0.98401250  0.00321152  0.74124172
   0.75735699  0.24380005  0.74654031
   0.74087611  0.00858207  0.52275595
   0.50859321  0.23449308  0.49529088
   0.49322618  0.00070515  0.73650638
   0.99877670  0.00546716  0.25196108
   0.49961326  0.24906795  0.00187431
   0.25547589  0.74894546  0.24804649
   0.24471259  0.49771588  0.99400088
   0.99609628  0.74487516  0.00659292
   0.75346583  0.73884789  0.24899966
   0.75869309  0.49796797  0.00670981
   0.49521322  0.50202472  0.25347373
   0.24962474  0.25243137  0.74832613
   0.25773432  0.99919566  0.50859213
   0.99630239  0.24767405  0.50240518
   0.24168374  0.75447584  0.75156988
   0.25743355  0.49875300  0.50219066
   0.99542323  0.76032448  0.50255185
   0.00137454  0.49980350  0.75014392
   0.75069193  0.75354104  0.74956412
   0.74483187  0.49829294  0.50319932
   0.50182947  0.75335830  0.49837893
   0.49950657  0.50315436  0.74199071
   0.52056132  0.01208870  0.97997685
   0.99809229  0.50541595  0.98316139
   0.49962191  0.73807601  0.26191528
   0.22712649  0.00933272  0.74993496
   0.49598388  0.99223334  0.47711768
   0.73497690  0.98127338  0.77206270
   0.00051808  0.77799048  0.25904373
   0.72935013  0.50479399  0.25633923
   0.02179864  0.00343539  0.49465006
   0.50565022  0.52153683  0.49296847
   0.74968088  0.51996159  0.76387011
   0.75072850  0.73172913  0.48778953
HECN                                    
           1
     8.951858    0.010318    0.015299
     0.016266    8.974366    0.003038
     0.047503   -0.012484    8.964968
   Zr   Ta   Nb   N    C    W    Mo
     7     6     7    13    19     6     6
Direct configuration=    10
   0.00244209  0.00123726  0.99540671
   0.25850989  0.00017919  0.24601227
   0.24448368  0.49688854  0.24984527
   0.50258292  0.50110968  0.99870474
   0.50451935  0.24668405  0.74719044
   0.99699446  0.50347954  0.50156102
   0.49622655  0.75699233  0.75122690
   0.99337288  0.23814117  0.25929696
   0.76225796  0.74447419  0.00512972
   0.00401379  0.25428765  0.74545797
   0.75500831  0.25814197  0.49951453
   0.00002725  0.74553688  0.75076178
   0.25355078  0.49785450  0.74506486
   0.25907236  0.25497998  0.98952104
   0.51246898  0.25835520  0.24749097
   0.74596102  0.98663104  0.27666763
   0.74139398  0.25007800  0.99669744
   0.23419616  0.74016153  0.00345136
   0.24180905  0.24688605  0.50645650
   0.24892111  0.75133381  0.49661676
   0.24635129  0.24814260  0.24772850
   0.26546774  0.99795918  0.99068845
   0.00024244  0.25390010  0.00157554
   0.75368926  0.24337401  0.25141042
   0.75022264  0.99290456  0.01760214
   0.50788488  0.99217614  0.23233682
   0.99557453  0.48205810  0.24338290
   0.50571531  0.76176543  0.00880321
   0.98272496  0.00277767  0.74039428
   0.75736639  0.24407745  0.74664109
   0.74067074  0.00813443  0.52372013
   0.50823975  0.23506333  0.49493884
   0.49254761  0.00118457  0.73634399
   0.99846891  0.00482364  0.25267147
   0.49957336  0.24927869  0.00144623
   0.25492790  0.74893853  0.24806447
   0.24443060  0.49779415  0.99394377
   0.99652745  0.74463199  0.00655249
   0.75367965  0.73893636  0.24893638
   0.75863121  0.49743948  0.00798004
   0.49499384  0.50206127  0.25328519
   0.24928261  0.25202150  0.74849875
   0.25985646  0.99920485  0.50898636
   0.99639812  0.24761952  0.50217643
   0.24133208  0.75453763  0.75184073
   0.25733801  0.49885826  0.50253750
   0.99497076  0.76086260  0.50246008
   0.00112853  0.50014519  0.75019401
   0.75097902  0.75365930  0.74959378
   0.74473132  0.49761273  0.50404822
   0.50218621  0.75403047  0.49811942
   0.50055753  0.50311669  0.74173291
   0.52049581  0.01219369  0.98007411
   0.99805661  0.50543611  0.98297442
   0.49985024  0.73907681  0.26201363
   0.22712812  0.00902975  0.74876537
   0.49759050  0.99200072  0.47726215
   0.73496228  0.98184452  0.77185590
   0.00018426  0.77800072  0.25956666
   0.72967315  0.50467278  0.25717173
   0.02133750  0.00279316  0.49501632
   0.50565842  0.52047808  0.49238153
   0.75051443  0.51952714  0.76369360
   0.75004536  0.73242327  0.48851531
HECN                                    
           1
     8.952190    0.010345    0.016034
     0.016290    8.979837    0.002063
     0.048264   -0.013463    8.951987
   Zr   Ta   Nb   N    C    W    Mo
     7     6     7    13    19     6     6
Direct configuration=    11
   0.00248856  0.00116296  0.99569121
   0.25854681  0.00006354  0.24618556
   0.24467063  0.49687655  0.25028138
   0.50245155  0.50102179  0.99865949
   0.50480649  0.24658148  0.74668459
   0.99704068  0.50377583  0.50131380
   0.49633056  0.75724172  0.75105336
   0.99310669  0.23823504  0.25959713
   0.76214266  0.74495797  0.00546581
   0.00363651  0.25469882  0.74534442
   0.75501290  0.25833927  0.49922789
   0.99974481  0.74597123  0.75025945
   0.25421011  0.49800712  0.74467526
   0.25854063  0.25455533  0.98964652
   0.51204101  0.25763051  0.24773579
   0.74591948  0.98633296  0.27654690
   0.74123665  0.24885874  0.99655333
   0.23444981  0.74072252  0.00333256
   0.24180968  0.24651618  0.50636750
   0.24905376  0.75217545  0.49669711
   0.24644309  0.24824585  0.24775253
   0.26567290  0.99796072  0.99061812
   0.99991747  0.25425755  0.00163090
   0.75400212  0.24316855  0.25129706
   0.75084332  0.99276568  0.01792913
   0.50791207  0.99167792  0.23085118
   0.99501328  0.48255181  0.24354098
   0.50559925  0.76158722  0.00856029
   0.98170884  0.00243541  0.73972423
   0.75737381  0.24429625  0.74672082
   0.74050856  0.00778149  0.52448252
   0.50796082  0.23551304  0.49466056
   0.49201206  0.00156267  0.73621569
   0.99822593  0.00431619  0.25323316
   0.49954191  0.24944485  0.00110775
   0.25449540  0.74893308  0.24807872
   0.24420804  0.49785588  0.99389865
   0.99686776  0.74444021  0.00652046
   0.75384841  0.73900613  0.24888633
   0.75858225  0.49702281  0.00898441
   0.49482071  0.50209007  0.25313613
   0.24901257  0.25169827  0.74863523
   0.26153132  0.99921214  0.50929791
   0.99647370  0.24757649  0.50199554
   0.24105451  0.75458639  0.75205494
   0.25726256  0.49894132  0.50281178
   0.99461366  0.76128699  0.50238760
   0.00093435  0.50041469  0.75023369
   0.75120560  0.75375257  0.74961723
   0.74465189  0.49707636  0.50471942
   0.50246779  0.75456058  0.49791427
   0.50138703  0.50308695  0.74152897
   0.52044410  0.01227651  0.98015103
   0.99802846  0.50545200  0.98282657
   0.50003044  0.73986612  0.26209149
   0.22712952  0.00879067  0.74784050
   0.49885851  0.99181727  0.47737623
   0.73495075  0.98229495  0.77169243
   0.99992074  0.77800886  0.25998019
   0.72992801  0.50457728  0.25782996
   0.02097351  0.00228669  0.49530590
   0.50566496  0.51964300  0.49191730
   0.75117232  0.51918447  0.76355392
   0.74950611  0.73297080  0.48908934
HECN                                    
           1
     8.948829    0.010188    0.015491
     0.016137    8.974200   -0.000530
     0.047676   -0.016042    8.968417
   Zr   Ta   Nb   N    C    W    Mo