  64  64   0   0
  0.1082869E+02  0.8866606E-09  0.8864007E-09  0.8817989E-09  0.5000000E-15
  1.000000000000000E-004
  CAR 
 HECN                                    
     12.52787519    -33.66535777  301      7.92601136      1.00000000
    -33.665  0.0000E+00  0.0000E+00
    -33.511  0.0000E+00  0.0000E+00
    -33.357  0.0000E+00  0.0000E+00
    -33.203  0.0000E+00  0.0000E+00
    -33.049  0.0000E+00  0.0000E+00
    -32.895  0.0000E+00  0.0000E+00
    -32.741  0.0000E+00  0.0000E+00
    -32.588  0.0000E+00  0.0000E+00
    -32.434  0.0000E+00  0.0000E+00
    -32.280  0.0000E+00  0.0000E+00
    -32.126  0.1493E-15  0.2299E-16
    -31.972  0.6083E-09  0.9366E-10
    -31.818  0.2685E-04  0.4135E-05
    -31.664  0.1586E-01  0.2447E-02
    -31.510  0.2770E+00  0.4509E-01
    -31.356  0.8631E+00  0.1780E+00
    -31.202  0.9973E+00  0.3315E+00
    -31.048  0.6282E+00  0.4283E+00
    -30.894  0.1028E+01  0.5866E+00
    -30.740  0.7927E+00  0.7087E+00
    -30.586  0.7326E-01  0.7200E+00
    -30.432  0.2298E-03  0.7200E+00
    -30.278  0.1080E-07  0.7200E+00
    -30.124  0.5606E-14  0.7200E+00
    -29.970  0.0000E+00  0.7200E+00
    -29.816  0.0000E+00  0.7200E+00
    -29.662  0.0000E+00  0.7200E+00
    -29.508  0.0000E+00  0.7200E+00
    -29.354  0.0000E+00  0.7200E+00
    -29.200  0.0000E+00  0.7200E+00
    -29.046  0.0000E+00  0.7200E+00
    -28.892  0.0000E+00  0.7200E+00
    -28.738  0.0000E+00  0.7200E+00
    -28.584  0.0000E+00  0.7200E+00
    -28.430  0.0000E+00  0.7200E+00
    -28.276  0.0000E+00  0.7200E+00
    -28.122  0.0000E+00  0.7200E+00
    -27.968  0.0000E+00  0.7200E+00
    -27.814  0.0000E+00  0.7200E+00
    -27.660  0.0000E+00  0.7200E+00
    -27.506  0.0000E+00  0.7200E+00
    -27.352  0.0000E+00  0.7200E+00
    -27.198  0.0000E+00  0.7200E+00
    -27.044  0.0000E+00  0.7200E+00
    -26.890  0.0000E+00  0.7200E+00
    -26.736  0.4326E-16  0.7200E+00
    -26.582  0.2494E-09  0.7200E+00
    -26.428  0.1587E-04  0.7200E+00
    -26.274  0.1436E-01  0.7222E+00
    -26.120  0.3737E+00  0.7798E+00
    -25.966  0.8030E+00  0.9034E+00
    -25.813  0.8939E+00  0.1041E+01
    -25.659  0.4488E+00  0.1110E+01
    -25.505  0.1873E+00  0.1139E+01
    -25.351  0.6524E-02  0.1140E+01
    -25.197  0.4568E-05  0.1140E+01
    -25.043  0.4110E-10  0.1140E+01
    -24.889  0.3305E-07  0.1140E+01
    -24.735  0.2886E-03  0.1140E+01
    -24.581  0.3429E-01  0.1145E+01
    -24.427  0.2113E+00  0.1178E+01
    -24.273  0.3719E+00  0.1235E+01
    -24.119  0.3257E+00  0.1285E+01
    -23.965  0.5943E+00  0.1377E+01
    -23.811  0.3734E+00  0.1434E+01
    -23.657  0.3130E+00  0.1482E+01
    -23.503  0.1112E+00  0.1500E+01
    -23.349  0.2617E-02  0.1500E+01
    -23.195  0.1259E-05  0.1500E+01
    -23.041  0.7073E-11  0.1500E+01
    -22.887  0.0000E+00  0.1500E+01
    -22.733  0.0000E+00  0.1500E+01
    -22.579  0.0000E+00  0.1500E+01
    -22.425  0.0000E+00  0.1500E+01
    -22.271  0.0000E+00  0.1500E+01
    -22.117  0.0000E+00  0.1500E+01
    -21.963  0.0000E+00  0.1500E+01
    -21.809  0.0000E+00  0.1500E+01
    -21.655  0.0000E+00  0.1500E+01
    -21.501  0.0000E+00  0.1500E+01
    -21.347  0.0000E+00  0.1500E+01
    -21.193  0.0000E+00  0.1500E+01
    -21.039  0.0000E+00  0.1500E+01
    -20.885  0.0000E+00  0.1500E+01
    -20.731  0.0000E+00  0.1500E+01
    -20.577  0.0000E+00  0.1500E+01
    -20.423  0.0000E+00  0.1500E+01
    -20.269  0.0000E+00  0.1500E+01
    -20.115  0.0000E+00  0.1500E+01
    -19.961  0.0000E+00  0.1500E+01
    -19.807  0.0000E+00  0.1500E+01
    -19.653  0.0000E+00  0.1500E+01
    -19.499  0.0000E+00  0.1500E+01
    -19.345  0.0000E+00  0.1500E+01
    -19.191  0.0000E+00  0.1500E+01
    -19.038  0.0000E+00  0.1500E+01
    -18.884  0.0000E+00  0.1500E+01
    -18.730  0.0000E+00  0.1500E+01
    -18.576  0.0000E+00  0.1500E+01
    -18.422  0.0000E+00  0.1500E+01
    -18.268  0.0000E+00  0.1500E+01
    -18.114  0.0000E+00  0.1500E+01
    -17.960  0.0000E+00  0.1500E+01
    -17.806  0.0000E+00  0.1500E+01
    -17.652  0.0000E+00  0.1500E+01
    -17.498  0.0000E+00  0.1500E+01
    -17.344  0.0000E+00  0.1500E+01
    -17.190  0.0000E+00  0.1500E+01
    -17.036  0.0000E+00  0.1500E+01
    -16.882  0.0000E+00  0.1500E+01
    -16.728  0.0000E+00  0.1500E+01
    -16.574  0.0000E+00  0.1500E+01
    -16.420  0.0000E+00  0.1500E+01
    -16.266  0.0000E+00  0.1500E+01
    -16.112  0.0000E+00  0.1500E+01
    -15.958  0.0000E+00  0.1500E+01
    -15.804  0.0000E+00  0.1500E+01
    -15.650  0.0000E+00  0.1500E+01
    -15.496  0.0000E+00  0.1500E+01
    -15.342  0.0000E+00  0.1500E+01
    -15.188  0.0000E+00  0.1500E+01
    -15.034  0.0000E+00  0.1500E+01
    -14.880  0.0000E+00  0.1500E+01
    -14.726  0.0000E+00  0.1500E+01
    -14.572  0.0000E+00  0.1500E+01
    -14.418  0.0000E+00  0.1500E+01
    -14.264  0.0000E+00  0.1500E+01
    -14.110  0.0000E+00  0.1500E+01
    -13.956  0.0000E+00  0.1500E+01
    -13.802  0.0000E+00  0.1500E+01
    -13.648  0.0000E+00  0.1500E+01
    -13.494  0.0000E+00  0.1500E+01
    -13.340  0.0000E+00  0.1500E+01
    -13.186  0.0000E+00  0.1500E+01
    -13.032  0.0000E+00  0.1500E+01
    -12.878  0.0000E+00  0.1500E+01
    -12.724  0.0000E+00  0.1500E+01
    -12.570  0.0000E+00  0.1500E+01
    -12.416  0.0000E+00  0.1500E+01
    -12.262  0.0000E+00  0.1500E+01
    -12.109  0.0000E+00  0.1500E+01
    -11.955  0.0000E+00  0.1500E+01
    -11.801  0.0000E+00  0.1500E+01
    -11.647  0.0000E+00  0.1500E+01
    -11.493  0.0000E+00  0.1500E+01
    -11.339  0.0000E+00  0.1500E+01
    -11.185  0.0000E+00  0.1500E+01
    -11.031  0.0000E+00  0.1500E+01
    -10.877  0.0000E+00  0.1500E+01
    -10.723  0.0000E+00  0.1500E+01
    -10.569  0.0000E+00  0.1500E+01
    -10.415  0.0000E+00  0.1500E+01
    -10.261  0.0000E+00  0.1500E+01
    -10.107  0.0000E+00  0.1500E+01
     -9.953  0.0000E+00  0.1500E+01
     -9.799  0.0000E+00  0.1500E+01
     -9.645  0.0000E+00  0.1500E+01
     -9.491  0.0000E+00  0.1500E+01
     -9.337  0.0000E+00  0.1500E+01
     -9.183  0.0000E+00  0.1500E+01
     -9.029  0.0000E+00  0.1500E+01
     -8.875  0.2670E-18  0.1500E+01
     -8.721  0.3284E-11  0.1500E+01
     -8.567  0.3054E-06  0.1500E+01
     -8.413  0.4504E-03  0.1500E+01
     -8.259  0.2253E-01  0.1504E+01
     -8.105  0.8286E-01  0.1516E+01
     -7.951  0.2383E-01  0.1520E+01
     -7.797  0.9588E-02  0.1521E+01
     -7.643  0.7788E-01  0.1533E+01
     -7.489  0.8220E-01  0.1546E+01
     -7.335  0.1980E+00  0.1577E+01
     -7.181  0.2937E+00  0.1622E+01
     -7.027  0.2449E+00  0.1660E+01
     -6.873  0.2054E+00  0.1691E+01
     -6.719  0.2260E+00  0.1726E+01
     -6.565  0.1744E+00  0.1753E+01
     -6.411  0.4398E-01  0.1760E+01
     -6.257  0.2842E-02  0.1760E+01
     -6.103  0.8064E-05  0.1760E+01
     -5.949  0.3454E-09  0.1760E+01
     -5.795  0.1570E-15  0.1760E+01
     -5.641  0.4053E-12  0.1760E+01
     -5.487  0.7821E-07  0.1760E+01
     -5.334  0.1819E-03  0.1760E+01
     -5.180  0.1072E-01  0.1762E+01
     -5.026  0.5658E-01  0.1770E+01
     -4.872  0.5421E-01  0.1779E+01
     -4.718  0.1698E-01  0.1781E+01
     -4.564  0.8395E-01  0.1794E+01
     -4.410  0.4144E-01  0.1801E+01
     -4.256  0.7265E-01  0.1812E+01
     -4.102  0.1499E+00  0.1835E+01
     -3.948  0.1687E+00  0.1861E+01
     -3.794  0.1672E+00  0.1887E+01
     -3.640  0.1992E+00  0.1917E+01
     -3.486  0.1968E+00  0.1948E+01
     -3.332  0.1991E+00  0.1978E+01
     -3.178  0.2258E+00  0.2013E+01
     -3.024  0.2514E+00  0.2052E+01
     -2.870  0.1919E+00  0.2081E+01
     -2.716  0.1554E+00  0.2105E+01
     -2.562  0.1043E+00  0.2121E+01
     -2.408  0.8199E-01  0.2134E+01
     -2.254  0.3443E-01  0.2139E+01
     -2.100  0.4844E-02  0.2140E+01
     -1.946  0.2716E-03  0.2140E+01
     -1.792  0.3988E-06  0.2140E+01
     -1.638  0.6701E-11  0.2140E+01
     -1.484  0.1068E-17  0.2140E+01
     -1.330  0.0000E+00  0.2140E+01
     -1.176  0.0000E+00  0.2140E+01
     -1.022  0.0000E+00  0.2140E+01
     -0.868  0.0000E+00  0.2140E+01
     -0.714  0.8011E-18  0.2140E+01
     -0.560  0.5693E-11  0.2140E+01
     -0.406  0.3582E-06  0.2140E+01
     -0.252  0.2554E-03  0.2140E+01
     -0.098  0.3485E-02  0.2141E+01
      0.056  0.1197E-01  0.2142E+01
      0.210  0.2964E-01  0.2147E+01
      0.364  0.7028E-01  0.2158E+01
      0.518  0.1032E+00  0.2174E+01
      0.672  0.9324E-01  0.2188E+01
      0.826  0.1202E+00  0.2207E+01
      0.980  0.1305E+00  0.2227E+01
      1.134  0.1924E+00  0.2256E+01
      1.288  0.2255E+00  0.2291E+01
      1.441  0.2718E+00  0.2333E+01
      1.595  0.2890E+00  0.2377E+01
      1.749  0.2659E+00  0.2418E+01
      1.903  0.2583E+00  0.2458E+01
      2.057  0.3379E+00  0.2510E+01
      2.211  0.3952E+00  0.2571E+01
      2.365  0.3392E+00  0.2623E+01
      2.519  0.4077E+00  0.2686E+01
      2.673  0.4776E+00  0.2759E+01
      2.827  0.5317E+00  0.2841E+01
      2.981  0.6136E+00  0.2936E+01
      3.135  0.6070E+00  0.3029E+01
      3.289  0.5916E+00  0.3120E+01
      3.443  0.6003E+00  0.3213E+01
      3.597  0.6411E+00  0.3311E+01
      3.751  0.6396E+00  0.3410E+01
      3.905  0.6028E+00  0.3503E+01
      4.059  0.5741E+00  0.3591E+01
      4.213  0.5086E+00  0.3670E+01
      4.367  0.4006E+00  0.3731E+01
      4.521  0.3767E+00  0.3789E+01
      4.675  0.3478E+00  0.3843E+01
      4.829  0.2778E+00  0.3886E+01
      4.983  0.2632E+00  0.3926E+01
      5.137  0.2417E+00  0.3963E+01
      5.291  0.1986E+00  0.3994E+01
      5.445  0.1704E+00  0.4020E+01
      5.599  0.1535E+00  0.4044E+01
      5.753  0.5583E-01  0.4052E+01
      5.907  0.6230E-01  0.4062E+01
      6.061  0.8084E-01  0.4074E+01
      6.215  0.1608E+00  0.4099E+01
      6.369  0.1665E+00  0.4125E+01
      6.523  0.1667E+00  0.4150E+01
      6.677  0.1765E+00  0.4178E+01
      6.831  0.1597E+00  0.4202E+01
      6.985  0.1873E+00  0.4231E+01
      7.139  0.1914E+00  0.4261E+01
      7.293  0.1860E+00  0.4289E+01
      7.447  0.2014E+00  0.4320E+01
      7.601  0.2107E+00  0.4353E+01
      7.755  0.2463E+00  0.4391E+01
      7.909  0.2331E+00  0.4426E+01
      8.063  0.2235E+00  0.4461E+01
      8.217  0.2996E+00  0.4507E+01
      8.370  0.3283E+00  0.4558E+01
      8.524  0.3943E+00  0.4618E+01
      8.678  0.4454E+00  0.4687E+01
      8.832  0.4910E+00  0.4762E+01
      8.986  0.5149E+00  0.4842E+01
      9.140  0.5400E+00  0.4925E+01
      9.294  0.5698E+00  0.5013E+01
      9.448  0.5538E+00  0.5098E+01
      9.602  0.5260E+00  0.5179E+01
      9.756  0.5533E+00  0.5264E+01
      9.910  0.5890E+00  0.5355E+01
     10.064  0.6068E+00  0.5448E+01
     10.218  0.5508E+00  0.5533E+01
     10.372  0.3418E+00  0.5586E+01
     10.526  0.8989E-01  0.5599E+01
     10.680  0.3478E-02  0.5600E+01
     10.834  0.4665E-05  0.5600E+01
     10.988  0.9086E-10  0.5600E+01
     11.142  0.2030E-16  0.5600E+01
     11.296  0.0000E+00  0.5600E+01
     11.450  0.0000E+00  0.5600E+01
     11.604  0.0000E+00  0.5600E+01
     11.758  0.0000E+00  0.5600E+01
     11.912  0.0000E+00  0.5600E+01
     12.066  0.0000E+00  0.5600E+01
     12.220  0.0000E+00  0.5600E+01
     12.374  0.0000E+00  0.5600E+01
     12.528  0.0000E+00  0.5600E+01
