       N       E                     dE             d eps       ncg     rms          rms(c)
DAV:   1     0.525751024374E+04    0.52575E+04   -0.17812E+05  7840   0.138E+03
DAV:   2     0.163398654478E+03   -0.50941E+04   -0.49111E+04  7840   0.553E+02
DAV:   3    -0.708862509250E+03   -0.87226E+03   -0.83220E+03 12236   0.175E+02
DAV:   4    -0.784403796925E+03   -0.75541E+02   -0.73394E+02 12152   0.576E+01
DAV:   5    -0.788693884340E+03   -0.42901E+01   -0.42171E+01 11984   0.129E+01    0.698E+01
RMM:   6    -0.679394404423E+03    0.10930E+03   -0.10781E+03 10770   0.707E+01    0.611E+01
RMM:   7    -0.653069240567E+03    0.26325E+02   -0.25563E+02  9408   0.402E+01    0.343E+01
RMM:   8    -0.641028889481E+03    0.12040E+02   -0.74083E+01 10352   0.180E+01    0.113E+01
RMM:   9    -0.640943881782E+03    0.85008E-01   -0.19591E+01 10953   0.737E+00    0.107E+01
RMM:  10    -0.640320927855E+03    0.62295E+00   -0.58672E+00 10078   0.459E+00    0.863E+00
RMM:  11    -0.639740027925E+03    0.58090E+00   -0.84214E+00 10051   0.532E+00    0.556E+00
RMM:  12    -0.640014117491E+03   -0.27409E+00   -0.33868E+00 10400   0.359E+00    0.603E+00
RMM:  13    -0.639534813269E+03    0.47930E+00   -0.97886E-01  8640   0.217E+00    0.281E+00
RMM:  14    -0.639414236567E+03    0.12058E+00   -0.10354E+00  9980   0.144E+00    0.217E+00
RMM:  15    -0.639411401378E+03    0.28352E-02   -0.80474E-01 10619   0.115E+00    0.865E-01
RMM:  16    -0.639435442096E+03   -0.24041E-01   -0.33088E-01 10682   0.734E-01    0.725E-01
RMM:  17    -0.639441448644E+03   -0.60065E-02   -0.12476E-01 10481   0.372E-01    0.614E-01
RMM:  18    -0.639439621317E+03    0.18273E-02   -0.55885E-02  9819   0.297E-01    0.379E-01
RMM:  19    -0.639440460983E+03   -0.83967E-03   -0.52274E-02 10885   0.318E-01    0.142E-01
RMM:  20    -0.639442763571E+03   -0.23026E-02   -0.24253E-02 11031   0.179E-01    0.127E-01
RMM:  21    -0.639444008444E+03   -0.12449E-02   -0.15154E-02 10080   0.871E-02    0.545E-02
RMM:  22    -0.639444760040E+03   -0.75160E-03   -0.82485E-03  9215   0.561E-02    0.324E-02
RMM:  23    -0.639445314691E+03   -0.55465E-03   -0.57189E-03  8710   0.418E-02    0.215E-02
RMM:  24    -0.639445621543E+03   -0.30685E-03   -0.31755E-03  6629   0.306E-02    0.171E-02
RMM:  25    -0.639445821722E+03   -0.20018E-03   -0.21029E-03  7750   0.270E-02    0.937E-03
RMM:  26    -0.639445953553E+03   -0.13183E-03   -0.13373E-03  6130   0.205E-02    0.883E-03
RMM:  27    -0.639446040821E+03   -0.87268E-04   -0.89381E-04  5596   0.174E-02    0.633E-03
RMM:  28    -0.639446098219E+03   -0.57399E-04   -0.58177E-04  5507   0.107E-02    0.347E-03
RMM:  29    -0.639446136687E+03   -0.38468E-04   -0.38819E-04  5377   0.977E-03    0.258E-03
RMM:  30    -0.639446162599E+03   -0.25912E-04   -0.25904E-04  5102   0.723E-03    0.967E-04
RMM:  31    -0.639446180050E+03   -0.17450E-04   -0.17456E-04  4799   0.664E-03    0.128E-03
RMM:  32    -0.639446192056E+03   -0.12006E-04   -0.12006E-04  4287   0.517E-03    0.853E-04
RMM:  33    -0.639446200165E+03   -0.81098E-05   -0.80906E-05  4062   0.480E-03
   1 F= -.63944620E+03 E0= -.63939553E+03  d E =-.639446E+03
       N       E                     dE             d eps       ncg     rms          rms(c)
DAV:   1    -0.640517420458E+03   -0.10712E+01   -0.26772E+01  9408   0.177E+01    0.824E+00
RMM:   2    -0.642167644534E+03   -0.16502E+01   -0.94978E+00  7875   0.856E+00    0.176E+01
RMM:   3    -0.639770918173E+03    0.23967E+01   -0.19839E+00  7942   0.477E+00    0.669E+00
RMM:   4    -0.639579801345E+03    0.19112E+00   -0.77480E-01  9630   0.261E+00    0.455E+00
RMM:   5    -0.639420677832E+03    0.15912E+00   -0.27043E-01  8549   0.145E+00    0.273E+00
RMM:   6    -0.639387722516E+03    0.32955E-01   -0.13581E-01  9534   0.957E-01    0.177E+00
RMM:   7    -0.639361333494E+03    0.26389E-01   -0.62102E-02  8530   0.669E-01    0.623E-01
RMM:   8    -0.639364559722E+03   -0.32262E-02   -0.35526E-02  9872   0.430E-01    0.868E-01
RMM:   9    -0.639359774888E+03    0.47848E-02   -0.10990E-02  9610   0.280E-01    0.282E-01
RMM:  10    -0.639359982904E+03   -0.20802E-03   -0.39511E-03 10192   0.136E-01    0.288E-01
RMM:  11    -0.639359580142E+03    0.40276E-03   -0.16663E-03  9348   0.878E-02    0.119E-01
RMM:  12    -0.639359651482E+03   -0.71340E-04   -0.10330E-03  9650   0.602E-02    0.953E-02
RMM:  13    -0.639359731578E+03   -0.80096E-04   -0.65534E-04  9285   0.507E-02    0.969E-02
RMM:  14    -0.639359699197E+03    0.32382E-04   -0.29243E-04  8340   0.367E-02    0.245E-02
RMM:  15    -0.639359701021E+03   -0.18243E-05   -0.15513E-04  7324   0.203E-02    0.114E-02
RMM:  16    -0.639359702100E+03   -0.10795E-05   -0.90358E-05  6397   0.170E-02
   2 F= -.63935970E+03 E0= -.63931066E+03  d E =0.864981E-01
       N       E                     dE             d eps       ncg     rms          rms(c)
DAV:   1    -0.640014051921E+03   -0.65435E+00   -0.12116E+01  9184   0.119E+01    0.599E+00
RMM:   2    -0.641153079514E+03   -0.11390E+01   -0.38667E+00  7885   0.538E+00    0.122E+01
RMM:   3    -0.639577304826E+03    0.15758E+01   -0.10906E+00  7877   0.358E+00    0.349E+00
RMM:   4    -0.639612629442E+03   -0.35325E-01   -0.37221E-01  9652   0.173E+00    0.394E+00
RMM:   5    -0.639491473414E+03    0.12116E+00   -0.12518E-01  8448   0.100E+00    0.134E+00
RMM:   6    -0.639494893613E+03   -0.34202E-02   -0.63881E-02  9540   0.632E-01    0.163E+00
RMM:   7    -0.639476541338E+03    0.18352E-01   -0.24791E-02  8396   0.446E-01    0.505E-01
RMM:   8    -0.639477407561E+03   -0.86622E-03   -0.16285E-02  9702   0.287E-01    0.618E-01
RMM:   9    -0.639475015351E+03    0.23922E-02   -0.56143E-03  9624   0.198E-01    0.222E-01
RMM:  10    -0.639474930806E+03    0.84545E-04   -0.17376E-03  9985   0.976E-02    0.199E-01
RMM:  11    -0.639474745164E+03    0.18564E-03   -0.72349E-04  9094   0.612E-02    0.105E-01
RMM:  12    -0.639474701820E+03    0.43344E-04   -0.43947E-04  9334   0.423E-02    0.636E-02
RMM:  13    -0.639474738160E+03   -0.36340E-04   -0.34019E-04  8918   0.370E-02    0.841E-02
RMM:  14    -0.639474689198E+03    0.48962E-04   -0.14414E-04  7806   0.296E-02    0.234E-02
RMM:  15    -0.639474680392E+03    0.88056E-05   -0.58279E-05  6161   0.164E-02
   3 F= -.63947468E+03 E0= -.63942455E+03  d E =-.284802E-01
       N       E                     dE             d eps       ncg     rms          rms(c)
DAV:   1    -0.639474686446E+03    0.27517E-05   -0.13780E-04  9660   0.311E-02    0.152E-02
RMM:   2    -0.639474696108E+03   -0.96623E-05   -0.46127E-05  6157   0.178E-02
   4 F= -.63947470E+03 E0= -.63942456E+03  d E =-.284959E-01
       N       E                     dE             d eps       ncg     rms          rms(c)
DAV:   1    -0.639474687398E+03   -0.95244E-06   -0.42585E-05  8008   0.246E-02    0.115E-02
RMM:   2    -0.639474699936E+03   -0.12537E-04   -0.25210E-05  5312   0.138E-02    0.436E-02
RMM:   3    -0.639474687081E+03    0.12855E-04   -0.77035E-06  4797   0.110E-02    0.917E-03
RMM:   4    -0.639474687299E+03   -0.21860E-06   -0.19190E-06  4439   0.563E-03
   5 F= -.63947469E+03 E0= -.63942456E+03  d E =-.284871E-01
       N       E                     dE             d eps       ncg     rms          rms(c)
DAV:   1    -0.639474687184E+03   -0.10321E-06   -0.80499E-06  6468   0.109E-02    0.427E-03
RMM:   2    -0.639474689288E+03   -0.21043E-05   -0.26604E-06  4555   0.548E-03
   6 F= -.63947469E+03 E0= -.63942456E+03  d E =-.284891E-01
       N       E                     dE             d eps       ncg     rms          rms(c)
DAV:   1    -0.639469599255E+03    0.50879E-02   -0.41744E-01  9408   0.271E+00    0.185E-01
RMM:   2    -0.639475685858E+03   -0.60866E-02   -0.61575E-02 11423   0.765E-01    0.315E-01
RMM:   3    -0.639476251945E+03   -0.56609E-03   -0.12935E-02 10275   0.305E-01    0.165E-01
RMM:   4    -0.639476292538E+03   -0.40592E-04   -0.16054E-03 11272   0.105E-01    0.132E-01
RMM:   5    -0.639476180415E+03    0.11212E-03   -0.48178E-04  9282   0.545E-02    0.502E-02
RMM:   6    -0.639476194032E+03   -0.13617E-04   -0.25373E-04  8860   0.338E-02    0.779E-02
RMM:   7    -0.639476163075E+03    0.30957E-04   -0.20404E-04  9192   0.328E-02    0.405E-02
RMM:   8    -0.639476167120E+03   -0.40455E-05   -0.95967E-05  7632   0.209E-02
   7 F= -.63947617E+03 E0= -.63942566E+03  d E =-.147783E-02
       N       E                     dE             d eps       ncg     rms          rms(c)
DAV:   1    -0.639475213919E+03    0.94916E-03   -0.68319E-02  9408   0.110E+00    0.789E-02
RMM:   2    -0.639476218516E+03   -0.10046E-02   -0.10351E-02 11413   0.313E-01    0.133E-01
RMM:   3    -0.639476315081E+03   -0.96564E-04   -0.22998E-03 10393   0.128E-01    0.735E-02
RMM:   4    -0.639476324132E+03   -0.90518E-05   -0.31093E-04 10408   0.446E-02    0.598E-02
RMM:   5    -0.639476304050E+03    0.20082E-04   -0.10282E-04  7297   0.256E-02    0.253E-02
RMM:   6    -0.639476306020E+03   -0.19696E-05   -0.47838E-05  6047   0.157E-02
   8 F= -.63947631E+03 E0= -.63942565E+03  d E =-.161673E-02
       N       E                     dE             d eps       ncg     rms          rms(c)
DAV:   1    -0.639474993014E+03    0.13110E-02   -0.16705E-01  9408   0.162E+00    0.155E-01
RMM:   2    -0.639477100096E+03   -0.21071E-02   -0.19693E-02 11120   0.456E-01    0.279E-01
RMM:   3    -0.639476805618E+03    0.29448E-03   -0.44596E-03  9642   0.201E-01    0.119E-01
RMM:   4    -0.639476848083E+03   -0.42465E-04   -0.72054E-04 10709   0.705E-02    0.125E-01
RMM:   5    -0.639476746879E+03    0.10120E-03   -0.24008E-04  8453   0.416E-02    0.522E-02
RMM:   6    -0.639476756813E+03   -0.99341E-05   -0.13695E-04  8051   0.262E-02    0.620E-02
RMM:   7    -0.639476735188E+03    0.21626E-04   -0.76221E-05  7141   0.228E-02    0.258E-02
RMM:   8    -0.639476738931E+03   -0.37432E-05   -0.43455E-05  5972   0.170E-02
   9 F= -.63947674E+03 E0= -.63942600E+03  d E =-.432911E-03
       N       E                     dE             d eps       ncg     rms          rms(c)
DAV:   1    -0.639476623814E+03    0.11137E-03   -0.11308E-02 10192   0.422E-01    0.406E-02
RMM:   2    -0.639476772313E+03   -0.14850E-03   -0.13853E-03 11079   0.120E-01    0.731E-02
RMM:   3    -0.639476754446E+03    0.17866E-04   -0.32343E-04  8918   0.528E-02    0.328E-02
RMM:   4    -0.639476755999E+03   -0.15527E-05   -0.57691E-05  6637   0.225E-02
  10 F= -.63947676E+03 E0= -.63942598E+03  d E =-.449979E-03
       N       E                     dE             d eps       ncg     rms          rms(c)
DAV:   1    -0.639476743197E+03    0.11249E-04   -0.83161E-04 10388   0.116E-01    0.156E-02
RMM:   2    -0.639476770694E+03   -0.27497E-04   -0.12507E-04  8463   0.350E-02    0.552E-02
RMM:   3    -0.639476751087E+03    0.19607E-04   -0.26129E-05  5192   0.193E-02    0.116E-02
RMM:   4    -0.639476751785E+03   -0.69799E-06   -0.67334E-06  4591   0.116E-02
  11 F= -.63947675E+03 E0= -.63942600E+03  d E =-.445765E-03
       N       E                     dE             d eps       ncg     rms          rms(c)
DAV:   1    -0.639475541178E+03    0.12099E-02   -0.15168E-01  9128   0.160E+00    0.206E-01
RMM:   2    -0.639478247348E+03   -0.27062E-02   -0.20469E-02 10840   0.473E-01    0.449E-01
RMM:   3    -0.639477075773E+03    0.11716E-02   -0.52376E-03  9518   0.228E-01    0.190E-01
RMM:   4    -0.639477049956E+03    0.25818E-04   -0.10050E-03 10808   0.851E-02    0.151E-01
RMM:   5    -0.639476896006E+03    0.15395E-03   -0.31020E-04  8187   0.502E-02    0.739E-02
RMM:   6    -0.639476877088E+03    0.18919E-04   -0.15056E-04  8273   0.297E-02    0.554E-02
RMM:   7    -0.639476852002E+03    0.25086E-04   -0.95414E-05  7672   0.255E-02    0.257E-02
RMM:   8    -0.639476852669E+03   -0.66707E-06   -0.51550E-05  6327   0.178E-02
  12 F= -.63947685E+03 E0= -.63942592E+03  d E =-.100884E-03
       N       E                     dE             d eps       ncg     rms          rms(c)
DAV:   1    -0.639476725657E+03    0.12634E-03   -0.18861E-02  9408   0.563E-01    0.727E-02
RMM:   2    -0.639477080602E+03   -0.35495E-03   -0.25480E-03 10751   0.168E-01    0.165E-01
RMM:   3    -0.639476918541E+03    0.16206E-03   -0.64055E-04  9321   0.802E-02    0.667E-02
RMM:   4    -0.639476913033E+03    0.55081E-05   -0.11495E-04  8346   0.307E-02    0.510E-02
RMM:   5    -0.639476895468E+03    0.17565E-04   -0.32677E-05  5548   0.215E-02    0.266E-02
RMM:   6    -0.639476893160E+03    0.23075E-05   -0.14617E-05  4904   0.136E-02
  13 F= -.63947689E+03 E0= -.63942603E+03  d E =-.141375E-03
       N       E                     dE             d eps       ncg     rms          rms(c)
DAV:   1    -0.639475415432E+03    0.14800E-02   -0.12301E-01  9156   0.145E+00    0.119E-01
RMM:   2    -0.639477092857E+03   -0.16774E-02   -0.15556E-02 11166   0.395E-01    0.233E-01
RMM:   3    -0.639476988577E+03    0.10428E-03   -0.33816E-03  9728   0.172E-01    0.111E-01
RMM:   4    -0.639477015088E+03   -0.26511E-04   -0.53233E-04 10811   0.599E-02    0.999E-02
RMM:   5    -0.639476952536E+03    0.62552E-04   -0.15976E-04  8003   0.348E-02    0.385E-02
RMM:   6    -0.639476955806E+03   -0.32699E-05   -0.82633E-05  7203   0.206E-02
  14 F= -.63947696E+03 E0= -.63942599E+03  d E =-.626460E-04
       N       E                     dE             d eps       ncg     rms          rms(c)
DAV:   1    -0.639476801312E+03    0.15122E-03   -0.13449E-02  9548   0.481E-01    0.410E-02
RMM:   2    -0.639476999402E+03   -0.19809E-03   -0.17595E-03 11126   0.132E-01    0.908E-02
RMM:   3    -0.639476973386E+03    0.26016E-04   -0.37984E-04  8761   0.594E-02    0.374E-02
RMM:   4    -0.639476972144E+03    0.12419E-05   -0.54766E-05  6675   0.236E-02
  15 F= -.63947697E+03 E0= -.63942606E+03  d E =-.789837E-04
       N       E                     dE             d eps       ncg     rms          rms(c)
DAV:   1    -0.639476947972E+03    0.25414E-04   -0.14118E-03  9688   0.157E-01    0.174E-02
RMM:   2    -0.639476990118E+03   -0.42146E-04   -0.21649E-04 10136   0.453E-02    0.656E-02
RMM:   3    -0.639476963964E+03    0.26154E-04   -0.45539E-05  5762   0.241E-02    0.129E-02
RMM:   4    -0.639476964464E+03   -0.49972E-06   -0.88518E-06  4742   0.132E-02
  16 F= -.63947696E+03 E0= -.63942603E+03  d E =-.713035E-04
       N       E                     dE             d eps       ncg     rms          rms(c)
DAV:   1    -0.639476961056E+03    0.29085E-05   -0.40659E-04  9884   0.858E-02    0.907E-03
RMM:   2    -0.639476972524E+03   -0.11469E-04   -0.66623E-05  6743   0.247E-02    0.322E-02
RMM:   3    -0.639476965248E+03    0.72760E-05   -0.12359E-05  4766   0.152E-02
  17 F= -.63947697E+03 E0= -.63942603E+03  d E =-.720880E-04
       N       E                     dE             d eps       ncg     rms          rms(c)
DAV:   1    -0.639476963979E+03    0.85457E-05   -0.98995E-05  9856   0.421E-02    0.746E-03
RMM:   2    -0.639476973804E+03   -0.98257E-05   -0.18958E-05  5084   0.134E-02
  18 F= -.63947697E+03 E0= -.63942601E+03  d E =-.806440E-04
       N       E                     dE             d eps       ncg     rms          rms(c)
DAV:   1    -0.639476964489E+03   -0.51018E-06   -0.47558E-05  7532   0.335E-02    0.355E-03
RMM:   2    -0.639476965608E+03   -0.11190E-05   -0.66317E-06  4072   0.103E-02
  19 F= -.63947697E+03 E0= -.63942602E+03  d E =-.724475E-04
       N       E                     dE             d eps       ncg     rms          rms(c)
DAV:   1    -0.639476964884E+03   -0.39519E-06   -0.68098E-06  5488   0.150E-02    0.278E-03
RMM:   2    -0.639476966193E+03   -0.13093E-05   -0.19760E-06  4028   0.512E-03
  20 F= -.63947697E+03 E0= -.63942602E+03  d E =-.730330E-04
       N       E                     dE             d eps       ncg     rms          rms(c)
DAV:   1    -0.639476965158E+03   -0.27411E-06   -0.28895E-06  5096   0.879E-03    0.170E-03
RMM:   2    -0.639476965330E+03   -0.17215E-06   -0.59223E-07  3342   0.267E-03
  21 F= -.63947697E+03 E0= -.63942603E+03  d E =-.721700E-04
       N       E                     dE             d eps       ncg     rms          rms(c)
DAV:   1    -0.639476891409E+03    0.73749E-04   -0.10006E-02  8904   0.405E-01    0.533E-02
RMM:   2    -0.639477060825E+03   -0.16942E-03   -0.14116E-03 10649   0.128E-01    0.107E-01
RMM:   3    -0.639477013614E+03    0.47210E-04   -0.48244E-04  8986   0.617E-02    0.504E-02
RMM:   4    -0.639477012921E+03    0.69343E-06   -0.72493E-05  7097   0.254E-02
  22 F= -.63947701E+03 E0= -.63942607E+03  d E =-.475904E-04
