 vasp.6.4.3 19Mar24 (build Sep 18 2024 11:30:23) complex                        
  
 executed on             LinuxIFC date 2026.07.08  10:36:16
 running   28 mpi-ranks, on    1 nodes
 distrk:  each k-point on   28 cores,    1 groups
 distr:  one band on NCORE=   1 cores,   28 groups


--------------------------------------------------------------------------------------------------------


 INCAR:
   SYSTEM = HECN
   ISTART = 0
   ICHARG = 2
   PREC = Normal
   LREAL = .F.
   IBRION = 2
   ISIF = 3
   NSW = 100
   POTIM = 0.5
   EDIFFG = -0.01
   ENCUT = 400
   NELM = 60
   EDIFF = 1E-5
   LCHARG = .F.
   LWAVE = .F.
   ISMEAR = 0
   SIGMA = 0.1
   ALGO = Fast

 POTCAR:   PAW_PBE Ti_pv 07Sep2000                
 POTCAR:   PAW_PBE Nb_pv 08Apr2002                
 POTCAR:   PAW_PBE V_pv 07Sep2000                 
 POTCAR:   PAW_PBE N 08Apr2002                    
 POTCAR:   PAW_PBE C 08Apr2002                    
 POTCAR:   PAW_PBE Zr 08Apr2002                   
 POTCAR:   PAW_PBE W_pv 06Sep2000                 
 -----------------------------------------------------------------------------
|                                                                             |
|           W    W    AA    RRRRR   N    N  II  N    N   GGGG   !!!           |
|           W    W   A  A   R    R  NN   N  II  NN   N  G    G  !!!           |
|           W    W  A    A  R    R  N N  N  II  N N  N  G       !!!           |
|           W WW W  AAAAAA  RRRRR   N  N N  II  N  N N  G  GGG   !            |
|           WW  WW  A    A  R   R   N   NN  II  N   NN  G    G                |
|           W    W  A    A  R    R  N    N  II  N    N   GGGG   !!!           |
|                                                                             |
|     For optimal performance we recommend to set                             |
|       NCORE = 2 up to number-of-cores-per-socket                            |
|     NCORE specifies how many cores store one orbital (NPAR=cpu/NCORE).      |
|     This setting can greatly improve the performance of VASP for DFT.       |
|     The default, NCORE=1 might be grossly inefficient on modern             |
|     multi-core architectures or massively parallel machines. Do your        |
|     own testing! More info at https://www.vasp.at/wiki/index.php/NCORE      |
|     Unfortunately you need to use the default for GW and RPA                |
|     calculations (for HF NCORE is supported but not extensively tested      |
|     yet).                                                                   |
|                                                                             |
 -----------------------------------------------------------------------------

 POTCAR:   PAW_PBE Ti_pv 07Sep2000                
   VRHFIN =Ti: d3 s1                                                                                
   LEXCH  = PE                                                                                      
   EATOM  =  1042.3781 eV,   76.6126 Ry                                                             
                                                                                                    
   TITEL  = PAW_PBE Ti_pv 07Sep2000                                                                 
   LULTRA =        F    use ultrasoft PP ?                                                          
   IUNSCR =        1    unscreen: 0-lin 1-nonlin 2-no                                               
   RPACOR =    2.200    partial core radius                                                         
   POMASS =   47.880; ZVAL   =   10.000    mass and valenz                                          
   RCORE  =    2.500    outmost cutoff radius                                                       
   RWIGS  =    2.500; RWIGS  =    1.323    wigner-seitz radius (au A)                               
   ENMAX  =  222.338; ENMIN  =  166.753 eV                                                          
   RCLOC  =    1.701    cutoff for local pot                                                        
   LCOR   =        T    correct aug charges                                                         
   LPAW   =        T    paw PP                                                                      
   EAUG   =  482.848                                                                                
   DEXC   =    -.008                                                                                
   RMAX   =    3.092    core radius for proj-oper                                                   
   RAUG   =    1.300    factor for augmentation sphere                                              
   RDEP   =    2.538    radius for radial grids                                                     
   QCUT   =   -4.042; QGAM   =    8.085    optimization parameters                                  
                                                                                                    
   Description                                                                                      
     l     E      TYP  RCUT    TYP  RCUT                                                            
     1   .000     23  2.300                                                                         
     1  -.100     23  2.300                                                                         
     2   .000     23  2.500                                                                         
     2   .000     23  2.500                                                                         
     0   .000     23  2.500                                                                         
     0  1.500     23  2.500                                                                         
     3   .000      7   .000                                                                         
  local pseudopotential read in
  partial core-charges read in
  atomic valenz-charges read in
  non local Contribution for L=           1  read in
    real space projection operators read in
  non local Contribution for L=           1  read in
    real space projection operators read in
  non local Contribution for L=           2  read in
    real space projection operators read in
  non local Contribution for L=           2  read in
    real space projection operators read in
  non local Contribution for L=           0  read in
    real space projection operators read in
  non local Contribution for L=           0  read in
    real space projection operators read in
    PAW grid and wavefunctions read in
 
   number of l-projection  operators is LMAX  =           6
   number of lm-projection operators is LMMAX =          18
 
 POTCAR:   PAW_PBE Nb_pv 08Apr2002                
   VRHFIN =Nb: 4p5s4d                                                                               
   LEXCH  = PE                                                                                      
   EATOM  =  1043.3919 eV,   76.6871 Ry                                                             
                                                                                                    
   TITEL  = PAW_PBE Nb_pv 08Apr2002                                                                 
   LULTRA =        F    use ultrasoft PP ?                                                          
   IUNSCR =        1    unscreen: 0-lin 1-nonlin 2-no                                               
   RPACOR =    2.200    partial core radius                                                         
   POMASS =   92.000; ZVAL   =   11.000    mass and valenz                                          
   RCORE  =    2.750    outmost cutoff radius                                                       
   RWIGS  =    2.840; RWIGS  =    1.503    wigner-seitz radius (au A)                               
   ENMAX  =  208.608; ENMIN  =  156.456 eV                                                          
   RCLOC  =    2.201    cutoff for local pot                                                        
   LCOR   =        T    correct aug charges                                                         
   LPAW   =        T    paw PP                                                                      
   EAUG   =  355.067                                                                                
   DEXC   =    -.005                                                                                
   RMAX   =    3.192    core radius for proj-oper                                                   
   RAUG   =    1.300    factor for augmentation sphere                                              
   RDEP   =    2.776    radius for radial grids                                                     
   QCUT   =   -3.916; QGAM   =    7.831    optimization parameters                                  
                                                                                                    
   Description                                                                                      
     l     E      TYP  RCUT    TYP  RCUT                                                            
     1   .000     23  2.600                                                                         
     1  -.100     23  2.600                                                                         
     2   .000     23  2.600                                                                         
     2   .000     23  2.600                                                                         
     0   .000     23  2.750                                                                         
     0  1.500     23  2.750                                                                         
     3   .000      7   .000                                                                         
  local pseudopotential read in
  partial core-charges read in
  atomic valenz-charges read in
  non local Contribution for L=           1  read in
    real space projection operators read in
  non local Contribution for L=           1  read in
    real space projection operators read in
  non local Contribution for L=           2  read in
    real space projection operators read in
  non local Contribution for L=           2  read in
    real space projection operators read in
  non local Contribution for L=           0  read in
    real space projection operators read in
  non local Contribution for L=           0  read in
    real space projection operators read in
    PAW grid and wavefunctions read in
 
   number of l-projection  operators is LMAX  =           6
   number of lm-projection operators is LMMAX =          18
 
 POTCAR:   PAW_PBE V_pv 07Sep2000                 
   VRHFIN =V: p6 d4 s1                                                                              
   LEXCH  = PE                                                                                      
   EATOM  =  1321.3402 eV,   97.1158 Ry                                                             
                                                                                                    
   TITEL  = PAW_PBE V_pv 07Sep2000                                                                  
   LULTRA =        F    use ultrasoft PP ?                                                          
   IUNSCR =        1    unscreen: 0-lin 1-nonlin 2-no                                               
   RPACOR =    1.700    partial core radius                                                         
   POMASS =   50.941; ZVAL   =   11.000    mass and valenz                                          
   RCORE  =    2.300    outmost cutoff radius                                                       
   RWIGS  =    2.300; RWIGS  =    1.217    wigner-seitz radius (au A)                               
   ENMAX  =  263.675; ENMIN  =  197.756 eV                                                          
   RCLOC  =    1.779    cutoff for local pot                                                        
   LCOR   =        T    correct aug charges                                                         
   LPAW   =        T    paw PP                                                                      
   EAUG   =  598.473                                                                                
   DEXC   =    -.006                                                                                
   RMAX   =    2.839    core radius for proj-oper                                                   
   RAUG   =    1.300    factor for augmentation sphere                                              
   RDEP   =    2.430    radius for radial grids                                                     
   RDEPT  =    1.700    core radius for aug-charge                                                  
   QCUT   =   -4.402; QGAM   =    8.804    optimization parameters                                  
                                                                                                    
   Description                                                                                      
     l     E      TYP  RCUT    TYP  RCUT                                                            
     1   .000     23  2.000                                                                         
     1   .400     23  2.000                                                                         
     2   .000     23  2.300                                                                         
     2   .000     23  2.300                                                                         
     0   .000     23  2.300                                                                         
     0  2.000     23  2.300                                                                         
     3   .000      7   .000                                                                         
  local pseudopotential read in
  partial core-charges read in
  atomic valenz-charges read in
  non local Contribution for L=           1  read in
    real space projection operators read in
  non local Contribution for L=           1  read in
    real space projection operators read in
  non local Contribution for L=           2  read in
    real space projection operators read in
  non local Contribution for L=           2  read in
    real space projection operators read in
  non local Contribution for L=           0  read in
    real space projection operators read in
  non local Contribution for L=           0  read in
    real space projection operators read in
    PAW grid and wavefunctions read in
 
   number of l-projection  operators is LMAX  =           6
   number of lm-projection operators is LMMAX =          18
 
 POTCAR:   PAW_PBE N 08Apr2002                    
   VRHFIN =N: s2p3                                                                                  
   LEXCH  = PE                                                                                      
   EATOM  =   264.5486 eV,   19.4438 Ry                                                             
                                                                                                    
   TITEL  = PAW_PBE N 08Apr2002                                                                     
   LULTRA =        F    use ultrasoft PP ?                                                          
   IUNSCR =        0    unscreen: 0-lin 1-nonlin 2-no                                               
   RPACOR =     .000    partial core radius                                                         
   POMASS =   14.001; ZVAL   =    5.000    mass and valenz                                          
   RCORE  =    1.500    outmost cutoff radius                                                       
   RWIGS  =    1.400; RWIGS  =     .741    wigner-seitz radius (au A)                               
   ENMAX  =  400.000; ENMIN  =  300.000 eV                                                          
   ICORE  =        2    local potential                                                             
   LCOR   =        T    correct aug charges                                                         
   LPAW   =        T    paw PP                                                                      
   EAUG   =  627.112                                                                                
   DEXC   =     .000                                                                                
   RMAX   =    2.247    core radius for proj-oper                                                   
   RAUG   =    1.300    factor for augmentation sphere                                              
   RDEP   =    1.514    radius for radial grids                                                     
   QCUT   =   -5.562; QGAM   =   11.124    optimization parameters                                  
                                                                                                    
   Description                                                                                      
     l     E      TYP  RCUT    TYP  RCUT                                                            
     0   .000     23  1.200                                                                         
     0   .000     23  1.200                                                                         
     1   .000     23  1.500                                                                         
     1   .700     23  1.500                                                                         
     2   .000      7  1.500                                                                         
  local pseudopotential read in
  atomic valenz-charges read in
  non local Contribution for L=           0  read in
    real space projection operators read in
  non local Contribution for L=           0  read in
    real space projection operators read in
  non local Contribution for L=           1  read in
    real space projection operators read in
  non local Contribution for L=           1  read in
    real space projection operators read in
    PAW grid and wavefunctions read in
 
   number of l-projection  operators is LMAX  =           4
   number of lm-projection operators is LMMAX =           8
 
 POTCAR:   PAW_PBE C 08Apr2002                    
   VRHFIN =C: s2p2                                                                                  
   LEXCH  = PE                                                                                      
   EATOM  =   147.1560 eV,   10.8157 Ry                                                             
                                                                                                    
   TITEL  = PAW_PBE C 08Apr2002                                                                     
   LULTRA =        F    use ultrasoft PP ?                                                          
   IUNSCR =        0    unscreen: 0-lin 1-nonlin 2-no                                               
   RPACOR =     .000    partial core radius                                                         
   POMASS =   12.011; ZVAL   =    4.000    mass and valenz                                          
   RCORE  =    1.500    outmost cutoff radius                                                       
   RWIGS  =    1.630; RWIGS  =     .863    wigner-seitz radius (au A)                               
   ENMAX  =  400.000; ENMIN  =  300.000 eV                                                          
   ICORE  =        2    local potential                                                             
   LCOR   =        T    correct aug charges                                                         
   LPAW   =        T    paw PP                                                                      
   EAUG   =  644.873                                                                                
   DEXC   =     .000                                                                                
   RMAX   =    2.266    core radius for proj-oper                                                   
   RAUG   =    1.300    factor for augmentation sphere                                              
   RDEP   =    1.501    radius for radial grids                                                     
   RDEPT  =    1.300    core radius for aug-charge                                                  
   QCUT   =   -5.516; QGAM   =   11.032    optimization parameters                                  
                                                                                                    
   Description                                                                                      
     l     E      TYP  RCUT    TYP  RCUT                                                            
     0   .000     23  1.200                                                                         
     0   .000     23  1.200                                                                         
     1   .000     23  1.500                                                                         
     1  2.500     23  1.500                                                                         
     2   .000      7  1.500                                                                         
  local pseudopotential read in
  atomic valenz-charges read in
  non local Contribution for L=           0  read in
    real space projection operators read in
  non local Contribution for L=           0  read in
    real space projection operators read in
  non local Contribution for L=           1  read in
    real space projection operators read in
  non local Contribution for L=           1  read in
    real space projection operators read in
    PAW grid and wavefunctions read in
 
   number of l-projection  operators is LMAX  =           4
   number of lm-projection operators is LMMAX =           8
 
 POTCAR:   PAW_PBE Zr 08Apr2002                   
   VRHFIN =Zr: 5s4d5p                                                                               
   LEXCH  = PE                                                                                      
   EATOM  =    77.8472 eV,    5.7216 Ry                                                             
                                                                                                    
   TITEL  = PAW_PBE Zr 08Apr2002                                                                    
   LULTRA =        F    use ultrasoft PP ?                                                          
   IUNSCR =        1    unscreen: 0-lin 1-nonlin 2-no                                               
   RPACOR =    2.200    partial core radius                                                         
   POMASS =   91.224; ZVAL   =    4.000    mass and valenz                                          
   RCORE  =    3.000    outmost cutoff radius                                                       
   RWIGS  =    3.070; RWIGS  =    1.625    wigner-seitz radius (au A)                               
   ENMAX  =  154.632; ENMIN  =  115.974 eV                                                          
   RCLOC  =    2.213    cutoff for local pot                                                        
   LCOR   =        T    correct aug charges                                                         
   LPAW   =        T    paw PP                                                                      
   EAUG   =  243.217                                                                                
   DEXC   =    -.082                                                                                
   RMAX   =    3.708    core radius for proj-oper                                                   
   RAUG   =    1.300    factor for augmentation sphere                                              
   RDEP   =    3.146    radius for radial grids                                                     
   QCUT   =   -3.371; QGAM   =    6.742    optimization parameters                                  
                                                                                                    
   Description                                                                                      
     l     E      TYP  RCUT    TYP  RCUT                                                            
     2   .000     23  3.000                                                                         
     2   .000     23  3.000                                                                         
     0   .000     23  3.000                                                                         
     0  2.000     23  3.000                                                                         
     1  -.400     23  3.000                                                                         
     3   .000      7   .000                                                                         
  local pseudopotential read in
  partial core-charges read in
  atomic valenz-charges read in
  non local Contribution for L=           2  read in
    real space projection operators read in
  non local Contribution for L=           2  read in
    real space projection operators read in
  non local Contribution for L=           0  read in
    real space projection operators read in
  non local Contribution for L=           0  read in
    real space projection operators read in
  non local Contribution for L=           1  read in
    real space projection operators read in
    PAW grid and wavefunctions read in
 
   number of l-projection  operators is LMAX  =           5
   number of lm-projection operators is LMMAX =          15
 
 POTCAR:   PAW_PBE W_pv 06Sep2000                 
   VRHFIN =W : 5p6s5d                                                                               
   LEXCH  = PE                                                                                      
   EATOM  =  1260.0376 eV,   92.6101 Ry                                                             
                                                                                                    
   TITEL  = PAW_PBE W_pv 06Sep2000                                                                  
   LULTRA =        F    use ultrasoft PP ?                                                          
   IUNSCR =        1    unscreen: 0-lin 1-nonlin 2-no                                               
   RPACOR =    2.330    partial core radius                                                         
   POMASS =  183.850; ZVAL   =   12.000    mass and valenz                                          
   RCORE  =    2.500    outmost cutoff radius                                                       
   RWIGS  =    2.750; RWIGS  =    1.455    wigner-seitz radius (au A)                               
   ENMAX  =  223.065; ENMIN  =  167.299 eV                                                          
   RCLOC  =    2.147    cutoff for local pot                                                        
   LCOR   =        T    correct aug charges                                                         
   LPAW   =        T    paw PP                                                                      
   EAUG   =  373.438                                                                                
   DEXC   =    -.018                                                                                
   RMAX   =    3.087    core radius for proj-oper                                                   
   RAUG   =    1.300    factor for augmentation sphere                                              
   RDEP   =    2.539    radius for radial grids                                                     
   QCUT   =   -4.049; QGAM   =    8.098    optimization parameters                                  
                                                                                                    
   Description                                                                                      
     l     E      TYP  RCUT    TYP  RCUT                                                            
     1   .000     23  2.500                                                                         
     1  -.200     23  2.500                                                                         
     2   .000     23  2.500                                                                         
     2   .000     23  2.500                                                                         
     0   .000     23  2.500                                                                         
     0   .000     23  2.500                                                                         
     3   .000      7   .000                                                                         
  local pseudopotential read in
  partial core-charges read in
  atomic valenz-charges read in
  non local Contribution for L=           1  read in
    real space projection operators read in
  non local Contribution for L=           1  read in
    real space projection operators read in
  non local Contribution for L=           2  read in
    real space projection operators read in
  non local Contribution for L=           2  read in
    real space projection operators read in
  non local Contribution for L=           0  read in
    real space projection operators read in
  non local Contribution for L=           0  read in
    real space projection operators read in
    PAW grid and wavefunctions read in
 
   number of l-projection  operators is LMAX  =           6
   number of lm-projection operators is LMMAX =          18
 
 -----------------------------------------------------------------------------
|                                                                             |
|               ----> ADVICE to this user running VASP <----                  |
|                                                                             |
|     You have a (more or less) 'large supercell' and for larger cells it     |
|     might be more efficient to use real-space projection operators.         |
|     Therefore, try LREAL= Auto in the INCAR file.                           |
|     Mind: If you want to do very accurate calculations, keep the            |
|     reciprocal projection scheme (i.e. LREAL=.FALSE.).                      |
|                                                                             |
 -----------------------------------------------------------------------------

 PAW_PBE Ti_pv 07Sep2000                :
 energy of atom  1       EATOM=-1042.3781
 kinetic energy error for atom=    0.0037 (will be added to EATOM!!)
 PAW_PBE Nb_pv 08Apr2002                :
 energy of atom  2       EATOM=-1043.3919
 kinetic energy error for atom=    0.0032 (will be added to EATOM!!)
 PAW_PBE V_pv 07Sep2000                 :
 energy of atom  3       EATOM=-1321.3402
 kinetic energy error for atom=    0.0272 (will be added to EATOM!!)
 PAW_PBE N 08Apr2002                    :
 energy of atom  4       EATOM= -264.5486
 kinetic energy error for atom=    0.0736 (will be added to EATOM!!)
 PAW_PBE C 08Apr2002                    :
 energy of atom  5       EATOM= -147.1560
 kinetic energy error for atom=    0.0288 (will be added to EATOM!!)
 PAW_PBE Zr 08Apr2002                   :
 energy of atom  6       EATOM=  -77.8472
 kinetic energy error for atom=    0.0002 (will be added to EATOM!!)
 PAW_PBE W_pv 06Sep2000                 :
 energy of atom  7       EATOM=-1260.0376
 kinetic energy error for atom=    0.0051 (will be added to EATOM!!)
 
 
 POSCAR: 13-TiZrVNbW
  positions in direct lattice
  velocities in cartesian coordinates


 exchange-correlation table for PE
   RHO(1)=    0.500       N(1)  =     2000
   RHO(2)=  100.500       N(2)  =     4000
 


--------------------------------------------------------------------------------------------------------


 ion  position               nearest neighbor table
   1  0.000  0.004  0.010-  33 2.08  22 2.10  24 2.16  21 2.17  37 2.22  28 2.28  16 2.90   2 2.99
                             8 3.00  59 3.01   9 3.10  55 3.12  57 3.16  10 3.26  12 3.31
   2  0.243  0.009  0.246-  21 2.10  20 2.13  33 2.15  42 2.18  25 2.31  35 2.32  61 2.95   8 2.97
                             1 2.99  59 3.04  52 3.11  56 3.15  58 3.21  54 3.23
   3  0.263  0.486  0.252-  40 2.06  20 2.10  45 2.15  36 2.18  35 2.33  26 2.34  15 2.95  62 3.03
                            14 3.04   4 3.07   6 3.11  54 3.11   8 3.16  58 3.18  53 3.20
   4  0.500  0.499  0.999-  34 2.13  39 2.14  36 2.17  27 2.19  40 2.19  51 2.19  14 2.93  60 2.96
                            17 2.98  15 3.00  63 3.03   5 3.04   3 3.07   7 3.07  13 3.08  54 3.09
   5  0.499  0.257  0.755-  51 2.16  34 2.17  41 2.17  29 2.18  32 2.24  31 2.25  14 2.91  13 3.03
                             4 3.04  63 3.08  62 3.13  52 3.15  56 3.18  55 3.19  57 3.20  11 3.25
   6  0.010  0.494  0.496-  26 2.11  43 2.13  45 2.15  47 2.18  49 2.25  46 2.31  19 2.95  11 3.03
                            10 3.03  12 3.09   8 3.10  58 3.10   3 3.11  13 3.13  64 3.13  59 3.23
   7  0.501  0.744  0.752-  27 2.12  48 2.16  51 2.16  50 2.17  44 2.20  32 2.31  63 3.03  13 3.07
                             4 3.07  62 3.10  64 3.11  58 3.16  57 3.19  52 3.19   9 3.20  55 3.21
   8  0.003  0.242  0.253-  33 2.15  43 2.19  22 2.23  20 2.23  26 2.28  23 2.29  61 2.89   2 2.97
                             1 3.00  11 3.04  16 3.06  19 3.09   6 3.10  53 3.12   3 3.16  17 3.22
   9  0.762  0.748  0.003-  37 2.17  38 2.22  48 2.24  39 2.29  24 2.30  27 2.33  16 2.99  63 3.06
                            59 3.06  12 3.07  53 3.09  60 3.10   1 3.10  57 3.15  54 3.18   4 3.20
  10  0.003  0.261  0.747-  47 2.11  43 2.17  41 2.23  22 2.25  29 2.29  28 2.29  19 2.90   6 3.03
                            53 3.07  13 3.07  11 3.14  63 3.16  55 3.16  14 3.17  57 3.20  61 3.20
  11  0.757  0.265  0.492-  49 2.09  23 2.18  43 2.20  31 2.29  29 2.30  30 2.34  60 3.01   6 3.03
                             8 3.04  62 3.09  10 3.14  15 3.14  63 3.16  61 3.18  56 3.22   5 3.25
  12  0.997  0.737  0.747-  47 2.11  46 2.21  48 2.25  37 2.26  44 2.28  28 2.35  63 3.05  18 3.07
                             9 3.07   6 3.09  64 3.11  13 3.13  58 3.14  53 3.15  57 3.19  55 3.21
  13  0.257  0.498  0.750-  41 2.17  51 2.19  44 2.20  45 2.25  36 2.25  47 2.30  14 2.96  19 3.03
                             5 3.03  18 3.04   7 3.07  10 3.07   4 3.08  62 3.10   6 3.13  12 3.13
  14  0.268  0.264  0.989-  34 2.03  36 2.10  41 2.10  21 2.27  20 2.30   5 2.91   4 2.93  13 2.96
                             3 3.04  52 3.09  55 3.10  53 3.14  10 3.17
  15  0.507  0.261  0.239-  40 2.06  34 2.10  23 2.11  25 2.23  20 2.25  31 2.30  17 2.74  60 2.86
                             3 2.95   4 3.00  52 3.09  62 3.12  11 3.14  56 3.17
  16  0.764  0.993  0.237-  24 2.05  33 2.10  38 2.19  23 2.22  30 2.27  25 2.32   1 2.90  59 2.92
                             9 2.99   8 3.06  61 3.08  52 3.13  54 3.21  56 3.27
  17  0.724  0.251  0.019-  23 2.01  34 2.03  39 2.14  24 2.18  15 2.74  60 2.91   4 2.98  52 2.98
                             8 3.22  53 3.24  57 3.25
  18  0.231  0.729  0.004-  37 2.00  36 2.04  35 2.08  44 2.14  53 2.93  59 3.01  13 3.04  12 3.07
                            54 3.18  55 3.25  52 3.39
  19  0.235  0.249  0.515-  43 2.05  41 2.09  45 2.13  42 2.13  31 2.34  10 2.90  61 2.92   6 2.95
                            13 3.03  55 3.07   8 3.09  56 3.17
  20  0.254  0.249  0.248-   3 2.10   2 2.13   8 2.23  15 2.25  14 2.30
  21  0.245  0.010  0.008-   2 2.10   1 2.17  55 2.21  52 2.24  14 2.27
  22  0.998  0.241  0.001-   1 2.10   8 2.23  53 2.24  10 2.25
  23  0.745  0.242  0.246-  17 2.01  15 2.11  11 2.18  16 2.22  60 2.24   8 2.29
  24  0.757  0.007  0.005-  16 2.05   1 2.16  17 2.18  57 2.24   9 2.30  52 2.30
  25  0.503  0.009  0.248-  52 2.16  56 2.17  15 2.23   2 2.31  54 2.32  16 2.32
  26  0.999  0.499  0.258-   6 2.11  53 2.22   8 2.28   3 2.34  59 2.37  60 2.39
  27  0.499  0.746  0.993-   7 2.12   4 2.19  54 2.23  52 2.28   9 2.33
  28  0.999  0.002  0.751-  57 2.18  55 2.19   1 2.28  10 2.29  12 2.35  61 2.36
  29  0.745  0.253  0.752-   5 2.18  63 2.22  57 2.24  10 2.29  11 2.30
  30  0.757  0.001  0.495-  61 2.24  57 2.27  16 2.27  56 2.29  11 2.34  64 2.41
  31  0.498  0.257  0.500-  62 2.16  56 2.20   5 2.25  11 2.29  15 2.30  19 2.34
  32  0.502  0.004  0.750-  57 2.23  52 2.24   5 2.24  56 2.26  55 2.27   7 2.31
  33  0.001  1.000  0.246-   1 2.08  59 2.08  61 2.10  16 2.10   8 2.15   2 2.15
  34  0.496  0.259  0.001-  17 2.03  14 2.03  15 2.10   4 2.13   5 2.17  52 2.27
  35  0.242  0.748  0.239-  18 2.08  59 2.14  54 2.26  58 2.29   2 2.32   3 2.33
  36  0.256  0.500  0.005-  18 2.04  14 2.10   4 2.17   3 2.18  13 2.25  53 2.28
  37  0.007  0.754  0.003-  18 2.00   9 2.17  59 2.20   1 2.22  12 2.26  53 2.31
  38  0.755  0.747  0.255-  64 2.17  16 2.19  59 2.19   9 2.22  60 2.26  54 2.29
  39  0.741  0.491  0.000-  60 2.13  63 2.14  17 2.14   4 2.14  53 2.28   9 2.29
  40  0.496  0.493  0.247-  15 2.06   3 2.06  60 2.08   4 2.19  62 2.22  54 2.26
  41  0.255  0.252  0.751-  19 2.09  14 2.10   5 2.17  13 2.17  10 2.23  55 2.24
  42  0.245  0.010  0.494-  61 2.09  19 2.13   2 2.18  56 2.25  58 2.32  55 2.33
  43  0.004  0.254  0.501-  19 2.05   6 2.13  61 2.16  10 2.17   8 2.19  11 2.20
  44  0.253  0.746  0.763-  18 2.14   7 2.20  13 2.20  55 2.25  12 2.28  58 2.33
  45  0.253  0.487  0.495-  19 2.13   3 2.15   6 2.15  62 2.21  13 2.25  58 2.31
  46  0.992  0.754  0.497-  59 2.16  64 2.19  12 2.21  58 2.28  61 2.28   6 2.31
  47  0.997  0.498  0.744-  10 2.11  12 2.11   6 2.18  63 2.25  13 2.30  53 2.31
  48  0.744  0.746  0.750-  63 2.14   7 2.16  64 2.20   9 2.24  12 2.25  57 2.26
  49  0.757  0.501  0.497-  64 2.02  11 2.09   6 2.25  60 2.26  62 2.27  63 2.31
  50  0.505  0.747  0.506-  64 2.15   7 2.17  62 2.18  58 2.26  54 2.30  56 2.33
  51  0.503  0.500  0.750-  63 2.13   5 2.16   7 2.16  13 2.19   4 2.19  62 2.22
  52  0.498  0.003  0.004-  25 2.16  32 2.24  21 2.24  34 2.27  27 2.28  24 2.30  17 2.98  15 3.09
                            14 3.09  54 3.11   2 3.11  55 3.11  16 3.13   5 3.15  57 3.17   7 3.19
  53  0.999  0.493  0.006-  26 2.22  22 2.24  36 2.28  39 2.28  37 2.31  47 2.31  18 2.93  10 3.07
                             9 3.09   8 3.12  14 3.14  12 3.15  63 3.15  60 3.16   3 3.20  13 3.21
  54  0.497  0.748  0.245-  27 2.23  35 2.26  40 2.26  38 2.29  50 2.30  25 2.32  60 3.06   4 3.09
                            52 3.11   3 3.11  58 3.12  62 3.13  64 3.16   9 3.18  18 3.18  56 3.19
  55  0.246  0.000  0.758-  28 2.19  21 2.21  41 2.24  44 2.25  32 2.27  42 2.33  19 3.07  14 3.10
                            52 3.11   1 3.12  10 3.16  58 3.19   5 3.19  61 3.20   7 3.21  12 3.21
  56  0.499  0.009  0.494-  25 2.17  31 2.20  42 2.25  32 2.26  30 2.29  50 2.33   2 3.15  19 3.17
                            15 3.17   5 3.18  54 3.19  58 3.19  57 3.20  11 3.22  55 3.23  16 3.27
  57  0.753  0.000  0.752-  28 2.18  32 2.23  24 2.24  29 2.24  48 2.26  30 2.27   9 3.15   1 3.16
                            52 3.17  12 3.19   7 3.19  10 3.20  56 3.20   5 3.20  17 3.25  64 3.27
  58  0.250  0.748  0.498-  50 2.26  46 2.28  35 2.29  45 2.31  42 2.32  44 2.33   6 3.10  59 3.10
                            54 3.12  62 3.13  12 3.14  13 3.14   7 3.16  61 3.16   3 3.18  56 3.19
  59  0.001  0.765  0.253-  33 2.08  35 2.14  46 2.16  38 2.19  37 2.20  26 2.37  16 2.92  61 2.98
                             1 3.01  18 3.01   2 3.04   9 3.06  58 3.10  64 3.16   6 3.23  53 3.25
  60  0.730  0.494  0.242-  40 2.08  39 2.13  23 2.24  38 2.26  49 2.26  26 2.39  15 2.86  17 2.91
                             4 2.96  11 3.01  62 3.04  54 3.06  64 3.09   9 3.10  53 3.16   8 3.30
  61  0.009  0.011  0.484-  42 2.09  33 2.10  43 2.16  30 2.24  46 2.28  28 2.36   8 2.89  19 2.92
                             2 2.95  59 2.98  16 3.08  58 3.16  11 3.18  10 3.20  55 3.20  57 3.28
  62  0.501  0.501  0.499-  31 2.16  50 2.18  45 2.21  51 2.22  40 2.22  49 2.27  64 2.96   3 3.03
                            60 3.04  11 3.09   7 3.10  13 3.10  15 3.12  58 3.13  54 3.13   5 3.13
  63  0.744  0.504  0.758-  51 2.13  39 2.14  48 2.14  29 2.22  47 2.25  49 2.31  64 3.03   4 3.03
                             7 3.03  12 3.05   9 3.06   5 3.08  62 3.14  53 3.15  10 3.16  11 3.16
  64  0.747  0.729  0.501-  49 2.02  50 2.15  38 2.17  46 2.19  48 2.20  30 2.41  62 2.96  63 3.03
                            60 3.09   7 3.11  12 3.11   6 3.13  59 3.16  54 3.16  57 3.27  56 3.32
 
  LATTYP: Found a triclinic cell.
 ALAT       =     8.8640068221
 B/A-ratio  =     0.9948083955
 C/A-ratio  =     1.0002932323
 COS(alpha) =     0.0003285442
 COS(beta)  =     0.0013699953
 COS(gamma) =     0.0020002426
  
  Lattice vectors:
  
 A1 = (  -0.0060654412,   8.8640003389,  -0.0088399876)
 A2 = (  -0.0014558019,   0.0088430374,  -8.8179838503)
 A3 = (  -8.8666038340,   0.0060785556,  -0.0014431488)


Analysis of symmetry for initial positions (statically):
=====================================================================
 Subroutine PRICEL returns:
 Original cell was already a primitive cell.
 

 Routine SETGRP: Setting up the symmetry group for a 
 triclinic supercell.


 Subroutine GETGRP returns: Found  1 space group operations
 (whereof  1 operations were pure point group operations)
 out of a pool of  2 trial point group operations.


The static configuration has the point symmetry C_1 .


Analysis of symmetry for dynamics (positions and initial velocities):
=====================================================================
 Subroutine PRICEL returns:
 Original cell was already a primitive cell.
 

 Routine SETGRP: Setting up the symmetry group for a 
 triclinic supercell.


 Subroutine GETGRP returns: Found  1 space group operations
 (whereof  1 operations were pure point group operations)
 out of a pool of  2 trial point group operations.


The dynamic configuration has the point symmetry C_1 .


 Subroutine INISYM returns: Found  1 space group operations
 (whereof  1 operations are pure point group operations),
 and found     1 'primitive' translations


----------------------------------------------------------------------------------------

                                     Primitive cell                                     

  volume of cell :     693.0359

  direct lattice vectors                    reciprocal lattice vectors
     8.866603834 -0.006078556  0.001443149     0.112782810  0.000077156 -0.000018542
    -0.006065441  8.864000339 -0.008839988     0.000077323  0.112816046  0.000113124
     0.001455802 -0.008843037  8.817983850    -0.000018380  0.000113085  0.113404724

  length of vectors
     8.866606035  8.864006822  8.817988405     0.112782838  0.112816129  0.113404782

  position of ions in fractional coordinates (direct lattice)
     0.000314201  0.004022174  0.010414789
     0.242899526  0.009139377  0.246008164
     0.263117397  0.485941854  0.252032436
     0.500013636  0.499188794  0.998793368
     0.499287450  0.256906127  0.754855680
     0.010268929  0.494064731  0.496296148
     0.500970226  0.743550076  0.752188214
     0.002671425  0.241641624  0.253328095
     0.761938746  0.747982233  0.003081980
     0.003294849  0.260797806  0.746765867
     0.756501576  0.265155882  0.492295125
     0.997432035  0.736783832  0.747258719
     0.256650377  0.497759227  0.749847385
     0.267652918  0.263873902  0.988814542
     0.506901215  0.260695972  0.239291491
     0.764030839  0.993123144  0.237234580
     0.724376461  0.250811103  0.019462416
     0.231162444  0.728608325  0.003971928
     0.234767049  0.248861851  0.515313388
     0.254110729  0.248931809  0.248314748
     0.244729687  0.009731813  0.008334572
     0.998390208  0.240690487  0.000820853
     0.744538929  0.242278132  0.246329131
     0.756817232  0.006924297  0.005392406
     0.502894731  0.009319239  0.248364790
     0.999079073  0.498656668  0.257840440
     0.499041596  0.746279987  0.992638790
     0.999172818  0.002189840  0.751379221
     0.744872603  0.253153994  0.752149596
     0.757129716  0.000693418  0.494611872
     0.498100194  0.257352983  0.499936460
     0.502234261  0.004483983  0.750331724
     0.000892061  0.999728177  0.245821943
     0.496351889  0.258579062  0.000845667
     0.241671765  0.747832204  0.238726190
     0.255503085  0.499630317  0.004829289
     0.006601994  0.753838696  0.002967356
     0.754825670  0.747234843  0.255115118
     0.741365451  0.490562425  0.000107144
     0.495697910  0.492536448  0.247304941
     0.254559334  0.252432326  0.751317390
     0.244651482  0.009649241  0.493671298
     0.003938465  0.253652740  0.500882381
     0.253411899  0.746154062  0.762665729
     0.252881037  0.487473373  0.495364443
     0.992470242  0.754344515  0.497490428
     0.997387580  0.498454841  0.743548839
     0.744277870  0.745553791  0.749684593
     0.756744912  0.500522895  0.496724123
     0.505056936  0.746720307  0.506392738
     0.503457649  0.499971354  0.749915264
     0.497779777  0.002823898  0.003975071
     0.998705697  0.492989831  0.005932240
     0.496739168  0.747923002  0.245375859
     0.246170545  0.000148349  0.757524251
     0.498756486  0.008832245  0.494348048
     0.753353809  0.000109196  0.751832625
     0.249888021  0.748414788  0.498222746
     0.000975197  0.765412650  0.252523080
     0.730229074  0.494222718  0.241637385
     0.008980218  0.011059880  0.483813992
     0.501206360  0.501210179  0.498695897
     0.743565604  0.503806729  0.758364797
     0.746540407  0.728580906  0.500680888

  ion indices of the primitive-cell ions
   primitive index   ion index
                 1           1
                 2           2
                 3           3
                 4           4
                 5           5
                 6           6
                 7           7
                 8           8
                 9           9
                10          10
                11          11
                12          12
                13          13
                14          14
                15          15
                16          16
                17          17
                18          18
                19          19
                20          20
                21          21
                22          22
                23          23
                24          24
                25          25
                26          26
                27          27
                28          28
                29          29
                30          30
                31          31
                32          32
                33          33
                34          34
                35          35
                36          36
                37          37
                38          38
                39          39
                40          40
                41          41
                42          42
                43          43
                44          44
                45          45
                46          46
                47          47
                48          48
                49          49
                50          50
                51          51
                52          52
                53          53
                54          54
                55          55
                56          56
                57          57
                58          58
                59          59
                60          60
                61          61
                62          62
                63          63
                64          64

----------------------------------------------------------------------------------------

 
 
 KPOINTS: HECN                                    

Automatic generation of k-mesh.
 Grid dimensions read from file:
 generate k-points for:    3    3    3

 Generating k-lattice:

  Cartesian coordinates                     Fractional coordinates (reciprocal lattice)
     0.037594270  0.000025719 -0.000006181     0.333333333 -0.000000000 -0.000000000
     0.000025774  0.037605349  0.000037708     0.000000000  0.333333333  0.000000000
    -0.000006127  0.000037695  0.037801575     0.000000000  0.000000000  0.333333333

  Length of vectors
     0.037594279  0.037605376  0.037801594

  Shift w.r.t. Gamma in fractional coordinates (k-lattice)
     0.000000000  0.000000000  0.000000000

 
 Subroutine IBZKPT returns following result:
 ===========================================
 
 Found     14 irreducible k-points:
 
 Following reciprocal coordinates:
            Coordinates               Weight
  0.000000  0.000000  0.000000      1.000000
  0.333333 -0.000000  0.000000      2.000000
  0.000000  0.333333 -0.000000      2.000000
  0.333333  0.333333 -0.000000      2.000000
 -0.333333  0.333333 -0.000000      2.000000
 -0.000000 -0.000000  0.333333      2.000000
  0.333333 -0.000000  0.333333      2.000000
 -0.333333 -0.000000  0.333333      2.000000
  0.000000  0.333333  0.333333      2.000000
  0.333333  0.333333  0.333333      2.000000
 -0.333333  0.333333  0.333333      2.000000
 -0.000000 -0.333333  0.333333      2.000000
  0.333333 -0.333333  0.333333      2.000000
 -0.333333 -0.333333  0.333333      2.000000
 
 Following cartesian coordinates:
            Coordinates               Weight
  0.000000  0.000000  0.000000      1.000000
  0.037594  0.000026 -0.000006      2.000000
  0.000026  0.037605  0.000038      2.000000
  0.037620  0.037631  0.000032      2.000000
 -0.037568  0.037580  0.000044      2.000000
 -0.000006  0.000038  0.037802      2.000000
  0.037588  0.000063  0.037795      2.000000
 -0.037600  0.000012  0.037808      2.000000
  0.000020  0.037643  0.037839      2.000000
  0.037614  0.037669  0.037833      2.000000
 -0.037575  0.037617  0.037845      2.000000
 -0.000032 -0.037568  0.037764      2.000000
  0.037562 -0.037542  0.037758      2.000000
 -0.037626 -0.037593  0.037770      2.000000
 


--------------------------------------------------------------------------------------------------------




 Dimension of arrays:
   k-points           NKPTS =     14   k-points in BZ     NKDIM =     14   number of bands    NBANDS=    280
   number of dos      NEDOS =    301   number of ions     NIONS =     64
   non local maximal  LDIM  =      6   non local SUM 2l+1 LMDIM =     18
   total plane-waves  NPLWV = 110592
   max r-space proj   IRMAX =      1   max aug-charges    IRDMAX=  17527
   dimension x,y,z NGX =    48 NGY =   48 NGZ =   48
   dimension x,y,z NGXF=    96 NGYF=   96 NGZF=   96
   support grid    NGXF=    96 NGYF=   96 NGZF=   96
   ions per type =               7   6   6  13  19   7   6
   NGX,Y,Z   is equivalent  to a cutoff of   9.00,  9.00,  9.05 a.u.
   NGXF,Y,Z  is equivalent  to a cutoff of  18.00, 18.00, 18.10 a.u.

 SYSTEM =  HECN                                    
 POSCAR =  13-TiZrVNbW                             

 Startparameter for this run:
   NWRITE =      2    write-flag & timer
   PREC   = normal    normal or accurate (medium, high low for compatibility)
   ISTART =      0    job   : 0-new  1-cont  2-samecut
   ICHARG =      2    charge: 1-file 2-atom 10-const
   ISPIN  =      1    spin polarized calculation?
   LNONCOLLINEAR =      F non collinear calculations
   LSORBIT =      F    spin-orbit coupling
   INIWAV =      1    electr: 0-lowe 1-rand  2-diag
   LASPH  =      F    aspherical Exc in radial PAW
 Electronic Relaxation 1
   ENCUT  =  400.0 eV  29.40 Ry    5.42 a.u.  14.46 14.45 14.38*2*pi/ulx,y,z
   ENINI  =  400.0     initial cutoff
   ENAUG  =  644.9 eV  augmentation charge cutoff
   NELM   =     60;   NELMIN=  2; NELMDL= -5     # of ELM steps 
   EDIFF  = 0.1E-04   stopping-criterion for ELM
   LREAL  =      F    real-space projection
   NLSPLINE    = F    spline interpolate recip. space projectors
   LCOMPAT=      F    compatible to vasp.4.4
   GGA_COMPAT  = T    GGA compatible to vasp.4.4-vasp.4.6
   LMAXPAW     = -100 max onsite density
   LMAXMIX     =    2 max onsite mixed and CHGCAR
   VOSKOWN=      0    Vosko Wilk Nusair interpolation
   ROPT   =    0.00000   0.00000   0.00000   0.00000
   ROPT   =    0.00000   0.00000   0.00000
 Ionic relaxation
   EDIFFG = -.1E-01   stopping-criterion for IOM
   NSW    =    100    number of steps for IOM
   NBLOCK =      1;   KBLOCK =    100    inner block; outer block 
   IBRION =      2    ionic relax: 0-MD 1-quasi-New 2-CG
   NFREE  =      1    steps in history (QN), initial steepest desc. (CG)
   ISIF   =      3    stress and relaxation
   IWAVPR =     11    prediction:  0-non 1-charg 2-wave 3-comb
   ISYM   =      2    0-nonsym 1-usesym 2-fastsym
   LCORR  =      T    Harris-Foulkes like correction to forces

   POTIM  = 0.5000    time-step for ionic-motion
   TEIN   =    0.0    initial temperature
   TEBEG  =    0.0;   TEEND  =   0.0 temperature during run
   SMASS  =  -3.00    Nose mass-parameter (am)
   estimated Nose-frequenzy (Omega)   =  0.10E-29 period in steps = 0.13E+47 mass=  -0.180E-26a.u.
   SCALEE = 1.0000    scale energy and forces
   NPACO  =    256;   APACO  = 10.0  distance and # of slots for P.C.
   PSTRESS=    0.0 pullay stress

  Mass of Ions in am
   POMASS =  47.88 92.00 50.94 14.00 12.01 91.22183.85
  Ionic Valenz
   ZVAL   =  10.00 11.00 11.00  5.00  4.00  4.00 12.00
  Atomic Wigner-Seitz radii
   RWIGS  =  -1.00 -1.00 -1.00 -1.00 -1.00 -1.00 -1.00
  virtual crystal weights 
   VCA    =   1.00  1.00  1.00  1.00  1.00  1.00  1.00
   NELECT =     443.0000    total number of electrons
   NUPDOWN=      -1.0000    fix difference up-down

 DOS related values:
   EMIN   =  10.00;   EMAX   =-10.00  energy-range for DOS
   EFERMI =   0.00;   METHOD = LEGACY      
   ISMEAR =     0;   SIGMA  =   0.10  broadening in eV -4-tet -1-fermi 0-gaus

 Electronic relaxation 2 (details)
   IALGO  =     68    algorithm
   LDIAG  =      T    sub-space diagonalisation (order eigenvalues)
   LSUBROT=      F    optimize rotation matrix (better conditioning)
   TURBO    =      0    0=normal 1=particle mesh
   IRESTART =      0    0=no restart 2=restart with 2 vectors
   NREBOOT  =      0    no. of reboots
   NMIN     =      0    reboot dimension
   EREF     =   0.00    reference energy to select bands
   IMIX   =      4    mixing-type and parameters
     AMIX     =   0.40;   BMIX     =  1.00
     AMIX_MAG =   1.60;   BMIX_MAG =  1.00
     AMIN     =   0.10
     WC   =   100.;   INIMIX=   1;  MIXPRE=   1;  MAXMIX= -45

 Intra band minimization:
   WEIMIN = 0.0010     energy-eigenvalue tresh-hold
   EBREAK =  0.89E-08  absolut break condition
   DEPER  =   0.30     relativ break condition  

   TIME   =   0.40     timestep for ELM

  volume/ion in A,a.u.               =      10.83        73.08
  Fermi-wavevector in a.u.,A,eV,Ry     =   1.410233  2.664954 27.058678  1.988757
  Thomas-Fermi vector in A             =   2.532208
 
 Write flags
   LWAVE        =      F    write WAVECAR
   LDOWNSAMPLE  =      F    k-point downsampling of WAVECAR
   LCHARG       =      F    write CHGCAR
   LVTOT        =      F    write LOCPOT, total local potential
   LVHAR        =      F    write LOCPOT, Hartree potential only
   WRT_POTENTIAL= false  ! write potential to hdf5 file
   LELF         =      F    write electronic localiz. function (ELF)
   LORBIT       =      0    0 simple, 1 ext, 2 COOP (PROOUT), +10 PAW based schemes


 Dipole corrections
   LMONO      =      F    monopole corrections only (constant potential shift)
   LDIPOL     =      F    correct potential (dipole corrections)
   IDIPOL     =      0    1-x, 2-y, 3-z, 4-all directions 
   EPSILON    =  1.0000000 bulk dielectric constant
   LVACPOTAV  =      F  vacuum potentials using an averaging scheme for the charge density
   VACPOTFLAT =  0.1000000 required flatness to determine vacuum potential
 Exchange correlation treatment:
   GGA     = PE    functional components
   XC_C    = 1    coefficients multiplying the functional components
   LIBXC   =     F    Libxc                    
   VOSKOWN =     0    Vosko Wilk Nusair interpolation
   LHFCALC =     F    Hartree Fock is set to
   LHFONE  =     F    Hartree Fock one center treatment
   AEXX    =    0.0000 exact exchange contribution

 Parameters of functionals:
   PE:
     No parameter
 
 Van der Waals corrections
   IVDW    =     0    specifies the selected vdW correction

 Linear response parameters
   LEPSILON=     F    determine dielectric tensor
   LRPA    =     F    only Hartree local field effects (RPA)
   LNABLA  =     F    use nabla operator in PAW spheres
   LVEL    =     F    velocity operator in full k-point grid
   CSHIFT  =0.1000    complex shift for real part using Kramers Kronig
   OMEGAMAX=  -1.0    maximum frequency
   DEG_THRESHOLD= 0.2000000E-02 threshold for treating states as degnerate
   RTIME   =   -0.100 relaxation time in fs
  (WPLASMAI=    0.000 imaginary part of plasma frequency in eV, 0.658/RTIME)
   DFIELD  = 0.0000000 0.0000000 0.0000000 field for delta impulse in time
 
  Optional k-point grid parameters
   LKPOINTS_OPT  =     F    use optional k-point grid
   KPOINTS_OPT_MODE=     1    mode for optional k-point grid
 
 Orbital magnetization related:
   ORBITALMAG=     F  switch on orbital magnetization
   LCHIMAG   =     F  perturbation theory with respect to B field
   DQ        =  0.001000  dq finite difference perturbation B field
   LLRAUG    =     F  two centre corrections for induced B field
   LBONE     =     F  B-component reconstruction in AE one-centre
   LVGVCALC  =     T  calculate vGv susceptibility
   LVGVAPPL  =     F  apply vGv susceptibility instead of pGv for G=0

 Random number generation:
   RANDOM_GENERATOR = DEFAULT
   PCG_SEED         = not used


--------------------------------------------------------------------------------------------------------


 conjugate gradient relaxation of ions
 charge density and potential will be updated during run
 non-spin polarized calculation
 RMM-DIIS sequential band-by-band and
  variant of blocked Davidson during initial phase
 perform sub-space diagonalisation
    before iterative eigenvector-optimisation
 modified Broyden-mixing scheme, WC =      100.0
 initial mixing is a Kerker type mixing with AMIX =  0.4000 and BMIX =      1.0000
 Hartree-type preconditioning will be used
 using additional bands           58
 reciprocal scheme for non local part
 use partial core corrections
 calculate Harris-corrections to forces 
   (improved forces if not selfconsistent)
 use gradient corrections 
 use of overlap-Matrix (Vanderbilt PP)
 Gauss-broadening in eV      SIGMA  =   0.10


--------------------------------------------------------------------------------------------------------


  energy-cutoff  :      400.00
  volume of cell :      693.04
      direct lattice vectors                 reciprocal lattice vectors
     8.866603834 -0.006078556  0.001443149     0.112782810  0.000077156 -0.000018542
    -0.006065441  8.864000339 -0.008839988     0.000077323  0.112816046  0.000113124
     0.001455802 -0.008843037  8.817983850    -0.000018380  0.000113085  0.113404724

  length of vectors
     8.866606035  8.864006822  8.817988405     0.112782838  0.112816129  0.113404782


 
 k-points in units of 2pi/SCALE and weight: HECN                                    
   0.00000000  0.00000000  0.00000000       0.037
   0.03759427  0.00002572 -0.00000618       0.074
   0.00002577  0.03760535  0.00003771       0.074
   0.03762004  0.03763107  0.00003153       0.074
  -0.03756850  0.03757963  0.00004389       0.074
  -0.00000613  0.00003769  0.03780157       0.074
   0.03758814  0.00006341  0.03779539       0.074
  -0.03760040  0.00001198  0.03780776       0.074
   0.00001965  0.03764304  0.03783928       0.074
   0.03761392  0.03766876  0.03783310       0.074
  -0.03757462  0.03761732  0.03784546       0.074
  -0.00003190 -0.03756765  0.03776387       0.074
   0.03756237 -0.03754193  0.03775769       0.074
  -0.03762617 -0.03759337  0.03777005       0.074
 
 k-points in reciprocal lattice and weights: HECN                                    
   0.00000000  0.00000000  0.00000000       0.037
   0.33333333 -0.00000000  0.00000000       0.074
   0.00000000  0.33333333 -0.00000000       0.074
   0.33333333  0.33333333 -0.00000000       0.074
  -0.33333333  0.33333333 -0.00000000       0.074
  -0.00000000 -0.00000000  0.33333333       0.074
   0.33333333 -0.00000000  0.33333333       0.074
  -0.33333333 -0.00000000  0.33333333       0.074
   0.00000000  0.33333333  0.33333333       0.074
   0.33333333  0.33333333  0.33333333       0.074
  -0.33333333  0.33333333  0.33333333       0.074
  -0.00000000 -0.33333333  0.33333333       0.074
   0.33333333 -0.33333333  0.33333333       0.074
  -0.33333333 -0.33333333  0.33333333       0.074
 
 position of ions in fractional coordinates (direct lattice) 
   0.00031420  0.00402217  0.01041479
   0.24289953  0.00913938  0.24600816
   0.26311740  0.48594185  0.25203244
   0.50001364  0.49918879  0.99879337
   0.49928745  0.25690613  0.75485568
   0.01026893  0.49406473  0.49629615
   0.50097023  0.74355008  0.75218821
   0.00267142  0.24164162  0.25332810
   0.76193875  0.74798223  0.00308198
   0.00329485  0.26079781  0.74676587
   0.75650158  0.26515588  0.49229512
   0.99743204  0.73678383  0.74725872
   0.25665038  0.49775923  0.74984738
   0.26765292  0.26387390  0.98881454
   0.50690121  0.26069597  0.23929149
   0.76403084  0.99312314  0.23723458
   0.72437646  0.25081110  0.01946242
   0.23116244  0.72860832  0.00397193
   0.23476705  0.24886185  0.51531339
   0.25411073  0.24893181  0.24831475
   0.24472969  0.00973181  0.00833457
   0.99839021  0.24069049  0.00082085
   0.74453893  0.24227813  0.24632913
   0.75681723  0.00692430  0.00539241
   0.50289473  0.00931924  0.24836479
   0.99907907  0.49865667  0.25784044
   0.49904160  0.74627999  0.99263879
   0.99917282  0.00218984  0.75137922
   0.74487260  0.25315399  0.75214960
   0.75712972  0.00069342  0.49461187
   0.49810019  0.25735298  0.49993646
   0.50223426  0.00448398  0.75033172
   0.00089206  0.99972818  0.24582194
   0.49635189  0.25857906  0.00084567
   0.24167177  0.74783220  0.23872619
   0.25550309  0.49963032  0.00482929
   0.00660199  0.75383870  0.00296736
   0.75482567  0.74723484  0.25511512
   0.74136545  0.49056243  0.00010714
   0.49569791  0.49253645  0.24730494
   0.25455933  0.25243233  0.75131739
   0.24465148  0.00964924  0.49367130
   0.00393847  0.25365274  0.50088238
   0.25341190  0.74615406  0.76266573
   0.25288104  0.48747337  0.49536444
   0.99247024  0.75434452  0.49749043
   0.99738758  0.49845484  0.74354884
   0.74427787  0.74555379  0.74968459
   0.75674491  0.50052289  0.49672412
   0.50505694  0.74672031  0.50639274
   0.50345765  0.49997135  0.74991526
   0.49777978  0.00282390  0.00397507
   0.99870570  0.49298983  0.00593224
   0.49673917  0.74792300  0.24537586
   0.24617055  0.00014835  0.75752425
   0.49875649  0.00883224  0.49434805
   0.75335381  0.00010920  0.75183263
   0.24988802  0.74841479  0.49822275
   0.00097520  0.76541265  0.25252308
   0.73022907  0.49422272  0.24163738
   0.00898022  0.01105988  0.48381399
   0.50120636  0.50121018  0.49869590
   0.74356560  0.50380673  0.75836480
   0.74654041  0.72858091  0.50068089
 
 position of ions in cartesian coordinates  (Angst):
   0.00277666  0.03555855  0.09180234
   2.15399658  0.07735950  2.16956577
   2.33037718  4.30356065  2.21850195
   4.43184907  4.41293791  8.80365256
   4.42652469  2.26750584  6.65475470
   0.08877631  4.37493875  4.37197871
   4.43848961  6.58113132  6.62693353
   0.02258960  2.13965501  2.23171080
   6.75127665  6.62545603  0.02166429
   0.02871941  2.30508813  6.58266866
   6.70670817  2.34139001  4.33979823
   8.84045365  6.51818115  6.58424159
   2.27368972  4.40394697  6.60811233
   2.37301140  2.32860729  8.71740428
   4.49325938  2.30561189  2.10849549
   6.76868041  8.79630181  2.08425411
   6.42126616  2.21861444  0.17044749
   2.04521226  6.45694418  0.02891711
   2.08082715  2.19992755  4.54216400
   2.25195078  2.20279116  2.18780161
   2.16987429  0.08470149  0.07376127
   8.85087175  2.12740453  0.00655139
   6.60042080  2.14084942  2.17105905
   6.71036442  0.05672893  0.04858114
   4.45927340  0.07735256  2.19072008
   8.85578913  4.41173982  2.27066653
   4.42172270  6.60321467  8.74719590
   8.86035012  0.00669274  6.62707244
   6.60404976  2.23277805  6.63128007
   6.71388509 -0.00282967  4.36256602
   4.41562394  2.27372825  4.40687547
   4.45417736  0.03005796  6.61709819
   0.00220363  8.85941167  2.15881762
   4.39938840  2.28902031  0.00588755
   2.13861941  6.62520483  2.09882163
   2.26242119  4.42712750  0.03853660
   0.05396922  6.68196009  0.01951170
   6.68857926  6.61664566  2.24408477
   6.57041843  4.34383813 -0.00232187
   4.39252956  4.36064319  2.17709232
   2.25663942  2.22936895  6.62324048
   2.16988793  0.07967819  4.35345330
   0.03411148  2.24392471  4.41453615
   2.24348745  6.60562520  6.71894380
   2.23996039  4.31504647  4.36417135
   8.79598927  6.67607793  4.38162645
   8.84149965  4.40566598  6.55363470
   6.59578629  6.59743544  6.60519005
   6.70744457  4.42764264  4.37677277
   4.47434779  6.61138099  4.45949086
   4.46201871  4.42205443  6.60904751
   4.41360474  0.02197010  0.03574552
   8.85214620  4.36373888  0.04939365
   4.40021014  6.62440042  2.15782560
   2.18379861 -0.00688021  6.68019056
   4.42294227  0.07088576  4.35979481
   6.68078363 -0.01025988  6.63073418
   2.21184393  6.62802417  4.38706478
   0.00437174  6.78237899  2.21997961
   6.47200601  4.37421479  2.12743946
   0.08026129  0.09370180  4.26617916
   4.44168418  4.43527060  4.39378499
   6.59094985  4.45451696  6.68386796
   6.61558776  6.44917597  4.40963271
 


--------------------------------------------------------------------------------------------------------


 k-point     1 :   0.0000 0.0000 0.0000  plane waves:   12581
 k-point     2 :   0.3333-0.0000 0.0000  plane waves:   12590
 k-point     3 :   0.0000 0.3333-0.0000  plane waves:   12593
 k-point     4 :   0.3333 0.3333-0.0000  plane waves:   12568
 k-point     5 :  -0.3333 0.3333-0.0000  plane waves:   12571
 k-point     6 :  -0.0000-0.0000 0.3333  plane waves:   12617
 k-point     7 :   0.3333-0.0000 0.3333  plane waves:   12570
 k-point     8 :  -0.3333-0.0000 0.3333  plane waves:   12576
 k-point     9 :   0.0000 0.3333 0.3333  plane waves:   12578
 k-point    10 :   0.3333 0.3333 0.3333  plane waves:   12590
 k-point    11 :  -0.3333 0.3333 0.3333  plane waves:   12593
 k-point    12 :  -0.0000-0.3333 0.3333  plane waves:   12578
 k-point    13 :   0.3333-0.3333 0.3333  plane waves:   12599
 k-point    14 :  -0.3333-0.3333 0.3333  plane waves:   12589

 maximum and minimum number of plane-waves per node :     12617    12568

 maximum number of plane-waves:     12617
 maximum index in each direction: 
   IXMAX=   14   IYMAX=   14   IZMAX=   14
   IXMIN=  -14   IYMIN=  -14   IZMIN=  -14


 serial   3D FFT for wavefunctions
 parallel 3D FFT for charge:
    minimum data exchange during FFTs selected (reduces bandwidth)


 total amount of memory used by VASP MPI-rank0   261977. kBytes
=======================================================================

   base      :      30000. kBytes
   nonl-proj :     191137. kBytes
   fftplans  :       1680. kBytes
   grid      :       8060. kBytes
   one-center:        995. kBytes
   wavefun   :      30105. kBytes
 
     INWAV:  cpu time      0.0000: real time      0.0002
 Broyden mixing: mesh for mixing (old mesh)
   NGX = 29   NGY = 29   NGZ = 29
  (NGX  = 96   NGY  = 96   NGZ  = 96)
  gives a total of  24389 points

 initial charge density was supplied:
 charge density of overlapping atoms calculated
 number of electron     443.0000000 magnetization 
 keeping initial charge density in first step


--------------------------------------------------------------------------------------------------------


 Maximum index for augmentation-charges         1150 (set IRDMAX)


--------------------------------------------------------------------------------------------------------


 First call to EWALD:  gamma=   0.200
 Maximum number of real-space cells 3x 3x 3
 Maximum number of reciprocal cells 3x 3x 3

    FEWALD:  cpu time      0.0020: real time      0.0023


--------------------------------------- Ionic step        1  -------------------------------------------




--------------------------------------- Iteration      1(   1)  ---------------------------------------


    POTLOK:  cpu time      0.0302: real time      0.0627
    SETDIJ:  cpu time      0.0070: real time      0.0107
     EDDAV:  cpu time     16.6569: real time     16.7592
       DOS:  cpu time      0.0019: real time      0.0047
    --------------------------------------------
      LOOP:  cpu time     16.6960: real time     16.8373

 eigenvalue-minimisations  :  7840
 total energy-change (2. order) : 0.5257510E+04  (-0.1781219E+05)
 number of electron     443.0000000 magnetization 
 augmentation part      443.0000000 magnetization 

 Free energy of the ion-electron system (eV)
  ---------------------------------------------------
  alpha Z        PSCENC =      3388.70457681
  Ewald energy   TEWEN  =    -30655.43246091
  -Hartree energ DENC   =     -7475.16076062
  -exchange      EXHF   =         0.00000000
  -V(xc)+E(xc)   XCENC  =       634.76696044
  PAW double counting   =     23071.23012372   -22067.72975376
  entropy T*S    EENTRO =        -0.09779777
  eigenvalues    EBANDS =      2537.68256119
  atomic energy  EATOM  =     35823.54679465
  Solvation  Ediel_sol  =         0.00000000
  ---------------------------------------------------
  free energy    TOTEN  =      5257.51024374 eV

  energy without entropy =     5257.60804151  energy(sigma->0) =     5257.55914263


--------------------------------------------------------------------------------------------------------




--------------------------------------- Iteration      1(   2)  ---------------------------------------


     EDDAV:  cpu time     16.6442: real time     17.1165
       DOS:  cpu time      0.0009: real time      0.0009
    --------------------------------------------
      LOOP:  cpu time     16.6451: real time     17.1173

 eigenvalue-minimisations  :  7840
 total energy-change (2. order) :-0.5094112E+04  (-0.4911073E+04)
 number of electron     443.0000000 magnetization 
 augmentation part      443.0000000 magnetization 

 Free energy of the ion-electron system (eV)
  ---------------------------------------------------
  alpha Z        PSCENC =      3388.70457681
  Ewald energy   TEWEN  =    -30655.43246091
  -Hartree energ DENC   =     -7475.16076062
  -exchange      EXHF   =         0.00000000
  -V(xc)+E(xc)   XCENC  =       634.76696044
  PAW double counting   =     23071.23012372   -22067.72975376
  entropy T*S    EENTRO =        -0.14083858
  eigenvalues    EBANDS =     -2556.38598726
  atomic energy  EATOM  =     35823.54679465
  Solvation  Ediel_sol  =         0.00000000
  ---------------------------------------------------
  free energy    TOTEN  =       163.39865448 eV

  energy without entropy =      163.53949306  energy(sigma->0) =      163.46907377


--------------------------------------------------------------------------------------------------------




--------------------------------------- Iteration      1(   3)  ---------------------------------------


     EDDAV:  cpu time     24.5885: real time     24.8353
       DOS:  cpu time      0.0009: real time      0.0009
    --------------------------------------------
      LOOP:  cpu time     24.5894: real time     24.8362

 eigenvalue-minimisations  : 12236
 total energy-change (2. order) :-0.8722612E+03  (-0.8321954E+03)
 number of electron     443.0000000 magnetization 
 augmentation part      443.0000000 magnetization 

 Free energy of the ion-electron system (eV)
  ---------------------------------------------------
  alpha Z        PSCENC =      3388.70457681
  Ewald energy   TEWEN  =    -30655.43246091
  -Hartree energ DENC   =     -7475.16076062
  -exchange      EXHF   =         0.00000000
  -V(xc)+E(xc)   XCENC  =       634.76696044
  PAW double counting   =     23071.23012372   -22067.72975376
  entropy T*S    EENTRO =        -0.09281017
  eigenvalues    EBANDS =     -3428.69517940
  atomic energy  EATOM  =     35823.54679465
  Solvation  Ediel_sol  =         0.00000000
  ---------------------------------------------------
  free energy    TOTEN  =      -708.86250925 eV

  energy without entropy =     -708.76969908  energy(sigma->0) =     -708.81610416


--------------------------------------------------------------------------------------------------------




--------------------------------------- Iteration      1(   4)  ---------------------------------------


     EDDAV:  cpu time     24.2402: real time     24.5237
       DOS:  cpu time      0.0009: real time      0.0009
    --------------------------------------------
      LOOP:  cpu time     24.2411: real time     24.5246

 eigenvalue-minimisations  : 12152
 total energy-change (2. order) :-0.7554129E+02  (-0.7339369E+02)
 number of electron     443.0000000 magnetization 
 augmentation part      443.0000000 magnetization 

 Free energy of the ion-electron system (eV)
  ---------------------------------------------------
  alpha Z        PSCENC =      3388.70457681
  Ewald energy   TEWEN  =    -30655.43246091
  -Hartree energ DENC   =     -7475.16076062
  -exchange      EXHF   =         0.00000000
  -V(xc)+E(xc)   XCENC  =       634.76696044
  PAW double counting   =     23071.23012372   -22067.72975376
  entropy T*S    EENTRO =        -0.08421063
  eigenvalues    EBANDS =     -3504.24506661
  atomic energy  EATOM  =     35823.54679465
  Solvation  Ediel_sol  =         0.00000000
  ---------------------------------------------------
  free energy    TOTEN  =      -784.40379693 eV

  energy without entropy =     -784.31958629  energy(sigma->0) =     -784.36169161


--------------------------------------------------------------------------------------------------------




--------------------------------------- Iteration      1(   5)  ---------------------------------------


     EDDAV:  cpu time     24.2979: real time     24.5648
       DOS:  cpu time      0.0008: real time      0.0008
    CHARGE:  cpu time      0.1593: real time      0.1642
    MIXING:  cpu time      0.0021: real time      0.0066
    --------------------------------------------
      LOOP:  cpu time     24.4601: real time     24.7365

 eigenvalue-minimisations  : 11984
 total energy-change (2. order) :-0.4290087E+01  (-0.4217056E+01)
 number of electron     442.9999991 magnetization 
 augmentation part      105.3252355 magnetization 

 Broyden mixing:
  rms(total) = 0.69834E+01    rms(broyden)= 0.69824E+01
  rms(prec ) = 0.10911E+02
  weight for this iteration     100.00

 Free energy of the ion-electron system (eV)
  ---------------------------------------------------
  alpha Z        PSCENC =      3388.70457681
  Ewald energy   TEWEN  =    -30655.43246091
  -Hartree energ DENC   =     -7475.16076062
  -exchange      EXHF   =         0.00000000
  -V(xc)+E(xc)   XCENC  =       634.76696044
  PAW double counting   =     23071.23012372   -22067.72975376
  entropy T*S    EENTRO =        -0.08460929
  eigenvalues    EBANDS =     -3508.53475537
  atomic energy  EATOM  =     35823.54679465
  Solvation  Ediel_sol  =         0.00000000
  ---------------------------------------------------
  free energy    TOTEN  =      -788.69388434 eV

  energy without entropy =     -788.60927505  energy(sigma->0) =     -788.65157969


--------------------------------------------------------------------------------------------------------




--------------------------------------- Iteration      1(   6)  ---------------------------------------


    POTLOK:  cpu time      0.0218: real time      0.0220
    SETDIJ:  cpu time      0.0061: real time      0.0061
    EDDIAG:  cpu time      1.2287: real time      1.2434
  RMM-DIIS:  cpu time     15.1266: real time     15.3846
    ORTHCH:  cpu time      0.2819: real time      0.2845
       DOS:  cpu time      0.0009: real time      0.0009
    CHARGE:  cpu time      0.1612: real time      0.1630
    MIXING:  cpu time      0.0018: real time      0.0021
    --------------------------------------------
      LOOP:  cpu time     16.8290: real time     17.1065

 eigenvalue-minimisations  : 10770
 total energy-change (2. order) : 0.1092995E+03  (-0.1078146E+03)
 number of electron     442.9999994 magnetization 
 augmentation part      126.1119119 magnetization 

 Broyden mixing:
  rms(total) = 0.61147E+01    rms(broyden)= 0.61058E+01
  rms(prec ) = 0.99323E+01
  weight for this iteration     100.00

 eigenvalues of (default mixing * dielectric matrix)
  average eigenvalue GAMMA=   0.5421
  0.5421

 Free energy of the ion-electron system (eV)
  ---------------------------------------------------
  alpha Z        PSCENC =      3388.70457681
  Ewald energy   TEWEN  =    -30655.43246091
  -Hartree energ DENC   =     -6953.18779796
  -exchange      EXHF   =         0.00000000
  -V(xc)+E(xc)   XCENC  =       634.33638409
  PAW double counting   =     22464.93790650   -21540.03609897
  entropy T*S    EENTRO =        -0.11014438
  eigenvalues    EBANDS =     -3842.15356425
  atomic energy  EATOM  =     35823.54679465
  Solvation  Ediel_sol  =         0.00000000
  ---------------------------------------------------
  free energy    TOTEN  =      -679.39440442 eV

  energy without entropy =     -679.28426004  energy(sigma->0) =     -679.33933223


--------------------------------------------------------------------------------------------------------




--------------------------------------- Iteration      1(   7)  ---------------------------------------


    POTLOK:  cpu time      0.0180: real time      0.0182
    SETDIJ:  cpu time      0.0061: real time      0.0061
    EDDIAG:  cpu time      1.1837: real time      1.1911
  RMM-DIIS:  cpu time     13.2366: real time     13.5096
    ORTHCH:  cpu time      0.2806: real time      0.2818
       DOS:  cpu time      0.0008: real time      0.0008
    CHARGE:  cpu time      0.1624: real time      0.1628
    MIXING:  cpu time      0.0010: real time      0.0010
    --------------------------------------------
      LOOP:  cpu time     14.8893: real time     15.1714

 eigenvalue-minimisations  :  9408
 total energy-change (2. order) : 0.2632516E+02  (-0.2556285E+02)
 number of electron     443.0000014 magnetization 
 augmentation part      114.6897719 magnetization 

 Broyden mixing:
  rms(total) = 0.34298E+01    rms(broyden)= 0.34158E+01
  rms(prec ) = 0.59849E+01
  weight for this iteration     100.00

 eigenvalues of (default mixing * dielectric matrix)
  average eigenvalue GAMMA=   0.6088
  0.8700  0.3476

 Free energy of the ion-electron system (eV)
  ---------------------------------------------------
  alpha Z        PSCENC =      3388.70457681
  Ewald energy   TEWEN  =    -30655.43246091
  -Hartree energ DENC   =     -7198.74917680
  -exchange      EXHF   =         0.00000000
  -V(xc)+E(xc)   XCENC  =       642.21279049
  PAW double counting   =     23229.83082497   -22301.50087889
  entropy T*S    EENTRO =        -0.13073198
  eigenvalues    EBANDS =     -3581.55097891
  atomic energy  EATOM  =     35823.54679465
  Solvation  Ediel_sol  =         0.00000000
  ---------------------------------------------------
[...]
 -0.000   0.002  -0.002  -0.000   0.003  -0.011  -0.001  -0.004   0.001  -0.329   0.001  -0.002   0.004  -0.002   0.302   0.001
  0.007   0.001   0.003   0.028   0.002   0.005  -0.007  -0.010  -0.023   0.001  -0.739   0.012   0.015   0.010   0.001   0.933
 -0.001   0.022  -0.002   0.018   0.087   0.002   0.007   0.010  -0.008   0.006  -0.041  -0.011   0.014  -0.025   0.005   0.031
 -0.012  -0.004  -0.007  -0.001  -0.005   0.001   0.001  -0.002   0.004  -0.004  -0.002  -0.000   0.000  -0.004   0.002   0.002


------------------------ aborting loop because EDIFF is reached ----------------------------------------


    CHARGE:  cpu time      0.1548: real time      0.1631
    FORLOC:  cpu time      0.0075: real time      0.0075
    FORNL :  cpu time      5.5567: real time      5.6036
    STRESS:  cpu time     23.5035: real time     23.8253
    FORCOR:  cpu time      0.0195: real time      0.0195
    FORHAR:  cpu time      0.0104: real time      0.0105
    MIXING:  cpu time      0.0009: real time      0.0009
    OFIELD:  cpu time      0.0001: real time      0.0000

  FORCE on cell =-STRESS in cart. coord.  units (eV):
  Direction    XX          YY          ZZ          XY          YZ          ZX
  --------------------------------------------------------------------------------------
  Alpha Z  3413.11471  3413.11471  3413.11471
  Ewald  -10188.07954-10940.40258 -9613.20460   227.66766   206.49448  -108.98702
  Hartree  2460.90768  1698.37656  2860.50441   176.18756   157.53508  -109.62755
  E(xc)   -1986.29234 -1985.88313 -1985.69698    -0.06789     0.07340    -0.00262
  Local     868.95978  2388.91475   -94.46341  -400.95349  -363.72015   215.14630
  n-local -1248.49809 -1250.06597 -1243.10415     0.39493    -0.99456    -0.75633
  augment   963.07360   961.61314   958.97005    -0.89265     0.44726     1.52214
  Kinetic  5716.75462  5714.15678  5703.90357    -2.34104     0.15711     2.70486
  Fock        0.00000     0.00000     0.00000     0.00000     0.00000     0.00000
  -------------------------------------------------------------------------------------
  Total      -0.05959    -0.17574     0.02360    -0.00491    -0.00739    -0.00023
  in kB      -0.13875    -0.40921     0.05496    -0.01144    -0.01720    -0.00053
  external pressure =       -0.16 kB  Pullay stress =        0.00 kB


 VOLUME and BASIS-vectors are now :
 -----------------------------------------------------------------------------
  energy-cutoff  :      400.00
  volume of cell :      688.08
      direct lattice vectors                 reciprocal lattice vectors
     8.845484467 -0.006051149  0.001551789     0.113052089  0.000077203 -0.000020018
    -0.006039262  8.841362824 -0.008600160     0.000077355  0.113104895  0.000110560
     0.001563744 -0.008601393  8.798291263    -0.000019864  0.000110544  0.113658545

  length of vectors
     8.845486673  8.841369069  8.798295607     0.113052117  0.113104976  0.113658600


 FORCES acting on ions
    electron-ion (+dipol)            ewald-force                    non-local-force                 convergence-correction
 -----------------------------------------------------------------------------------------------
   -.541E+02 0.599E+02 0.206E+03   0.546E+02 -.592E+02 -.206E+03   -.558E+00 -.767E+00 -.994E-01   0.618E-01 0.296E-01 -.384E-01
   -.240E+03 0.196E+03 -.611E+02   0.240E+03 -.196E+03 0.609E+02   -.410E+00 -.269E+00 0.250E+00   0.167E-01 0.376E-01 -.109E-01
   0.344E+02 -.206E+03 -.152E+02   -.337E+02 0.206E+03 0.152E+02   -.742E+00 -.567E-01 0.153E-01   0.507E-02 -.279E-01 -.162E-01
   0.494E+02 -.154E+03 -.180E+01   -.502E+02 0.154E+03 0.169E+01   0.835E+00 0.965E-01 0.108E+00   -.310E-01 -.374E-01 0.457E-02
   0.200E+02 0.267E+03 0.386E+02   -.206E+02 -.267E+03 -.378E+02   0.681E+00 -.308E+00 -.855E+00   -.427E-01 -.530E-02 0.295E-01
   -.861E+02 -.146E+03 -.324E+02   0.870E+02 0.146E+03 0.320E+02   -.972E+00 0.114E+00 0.377E+00   0.392E-01 -.268E-01 0.938E-02
   0.107E+03 -.287E+03 0.616E+02   -.107E+03 0.287E+03 -.612E+02   0.965E+00 0.268E+00 -.397E+00   -.295E-01 0.114E-02 0.123E-01
   -.459E+02 -.674E+02 0.743E+02   0.468E+02 0.677E+02 -.747E+02   -.958E+00 -.288E+00 0.470E+00   0.700E-01 0.229E-01 -.710E-02
   0.927E+02 -.859E+02 0.576E+02   -.926E+02 0.855E+02 -.577E+02   -.117E+00 0.396E+00 0.146E+00   -.246E-02 -.336E-01 -.326E-01
   0.470E+00 0.113E+03 -.959E+02   0.100E+00 -.112E+03 0.965E+02   -.623E+00 -.376E+00 -.556E+00   0.524E-01 0.377E-02 0.156E-01
   0.781E+02 0.185E+03 -.133E+03   -.779E+02 -.185E+03 0.133E+03   -.233E+00 0.177E+00 -.114E+00   -.370E-02 0.263E-01 0.142E-01
   -.107E+03 -.142E+03 0.100E+02   0.108E+03 0.141E+03 -.101E+02   -.103E+01 0.224E+00 0.551E-01   0.287E-01 -.618E-02 0.219E-01
   0.519E+02 -.146E+03 0.224E+02   -.517E+02 0.146E+03 -.223E+02   -.178E+00 -.532E+00 -.169E+00   -.882E-02 -.423E-01 0.208E-01
   0.577E+02 0.134E+03 0.684E+02   -.562E+02 -.133E+03 -.691E+02   -.149E+01 -.100E+01 0.703E+00   0.933E-02 -.172E-02 -.293E-02
   0.110E+03 0.211E+03 -.671E+02   -.111E+03 -.211E+03 0.659E+02   0.119E+01 0.166E+00 0.121E+01   -.533E-01 0.127E-01 -.377E-01
   0.252E+03 0.129E+03 -.582E+02   -.252E+03 -.130E+03 0.579E+02   0.136E+00 0.678E+00 0.360E+00   -.158E-01 0.327E-01 -.253E-01
   -.514E+02 0.122E+03 0.203E+03   0.500E+02 -.122E+03 -.203E+03   0.146E+01 -.443E+00 -.743E-01   -.225E-01 0.293E-01 -.306E-01
   -.114E+03 -.136E+03 0.365E+02   0.113E+03 0.134E+03 -.364E+02   0.378E+00 0.162E+01 -.222E-01   0.640E-02 -.111E-01 -.388E-02
   -.149E+03 0.160E+03 -.654E+02   0.149E+03 -.159E+03 0.662E+02   -.128E+00 -.306E+00 -.792E+00   0.836E-02 0.429E-02 -.114E-02
   -.214E+02 0.375E+02 -.375E+01   0.233E+02 -.378E+02 0.443E+01   -.197E+01 0.347E+00 -.674E+00   0.155E-01 -.252E-02 -.480E-02
   -.115E+03 0.694E+02 0.112E+03   0.115E+03 -.703E+02 -.111E+03   0.468E+00 0.857E+00 -.386E+00   0.888E-02 0.237E-01 -.905E-02
   -.100E+02 -.584E+02 0.529E+02   0.965E+01 0.575E+02 -.538E+02   0.335E+00 0.830E+00 0.893E+00   0.199E-01 0.129E-01 -.138E-01
   -.107E+02 0.511E+02 -.343E+02   0.107E+02 -.546E+02 0.344E+02   0.753E-01 0.345E+01 -.703E-01   -.141E-01 0.441E-01 -.367E-01
   0.112E+03 0.513E+02 0.151E+03   -.111E+03 -.501E+02 -.153E+03   -.514E+00 -.127E+01 0.134E+01   -.114E-01 0.426E-01 -.600E-01
   0.423E+02 0.148E+03 -.320E+02   -.421E+02 -.147E+03 0.328E+02   -.128E+00 -.247E+00 -.827E+00   -.517E-01 0.247E-01 -.101E-01
   -.347E+02 -.469E+02 0.831E+02   0.359E+02 0.474E+02 -.819E+02   -.123E+01 -.537E+00 -.121E+01   0.195E-01 -.720E-02 -.104E-01
   0.271E+02 -.145E+03 -.621E+02   -.286E+02 0.145E+03 0.616E+02   0.153E+01 0.211E+00 0.520E+00   -.304E-01 -.408E-02 -.269E-02
   -.177E+02 0.453E+02 0.240E+01   0.176E+02 -.462E+02 -.650E+00   0.123E-01 0.864E+00 -.176E+01   0.160E-01 0.100E-01 0.125E-01
   0.132E+01 0.144E+03 -.656E+01   -.192E+01 -.147E+03 0.852E+01   0.605E+00 0.238E+01 -.198E+01   -.244E-02 -.301E-02 0.300E-01
   0.137E+03 0.397E+02 -.114E+03   -.139E+03 -.399E+02 0.114E+03   0.238E+01 0.247E+00 0.419E+00   -.132E-01 0.786E-02 0.403E-01
   0.229E+02 0.165E+03 -.368E+02   -.251E+02 -.167E+03 0.364E+02   0.224E+01 0.275E+01 0.410E+00   -.447E-01 -.232E-02 -.452E-02
   0.244E+02 0.554E+02 0.252E+02   -.248E+02 -.557E+02 -.257E+02   0.359E+00 0.346E+00 0.452E+00   -.160E-01 0.108E-01 0.662E-02
   -.350E+02 0.199E+02 0.525E+01   0.354E+02 -.190E+02 -.727E+01   -.427E+00 -.915E+00 0.203E+01   0.521E-01 0.131E-01 -.115E-02
   0.194E+02 0.114E+03 0.489E+02   -.197E+02 -.114E+03 -.494E+02   0.286E+00 -.294E+00 0.444E+00   -.114E-01 -.298E-02 0.448E-02
   -.115E+03 -.217E+02 -.847E+02   0.117E+03 0.213E+02 0.850E+02   -.179E+01 0.369E+00 -.301E+00   0.570E-02 -.508E-02 -.165E-01
   0.629E+02 -.309E+02 -.180E+01   -.626E+02 0.311E+02 0.266E+01   -.274E+00 -.198E+00 -.848E+00   -.409E-02 -.114E-01 -.256E-02
   0.147E+01 0.324E+02 0.458E+02   -.812E+00 -.322E+02 -.469E+02   -.684E+00 -.176E+00 0.112E+01   0.302E-01 -.104E-01 -.890E-02
   0.102E+03 -.214E+02 0.778E+01   -.103E+03 0.226E+02 -.823E+01   0.122E+01 -.111E+01 0.450E+00   -.815E-02 -.347E-01 -.117E-02
   -.758E+02 -.425E+02 0.158E+02   0.756E+02 0.419E+02 -.161E+02   0.196E+00 0.594E+00 0.238E+00   -.529E-03 -.270E-01 -.225E-03
   0.460E+02 -.133E+03 -.573E+01   -.485E+02 0.133E+03 0.391E+01   0.253E+01 -.434E+00 0.182E+01   -.950E-02 -.105E-01 -.605E-02
   -.126E+02 0.113E+03 -.537E+01   0.135E+02 -.114E+03 0.531E+01   -.921E+00 0.783E+00 0.581E-01   -.203E-02 -.213E-02 0.255E-02
   -.135E+03 0.128E+03 -.843E+02   0.137E+03 -.129E+03 0.842E+02   -.224E+01 0.479E+00 0.393E-01   0.612E-02 0.273E-01 0.284E-02
   0.123E+02 0.147E+02 -.336E+02   -.118E+02 -.126E+02 0.338E+02   -.498E+00 -.205E+01 -.196E+00   0.392E-01 0.448E-02 0.728E-02
   -.179E+02 -.115E+03 0.792E+02   0.190E+02 0.116E+03 -.793E+02   -.106E+01 -.853E+00 0.146E+00   0.337E-03 0.925E-03 0.175E-01
   -.565E+01 -.117E+03 -.248E+01   0.380E+01 0.117E+03 0.150E+01   0.185E+01 -.186E+00 0.981E+00   -.871E-03 -.237E-01 0.134E-02
   -.930E+02 -.180E+02 -.449E+02   0.943E+02 0.168E+02 0.462E+02   -.135E+01 0.129E+01 -.135E+01   0.168E-01 -.966E-02 0.633E-02
   -.256E+02 -.276E+02 -.614E+02   0.264E+02 0.276E+02 0.608E+02   -.841E+00 0.261E-02 0.546E+00   0.130E-01 -.928E-02 0.626E-02
   0.151E+02 -.132E+03 -.117E+02   -.161E+02 0.134E+03 0.127E+02   0.105E+01 -.189E+01 -.942E+00   -.346E-03 0.423E-03 0.264E-02
   -.133E+02 -.136E+02 -.125E+02   0.159E+02 0.127E+02 0.125E+02   -.259E+01 0.899E+00 0.233E-01   -.234E-02 -.894E-02 0.278E-02
   0.110E+03 -.144E+03 0.489E+02   -.112E+03 0.146E+03 -.488E+02   0.201E+01 -.204E+01 -.851E-01   -.132E-01 0.275E-03 0.262E-02
   0.333E+02 -.326E+02 0.341E+01   -.344E+02 0.326E+02 -.157E+01   0.115E+01 -.144E-01 -.185E+01   -.120E-01 -.891E-02 0.665E-02
   0.200E+02 0.619E+02 0.407E+02   -.203E+02 -.614E+02 -.403E+02   0.380E+00 -.549E+00 -.469E+00   -.195E-01 0.152E-01 -.814E-02
   -.111E+02 -.172E+02 0.147E+02   0.114E+02 0.174E+02 -.146E+02   -.344E+00 -.121E+00 -.164E-01   0.133E-01 -.960E-02 -.340E-02
   0.432E+02 -.735E+02 -.270E+02   -.437E+02 0.729E+02 0.270E+02   0.544E+00 0.615E+00 0.216E-01   -.200E-01 -.861E-02 -.482E-02
   -.549E+02 0.550E+02 0.281E+02   0.547E+02 -.550E+02 -.280E+02   0.192E+00 0.128E-01 -.381E-01   0.307E-02 0.134E-01 0.533E-02
   0.310E+02 0.767E+02 -.373E+02   -.319E+02 -.767E+02 0.368E+02   0.909E+00 -.206E-01 0.528E+00   -.222E-01 0.950E-02 0.752E-02
   0.492E+02 0.227E+02 0.105E+02   -.491E+02 -.230E+02 -.103E+02   -.144E+00 0.265E+00 -.219E+00   -.307E-02 0.868E-02 0.831E-02
   -.526E+02 -.595E+02 -.133E+02   0.529E+02 0.594E+02 0.131E+02   -.239E+00 0.815E-01 0.164E+00   0.342E-02 -.108E-02 0.517E-03
   -.124E+03 0.105E+03 -.313E+02   0.125E+03 -.105E+03 0.312E+02   -.131E+01 0.222E+00 0.120E+00   0.756E-01 -.402E-01 -.165E-01
   -.532E+02 -.189E+03 0.382E+02   0.521E+02 0.190E+03 -.395E+02   0.105E+01 -.129E+01 0.127E+01   -.218E-01 -.320E-01 -.320E-01
   -.767E+02 0.176E+03 -.241E+03   0.779E+02 -.177E+03 0.241E+03   -.123E+01 0.322E+00 0.227E+00   0.895E-01 0.470E-01 0.232E-01
   0.137E+03 -.197E+03 0.875E+01   -.140E+03 0.198E+03 -.876E+01   0.229E+01 -.597E+00 0.132E-01   -.443E-01 -.221E-01 -.558E-02
   -.710E+02 -.440E+02 -.499E+02   0.707E+02 0.444E+02 0.515E+02   0.350E+00 -.397E+00 -.160E+01   0.265E-02 -.275E-01 0.263E-01
   0.124E+03 -.256E+03 -.334E+02   -.124E+03 0.256E+03 0.333E+02   0.240E+00 -.379E+00 0.783E-01   -.187E-01 -.172E-01 0.283E-01
 -----------------------------------------------------------------------------------------------
   -.281E+01 -.203E+01 -.588E-01   -.995E-13 0.000E+00 -.441E-12   0.268E+01 0.205E+01 0.154E+00   0.121E+00 -.172E-01 -.855E-01
 
 
 POSITION                                       TOTAL-FORCE (eV/Angst)
 -----------------------------------------------------------------------------------
      0.00331      0.03247      0.09021        -0.002275     -0.000449     -0.000610
      2.15021      0.07655      2.16672         0.000810      0.000062      0.000607
      2.32128      4.29539      2.21303        -0.000880      0.000162      0.001313
      4.42090      4.40210      8.78486         0.001627      0.001832     -0.000570
      4.41473      2.26037      6.64085         0.001250     -0.000028     -0.001072
      0.08665      4.36647      4.36522        -0.001212      0.000449      0.000064
      4.42688      6.56636      6.61148         0.000535     -0.000111     -0.001030
      0.01846      2.13503      2.22561        -0.003686     -0.002845      0.002172
      6.73319      6.60908      0.02128         0.000653      0.000991      0.001272
      0.02934      2.29652      6.56918        -0.000070     -0.000504     -0.001438
      6.69132      2.33175      4.33207         0.002177      0.000869      0.000290
      8.82061      6.50633      6.57245        -0.001468      0.001890      0.000354
      2.26614      4.39310      6.59426        -0.000064     -0.000756     -0.000569
      2.36577      2.32098      8.70085        -0.003415     -0.001517     -0.000547
      4.48222      2.29785      2.10455        -0.000707     -0.002772      0.002254
      6.75200      8.77496      2.08105        -0.000716     -0.000586      0.002145
      6.40918      2.21201      0.16435         0.002387     -0.002214      0.002634
      2.04500      6.44573      0.02833         0.003604      0.002203      0.001190
      2.07886      2.19412      4.52850         0.000465     -0.001133      0.000172
      2.24794      2.19688      2.18406        -0.002528      0.002344     -0.001288
      2.16312      0.08191      0.07455         0.000079     -0.001766     -0.000114
      8.82763      2.12142      0.00549        -0.000155     -0.000497      0.000028
      6.58323      2.13095      2.16597        -0.002923     -0.001296     -0.000048
      6.69491      0.05681      0.04892        -0.000182     -0.000429     -0.000413
      4.44860      0.07898      2.18614        -0.001845     -0.001448     -0.001355
      8.83535      4.40423      2.26615        -0.000274     -0.000308      0.000235
      4.40806      6.58416      8.72671        -0.000229     -0.000314     -0.000428
      8.83923      0.00604      6.61231         0.000386      0.000767     -0.000799
      6.58752      2.22750      6.62123         0.000266      0.000786      0.000056
      6.69813     -0.00641      4.35030         0.000313     -0.000377      0.002259
      4.40156      2.26872      4.39728         0.001970      0.000826      0.000690
      4.44297      0.02881      6.60231         0.000094      0.000346     -0.000064
      0.00295      8.83662      2.15389        -0.001350      0.001794      0.001800
      4.38872      2.28326      0.00611         0.000641     -0.000131     -0.000896
      2.13470      6.60855      2.09427         0.000292      0.000723      0.000191
      2.25778      4.41608      0.03928         0.001584      0.000180      0.000633
      0.05473      6.66627      0.01892        -0.000626      0.000065     -0.000384
      6.67245      6.59995      2.23869         0.002098     -0.001684     -0.000215
      6.55474      4.33305     -0.00253        -0.000490      0.000967     -0.000314
      4.38109      4.34843      2.17178         0.001147     -0.000494     -0.000847
      2.25189      2.22402      6.60856         0.000467      0.001113      0.000371
      2.16601      0.07978      4.34334        -0.000662      0.001179     -0.000166
      0.03568      2.23996      4.40438        -0.000900      0.001332     -0.001076
      2.23967      6.58934      6.70400        -0.000023      0.000064     -0.001120
      2.23373      4.30463      4.35421        -0.001065      0.000115     -0.000466
      8.77550      6.65795      4.37251        -0.000240      0.000856      0.000366
      8.82137      4.39534      6.53891         0.000668     -0.000105      0.001066
      6.57924      6.58113      6.59043         0.000394      0.000162     -0.000580
      6.69259      4.41652      4.36781         0.001100     -0.003494     -0.000544
      4.46352      6.59489      4.45032         0.001544     -0.000335     -0.000435
      4.45099      4.41091      6.59484         0.000600     -0.000189      0.000842
      4.40322      0.02118      0.03543         0.001105     -0.003854      0.001444
      8.83141      4.35442      0.04738        -0.000177      0.000326     -0.000409
      4.39040      6.60786      2.15387         0.002109      0.000422      0.001038
      2.18040     -0.00640      6.66392         0.000188      0.000294     -0.001005
      4.41295      0.06935      4.35095         0.001679      0.000986     -0.000079
      6.66337     -0.01016      6.61718         0.000572      0.000653      0.000473
      2.20681      6.61181      4.37756        -0.000237      0.000268     -0.000870
      0.00481      6.76221      2.21286        -0.000720      0.001746      0.001184
      6.46009      4.36289      2.12459        -0.003146      0.000000     -0.001389
      0.07931      0.09247      4.25956         0.001024      0.000027     -0.004737
      4.43228      4.42464      4.38351         0.000043     -0.000926     -0.000864
      6.57792      4.44309      6.66534        -0.000573     -0.001636      0.000192
      6.60064      6.43839      4.40024        -0.001026      0.005398     -0.000595
 -----------------------------------------------------------------------------------
    total drift:                               -0.008641     -0.004826      0.010004


--------------------------------------------------------------------------------------------------------



  FREE ENERGIE OF THE ION-ELECTRON SYSTEM (eV)
  ---------------------------------------------------
  free  energy   TOTEN  =      -639.47701292 eV

  energy  without entropy=     -639.37512490  energy(sigma->0) =     -639.42606891
 
 d Force = 0.2630233E-04[-0.536E-05, 0.580E-04]  d Energy = 0.4759045E-04-0.213E-04
 d Force =-0.2344640E+00[-0.235E+00,-0.234E+00]  d Ewald  = 0.9250662E+00-0.116E+01


--------------------------------------------------------------------------------------------------------


    POTLOK:  cpu time      0.0300: real time      0.0300


--------------------------------------------------------------------------------------------------------


 Conjugate gradient step on ions:
 trial-energy change:   -0.000048  1 .order   -0.000043   -0.000073   -0.000012
  (g-gl).g = 0.380E-05      g.g   = 0.929E-04  gl.gl    = 0.342E-03
 g(Force)  = 0.738E-04   g(Stress)= 0.191E-04 ortho     = 0.136E-04
 gamma     =   0.01111
 trial     =   0.78386
 opt step  =   0.93956  (harmonic =   0.93956) maximal distance =0.00038880
 next E    =  -639.477009   (d E  =  -0.00004)


--------------------------------------------------------------------------------------------------------


  
 reached required accuracy - stopping structural energy minimisation
     LOOP+:  cpu time     93.4605: real time     94.5878
    4ORBIT:  cpu time      0.0000: real time      0.0000

 total amount of memory used by VASP MPI-rank0   261977. kBytes
=======================================================================

   base      :      30000. kBytes
   nonl-proj :     191137. kBytes
   fftplans  :       1680. kBytes
   grid      :       8060. kBytes
   one-center:        995. kBytes
   wavefun   :      30105. kBytes
 
  
  
 General timing and accounting informations for this job:
 ========================================================
  
                  Total CPU time used (sec):     2892.995
                            User time (sec):     2875.887
                          System time (sec):       17.107
                         Elapsed time (sec):     2937.705
  
                   Maximum memory used (kb):      348456.
                   Average memory used (kb):          N/A
  
                          Minor page faults:      1158057
                          Major page faults:            1
                 Voluntary context switches:         2446
