HECN                                    
           1
     8.866604   -0.006079    0.001443
    -0.006065    8.864000   -0.008840
     0.001456   -0.008843    8.817984
   Ti   Nb   V    N    C    Zr   W 
     7     6     6    13    19     7     6
Direct configuration=     1
   0.00031420  0.00402217  0.01041479
   0.24289953  0.00913938  0.24600816
   0.26311740  0.48594185  0.25203244
   0.50001364  0.49918879  0.99879337
   0.49928745  0.25690613  0.75485568
   0.01026893  0.49406473  0.49629615
   0.50097023  0.74355008  0.75218821
   0.00267142  0.24164162  0.25332810
   0.76193875  0.74798223  0.00308198
   0.00329485  0.26079781  0.74676587
   0.75650158  0.26515588  0.49229512
   0.99743204  0.73678383  0.74725872
   0.25665038  0.49775923  0.74984738
   0.26765292  0.26387390  0.98881454
   0.50690121  0.26069597  0.23929149
   0.76403084  0.99312314  0.23723458
   0.72437646  0.25081110  0.01946242
   0.23116244  0.72860832  0.00397193
   0.23476705  0.24886185  0.51531339
   0.25411073  0.24893181  0.24831475
   0.24472969  0.00973181  0.00833457
   0.99839021  0.24069049  0.00082085
   0.74453893  0.24227813  0.24632913
   0.75681723  0.00692430  0.00539241
   0.50289473  0.00931924  0.24836479
   0.99907907  0.49865667  0.25784044
   0.49904160  0.74627999  0.99263879
   0.99917282  0.00218984  0.75137922
   0.74487260  0.25315399  0.75214960
   0.75712972  0.00069342  0.49461187
   0.49810019  0.25735298  0.49993646
   0.50223426  0.00448398  0.75033172
   0.00089206  0.99972818  0.24582194
   0.49635189  0.25857906  0.00084567
   0.24167177  0.74783220  0.23872619
   0.25550309  0.49963032  0.00482929
   0.00660199  0.75383870  0.00296736
   0.75482567  0.74723484  0.25511512
   0.74136545  0.49056243  0.00010714
   0.49569791  0.49253645  0.24730494
   0.25455933  0.25243233  0.75131739
   0.24465148  0.00964924  0.49367130
   0.00393847  0.25365274  0.50088238
   0.25341190  0.74615406  0.76266573
   0.25288104  0.48747337  0.49536444
   0.99247024  0.75434452  0.49749043
   0.99738758  0.49845484  0.74354884
   0.74427787  0.74555379  0.74968459
   0.75674491  0.50052289  0.49672412
   0.50505694  0.74672031  0.50639274
   0.50345765  0.49997135  0.74991526
   0.49777978  0.00282390  0.00397507
   0.99870570  0.49298983  0.00593224
   0.49673917  0.74792300  0.24537586
   0.24617055  0.00014835  0.75752425
   0.49875649  0.00883224  0.49434805
   0.75335381  0.00010920  0.75183263
   0.24988802  0.74841479  0.49822275
   0.00097520  0.76541265  0.25252308
   0.73022907  0.49422272  0.24163738
   0.00898022  0.01105988  0.48381399
   0.50120636  0.50121018  0.49869590
   0.74356560  0.50380673  0.75836480
   0.74654041  0.72858091  0.50068089
HECN                                    
           1
     8.808836   -0.006010    0.001350
    -0.005997    8.806237   -0.008796
     0.001363   -0.008799    8.760152
   Ti   Nb   V    N    C    Zr   W 
     7     6     6    13    19     7     6
Direct configuration=     2
   0.00030629  0.00401117  0.01044205
   0.24288281  0.00916170  0.24603840
   0.26311062  0.48594900  0.25203522
   0.50001559  0.49916993  0.99879236
   0.49927230  0.25690962  0.75488083
   0.01027165  0.49406669  0.49631284
   0.50097113  0.74353109  0.75216583
   0.00260707  0.24160675  0.25334661
   0.76197873  0.74796034  0.00308888
   0.00330263  0.26082925  0.74674842
   0.75651736  0.26517489  0.49232318
   0.99743882  0.73676391  0.74725542
   0.25665225  0.49777642  0.74984776
   0.26767445  0.26390944  0.98880459
   0.50697212  0.26072120  0.23928204
   0.76407460  0.99312308  0.23720250
   0.72437491  0.25081610  0.01945445
   0.23113301  0.72861817  0.00397162
   0.23473282  0.24886839  0.51532339
   0.25409831  0.24892545  0.24832536
   0.24471448  0.00972464  0.00833934
   0.99834771  0.24068339  0.00081171
   0.74450767  0.24224288  0.24630493
   0.75681778  0.00691505  0.00541083
   0.50288237  0.00931267  0.24836410
   0.99908029  0.49867286  0.25785326
   0.49902658  0.74626355  0.99263026
   0.99916818  0.00220613  0.75139224
   0.74486280  0.25315131  0.75218606
   0.75713734  0.00067138  0.49460414
   0.49807480  0.25736639  0.49995942
   0.50222703  0.00447887  0.75033777
   0.00091194  0.99973881  0.24580445
   0.49633971  0.25858587  0.00083990
   0.24165898  0.74782606  0.23870824
   0.25552833  0.49964192  0.00482188
   0.00662408  0.75381880  0.00296936
   0.75484576  0.74721413  0.25512533
   0.74134848  0.49056427  0.00009127
   0.49568987  0.49250550  0.24729897
   0.25455820  0.25245598  0.75132313
   0.24464978  0.00964693  0.49367402
   0.00395675  0.25367352  0.50087887
   0.25341569  0.74613101  0.76266554
   0.25288056  0.48747249  0.49537307
   0.99243657  0.75433881  0.49748910
   0.99738648  0.49846167  0.74355050
   0.74426943  0.74553129  0.74967046
   0.75677266  0.50054041  0.49671545
   0.50509364  0.74669512  0.50638335
   0.50346070  0.49997887  0.74992766
   0.49779018  0.00281614  0.00396886
   0.99869894  0.49301725  0.00590099
   0.49674433  0.74789878  0.24539032
   0.24617221  0.00014557  0.75750524
   0.49874483  0.00881484  0.49435427
   0.75335003  0.00008208  0.75184369
   0.24990000  0.74843089  0.49821412
   0.00098648  0.76545064  0.25251372
   0.73022492  0.49420859  0.24162786
   0.00900740  0.01108345  0.48381586
   0.50120898  0.50123916  0.49869190
   0.74357144  0.50383395  0.75836908
   0.74653878  0.72857614  0.50065845
HECN                                    
           1
     8.847393   -0.006056    0.001412
    -0.006043    8.844791   -0.008825
     0.001425   -0.008828    8.798751
   Ti   Nb   V    N    C    Zr   W 
     7     6     6    13    19     7     6
Direct configuration=     3
   0.00031160  0.00401856  0.01042373
   0.24289404  0.00914670  0.24601809
   0.26311517  0.48594420  0.25203335
   0.50001428  0.49918260  0.99879304
   0.49928248  0.25690727  0.75486393
   0.01026982  0.49406537  0.49630162
   0.50097052  0.74354385  0.75218087
   0.00265030  0.24163018  0.25333417
   0.76195187  0.74797505  0.00308424
   0.00329740  0.26080813  0.74676014
   0.75650676  0.26516212  0.49230433
   0.99743426  0.73677730  0.74725764
   0.25665099  0.49776487  0.74984751
   0.26765999  0.26388557  0.98881128
   0.50692448  0.26070425  0.23928839
   0.76404520  0.99312312  0.23722405
   0.72437595  0.25081274  0.01945980
   0.23115278  0.72861156  0.00397183
   0.23475582  0.24886400  0.51531667
   0.25410665  0.24892972  0.24831823
   0.24472470  0.00972946  0.00833614
   0.99837626  0.24068816  0.00081785
   0.74452867  0.24226656  0.24632119
   0.75681741  0.00692126  0.00539845
   0.50289068  0.00931708  0.24836456
   0.99907947  0.49866198  0.25784465
   0.49903667  0.74627459  0.99263599
   0.99917130  0.00219519  0.75138349
   0.74486939  0.25315311  0.75216156
   0.75713222  0.00068618  0.49460934
   0.49809186  0.25735738  0.49994399
   0.50223189  0.00448230  0.75033371
   0.00089859  0.99973167  0.24581620
   0.49634789  0.25858130  0.00084377
   0.24166757  0.74783019  0.23872030
   0.25551137  0.49963412  0.00482686
   0.00660924  0.75383217  0.00296801
   0.75483226  0.74722804  0.25511847
   0.74135988  0.49056303  0.00010193
   0.49569527  0.49252629  0.24730298
   0.25455896  0.25244009  0.75131927
   0.24465092  0.00964848  0.49367219
   0.00394447  0.25365956  0.50088123
   0.25341314  0.74614650  0.76266567
   0.25288088  0.48747308  0.49536727
   0.99245919  0.75434264  0.49748999
   0.99738722  0.49845708  0.74354939
   0.74427510  0.74554641  0.74967995
   0.75675402  0.50052864  0.49672128
   0.50506898  0.74671204  0.50638966
   0.50345865  0.49997382  0.74991933
   0.49778319  0.00282135  0.00397303
   0.99870348  0.49299883  0.00592198
   0.49674086  0.74791505  0.24538060
   0.24617109  0.00014744  0.75751801
   0.49875266  0.00882653  0.49435009
   0.75335257  0.00010030  0.75183626
   0.24989195  0.74842007  0.49821991
   0.00097890  0.76542512  0.25252001
   0.73022771  0.49421808  0.24163426
   0.00898914  0.01106761  0.48381461
   0.50120722  0.50121969  0.49869458
   0.74356752  0.50381566  0.75836620
   0.74653987  0.72857934  0.50067353
HECN                                    
           1
     8.847303   -0.006056    0.001412
    -0.006043    8.844701   -0.008825
     0.001425   -0.008828    8.798662
   Ti   Nb   V    N    C    Zr   W 
     7     6     6    13    19     7     6
Direct configuration=     4
   0.00031159  0.00401855  0.01042378
   0.24289402  0.00914674  0.24601813
   0.26311516  0.48594421  0.25203335
   0.50001428  0.49918257  0.99879304
   0.49928245  0.25690728  0.75486397
   0.01026982  0.49406538  0.49630165
   0.50097053  0.74354382  0.75218084
   0.00265020  0.24163012  0.25333420
   0.76195193  0.74797501  0.00308425
   0.00329742  0.26080817  0.74676011
   0.75650678  0.26516215  0.49230438
   0.99743427  0.73677726  0.74725763
   0.25665100  0.49776490  0.74984751
   0.26766002  0.26388562  0.98881126
   0.50692459  0.26070429  0.23928838
   0.76404527  0.99312312  0.23722400
   0.72437595  0.25081275  0.01945979
   0.23115274  0.72861157  0.00397183
   0.23475576  0.24886401  0.51531669
   0.25410663  0.24892971  0.24831825
   0.24472467  0.00972945  0.00833615
   0.99837619  0.24068815  0.00081784
   0.74452862  0.24226651  0.24632115
   0.75681741  0.00692125  0.00539848
   0.50289066  0.00931707  0.24836456
   0.99907947  0.49866201  0.25784467
   0.49903665  0.74627457  0.99263598
   0.99917129  0.00219521  0.75138351
   0.74486937  0.25315311  0.75216162
   0.75713223  0.00068615  0.49460932
   0.49809182  0.25735740  0.49994403
   0.50223188  0.00448230  0.75033372
   0.00089862  0.99973168  0.24581617
   0.49634787  0.25858131  0.00084376
   0.24166755  0.74783018  0.23872027
   0.25551141  0.49963414  0.00482684
   0.00660928  0.75383213  0.00296802
   0.75483230  0.74722801  0.25511848
   0.74135985  0.49056304  0.00010191
   0.49569526  0.49252624  0.24730297
   0.25455896  0.25244013  0.75131928
   0.24465092  0.00964848  0.49367220
   0.00394450  0.25365959  0.50088122
   0.25341315  0.74614646  0.76266567
   0.25288088  0.48747308  0.49536729
   0.99245914  0.75434264  0.49748999
   0.99738722  0.49845709  0.74354939
   0.74427509  0.74554637  0.74967993
   0.75675406  0.50052867  0.49672126
   0.50506904  0.74671200  0.50638964
   0.50345866  0.49997383  0.74991935
   0.49778321  0.00282134  0.00397302
   0.99870347  0.49299887  0.00592194
   0.49674087  0.74791501  0.24538063
   0.24617109  0.00014743  0.75751798
   0.49875264  0.00882650  0.49435010
   0.75335256  0.00010025  0.75183627
   0.24989197  0.74842010  0.49821990
   0.00097892  0.76542518  0.25251999
   0.73022770  0.49421806  0.24163425
   0.00898918  0.01106765  0.48381461
   0.50120722  0.50121974  0.49869458
   0.74356753  0.50381570  0.75836621
   0.74653987  0.72857934  0.50067349
HECN                                    
           1
     8.847365   -0.006056    0.001412
    -0.006043    8.844763   -0.008825
     0.001425   -0.008828    8.798724
   Ti   Nb   V    N    C    Zr   W 
     7     6     6    13    19     7     6
Direct configuration=     5
   0.00031160  0.00401856  0.01042375
   0.24289403  0.00914671  0.24601810
   0.26311517  0.48594420  0.25203335
   0.50001428  0.49918259  0.99879304
   0.49928247  0.25690728  0.75486394
   0.01026982  0.49406538  0.49630163
   0.50097052  0.74354384  0.75218086
   0.00265027  0.24163016  0.25333418
   0.76195189  0.74797504  0.00308425
   0.00329741  0.26080814  0.74676013
   0.75650676  0.26516213  0.49230434
   0.99743426  0.73677729  0.74725763
   0.25665099  0.49776488  0.74984751
   0.26766000  0.26388558  0.98881127
   0.50692452  0.26070426  0.23928839
   0.76404522  0.99312312  0.23722404
   0.72437595  0.25081275  0.01945980
   0.23115277  0.72861156  0.00397183
   0.23475580  0.24886400  0.51531668
   0.25410665  0.24892972  0.24831824
   0.24472469  0.00972946  0.00833614
   0.99837624  0.24068815  0.00081785
   0.74452865  0.24226654  0.24632118
   0.75681741  0.00692126  0.00539846
   0.50289067  0.00931708  0.24836456
   0.99907947  0.49866199  0.25784465
   0.49903666  0.74627458  0.99263599
   0.99917129  0.00219519  0.75138350
   0.74486938  0.25315311  0.75216158
   0.75713222  0.00068617  0.49460933
   0.49809185  0.25735739  0.49994400
   0.50223188  0.00448230  0.75033371
   0.00089860  0.99973167  0.24581619
   0.49634789  0.25858130  0.00084377
   0.24166756  0.74783018  0.23872029
   0.25551138  0.49963413  0.00482685
   0.00660925  0.75383216  0.00296801
   0.75483227  0.74722803  0.25511847
   0.74135987  0.49056303  0.00010193
   0.49569527  0.49252628  0.24730298
   0.25455896  0.25244010  0.75131928
   0.24465092  0.00964848  0.49367219
   0.00394448  0.25365957  0.50088123
   0.25341314  0.74614649  0.76266567
   0.25288088  0.48747308  0.49536728
   0.99245918  0.75434264  0.49748999
   0.99738722  0.49845708  0.74354939
   0.74427510  0.74554639  0.74967995
   0.75675403  0.50052865  0.49672127
   0.50506900  0.74671203  0.50638965
   0.50345865  0.49997382  0.74991934
   0.49778320  0.00282135  0.00397303
   0.99870348  0.49299884  0.00592197
   0.49674086  0.74791504  0.24538061
   0.24617109  0.00014744  0.75751800
   0.49875265  0.00882652  0.49435009
   0.75335257  0.00010028  0.75183626
   0.24989196  0.74842008  0.49821991
   0.00097891  0.76542514  0.25252000
   0.73022771  0.49421808  0.24163426
   0.00898915  0.01106763  0.48381461
   0.50120722  0.50121970  0.49869458
   0.74356752  0.50381567  0.75836620
   0.74653987  0.72857934  0.50067351
HECN                                    
           1
     8.847334   -0.006056    0.001412
    -0.006043    8.844732   -0.008825
     0.001425   -0.008828    8.798693
   Ti   Nb   V    N    C    Zr   W 
     7     6     6    13    19     7     6
Direct configuration=     6
   0.00031160  0.00401855  0.01042376
   0.24289402  0.00914672  0.24601812
   0.26311517  0.48594421  0.25203335
   0.50001428  0.49918258  0.99879304
   0.49928246  0.25690728  0.75486396
   0.01026982  0.49406538  0.49630164
   0.50097053  0.74354383  0.75218085
   0.00265024  0.24163014  0.25333419
   0.76195191  0.74797502  0.00308425
   0.00329741  0.26080816  0.74676012
   0.75650677  0.26516214  0.49230436
   0.99743427  0.73677728  0.74725763
   0.25665099  0.49776489  0.74984751
   0.26766001  0.26388560  0.98881127
   0.50692456  0.26070428  0.23928838
   0.76404524  0.99312312  0.23722402
   0.72437595  0.25081275  0.01945979
   0.23115275  0.72861157  0.00397183
   0.23475578  0.24886400  0.51531668
   0.25410664  0.24892972  0.24831824
   0.24472468  0.00972945  0.00833614
   0.99837622  0.24068815  0.00081784
   0.74452864  0.24226653  0.24632117
   0.75681741  0.00692125  0.00539847
   0.50289066  0.00931708  0.24836456
   0.99907947  0.49866200  0.25784466
   0.49903665  0.74627457  0.99263598
   0.99917129  0.00219520  0.75138351
   0.74486938  0.25315311  0.75216160
   0.75713223  0.00068616  0.49460933
   0.49809184  0.25735740  0.49994402
   0.50223188  0.00448230  0.75033371
   0.00089861  0.99973168  0.24581618
   0.49634788  0.25858130  0.00084377
   0.24166756  0.74783018  0.23872028
   0.25551140  0.49963414  0.00482685
   0.00660926  0.75383215  0.00296802
   0.75483228  0.74722802  0.25511848
   0.74135986  0.49056303  0.00010192
   0.49569526  0.49252626  0.24730297
   0.25455896  0.25244011  0.75131928
   0.24465092  0.00964848  0.49367219
   0.00394449  0.25365958  0.50088122
   0.25341315  0.74614647  0.76266567
   0.25288088  0.48747308  0.49536728
   0.99245916  0.75434264  0.49748999
   0.99738722  0.49845709  0.74354939
   0.74427509  0.74554638  0.74967994
   0.75675404  0.50052866  0.49672127
   0.50506902  0.74671202  0.50638965
   0.50345865  0.49997383  0.74991934
   0.49778320  0.00282134  0.00397303
   0.99870347  0.49299886  0.00592195
   0.49674087  0.74791503  0.24538062
   0.24617109  0.00014744  0.75751799
   0.49875265  0.00882651  0.49435010
   0.75335257  0.00010027  0.75183627
   0.24989197  0.74842009  0.49821991
   0.00097891  0.76542516  0.25252000
   0.73022771  0.49421807  0.24163425
   0.00898917  0.01106764  0.48381461
   0.50120722  0.50121972  0.49869458
   0.74356753  0.50381569  0.75836621
   0.74653987  0.72857934  0.50067350
HECN                                    
           1
     8.846278   -0.006152    0.001450
    -0.006139    8.843610   -0.008808
     0.001462   -0.008810    8.798471
   Ti   Nb   V    N    C    Zr   W 
     7     6     6    13    19     7     6
Direct configuration=     7
   0.00031792  0.00396214  0.01029777
   0.24300204  0.00909985  0.24604934
   0.26295876  0.48602166  0.25202071
   0.49998661  0.49923444  0.99878663
   0.49929993  0.25682037  0.75483293
   0.01023600  0.49416076  0.49633299
   0.50094266  0.74364980  0.75217354
   0.00257675  0.24176070  0.25323864
   0.76184018  0.74801957  0.00307220
   0.00322804  0.26066249  0.74686173
   0.75643768  0.26495688  0.49240494
   0.99747832  0.73696233  0.74728946
   0.25659136  0.49780481  0.74984884
   0.26752060  0.26380069  0.98890964
   0.50687924  0.26058825  0.23939262
   0.76394622  0.99316726  0.23731292
   0.72455708  0.25074890  0.01925086
   0.23133293  0.72880284  0.00394174
   0.23491228  0.24886636  0.51518850
   0.25419254  0.24891235  0.24834504
   0.24463978  0.00968966  0.00839991
   0.99832602  0.24063039  0.00078521
   0.74451084  0.24213494  0.24631468
   0.75685777  0.00695975  0.00543214
   0.50290914  0.00939322  0.24838725
   0.99910263  0.49873838  0.25791022
   0.49894783  0.74619743  0.99255486
   0.99917989  0.00217961  0.75140003
   0.74484323  0.25317548  0.75228446
   0.75714804  0.00061925  0.49449785
   0.49797423  0.25738136  0.49993546
   0.50219839  0.00445761  0.75031148
   0.00091933  0.99978607  0.24570868
   0.49631910  0.25862789  0.00081829
   0.24170542  0.74781283  0.23867424
   0.25557803  0.49962712  0.00487275
   0.00665313  0.75388907  0.00292861
   0.75481931  0.74726303  0.25510613
   0.74132186  0.49053853  0.00007867
   0.49556522  0.49249341  0.24724057
   0.25460953  0.25243838  0.75133064
   0.24473758  0.00967333  0.49364971
   0.00397040  0.25375425  0.50088141
   0.25346043  0.74614147  0.76271265
   0.25283352  0.48743808  0.49533246
   0.99245204  0.75429885  0.49752209
   0.99740026  0.49846942  0.74350186
   0.74422547  0.74558915  0.74968505
   0.75686254  0.50047243  0.49673965
   0.50505702  0.74676625  0.50643883
   0.50341484  0.49997966  0.74998632
   0.49780062  0.00275197  0.00389701
   0.99870724  0.49301558  0.00588039
   0.49673132  0.74798729  0.24538613
   0.24624672  0.00011177  0.75748188
   0.49879796  0.00876505  0.49441932
   0.75329390  0.00009786  0.75183470
   0.24990779  0.74844422  0.49823411
   0.00096918  0.76520875  0.25247951
   0.73048183  0.49421052  0.24171032
   0.00885131  0.01097337  0.48406634
   0.50119990  0.50120160  0.49869717
   0.74366174  0.50370414  0.75826334
   0.74657120  0.72890981  0.50067723
HECN                                    
           1
     8.845851   -0.006191    0.001465
    -0.006178    8.843157   -0.008801
     0.001477   -0.008803    8.798381
   Ti   Nb   V    N    C    Zr   W 
     7     6     6    13    19     7     6
Direct configuration=     8
   0.00032047  0.00393933  0.01024683
   0.24304572  0.00908090  0.24606196
   0.26289552  0.48605297  0.25201560
   0.49997542  0.49925541  0.99878404
   0.49930700  0.25678523  0.75482039
   0.01022232  0.49419933  0.49634567
   0.50093139  0.74369265  0.75217058
   0.00254704  0.24181349  0.25320001
   0.76179501  0.74803759  0.00306733
   0.00319999  0.26060359  0.74690280
   0.75640975  0.26487389  0.49244560
   0.99749614  0.73703715  0.74730233
   0.25656725  0.49782095  0.74984938
   0.26746423  0.26376636  0.98894941
   0.50686092  0.26054133  0.23943476
   0.76390619  0.99318511  0.23734886
   0.72463031  0.25072308  0.01916639
   0.23140578  0.72888018  0.00392958
   0.23497556  0.24886732  0.51513668
   0.25422727  0.24890532  0.24835588
   0.24460545  0.00967358  0.00842570
   0.99830572  0.24060703  0.00077202
   0.74450365  0.24208173  0.24631206
   0.75687408  0.00697531  0.00544576
   0.50291661  0.00942400  0.24839642
   0.99911200  0.49876926  0.25793672
   0.49891192  0.74616623  0.99252206
   0.99918336  0.00217330  0.75140670
   0.74483265  0.25318453  0.75233414
   0.75715443  0.00059219  0.49445279
   0.49792668  0.25739105  0.49993201
   0.50218485  0.00444762  0.75030249
   0.00092771  0.99980806  0.24566522
   0.49630746  0.25864672  0.00080798
   0.24172073  0.74780581  0.23865563
   0.25560497  0.49962428  0.00489130
   0.00667087  0.75391209  0.00291268
   0.75481406  0.74727719  0.25510114
   0.74130649  0.49052862  0.00006927
   0.49551264  0.49248013  0.24721535
   0.25462998  0.25243767  0.75133524
   0.24477262  0.00968337  0.49364062
   0.00398088  0.25379253  0.50088148
   0.25347955  0.74613945  0.76273165
   0.25281438  0.48742393  0.49531838
   0.99244917  0.75428114  0.49753506
   0.99740553  0.49847441  0.74348265
   0.74420541  0.74560644  0.74968712
   0.75690641  0.50044969  0.49674709
   0.50505217  0.74678818  0.50645872
   0.50339713  0.49998202  0.75001340
   0.49780767  0.00272393  0.00386628
   0.99870876  0.49302234  0.00586359
   0.49672745  0.74801651  0.24538835
   0.24627729  0.00009735  0.75746727
   0.49881629  0.00874019  0.49444730
   0.75327018  0.00009689  0.75183407
   0.24991419  0.74845397  0.49823985
   0.00096524  0.76512125  0.25246315
   0.73058458  0.49420747  0.24174107
   0.00879557  0.01093526  0.48416812
   0.50119693  0.50119428  0.49869821
   0.74369983  0.50365904  0.75822175
   0.74658386  0.72904342  0.50067873
HECN                                    
           1
     8.845283   -0.006035    0.001566
    -0.006023    8.841279   -0.008621
     0.001577   -0.008622    8.798557
   Ti   Nb   V    N    C    Zr   W 
     7     6     6    13    19     7     6
Direct configuration=     9
   0.00032611  0.00383804  0.01019350
   0.24306088  0.00905736  0.24614980
   0.26276512  0.48614138  0.25199466
   0.49996993  0.49925932  0.99880897
   0.49925495  0.25674949  0.75485338
   0.01017556  0.49426140  0.49645429
   0.50090592  0.74374763  0.75213505
   0.00243549  0.24177265  0.25323782
   0.76176215  0.74805010  0.00305028
   0.00324647  0.26054704  0.74691039
   0.75646697  0.26476893  0.49246076
   0.99750091  0.73714462  0.74740006
   0.25648853  0.49778856  0.74988171
   0.26742429  0.26371796  0.98900758
   0.50683658  0.26049740  0.23943998
   0.76392333  0.99320368  0.23738660
   0.72469594  0.25068949  0.01902211
   0.23153027  0.72900303  0.00391555
   0.23503511  0.24882601  0.51506930
   0.25428866  0.24888780  0.24838919
   0.24455858  0.00960087  0.00844926
   0.99824395  0.24059477  0.00072216
   0.74446628  0.24193858  0.24629761
   0.75688258  0.00698964  0.00543736
   0.50292225  0.00948986  0.24837340
   0.99912198  0.49890083  0.25794084
   0.49881381  0.74609260  0.99248534
   0.99917977  0.00213849  0.75139987
   0.74480196  0.25317971  0.75248164
   0.75714253  0.00046819  0.49436578
   0.49780050  0.25740997  0.49992775
   0.50216976  0.00440478  0.75030206
   0.00093889  0.99973025  0.24575940
   0.49631484  0.25862023  0.00081928
   0.24175379  0.74780677  0.23866443
   0.25560136  0.49963580  0.00490592
   0.00669060  0.75394471  0.00287754
   0.75477632  0.74729849  0.25507753
   0.74133049  0.49053716  0.00006767
   0.49559957  0.49244716  0.24721535
   0.25463804  0.25243381  0.75132837
   0.24478241  0.00969271  0.49362891
   0.00403773  0.25382021  0.50087375
   0.25352834  0.74616059  0.76272956
   0.25278901  0.48744739  0.49530296
   0.99247800  0.75422992  0.49755938
   0.99742850  0.49850328  0.74347443
   0.74418505  0.74560118  0.74968282
   0.75690299  0.50056830  0.49678663
   0.50504720  0.74679491  0.50647444
   0.50338940  0.49998256  0.75001529
   0.49783117  0.00275183  0.00387814
   0.99872025  0.49312406  0.00575362
   0.49677250  0.74800442  0.24542990
   0.24633663  0.00013089  0.75739751
   0.49880048  0.00866268  0.49447257
   0.75321041  0.00008403  0.75190234
   0.24992606  0.74848568  0.49823076
   0.00097387  0.76515718  0.25238848
   0.73057052  0.49423033  0.24178216
   0.00883740  0.01093989  0.48412198
   0.50124869  0.50124779  0.49866669
   0.74377269  0.50369538  0.75810507
   0.74659036  0.72907091  0.50068372
HECN                                    
           1
     8.845135   -0.005994    0.001592
    -0.005982    8.840789   -0.008575
     0.001603   -0.008575    8.798603
   Ti   Nb   V    N    C    Zr   W 
     7     6     6    13    19     7     6
Direct configuration=    10
   0.00032759  0.00381164  0.01017960
   0.24306483  0.00905123  0.24617270
   0.26273113  0.48616442  0.25198920
   0.49996850  0.49926033  0.99881547
   0.49924139  0.25674017  0.75486197
   0.01016337  0.49427758  0.49648260
   0.50089928  0.74376196  0.75212578
   0.00240641  0.24176201  0.25324767
   0.76175359  0.74805336  0.00304583
   0.00325859  0.26053230  0.74691237
   0.75648189  0.26474156  0.49246472
   0.99750216  0.73717264  0.74742553
   0.25646801  0.49778012  0.74989014
   0.26741388  0.26370534  0.98902274
   0.50683024  0.26048595  0.23944134
   0.76392780  0.99320852  0.23739644
   0.72471304  0.25068073  0.01898450
   0.23156272  0.72903505  0.00391189
   0.23505063  0.24881524  0.51505174
   0.25430466  0.24888323  0.24839788
   0.24454636  0.00958191  0.00845540
   0.99822785  0.24059157  0.00070917
   0.74445654  0.24190126  0.24629385
   0.75688480  0.00699338  0.00543518
   0.50292372  0.00950703  0.24836740
   0.99912458  0.49893513  0.25794191
   0.49878823  0.74607340  0.99247578
   0.99917883  0.00212942  0.75139809
   0.74479396  0.25317846  0.75252008
   0.75713943  0.00043587  0.49434310
   0.49776761  0.25741490  0.49992664
   0.50216583  0.00439361  0.75030195
   0.00094181  0.99970997  0.24578394
   0.49631677  0.25861332  0.00082223
   0.24176241  0.74780702  0.23866672
   0.25560042  0.49963880  0.00490973
   0.00669574  0.75395322  0.00286838
   0.75476649  0.74730404  0.25507138
   0.74133675  0.49053939  0.00006726
   0.49562223  0.49243856  0.24721535
   0.25464014  0.25243280  0.75132658
   0.24478496  0.00969515  0.49362586
   0.00405255  0.25382743  0.50087174
   0.25354106  0.74616611  0.76272902
   0.25278240  0.48745350  0.49529894
   0.99248552  0.75421657  0.49756572
   0.99743448  0.49851080  0.74347229
   0.74417974  0.74559980  0.74968169
   0.75690209  0.50059923  0.49679694
   0.50504591  0.74679667  0.50647854
   0.50338738  0.49998270  0.75001578
   0.49783729  0.00275910  0.00388124
   0.99872325  0.49315058  0.00572496
   0.49678424  0.74800126  0.24544073
   0.24635210  0.00013963  0.75737933
   0.49879636  0.00864248  0.49447915
   0.75319483  0.00008068  0.75192013
   0.24992915  0.74849394  0.49822839
   0.00097612  0.76516655  0.25236902
   0.73056685  0.49423629  0.24179287
   0.00884831  0.01094110  0.48410996
   0.50126218  0.50126174  0.49865847
   0.74379168  0.50370486  0.75807467
   0.74659205  0.72907807  0.50068502
HECN                                    
           1
     8.845175   -0.006005    0.001585
    -0.005993    8.840920   -0.008587
     0.001596   -0.008588    8.798591
   Ti   Nb   V    N    C    Zr   W 
     7     6     6    13    19     7     6
Direct configuration=    11
   0.00032719  0.00381870  0.01018332
   0.24306377  0.00905287  0.24616657
   0.26274023  0.48615825  0.25199066
   0.49996888  0.49926006  0.99881373
   0.49924502  0.25674266  0.75485967
   0.01016663  0.49427325  0.49647502
   0.50090105  0.74375812  0.75212826
   0.00241419  0.24176486  0.25324503
   0.76175588  0.74805249  0.00304702
   0.00325534  0.26053625  0.74691184
   0.75647789  0.26474889  0.49246366
   0.99750182  0.73716514  0.74741871
   0.25647351  0.49778238  0.74988789
   0.26741666  0.26370872  0.98901868
   0.50683193  0.26048902  0.23944097
   0.76392661  0.99320722  0.23739381
   0.72470846  0.25068307  0.01899457
   0.23155403  0.72902648  0.00391287
   0.23504648  0.24881813  0.51505644
   0.25430037  0.24888446  0.24839555
   0.24454963  0.00958698  0.00845376
   0.99823216  0.24059243  0.00071265
   0.74445914  0.24191125  0.24629486
   0.75688421  0.00699238  0.00543576
   0.50292333  0.00950243  0.24836901
   0.99912388  0.49892595  0.25794162
   0.49879508  0.74607854  0.99247834
   0.99917908  0.00213185  0.75139857
   0.74479610  0.25317880  0.75250979
   0.75714026  0.00044452  0.49434917
   0.49777641  0.25741358  0.49992693
   0.50216688  0.00439660  0.75030198
   0.00094103  0.99971540  0.24577737
   0.49631625  0.25861517  0.00082144
   0.24176010  0.74780696  0.23866611
   0.25560067  0.49963800  0.00490871
   0.00669437  0.75395094  0.00287083
   0.75476912  0.74730256  0.25507303
   0.74133507  0.49053880  0.00006737
   0.49561616  0.49244086  0.24721535
   0.25463958  0.25243307  0.75132706
   0.24478428  0.00969449  0.49362668
   0.00404858  0.25382550  0.50087228
   0.25353766  0.74616463  0.76272917
   0.25278417  0.48745187  0.49530002
   0.99248351  0.75422015  0.49756403
   0.99743288  0.49850879  0.74347286
   0.74418116  0.74560017  0.74968199
   0.75690233  0.50059095  0.49679418
   0.50504625  0.74679620  0.50647744
   0.50338792  0.49998267  0.75001565
   0.49783565  0.00275716  0.00388041
   0.99872245  0.49314348  0.00573264
   0.49678110  0.74800211  0.24543783
   0.24634796  0.00013729  0.75738419
   0.49879746  0.00864789  0.49447739
   0.75319900  0.00008158  0.75191537
   0.24992832  0.74849173  0.49822902
   0.00097552  0.76516404  0.25237423
   0.73056783  0.49423470  0.24179001
   0.00884539  0.01094077  0.48411317
   0.50125857  0.50125800  0.49866067
   0.74378659  0.50370232  0.75808280
   0.74659160  0.72907615  0.50068467
HECN                                    
           1
     8.846818   -0.005911    0.001561
    -0.005899    8.842884   -0.008537
     0.001573   -0.008539    8.799318
   Ti   Nb   V    N    C    Zr   W 