HECN                                    
           1
     8.932500    0.000000    0.000000
     0.005753    9.055598    0.000000
     0.032102   -0.015743    8.937128
   Zr   W    Ti   N    C    Cr   Mo
   7   6   7  13  19   6   6
Direct configuration=     1
   0.99688001  0.99204997  0.99924002
   0.25398003  0.99714995  0.24912000
   0.24803003  0.50165000  0.24955001
   0.50501006  0.49745998  0.99834003
   0.50479003  0.24631001  0.74710002
   0.99427992  0.50449999  0.49779000
   0.49950005  0.75481999  0.74817004
   0.99437004  0.23617001  0.26379999
   0.75718000  0.74102998  0.01100000
   0.00201000  0.25541000  0.73894001
   0.75307001  0.26163001  0.50533002
   0.99514004  0.74492004  0.74511997
   0.25679999  0.49462002  0.74545002
   0.24788999  0.24839000  0.99657997
   0.50833000  0.25676999  0.25376001
   0.74879004  0.98787999  0.26967001
   0.75719000  0.25603001  0.99591997
   0.24762001  0.74973999  0.99974006
   0.25272001  0.24823001  0.50015003
   0.24457999  0.75048999  0.49983999
   0.24982001  0.24942998  0.24825000
   0.26146999  0.99984002  0.99295996
   0.00281000  0.25024000  0.00130000
   0.75313998  0.24617000  0.25492002
   0.74767001  0.99748000  0.01202000
   0.50714994  0.99977000  0.24673000
   0.99051999  0.48088002  0.24100998
   0.50519005  0.76130999  0.00855000
   0.98896989  0.00202000  0.73708999
   0.75744996  0.24437997  0.74896999
   0.73632001  0.00417000  0.51063000
   0.50563996  0.23264999  0.49544997
   0.50008998  0.00061000  0.73471998
   0.99720000  0.99771992  0.25899999
   0.50427997  0.24673000  0.00262000
   0.25133999  0.74958002  0.24910999
   0.24328000  0.50072997  0.99510994
   0.99837005  0.74313996  0.00460000
   0.75633000  0.73891003  0.25767000
   0.75839004  0.50315998  0.00288000
   0.50700002  0.50333002  0.25878999
   0.24900999  0.25315000  0.74854000
   0.24446000  0.99823996  0.50287998
   0.99804009  0.24229999  0.50128003
   0.24177002  0.75340997  0.75018002
   0.25841001  0.50062002  0.50129001
   0.99000004  0.76215003  0.49746000
   0.99203996  0.50055999  0.75138002
   0.75036005  0.74888000  0.74756004
   0.74036002  0.50197000  0.50067003
   0.50575006  0.74958002  0.49720000
   0.50501003  0.50217998  0.73912003
   0.51588997  0.01358000  0.98075008
   0.99841994  0.50976998  0.98613004
   0.50379003  0.73926997  0.25905001
   0.23780002  0.01082000  0.74607998
   0.47957999  0.98308000  0.49717999
   0.74279003  0.97869994  0.76450995
   0.99864998  0.77573999  0.26102000
   0.73551001  0.51468004  0.26666001
   0.02362000  0.99783001  0.49557002
   0.50539000  0.52833005  0.49917999
   0.73876003  0.52828003  0.73814999
   0.75400003  0.72937999  0.49116997
HECN                                    
           1
     8.427192    0.008637   -0.006537
     0.014183    8.536765    0.002829
     0.023730   -0.012014    8.442308
   Zr   W    Ti   N    C    Cr   Mo
   7   6   7  13  19   6   6
Direct configuration=     2
   0.99617132  0.99627507  0.99371080
   0.26306977  0.99923161  0.24463349
   0.24794207  0.50023721  0.24632448
   0.50210360  0.49796929  0.00079652
   0.50425315  0.23977033  0.74630956
   0.99781979  0.50048854  0.49840322
   0.49444254  0.76432605  0.75266042
   0.99237106  0.23114064  0.26664301
   0.75920618  0.73956845  0.01151269
   0.00744343  0.25803675  0.73566270
   0.75314745  0.25989589  0.50265574
   0.99894671  0.74234548  0.74824947
   0.25533135  0.49486064  0.74880539
   0.24913522  0.24914491  0.99440428
   0.51065463  0.25249397  0.25272284
   0.74233245  0.99060838  0.27092695
   0.75422225  0.25673310  0.99518171
   0.24570293  0.74854435  0.99927023
   0.25340554  0.24826027  0.50277053
   0.24597862  0.75136304  0.50052518
   0.24982086  0.24931374  0.24902713
   0.25978957  0.00044444  0.99156554
   0.00243995  0.25053154  0.00142541
   0.75238041  0.24468786  0.25448311
   0.74416573  0.99766017  0.00836517
   0.51015355  0.99968619  0.24944995
   0.99125186  0.47844144  0.24187991
   0.50546281  0.76094462  0.00793657
   0.98850473  0.00249546  0.74113336
   0.75920223  0.24271785  0.75000867
   0.73703839  0.00653002  0.50640591
   0.50485376  0.23253984  0.49234434
   0.50280714  0.00042437  0.73821578
   0.99336339  0.00340877  0.25577320
   0.50520109  0.24344991  0.00468802
   0.25285611  0.74911962  0.24924512
   0.24201450  0.50098539  0.99178555
   0.99972198  0.73887542  0.00221670
   0.75193909  0.74537982  0.24992728
   0.76228296  0.50233981  0.00270092
   0.50224211  0.50272495  0.25627977
   0.24534098  0.25091326  0.74835958
   0.25452166  0.99731838  0.50810898
   0.99960926  0.24370131  0.50241973
   0.23893003  0.75285549  0.75002041
   0.25583687  0.50098925  0.50415438
   0.99652382  0.75994266  0.50320382
   0.99485821  0.49915952  0.75606836
   0.75248152  0.75822659  0.75102851
   0.74388669  0.49467869  0.50274941
   0.50011195  0.75743448  0.49167905
   0.49841175  0.50078824  0.74269112
   0.51897892  0.01615794  0.98071706
   0.99745691  0.51510765  0.98256103
   0.50427270  0.73738106  0.25952956
   0.23702266  0.01235852  0.74653828
   0.47661849  0.98313122  0.49786546
   0.74000916  0.97356198  0.76694442
   0.00111365  0.77537320  0.25849504
   0.73537183  0.51165869  0.25992574
   0.02054210  0.00017929  0.49824540
   0.50243945  0.52514135  0.49596596
   0.74088466  0.52243079  0.74381463
   0.75360483  0.73751497  0.49188758
HECN                                    
           1
     8.710383    0.003796   -0.002873
     0.009459    8.827536    0.001244
     0.028422   -0.014104    8.719621
   Zr   W    Ti   N    C    Cr   Mo
   7   6   7  13  19   6   6
Direct configuration=     3
   0.99659748  0.99376175  0.99699235
   0.25767350  0.99799864  0.24729148
   0.24799495  0.50107641  0.24823788
   0.50382932  0.49766525 -0.00065943
   0.50456841  0.24365765  0.74677746
   0.99571422  0.50287557  0.49803698
   0.49745067  0.75867261  0.75000059
   0.99355410  0.23412994  0.26495622
   0.75800141  0.74043864  0.01120730
   0.00421892  0.25647777  0.73760509
   0.75310162  0.26092633  0.50424196
   0.99668237  0.74387895  0.74639053
   0.25620237  0.49471738  0.74681544
   0.24839699  0.24869643  0.99569465
   0.50927156  0.25503723  0.25333625
   0.74616959  0.98898275  0.27018475
   0.75598598  0.25631319  0.99562121
   0.24684122  0.74925391  0.99954961
   0.25299711  0.24824321  0.50121553
   0.24514800  0.75084499  0.50011820
   0.24981992  0.24938300  0.24856605
   0.26078882  0.00008383  0.99239372
   0.00265990  0.25035802  0.00135123
   0.75283091  0.24556844  0.25474237
   0.74624921  0.99755023  0.01053516
   0.50836798  0.99973836  0.24783486
   0.99081520  0.47989178  0.24136298
   0.50530084  0.76116187  0.00830031
   0.98877946  0.00221333  0.73873482
   0.75815981  0.24370723  0.74939130
   0.73661507  0.00512659  0.50891212
   0.50532216  0.23260423  0.49418719
   0.50119131  0.00053705  0.73614050
   0.99564749  0.00002384  0.25769050
   0.50465092  0.24540087  0.00346002
   0.25195513  0.74939426  0.24916416
   0.24276796  0.50083213  0.99375848
   0.99891736  0.74141100  0.00362919
   0.75455504  0.74152939  0.25452420
   0.75997000  0.50282970  0.00280521
   0.50506927  0.50308130  0.25777110
   0.24751921  0.25224075  0.74846786
   0.24854167  0.99787334  0.50500190
   0.99867745  0.24286941  0.50174313
   0.24061682  0.75318339  0.75011630
   0.25736431  0.50076877  0.50245626
   0.99264442  0.76125998  0.49979268
   0.99318103  0.49999472  0.75328528
   0.75122545  0.75267206  0.74897162
   0.74178625  0.49901586  0.50151267
   0.50346861  0.75276057  0.49495869
   0.50232885  0.50161237  0.74057522
   0.51714558  0.01462722  0.98073574
   0.99803394  0.51193315  0.98467996
   0.50398459  0.73850439  0.25924445
   0.23748518  0.01144351  0.74626704
   0.47837744  0.98309913  0.49746016
   0.74165679  0.97661528  0.76550035
  -0.00034891  0.77559223  0.25999184
   0.73545518  0.51345344  0.26392051
   0.02237069 -0.00121866  0.49666003
   0.50419171  0.52703460  0.49787351
   0.73961631  0.52591053  0.74045176
   0.75384429  0.73267868  0.49146364
HECN                                    
           1
     8.703099    0.003921   -0.002968
     0.009580    8.820057    0.001284
     0.028301   -0.014050    8.712489
   Zr   W    Ti   N    C    Cr   Mo
   7   6   7  13  19   6   6
Direct configuration=     4
   0.99658695  0.99382424  0.99691065
   0.25780783  0.99802938  0.24722524
   0.24799364  0.50105553  0.24819023
   0.50378636  0.49767280 -0.00062315
   0.50456051  0.24356095  0.74676580
   0.99576657  0.50281623  0.49804606
   0.49737587  0.75881320  0.75006689
   0.99352460  0.23405557  0.26499822
   0.75803138  0.74041701  0.01121489
   0.00429920  0.25651659  0.73755669
   0.75310276  0.26090069  0.50420245
   0.99673867  0.74384084  0.74643679
   0.25618067  0.49472094  0.74686500
   0.24841538  0.24870759  0.99566251
   0.50930595  0.25497399  0.25332094
   0.74607412  0.98902313  0.27020328
   0.75594210  0.25632361  0.99561029
   0.24681289  0.74923624  0.99954266
   0.25300726  0.24824365  0.50125425
   0.24516867  0.75085789  0.50012833
   0.24981994  0.24938128  0.24857753
   0.26076397  0.00009278  0.99237311
   0.00265442  0.25036234  0.00135308
   0.75281969  0.24554653  0.25473591
   0.74619739  0.99755292  0.01048115
   0.50841239  0.99973709  0.24787506
   0.99082604  0.47985571  0.24137584
   0.50530487  0.76115647  0.00829125
   0.98877260  0.00222035  0.73879455
   0.75818573  0.24368264  0.74940666
   0.73662565  0.00516149  0.50884972
   0.50531053  0.23260261  0.49414130
   0.50123149  0.00053428  0.73619216
   0.99559072  0.00010799  0.25764279
   0.50466457  0.24535235  0.00349059
   0.25197755  0.74938744  0.24916617
   0.24274923  0.50083592  0.99370936
   0.99893736  0.74134794  0.00359400
   0.75449006  0.74162511  0.25440977
   0.76002755  0.50281754  0.00280258
   0.50499893  0.50307239  0.25773400
   0.24746498  0.25220770  0.74846519
   0.24869043  0.99785963  0.50507920
   0.99870064  0.24289012  0.50175997
   0.24057484  0.75317521  0.75011393
   0.25732628  0.50077424  0.50249856
   0.99274090  0.76122729  0.49987758
   0.99322272  0.49997398  0.75335456
   0.75125677  0.75281025  0.74902286
   0.74183844  0.49890802  0.50154343
   0.50338518  0.75287676  0.49487708
   0.50223134  0.50159183  0.74062795
   0.51719122  0.01466532  0.98073526
   0.99801965  0.51201209  0.98462722
   0.50399174  0.73847645  0.25925155
   0.23747368  0.01146626  0.74627381
   0.47833367  0.98309990  0.49747027
   0.74161573  0.97653932  0.76553631
  -0.00031251  0.77558680  0.25995455
   0.73545312  0.51340878  0.26382103
   0.02232519 -0.00118390  0.49669954
   0.50414810  0.52698748  0.49782601
   0.73964778  0.52582401  0.74053547
   0.75383839  0.73279897  0.49147422
HECN                                    
           1
     8.720104    0.014110   -0.002971
     0.019932    8.803779    0.001284
     0.028343   -0.013994    8.730456
   Zr   W    Ti   N    C    Cr   Mo
   7   6   7  13  19   6   6
Direct configuration=     5
   0.99664857  0.99812345  0.99118212
   0.26532506  0.00023285  0.24316861
   0.24685323  0.49899214  0.24548283
   0.50109434  0.49836958  0.00149011
   0.50370322  0.23858278  0.74633214
   0.99995464  0.49980793  0.49808531
   0.49270605  0.76538958  0.75412981
   0.99239593  0.23117181  0.26502633
   0.75891387  0.74102974  0.01040186
   0.00927633  0.25773245  0.73743693
   0.75205665  0.25742609  0.50076110
   0.00099181  0.74176333  0.75091681
   0.25385172  0.49575554  0.75054249
   0.25003176  0.24894828  0.99376775
   0.51096709  0.25076214  0.25190426
   0.73986905  0.99242392  0.27038444
   0.75257901  0.25623961  0.99534851
   0.24517946  0.74854473  0.99918847
   0.25436380  0.24810576  0.50336017
   0.24708811  0.75175639  0.50044784
   0.25025716  0.24913480  0.24922524
   0.26029840  0.00067873  0.98986046
   0.00230237  0.25190582  0.00194723
   0.75057014  0.24387904  0.25252937
   0.74181308  0.99859928  0.00670190
   0.51215521  0.99960115  0.24983509
   0.99114877  0.47916113  0.24080185
   0.50437025  0.76202882  0.00866215
   0.98800012  0.00260164  0.74248833
   0.75969115  0.24198105  0.75151300
   0.73818018  0.00651131  0.50577179
   0.50354999  0.23317097  0.49068014
   0.50386552  0.00074141  0.73998744
   0.99231435  0.00428767  0.25390435
   0.50521476  0.24193676  0.00610077
   0.25444968  0.74907865  0.24908220
   0.24079374  0.50099363  0.99126318
   0.00220381  0.73771345  0.00222214
   0.74905213  0.74890871  0.24778411
   0.76399955  0.49983423  0.00274130
   0.49905581  0.50170944  0.25482985
   0.24566586  0.24866532  0.74848772
   0.25898773  0.99727119  0.51027886
   0.00200051  0.24466568  0.50275445
   0.23880370  0.75371693  0.75032048
   0.25515418  0.50105734  0.50392118
   0.99989645  0.75862570  0.50489771
   0.99615212  0.49817607  0.75777228
   0.75197727  0.76147891  0.75171086
   0.74493996  0.49338353  0.50316659
   0.49725475  0.76161491  0.49000773
   0.49617724  0.50051590  0.74391016
   0.51966114  0.01592336  0.98101968
   0.99734208  0.51633330  0.98235140
   0.50342296  0.73739510  0.25871207
   0.23646544  0.01224476  0.74747032
   0.47656246  0.98417681  0.49750323
   0.73850884  0.97368624  0.76876606
   0.00290018  0.77246667  0.25576641
   0.73767872  0.50856321  0.25560325
   0.01850789  0.00184486  0.50079710
   0.50044973  0.52170416  0.49494836
   0.74223170  0.51900944  0.74911056
   0.75212355  0.74186457  0.49343390
HECN                                    
           1
     8.719687    0.013860   -0.002971
     0.019678    8.804178    0.001284
     0.028342   -0.013995    8.730016
   Zr   W    Ti   N    C    Cr   Mo
   7   6   7  13  19   6   6
Direct configuration=     6
   0.99664719  0.99801784  0.99132229
   0.26514117  0.00017894  0.24326787
   0.24688108  0.49904279  0.24554908
   0.50116023  0.49835239  0.00143840
   0.50372406  0.23870505  0.74634276
   0.99985207  0.49988195  0.49808435
   0.49282052  0.76522791  0.75403039
   0.99242347  0.23124262  0.26502564
   0.75889230  0.74101471  0.01042176
   0.00915457  0.25770272  0.73743986
   0.75208214  0.25751141  0.50084530
   0.00088767  0.74181448  0.75080719
   0.25390874  0.49573006  0.75045250
   0.24999221  0.24894242  0.99381411
   0.51092632  0.25086565  0.25193892
   0.74002100  0.99234021  0.27038000
   0.75266131  0.25624158  0.99535491
   0.24521941  0.74856167  0.99919714
   0.25433060  0.24810918  0.50330864
   0.24704117  0.75173438  0.50044002
   0.25024646  0.24914086  0.24920939
   0.26030981  0.00066432  0.98992194
   0.00231103  0.25186789  0.00193270
   0.75062514  0.24391993  0.25258337
   0.74192040  0.99857345  0.00679438
   0.51206362  0.99960459  0.24978713
   0.99114085  0.47917820  0.24081590
   0.50439314  0.76200737  0.00865307
   0.98801904  0.00259225  0.74239795
   0.75965426  0.24202289  0.75146146
   0.73814218  0.00647820  0.50584711
   0.50359309  0.23315696  0.49076483
   0.50380107  0.00073640  0.73989457
   0.99239465  0.00418491  0.25399583
   0.50520120  0.24202068  0.00603690
   0.25438918  0.74908631  0.24908425
   0.24084160  0.50098970  0.99132303
   0.00212377  0.73780282  0.00225571
   0.74918542  0.74872963  0.24794623
   0.76390226  0.49990762  0.00274279
   0.49920121  0.50174275  0.25490091
   0.24570979  0.24875228  0.74848717
   0.25873572  0.99728594  0.51015163
   0.00191981  0.24462216  0.50273011
   0.23884706  0.75370357  0.75031543
   0.25520734  0.50105033  0.50388637
   0.99972127  0.75868981  0.50477487
   0.99608038  0.49822032  0.75766418
   0.75195989  0.76126599  0.75164509
   0.74486390  0.49351932  0.50312687
   0.49740503  0.76140008  0.49012688
   0.49632536  0.50054216  0.74382984
   0.51960074  0.01589253  0.98101272
   0.99735879  0.51622713  0.98240709
   0.50343685  0.73742164  0.25872527
   0.23649013  0.01222561  0.74744105
   0.47660583  0.98415031  0.49750242
   0.73858478  0.97375623  0.76868703
   0.00282147  0.77254341  0.25586889
   0.73762411  0.50868230  0.25580433
   0.01860140  0.00177035  0.50069684
   0.50054008  0.52183384  0.49501877
   0.74216827  0.51917691  0.74890074
   0.75216578  0.74164183  0.49338595
HECN                                    
           1
     8.774713    0.015990    0.000115
     0.021893    8.841688   -0.001414
     0.031625   -0.016737    8.772830
   Zr   W    Ti   N    C    Cr   Mo
   7   6   7  13  19   6   6
Direct configuration=     7
   0.99626648  0.99855551  0.99020117
   0.26502371 -0.00014116  0.24297648
   0.24465536  0.49791004  0.24555387
   0.50212205  0.49828596  0.00154161
   0.50341197  0.23988221  0.74585992
   0.99956257  0.50128862  0.49851805
   0.49240984  0.76189309  0.75351323
   0.99108248  0.23261784  0.26472151
   0.76093323  0.74108099  0.00855562
   0.01009570  0.25687301  0.73888212
   0.75244236  0.25455020  0.49806570
   0.00125883  0.73882205  0.75308534
   0.25387102  0.49562042  0.75105952
   0.25058317  0.24819056  0.99237442
   0.51188895  0.25042974  0.25133031
   0.73855762  0.99390868  0.27001669
   0.75085512  0.25527560  0.99533296
   0.24406317  0.74874784  0.99954952
   0.25528061  0.24744794  0.50441286
   0.24777863  0.75231458  0.49960645
   0.24984038  0.24817569  0.24949230
   0.25977833  0.00113333  0.98881628
   0.00212920  0.25280570  0.00303596
   0.74950728  0.24309445  0.25068242
   0.74091323  0.99924108  0.00381764
   0.51322852  0.00022632  0.25023826
   0.99130718  0.47998785  0.24079971
   0.50364270  0.76289098  0.00889915
   0.98798296  0.00239315  0.74239628
   0.76039567  0.24207365  0.75182166
   0.74080618  0.00664103  0.50464213
   0.50297135  0.23586779  0.48996032
   0.50605006  0.00133302  0.74282194
   0.99327255 -0.00006167  0.25354841
   0.50478014  0.24136766  0.00627502
   0.25566237  0.74978946  0.24875824
   0.23967637  0.50088328  0.99159552
   0.00314278  0.73939717  0.00344805
   0.74630416  0.74945458  0.24884334
   0.76430978  0.49863455  0.00309653
   0.49955623  0.50099191  0.25482681
   0.24752306  0.24729652  0.74860281
   0.25860921  0.99821389  0.51174439
   0.00359088  0.24587963  0.50234698
   0.23915756  0.75456124  0.75087052
   0.25579662  0.50126562  0.50335247
   0.00133220  0.75768648  0.50490030
   0.99734053  0.49714014  0.75797845
   0.75171414  0.76013823  0.75120347
   0.74439183  0.49514036  0.50296310
   0.49619825  0.76140021  0.48898994
   0.49585290  0.50143168  0.74388549
   0.52124755  0.01497182  0.98064849
   0.99655114  0.51760596  0.98143081
   0.50153527  0.73476835  0.25919381
   0.23358798  0.01165433  0.74782279
   0.47781909  0.98552532  0.49720571
   0.73529045  0.97560834  0.77242985
   0.00371882  0.77450467  0.25399694
   0.73642107  0.50924727  0.25388650
   0.02076153  0.00234312  0.50283164
   0.50094907  0.52238455  0.49324541
   0.74229261  0.51981980  0.75430724
   0.75091833  0.74153749  0.49318973
HECN                                    
           1
     8.776935    0.016076    0.000239
     0.021983    8.843202   -0.001523
     0.031758   -0.016848    8.774559
   Zr   W    Ti   N    C    Cr   Mo
   7   6   7  13  19   6   6
Direct configuration=     8
   0.99625121  0.99857712  0.99015613
   0.26501901 -0.00015403  0.24296476
   0.24456605  0.49786451  0.24555408
   0.50216065  0.49828328  0.00154574
   0.50339944  0.23992955  0.74584054
   0.99955094  0.50134519  0.49853550
   0.49239340  0.76175899  0.75349241
   0.99102866  0.23267315  0.26470932
   0.76101516  0.74108362  0.00848060
   0.01013346  0.25683966  0.73894006
   0.75245688  0.25443109  0.49795395
   0.00127372  0.73870174  0.75317685
   0.25386950  0.49561602  0.75108391
   0.25060692  0.24816031  0.99231654
   0.51192759  0.25041219  0.25130583
   0.73849888  0.99397176  0.27000213
   0.75078265  0.25523677  0.99533209
   0.24401676  0.74875534  0.99956370
   0.25531873  0.24742135  0.50445721
   0.24780823  0.75233790  0.49957295
   0.24982409  0.24813688  0.24950367
   0.25975701  0.00115218  0.98877186
   0.00212188  0.25284342  0.00308031
   0.74946246  0.24306124  0.25060603
   0.74087285  0.99926790  0.00369803
   0.51327525  0.00025132  0.25025638
   0.99131385  0.48002041  0.24079906
   0.50361257  0.76292652  0.00890906
   0.98798152  0.00238514  0.74239621
   0.76042541  0.24207569  0.75183613
   0.74091311  0.00664754  0.50459367
   0.50294638  0.23597680  0.48992803
   0.50614026  0.00135702  0.74293956
   0.99330783 -0.00023245  0.25353036
   0.50476324  0.24134141  0.00628459
   0.25571346  0.74981772  0.24874513
   0.23962961  0.50087902  0.99160649
   0.00318364  0.73946129  0.00349597
   0.74618852  0.74948377  0.24887944
   0.76432614  0.49858336  0.00311073
   0.49957048  0.50096171  0.25482381
   0.24759584  0.24723796  0.74860741
   0.25860410  0.99825123  0.51180841
   0.00365794  0.24593018  0.50233158
   0.23917000  0.75459573  0.75089283
   0.25582028  0.50127427  0.50333101
   0.00139685  0.75764612  0.50490530
   0.99739111  0.49709670  0.75799104
   0.75170429  0.76009288  0.75118571
   0.74437287  0.49520555  0.50295655
   0.49614983  0.76140022  0.48894427
   0.49583393  0.50146746  0.74388774
   0.52131365  0.01493478  0.98063381
   0.99651873  0.51766140  0.98139160
   0.50145898  0.73466168  0.25921263
   0.23347151  0.01163139  0.74783816
   0.47786777  0.98558060  0.49719378
   0.73515817  0.97568289  0.77258033
   0.00375484  0.77458351  0.25392172
   0.73637282  0.50926998  0.25380945
   0.02084818  0.00236616  0.50291740
   0.50096550  0.52240667  0.49317415
   0.74229752  0.51984572  0.75452452
   0.75086828  0.74153330  0.49318186
HECN                                    
           1
     8.759925    0.016525    0.002770
     0.022446    8.813776   -0.002481
     0.034228   -0.017752    8.746989
   Zr   W    Ti   N    C    Cr   Mo
   7   6   7  13  19   6   6
Direct configuration=     9
   0.99590681  0.99940073  0.98951690
   0.26497871 -0.00004436  0.24302414
   0.24327288  0.49676845  0.24556768
   0.50264511  0.49840134  0.00193509
   0.50369970  0.24129202  0.74516249
   0.99846466  0.50239877  0.49908430
   0.49266316  0.75985089  0.75266134
   0.98965958  0.23164821  0.26437942
   0.76319790  0.74128691  0.00688037
   0.01136951  0.25570987  0.73964266
   0.75324253  0.25255518  0.49487934
   0.00132879  0.73623573  0.75502000
   0.25432813  0.49531173  0.75114468
   0.25092781  0.24725469  0.99092454
   0.51276692  0.25032088  0.25100007
   0.73780464  0.99495498  0.26987506
   0.74923601  0.25393850  0.99525995
   0.24311744  0.74893688  0.99987506
   0.25617097  0.24698688  0.50554711
   0.24841428  0.75288631  0.49873829
   0.24921584  0.24740422  0.24974564
   0.25887554  0.00150378  0.98825918
   0.00197565  0.25348909  0.00407533
   0.74861960  0.24238513  0.24890499
   0.74083444  0.99948123  0.00132177
   0.51345666  0.00126715  0.25061484
   0.99130895  0.48051675  0.24129036
   0.50314935  0.76338429  0.00887899
   0.98834759  0.00199220  0.74215104
   0.76099119  0.24210472  0.75175035
   0.74342348  0.00736006  0.50333739
   0.50279227  0.23886000  0.48955792
   0.50852207  0.00112040  0.74566945
   0.99422052 -0.00143175  0.25394201
   0.50430300  0.24096388  0.00597005
   0.25640489  0.75007229  0.24847568
   0.23894404  0.50074990  0.99183761
   0.00371051  0.74118035  0.00465423
   0.74413877  0.74955927  0.24936979
   0.76449216  0.49786549  0.00377244
   0.49952073  0.50025408  0.25453169
   0.24910918  0.24646067  0.74864776
   0.25867792  0.99901492  0.51288713
   0.00468472  0.24710497  0.50235278
   0.23923978  0.75514360  0.75137398
   0.25629464  0.50143140  0.50299843
   0.00199783  0.75752920  0.50471231
   0.99816713  0.49594955  0.75791199
   0.75167887  0.75943074  0.75069053
   0.74384474  0.49632779  0.50314287
   0.49570521  0.76104665  0.48808879
   0.49597923  0.50224524  0.74366502
   0.52273678  0.01422454  0.97969226
   0.99536605  0.51882143  0.98045515
   0.49958916  0.73195984  0.26000124
   0.22975933  0.01126021  0.74793632
   0.47874231  0.98666040  0.49723380
   0.73152626  0.97663609  0.77645800
   0.00414433  0.77531574  0.25273364
   0.73515207  0.51063196  0.25306006
   0.02275897  0.00271340  0.50452791
   0.50178553  0.52287205  0.49163662
   0.74273609  0.52058519  0.75886108
   0.74988145  0.74045705  0.49270321
HECN                                    
           1
     8.755013    0.016655    0.003500
     0.022580    8.805279   -0.002758
     0.034941   -0.018013    8.739027
   Zr   W    Ti   N    C    Cr   Mo
   7   6   7  13  19   6   6
Direct configuration=    10
   0.99580720  0.99963934  0.98933178
   0.26496705 -0.00001258  0.24304135
   0.24289876  0.49645091  0.24557169
   0.50278524  0.49843555  0.00204784
   0.50378661  0.24168674  0.74496609
   0.99815031  0.50270405  0.49924340
   0.49274131  0.75929803  0.75242051
   0.98926353  0.23135127  0.26428394
   0.76382954  0.74134572  0.00641666
   0.01172709  0.25538254  0.73984605
   0.75347014  0.25201157  0.49398859
   0.00134461  0.73552132  0.75555383
   0.25446082  0.49522356  0.75116223
   0.25102079  0.24699226  0.99052126
   0.51300978  0.25029440  0.25091143
   0.73760378  0.99523985  0.26983834
   0.74878856  0.25356238  0.99523914
   0.24285721  0.74898950  0.99996533
   0.25641745  0.24686103  0.50586274
   0.24858969  0.75304517  0.49849647
   0.24903985  0.24719197  0.24981576
   0.25862054  0.00160564  0.98811076
   0.00193325  0.25367619  0.00436359
   0.74837590  0.24218921  0.24841229
   0.74082353  0.99954297  0.00063345
   0.51350909  0.00156147  0.25071869
   0.99130749  0.48066057  0.24143269
   0.50301532  0.76351693  0.00887033
   0.98845353  0.00187835  0.74207998
   0.76115489  0.24211312  0.75172545
   0.74414988  0.00756641  0.50297329
   0.50274766  0.23969533  0.48945081
   0.50921095  0.00105189  0.74646002
   0.99448457 -0.00177922  0.25406114
   0.50416988  0.24085450  0.00587897
   0.25660495  0.75014602  0.24839757
   0.23874567  0.50071251  0.99190461
   0.00386281  0.74167843  0.00498975
   0.74354568  0.74958119  0.24951201
   0.76454015  0.49765752  0.00396408
   0.49950637  0.50004905  0.25444706
   0.24954703  0.24623545  0.74865930
   0.25869917  0.99923621  0.51319963
   0.00498177  0.24744533  0.50235888
   0.23925992  0.75530235  0.75151336
   0.25643191  0.50147691  0.50290205
   0.00217172  0.75749531  0.50465635
   0.99839167  0.49561718  0.75788899
   0.75167157  0.75923888  0.75054708
   0.74369191  0.49665295  0.50319693
   0.49557665  0.76094419  0.48784101
   0.49602127  0.50247057  0.74360052
   0.52314862  0.01401871  0.97941937
   0.99503262  0.51915751  0.98018403
   0.49904816  0.73117710  0.26022975
   0.22868531  0.01115273  0.74796506
   0.47899531  0.98697323  0.49724536
   0.73047511  0.97691243  0.77758159
   0.00425711  0.77552785  0.25238947
   0.73479892  0.51102655  0.25284313
   0.02331166  0.00281402  0.50499428
   0.50202291  0.52300683  0.49119119
   0.74286260  0.52079957  0.76011724
   0.74959599  0.74014523  0.49256461
HECN                                    
           1
     8.756863    0.016145    0.005317
     0.022072    8.804343   -0.001315
     0.036759   -0.016585    8.740812
   Zr   W    Ti   N    C    Cr   Mo
   7   6   7  13  19   6   6
Direct configuration=    11
   0.99600004  0.00086323  0.98945957
   0.26555795  0.00070816  0.24328299
   0.24269390  0.49555153  0.24557317
   0.50216681  0.49904284  0.00252768
   0.50487913  0.24253264  0.74409040
   0.99707864  0.50278158  0.49929836
   0.49318924  0.75985780  0.75185403
   0.98877767  0.22934458  0.26367828
   0.76471046  0.74222971  0.00548561
   0.01267478  0.25385072  0.74002362
   0.75421029  0.25172810  0.49171267
   0.00102494  0.73537648  0.75624767
   0.25511049  0.49509150  0.75061353
   0.25101913  0.24624073  0.98985044
   0.51308321  0.25035649  0.25106942
   0.73795089  0.99507610  0.26972289
   0.74806092  0.25217168  0.99519663
   0.24291848  0.74915525  0.00000153
   0.25695804  0.24708517  0.50630464
   0.24894026  0.75322184  0.49812288
   0.24844136  0.24703436  0.24992128
   0.25785640  0.00162358  0.98820609
   0.00183165  0.25413643  0.00491457
   0.74794721  0.24180978  0.24700139
   0.74205598  0.99915957  0.00076011
   0.51273179  0.00269358  0.25082078
   0.99083758  0.48104708  0.24200911
   0.50281479  0.76346931  0.00881502
   0.98898504  0.00117614  0.74198217
   0.76146785  0.24180930  0.75131128
   0.74558580  0.00876951  0.50223151
   0.50307581  0.24184649  0.48935971
   0.51065795  0.00056973  0.74766473
   0.99467184  0.00033730  0.25473209
   0.50380543  0.24073231  0.00524693
   0.25661247  0.74964581  0.24835818
   0.23862833  0.50062414  0.99180470
   0.00425888  0.74261442  0.00550631
   0.74290209  0.74975294  0.24866566
   0.76464450  0.49731651  0.00519942
   0.49823058  0.49925409  0.25360688
   0.25055202  0.24621143  0.74860201
   0.26002916  0.99932979  0.51368210
   0.00507715  0.24800469  0.50267568
   0.23913843  0.75540775  0.75163738
   0.25623917  0.50150876  0.50304658
   0.00181136  0.75829711  0.50459095
   0.99839756  0.49449051  0.75774502
   0.75206131  0.76028334  0.75022526
   0.74358788  0.49630369  0.50405803
   0.49580940  0.76137854  0.48735971
   0.49662320  0.50257349  0.74341853
   0.52308623  0.01370676  0.97850672
   0.99399015  0.51919332  0.98013255
   0.49768151  0.72989986  0.26062329
   0.22527449  0.01123573  0.74784623
   0.47953460  0.98778585  0.49795643
   0.72830884  0.97671395  0.77953866
   0.00407307  0.77373269  0.25254173
   0.73487928  0.51197851  0.25334363
   0.02308784  0.00299861  0.50552111
   0.50255635  0.52175781  0.49069236
   0.74409750  0.52006764  0.76160476
   0.74905527  0.73945144  0.49241749
HECN                                    
           1
     8.758349    0.015735    0.006777
     0.021664    8.803591   -0.000154
     0.038220   -0.015436    8.742246
   Zr   W    Ti   N    C    Cr   Mo
   7   6   7  13  19   6   6
Direct configuration=    12
   0.99615503  0.00184700  0.98956207
   0.26603278  0.00128749  0.24347697
   0.24252924  0.49482859  0.24557451