  64  64   0   0
  0.2218804E+02  0.1124000E-08  0.1124000E-08  0.1124000E-08  0.5000000E-15
  1.000000000000000E-004
  CAR 
 HECN                                    
     15.28731253    -60.25246930  301      8.12322966      1.00000000
    -60.252  0.0000E+00  0.0000E+00
    -60.001  0.0000E+00  0.0000E+00
    -59.749  0.0000E+00  0.0000E+00
    -59.497  0.0000E+00  0.0000E+00
    -59.245  0.0000E+00  0.0000E+00
    -58.993  0.0000E+00  0.0000E+00
    -58.742  0.0000E+00  0.0000E+00
    -58.490  0.0000E+00  0.0000E+00
    -58.238  0.0000E+00  0.0000E+00
    -57.986  0.0000E+00  0.0000E+00
    -57.734  0.0000E+00  0.0000E+00
    -57.483  0.0000E+00  0.0000E+00
    -57.231  0.2467E-09  0.6212E-10
    -56.979  0.1307E-02  0.3290E-03
    -56.727  0.2474E+00  0.6264E-01
    -56.475  0.2272E+00  0.1199E+00
    -56.224  0.5801E-03  0.1200E+00
    -55.972  0.2969E-10  0.1200E+00
    -55.720  0.0000E+00  0.1200E+00
    -55.468  0.0000E+00  0.1200E+00
    -55.216  0.0000E+00  0.1200E+00
    -54.965  0.0000E+00  0.1200E+00
    -54.713  0.0000E+00  0.1200E+00
    -54.461  0.0000E+00  0.1200E+00
    -54.209  0.0000E+00  0.1200E+00
    -53.957  0.0000E+00  0.1200E+00
    -53.706  0.0000E+00  0.1200E+00
    -53.454  0.0000E+00  0.1200E+00
    -53.202  0.0000E+00  0.1200E+00
    -52.950  0.0000E+00  0.1200E+00
    -52.698  0.0000E+00  0.1200E+00
    -52.447  0.0000E+00  0.1200E+00
    -52.195  0.0000E+00  0.1200E+00
    -51.943  0.0000E+00  0.1200E+00
    -51.691  0.0000E+00  0.1200E+00
    -51.439  0.0000E+00  0.1200E+00
    -51.188  0.0000E+00  0.1200E+00
    -50.936  0.0000E+00  0.1200E+00
    -50.684  0.0000E+00  0.1200E+00
    -50.432  0.0000E+00  0.1200E+00
    -50.180  0.0000E+00  0.1200E+00
    -49.929  0.0000E+00  0.1200E+00
    -49.677  0.0000E+00  0.1200E+00
    -49.425  0.0000E+00  0.1200E+00
    -49.173  0.0000E+00  0.1200E+00
    -48.922  0.0000E+00  0.1200E+00
    -48.670  0.0000E+00  0.1200E+00
    -48.418  0.1226E-14  0.1200E+00
    -48.166  0.2183E-05  0.1200E+00
    -47.914  0.2782E-01  0.1270E+00
    -47.663  0.1720E+00  0.1703E+00
    -47.411  0.2258E+00  0.2272E+00
    -47.159  0.5097E-01  0.2400E+00
    -46.907  0.8353E-05  0.2400E+00
    -46.655  0.1383E-13  0.2400E+00
    -46.404  0.0000E+00  0.2400E+00
    -46.152  0.0000E+00  0.2400E+00
    -45.900  0.0000E+00  0.2400E+00
    -45.648  0.0000E+00  0.2400E+00
    -45.396  0.0000E+00  0.2400E+00
    -45.145  0.0000E+00  0.2400E+00
    -44.893  0.0000E+00  0.2400E+00
    -44.641  0.0000E+00  0.2400E+00
    -44.389  0.0000E+00  0.2400E+00
    -44.137  0.0000E+00  0.2400E+00
    -43.886  0.0000E+00  0.2400E+00
    -43.634  0.0000E+00  0.2400E+00
    -43.382  0.0000E+00  0.2400E+00
    -43.130  0.0000E+00  0.2400E+00
    -42.878  0.0000E+00  0.2400E+00
    -42.627  0.0000E+00  0.2400E+00
    -42.375  0.0000E+00  0.2400E+00
    -42.123  0.0000E+00  0.2400E+00
    -41.871  0.0000E+00  0.2400E+00
    -41.619  0.0000E+00  0.2400E+00
    -41.368  0.0000E+00  0.2400E+00
    -41.116  0.2205E-15  0.2400E+00
    -40.864  0.1073E-05  0.2400E+00
    -40.612  0.3669E-01  0.2492E+00
    -40.360  0.3376E+00  0.3342E+00
    -40.109  0.1656E+00  0.3760E+00
    -39.857  0.1608E-01  0.3800E+00
    -39.605  0.4117E-06  0.3800E+00
    -39.353  0.0000E+00  0.3800E+00
    -39.101  0.0000E+00  0.3800E+00
    -38.850  0.0000E+00  0.3800E+00
    -38.598  0.0000E+00  0.3800E+00
    -38.346  0.0000E+00  0.3800E+00
    -38.094  0.0000E+00  0.3800E+00
    -37.842  0.0000E+00  0.3800E+00
    -37.591  0.0000E+00  0.3800E+00
    -37.339  0.0000E+00  0.3800E+00
    -37.087  0.0000E+00  0.3800E+00
    -36.835  0.0000E+00  0.3800E+00
    -36.583  0.0000E+00  0.3800E+00
    -36.332  0.0000E+00  0.3800E+00
    -36.080  0.4167E-12  0.3800E+00
    -35.828  0.8710E-04  0.3800E+00
    -35.576  0.2057E+00  0.4318E+00
    -35.324  0.8964E+00  0.6575E+00
    -35.073  0.3241E+00  0.7391E+00
    -34.821  0.3422E-02  0.7400E+00
    -34.569  0.3070E-08  0.7400E+00
    -34.317  0.0000E+00  0.7400E+00
    -34.065  0.0000E+00  0.7400E+00
    -33.814  0.0000E+00  0.7400E+00
    -33.562  0.0000E+00  0.7400E+00
    -33.310  0.0000E+00  0.7400E+00
    -33.058  0.0000E+00  0.7400E+00
    -32.806  0.0000E+00  0.7400E+00
    -32.555  0.0000E+00  0.7400E+00
    -32.303  0.0000E+00  0.7400E+00
    -32.051  0.0000E+00  0.7400E+00
    -31.799  0.0000E+00  0.7400E+00
    -31.547  0.0000E+00  0.7400E+00
    -31.296  0.4565E-11  0.7400E+00
    -31.044  0.2145E-03  0.7401E+00
    -30.792  0.2457E+00  0.8019E+00
    -30.540  0.9788E+00  0.1048E+01
    -30.288  0.2049E+00  0.1100E+01
    -30.037  0.1044E-03  0.1100E+01
    -29.785  0.1077E-11  0.1100E+01
    -29.533  0.0000E+00  0.1100E+01
    -29.281  0.0000E+00  0.1100E+01
    -29.029  0.0000E+00  0.1100E+01
    -28.778  0.0000E+00  0.1100E+01
    -28.526  0.0000E+00  0.1100E+01
    -28.274  0.0000E+00  0.1100E+01
    -28.022  0.0000E+00  0.1100E+01
    -27.770  0.0000E+00  0.1100E+01
    -27.519  0.0000E+00  0.1100E+01
    -27.267  0.0000E+00  0.1100E+01
    -27.015  0.0000E+00  0.1100E+01
    -26.763  0.0000E+00  0.1100E+01
    -26.511  0.0000E+00  0.1100E+01
    -26.260  0.0000E+00  0.1100E+01
    -26.008  0.0000E+00  0.1100E+01
    -25.756  0.0000E+00  0.1100E+01
    -25.504  0.0000E+00  0.1100E+01
    -25.252  0.0000E+00  0.1100E+01
    -25.001  0.0000E+00  0.1100E+01
    -24.749  0.4409E-17  0.1100E+01
    -24.497  0.9398E-07  0.1100E+01
    -24.245  0.1058E-01  0.1103E+01
    -23.993  0.1989E+00  0.1153E+01
    -23.742  0.5884E+00  0.1301E+01
    -23.490  0.5782E+00  0.1446E+01
    -23.238  0.5367E-01  0.1460E+01
    -22.986  0.1011E-04  0.1460E+01
    -22.734  0.7224E-01  0.1478E+01
    -22.483  0.5567E+00  0.1618E+01
    -22.231  0.6326E+00  0.1778E+01
    -21.979  0.3533E+00  0.1867E+01
    -21.727  0.5308E-01  0.1880E+01
    -21.475  0.1671E-04  0.1880E+01
    -21.224  0.5350E-13  0.1880E+01
    -20.972  0.0000E+00  0.1880E+01
    -20.720  0.0000E+00  0.1880E+01
    -20.468  0.0000E+00  0.1880E+01
    -20.216  0.0000E+00  0.1880E+01
    -19.965  0.0000E+00  0.1880E+01
    -19.713  0.0000E+00  0.1880E+01
    -19.461  0.4934E-09  0.1880E+01
    -19.209  0.1385E-02  0.1880E+01
    -18.957  0.2380E+00  0.1940E+01
    -18.706  0.7973E+00  0.2141E+01
    -18.454  0.4686E+00  0.2259E+01
    -18.202  0.1592E+00  0.2299E+01
    -17.950  0.3529E-02  0.2300E+01
    -17.698  0.5590E-08  0.2300E+01
    -17.447  0.0000E+00  0.2300E+01
    -17.195  0.0000E+00  0.2300E+01
    -16.943  0.0000E+00  0.2300E+01
    -16.691  0.0000E+00  0.2300E+01
    -16.439  0.0000E+00  0.2300E+01
    -16.188  0.0000E+00  0.2300E+01
    -15.936  0.0000E+00  0.2300E+01
    -15.684  0.0000E+00  0.2300E+01
    -15.432  0.0000E+00  0.2300E+01
    -15.180  0.0000E+00  0.2300E+01
    -14.929  0.0000E+00  0.2300E+01
    -14.677  0.0000E+00  0.2300E+01
    -14.425  0.0000E+00  0.2300E+01
    -14.173  0.0000E+00  0.2300E+01
    -13.921  0.0000E+00  0.2300E+01
    -13.670  0.0000E+00  0.2300E+01
    -13.418  0.0000E+00  0.2300E+01
    -13.166  0.0000E+00  0.2300E+01
    -12.914  0.0000E+00  0.2300E+01
    -12.662  0.0000E+00  0.2300E+01
    -12.411  0.0000E+00  0.2300E+01
    -12.159  0.0000E+00  0.2300E+01
    -11.907  0.0000E+00  0.2300E+01
    -11.655  0.0000E+00  0.2300E+01
    -11.403  0.0000E+00  0.2300E+01
    -11.152  0.0000E+00  0.2300E+01
    -10.900  0.0000E+00  0.2300E+01
    -10.648  0.0000E+00  0.2300E+01
    -10.396  0.0000E+00  0.2300E+01
    -10.144  0.0000E+00  0.2300E+01
     -9.893  0.0000E+00  0.2300E+01
     -9.641  0.0000E+00  0.2300E+01
     -9.389  0.0000E+00  0.2300E+01
     -9.137  0.0000E+00  0.2300E+01
     -8.885  0.0000E+00  0.2300E+01
     -8.634  0.0000E+00  0.2300E+01
     -8.382  0.0000E+00  0.2300E+01
     -8.130  0.1483E-08  0.2300E+01
     -7.878  0.7652E-03  0.2300E+01
     -7.626  0.6338E-01  0.2316E+01
     -7.375  0.3665E-01  0.2325E+01
     -7.123  0.1132E+00  0.2354E+01
     -6.871  0.1337E+00  0.2388E+01
     -6.619  0.1779E+00  0.2432E+01
     -6.367  0.2769E+00  0.2502E+01
     -6.116  0.2217E+00  0.2558E+01
     -5.864  0.8436E-02  0.2560E+01
     -5.612  0.4052E-07  0.2560E+01
     -5.360  0.0000E+00  0.2560E+01
     -5.108  0.0000E+00  0.2560E+01
     -4.857  0.0000E+00  0.2560E+01
     -4.605  0.0000E+00  0.2560E+01
     -4.353  0.1511E-12  0.2560E+01
     -4.101  0.1080E-04  0.2560E+01
     -3.849  0.1979E-01  0.2565E+01
     -3.598  0.9333E-01  0.2588E+01
     -3.346  0.1127E+00  0.2617E+01
     -3.094  0.1941E+00  0.2666E+01
     -2.842  0.1729E+00  0.2709E+01
     -2.590  0.2324E+00  0.2768E+01
     -2.339  0.2294E+00  0.2826E+01
     -2.087  0.2265E+00  0.2883E+01
     -1.835  0.1445E+00  0.2919E+01
     -1.583  0.7089E-01  0.2937E+01
     -1.331  0.1226E-01  0.2940E+01
     -1.080  0.3519E-03  0.2940E+01
     -0.828  0.3123E-08  0.2940E+01
     -0.576  0.0000E+00  0.2940E+01
     -0.324  0.0000E+00  0.2940E+01
     -0.072  0.0000E+00  0.2940E+01
      0.179  0.1573E-10  0.2940E+01
      0.431  0.4545E-04  0.2940E+01
      0.683  0.2885E-02  0.2941E+01
      0.935  0.1952E-01  0.2946E+01
      1.187  0.7205E-01  0.2964E+01
      1.438  0.1059E+00  0.2990E+01
      1.690  0.1784E+00  0.3035E+01
      1.942  0.2238E+00  0.3092E+01
      2.194  0.2768E+00  0.3161E+01
      2.446  0.3209E+00  0.3242E+01
      2.697  0.3527E+00  0.3331E+01
      2.949  0.3247E+00  0.3413E+01
      3.201  0.3962E+00  0.3513E+01
      3.453  0.4561E+00  0.3627E+01
      3.705  0.5338E+00  0.3762E+01
      3.956  0.6084E+00  0.3915E+01
      4.208  0.6469E+00  0.4078E+01
      4.460  0.6276E+00  0.4236E+01
      4.712  0.5552E+00  0.4376E+01
      4.964  0.4744E+00  0.4495E+01
      5.215  0.3720E+00  0.4589E+01
      5.467  0.3005E+00  0.4665E+01
      5.719  0.3396E+00  0.4750E+01
      5.971  0.2187E+00  0.4805E+01
      6.223  0.1495E+00  0.4843E+01
      6.474  0.7354E-01  0.4861E+01
      6.726  0.9754E-01  0.4886E+01
      6.978  0.2052E+00  0.4938E+01
      7.230  0.2391E+00  0.4998E+01
      7.482  0.2131E+00  0.5051E+01
      7.733  0.2684E+00  0.5119E+01
      7.985  0.2910E+00  0.5192E+01
      8.237  0.2730E+00  0.5261E+01
      8.489  0.2788E+00  0.5331E+01
      8.741  0.4233E+00  0.5438E+01
      8.992  0.5379E+00  0.5573E+01
      9.244  0.4870E+00  0.5696E+01
      9.496  0.4934E+00  0.5820E+01
      9.748  0.4685E+00  0.5938E+01
     10.000  0.4320E+00  0.6047E+01
     10.251  0.4010E+00  0.6148E+01
     10.503  0.3903E+00  0.6246E+01
     10.755  0.4082E+00  0.6349E+01
     11.007  0.3851E+00  0.6446E+01
     11.259  0.4149E+00  0.6550E+01
     11.510  0.3444E+00  0.6637E+01
     11.762  0.2744E+00  0.6706E+01
     12.014  0.5502E-01  0.6720E+01
     12.266  0.1304E-03  0.6720E+01
     12.518  0.1898E-10  0.6720E+01
     12.769  0.0000E+00  0.6720E+01
     13.021  0.0000E+00  0.6720E+01
     13.273  0.0000E+00  0.6720E+01
     13.525  0.0000E+00  0.6720E+01
     13.777  0.0000E+00  0.6720E+01
     14.028  0.0000E+00  0.6720E+01
     14.280  0.0000E+00  0.6720E+01
     14.532  0.0000E+00  0.6720E+01
     14.784  0.0000E+00  0.6720E+01
     15.036  0.0000E+00  0.6720E+01
     15.287  0.0000E+00  0.6720E+01
