       N       E                     dE             d eps       ncg     rms          rms(c)
DAV:   1     0.497579804810E+04    0.49758E+04   -0.22580E+05  9912   0.126E+03
DAV:   2     0.256393940213E+03   -0.47194E+04   -0.45880E+04  9408   0.509E+02
DAV:   3    -0.524318102874E+03   -0.78071E+03   -0.72667E+03 16072   0.161E+02
DAV:   4    -0.622474635926E+03   -0.98157E+02   -0.95557E+02 16464   0.666E+01
DAV:   5    -0.637556192626E+03   -0.15082E+02   -0.14703E+02 18648   0.234E+01    0.859E+01
RMM:   6    -0.100938227895E+04   -0.37183E+03   -0.25325E+03 12133   0.140E+02    0.168E+02
RMM:   7    -0.421658435923E+03    0.58772E+03   -0.47956E+02 13043   0.649E+01    0.381E+01
RMM:   8    -0.530927767279E+03   -0.10927E+03   -0.22390E+02 14963   0.251E+01    0.866E+01
RMM:   9    -0.487727181157E+03    0.43201E+02   -0.12382E+02 15141   0.204E+01    0.756E+01
RMM:  10    -0.475178590293E+03    0.12549E+02   -0.83022E+01 15909   0.144E+01    0.598E+01
RMM:  11    -0.473309664482E+03    0.18689E+01   -0.59923E+01 15972   0.100E+01    0.557E+01
RMM:  12    -0.466812268667E+03    0.64974E+01   -0.28208E+01 15152   0.658E+00    0.462E+01
RMM:  13    -0.465603733511E+03    0.12085E+01   -0.18708E+01 15338   0.554E+00    0.392E+01
RMM:  14    -0.469075108081E+03   -0.34714E+01   -0.12455E+01 14144   0.561E+00    0.503E+01
RMM:  15    -0.467952866631E+03    0.11222E+01   -0.11458E+01 14586   0.627E+00    0.484E+01
RMM:  16    -0.465104526730E+03    0.28483E+01   -0.81355E+00 15113   0.454E+00    0.405E+01
RMM:  17    -0.463473714859E+03    0.16308E+01   -0.37610E+00 15672   0.359E+00    0.340E+01
RMM:  18    -0.463353226836E+03    0.12049E+00   -0.43555E+00 14995   0.397E+00    0.328E+01
RMM:  19    -0.462140692113E+03    0.12125E+01   -0.24488E+00 14217   0.233E+00    0.283E+01
RMM:  20    -0.460511547809E+03    0.16291E+01   -0.17458E+00 14733   0.216E+00    0.166E+01
RMM:  21    -0.461291127643E+03   -0.77958E+00   -0.18216E+00 15196   0.174E+00    0.220E+01
RMM:  22    -0.460967866014E+03    0.32326E+00   -0.15319E+00 14448   0.197E+00    0.222E+01
RMM:  23    -0.460613364015E+03    0.35450E+00   -0.12239E+00 15619   0.148E+00    0.156E+01
RMM:  24    -0.460722460673E+03   -0.10910E+00   -0.21457E+00 14330   0.177E+00    0.169E+01
RMM:  25    -0.460709138924E+03    0.13322E-01   -0.14778E+00 15711   0.159E+00    0.149E+01
RMM:  26    -0.460853980461E+03   -0.14484E+00   -0.20497E+00 15080   0.148E+00    0.148E+01
RMM:  27    -0.460701111369E+03    0.15287E+00   -0.10076E+00 14734   0.125E+00    0.746E+00
RMM:  28    -0.460652949832E+03    0.48162E-01   -0.57821E-01 15224   0.938E-01    0.623E+00
RMM:  29    -0.460620809750E+03    0.32140E-01   -0.43746E-01 15636   0.753E-01    0.411E+00
RMM:  30    -0.460562697300E+03    0.58112E-01   -0.47887E-01 15345   0.741E-01    0.129E+00
RMM:  31    -0.460588798066E+03   -0.26101E-01   -0.37317E-01 15430   0.638E-01    0.161E+00
RMM:  32    -0.460614539366E+03   -0.25741E-01   -0.29144E-01 15558   0.538E-01    0.145E+00
RMM:  33    -0.460634180529E+03   -0.19641E-01   -0.21536E-01 15708   0.441E-01    0.996E-01
RMM:  34    -0.460649865712E+03   -0.15685E-01   -0.16353E-01 14987   0.367E-01    0.126E+00
RMM:  35    -0.460661884948E+03   -0.12019E-01   -0.13891E-01 14822   0.320E-01    0.840E-01
RMM:  36    -0.460672537065E+03   -0.10652E-01   -0.11798E-01 14763   0.299E-01    0.228E-01
RMM:  37    -0.460682776906E+03   -0.10240E-01   -0.10462E-01 14156   0.268E-01    0.113E-01
RMM:  38    -0.460691880274E+03   -0.91034E-02   -0.92923E-02 13273   0.248E-01    0.970E-02
RMM:  39    -0.460699499359E+03   -0.76191E-02   -0.77989E-02 13301   0.233E-01    0.871E-02
RMM:  40    -0.460706544141E+03   -0.70448E-02   -0.72234E-02 13028   0.218E-01    0.800E-02
RMM:  41    -0.460712432502E+03   -0.58884E-02   -0.59918E-02 13422   0.209E-01    0.152E-01
RMM:  42    -0.460718023862E+03   -0.55914E-02   -0.57012E-02 12730   0.197E-01    0.144E-01
RMM:  43    -0.460722670923E+03   -0.46471E-02   -0.47904E-02 12526   0.184E-01    0.678E-02
RMM:  44    -0.460727106938E+03   -0.44360E-02   -0.45534E-02 12604   0.174E-01    0.815E-02
RMM:  45    -0.460730850761E+03   -0.37438E-02   -0.38449E-02 12501   0.165E-01    0.482E-02
RMM:  46    -0.460734411958E+03   -0.35612E-02   -0.36475E-02 12417   0.156E-01    0.877E-02
RMM:  47    -0.460737714241E+03   -0.33023E-02   -0.33103E-02 12367   0.149E-01    0.200E-01
RMM:  48    -0.460740537789E+03   -0.28235E-02   -0.29058E-02 12360   0.141E-01    0.232E-01
RMM:  49    -0.460743202249E+03   -0.26645E-02   -0.27360E-02 12329   0.134E-01    0.259E-01
RMM:  50    -0.460745470485E+03   -0.22682E-02   -0.23426E-02 12298   0.128E-01    0.291E-01
RMM:  51    -0.460747762334E+03   -0.22918E-02   -0.23774E-02 12204   0.122E-01    0.318E-01
RMM:  52    -0.460749661017E+03   -0.18987E-02   -0.19529E-02 12143   0.116E-01    0.347E-01
RMM:  53    -0.460751724141E+03   -0.20631E-02   -0.21245E-02 12022   0.110E-01    0.369E-01
RMM:  54    -0.460753341327E+03   -0.16172E-02   -0.16852E-02 12043   0.105E-01    0.384E-01
RMM:  55    -0.460755004499E+03   -0.16632E-02   -0.17029E-02 11946   0.994E-02    0.409E-01
RMM:  56    -0.460756305947E+03   -0.13014E-02   -0.13213E-02 11937   0.948E-02    0.441E-01
RMM:  57    -0.460757750155E+03   -0.14442E-02   -0.14684E-02 11908   0.898E-02    0.465E-01
RMM:  58    -0.460758786318E+03   -0.10362E-02   -0.10691E-02 11787   0.856E-02    0.483E-01
RMM:  59    -0.460759970319E+03   -0.11840E-02   -0.12216E-02 11638   0.811E-02    0.500E-01
RMM:  60    -0.460760825160E+03   -0.85484E-03   -0.87541E-03 11554   0.775E-02
   1 F= -.46076083E+03 E0= -.46040996E+03  d E =-.460761E+03
       N       E                     dE             d eps       ncg     rms          rms(c)
DAV:   1    -0.422720842561E+04   -0.37664E+04   -0.96211E+04 10528   0.115E+03    0.387E+02
RMM:   2    -0.121042718132E+04    0.30168E+04   -0.68114E+03 12508   0.334E+02    0.180E+02
RMM:   3    -0.765694792559E+03    0.44473E+03   -0.38928E+03 13510   0.177E+02    0.112E+02
RMM:   4    -0.592107630004E+03    0.17359E+03   -0.93144E+02 12193   0.105E+02    0.610E+01
RMM:   5    -0.592946773096E+03   -0.83914E+00   -0.44566E+02 14073   0.503E+01    0.549E+01
RMM:   6    -0.576159236042E+03    0.16788E+02   -0.13517E+02 15683   0.301E+01    0.286E+01
RMM:   7    -0.585198525222E+03   -0.90393E+01   -0.96982E+01 15749   0.229E+01    0.376E+01
RMM:   8    -0.582386907125E+03    0.28116E+01   -0.48088E+01 16080   0.174E+01    0.263E+01
RMM:   9    -0.580013213121E+03    0.23737E+01   -0.38925E+01 15593   0.170E+01    0.209E+01
RMM:  10    -0.582403652189E+03   -0.23904E+01   -0.19664E+01 16449   0.922E+00    0.196E+01
RMM:  11    -0.581672340486E+03    0.73131E+00   -0.20724E+01 15700   0.134E+01    0.137E+01
RMM:  12    -0.582076930981E+03   -0.40459E+00   -0.10650E+01 16576   0.716E+00    0.115E+01
RMM:  13    -0.582001008059E+03    0.75923E-01   -0.87097E+00 16115   0.672E+00    0.598E+00
RMM:  14    -0.582647079116E+03   -0.64607E+00   -0.62150E+00 16671   0.544E+00    0.489E+00
RMM:  15    -0.583325291440E+03   -0.67821E+00   -0.55787E+00 16625   0.513E+00    0.383E+00
RMM:  16    -0.583754791811E+03   -0.42950E+00   -0.46676E+00 16501   0.487E+00    0.336E+00
RMM:  17    -0.584114255075E+03   -0.35946E+00   -0.38872E+00 16508   0.459E+00    0.362E+00
RMM:  18    -0.584427464303E+03   -0.31321E+00   -0.39025E+00 16681   0.410E+00    0.262E+00
RMM:  19    -0.584659552956E+03   -0.23209E+00   -0.28469E+00 16726   0.379E+00    0.175E+00
RMM:  20    -0.584915713730E+03   -0.25616E+00   -0.28900E+00 16745   0.349E+00    0.123E+00
RMM:  21    -0.585095077247E+03   -0.17936E+00   -0.19756E+00 16750   0.329E+00    0.121E+00
RMM:  22    -0.585290221472E+03   -0.19514E+00   -0.21059E+00 16667   0.306E+00    0.126E+00
RMM:  23    -0.585433763457E+03   -0.14354E+00   -0.15583E+00 16661   0.291E+00    0.231E+00
RMM:  24    -0.585586211113E+03   -0.15245E+00   -0.16577E+00 16370   0.277E+00    0.125E+00
RMM:  25    -0.585682148636E+03   -0.95938E-01   -0.11060E+00 16665   0.261E+00    0.109E+00
RMM:  26    -0.585791840475E+03   -0.10969E+00   -0.12456E+00 16271   0.247E+00    0.240E-01
RMM:  27    -0.585862950696E+03   -0.71110E-01   -0.79836E-01 16729   0.233E+00    0.604E-02
RMM:  28    -0.585944980837E+03   -0.82030E-01   -0.90067E-01 16496   0.217E+00    0.599E-01
RMM:  29    -0.586003742252E+03   -0.58761E-01   -0.65402E-01 16405   0.209E+00    0.921E-01
RMM:  30    -0.586065535112E+03   -0.61793E-01   -0.68704E-01 16270   0.197E+00    0.102E+00
RMM:  31    -0.586110643429E+03   -0.45108E-01   -0.50902E-01 16091   0.189E+00    0.119E+00
RMM:  32    -0.586158400519E+03   -0.47757E-01   -0.53371E-01 15997   0.179E+00    0.134E+00
RMM:  33    -0.586192260465E+03   -0.33860E-01   -0.39610E-01 16241   0.174E+00    0.131E+00
RMM:  34    -0.586230769730E+03   -0.38509E-01   -0.42725E-01 15859   0.165E+00    0.153E+00
RMM:  35    -0.586258323028E+03   -0.27553E-01   -0.32156E-01 15956   0.160E+00    0.159E+00
RMM:  36    -0.586288886130E+03   -0.30563E-01   -0.34148E-01 15801   0.153E+00    0.177E+00
RMM:  37    -0.586310725696E+03   -0.21840E-01   -0.26091E-01 15975   0.148E+00    0.180E+00
RMM:  38    -0.586334698758E+03   -0.23973E-01   -0.27694E-01 15848   0.142E+00    0.186E+00
RMM:  39    -0.586352300623E+03   -0.17602E-01   -0.21395E-01 15983   0.138E+00    0.188E+00
RMM:  40    -0.586371955120E+03   -0.19654E-01   -0.22512E-01 15607   0.132E+00    0.200E+00
RMM:  41    -0.586385490996E+03   -0.13536E-01   -0.17591E-01 15958   0.129E+00    0.192E+00
RMM:  42    -0.586399629710E+03   -0.14139E-01   -0.18688E-01 15871   0.124E+00    0.175E+00
RMM:  43    -0.586409535986E+03   -0.99063E-02   -0.14378E-01 15859   0.121E+00    0.149E+00
RMM:  44    -0.586421547339E+03   -0.12011E-01   -0.15840E-01 15785   0.116E+00    0.129E+00
RMM:  45    -0.586430972957E+03   -0.94256E-02   -0.11866E-01 15763   0.113E+00    0.127E+00
RMM:  46    -0.586442030867E+03   -0.11058E-01   -0.13293E-01 15659   0.109E+00    0.132E+00
RMM:  47    -0.586449623294E+03   -0.75924E-02   -0.10534E-01 15703   0.107E+00    0.120E+00
RMM:  48    -0.586458366848E+03   -0.87436E-02   -0.11061E-01 15549   0.103E+00    0.119E+00
RMM:  49    -0.586465180675E+03   -0.68138E-02   -0.86216E-02 15312   0.101E+00    0.123E+00
RMM:  50    -0.586472748359E+03   -0.75677E-02   -0.92925E-02 15220   0.976E-01    0.129E+00
RMM:  51    -0.586477465939E+03   -0.47176E-02   -0.71744E-02 15476   0.964E-01    0.114E+00
RMM:  52    -0.586482990612E+03   -0.55247E-02   -0.84110E-02 15603   0.946E-01    0.883E-01
RMM:  53    -0.586486971225E+03   -0.39806E-02   -0.60798E-02 15492   0.922E-01    0.759E-01
RMM:  54    -0.586492282341E+03   -0.53111E-02   -0.71325E-02 15490   0.888E-01    0.754E-01
RMM:  55    -0.586495974720E+03   -0.36924E-02   -0.52229E-02 15201   0.872E-01    0.795E-01
RMM:  56    -0.586500613822E+03   -0.46391E-02   -0.61561E-02 14996   0.850E-01    0.820E-01
RMM:  57    -0.586503578280E+03   -0.29645E-02   -0.45885E-02 15270   0.839E-01    0.784E-01
RMM:  58    -0.586507607438E+03   -0.40292E-02   -0.53854E-02 14669   0.818E-01    0.853E-01
RMM:  59    -0.586510251081E+03   -0.26436E-02   -0.40616E-02 14196   0.809E-01    0.871E-01
RMM:  60    -0.586513499087E+03   -0.32480E-02   -0.47750E-02 14518   0.790E-01
   2 F= -.58651350E+03 E0= -.58644778E+03  d E =-.125753E+03
       N       E                     dE             d eps       ncg     rms          rms(c)
DAV:   1    -0.110980746608E+04   -0.52330E+03   -0.81025E+03 12152   0.350E+02    0.218E+02
RMM:   2    -0.192184027037E+04   -0.81203E+03   -0.22598E+03 12817   0.126E+02    0.142E+02
RMM:   3    -0.965465205793E+03    0.95638E+03   -0.45042E+02 14971   0.589E+01    0.995E+01
RMM:   4    -0.704436739390E+03    0.26103E+03   -0.34962E+02 11936   0.691E+01    0.788E+01
RMM:   5    -0.642541519859E+03    0.61895E+02   -0.15764E+02 14830   0.266E+01    0.247E+01
RMM:   6    -0.649919645852E+03   -0.73781E+01   -0.85083E+01 13938   0.230E+01    0.504E+01
RMM:   7    -0.640425812756E+03    0.94938E+01   -0.22230E+01 15196   0.123E+01    0.375E+01
RMM:   8    -0.641246332292E+03   -0.82052E+00   -0.19266E+01 14851   0.983E+00    0.350E+01
RMM:   9    -0.638539769222E+03    0.27066E+01   -0.82841E+00 15709   0.573E+00    0.292E+01
RMM:  10    -0.632017337340E+03    0.65224E+01   -0.66391E+00 15272   0.715E+00    0.180E+01
RMM:  11    -0.632787401692E+03   -0.77006E+00   -0.79859E+00 15610   0.753E+00    0.191E+01
RMM:  12    -0.631839625923E+03    0.94778E+00   -0.16917E+00 15866   0.346E+00    0.184E+01
RMM:  13    -0.629943208311E+03    0.18964E+01   -0.16157E+00 15571   0.318E+00    0.542E+00
RMM:  14    -0.630014862969E+03   -0.71655E-01   -0.65125E-01 16181   0.169E+00    0.647E+00
RMM:  15    -0.630138027935E+03   -0.12316E+00   -0.55029E-01 15787   0.164E+00    0.810E+00
RMM:  16    -0.629899604641E+03    0.23842E+00   -0.31069E-01 15823   0.136E+00    0.312E+00
RMM:  17    -0.629950292111E+03   -0.50687E-01   -0.20967E-01 16242   0.945E-01    0.382E+00
RMM:  18    -0.629971804929E+03   -0.21513E-01   -0.14865E-01 16081   0.833E-01    0.381E+00
RMM:  19    -0.629947746501E+03    0.24058E-01   -0.10605E-01 16216   0.639E-01    0.308E+00
RMM:  20    -0.629877169951E+03    0.70577E-01   -0.12140E-01 15571   0.800E-01    0.127E+00
RMM:  21    -0.629887404975E+03   -0.10235E-01   -0.82687E-02 16041   0.563E-01    0.133E+00
RMM:  22    -0.629892513329E+03   -0.51084E-02   -0.44308E-02 16197   0.438E-01    0.137E+00
RMM:  23    -0.629888040368E+03    0.44730E-02   -0.33012E-02 16431   0.367E-01    0.775E-01
RMM:  24    -0.629884737832E+03    0.33025E-02   -0.30851E-02 15489   0.367E-01    0.514E-01
RMM:  25    -0.629885582924E+03   -0.84509E-03   -0.22472E-02 16402   0.304E-01    0.147E-01
RMM:  26    -0.629887450288E+03   -0.18674E-02   -0.18778E-02 16422   0.264E-01    0.202E-01
RMM:  27    -0.629888440704E+03   -0.99042E-03   -0.13826E-02 16168   0.237E-01    0.169E-01
RMM:  28    -0.629889421800E+03   -0.98110E-03   -0.12817E-02 16082   0.217E-01    0.473E-02
RMM:  29    -0.629890250128E+03   -0.82833E-03   -0.91155E-03 15894   0.199E-01    0.575E-02
RMM:  30    -0.629890962644E+03   -0.71252E-03   -0.82034E-03 15641   0.182E-01    0.243E-02
RMM:  31    -0.629891572385E+03   -0.60974E-03   -0.68478E-03 15395   0.170E-01    0.209E-02
RMM:  32    -0.629892077052E+03   -0.50467E-03   -0.56906E-03 15186   0.159E-01    0.153E-02
RMM:  33    -0.629892490128E+03   -0.41308E-03   -0.47117E-03 14909   0.149E-01    0.953E-03
RMM:  34    -0.629892852923E+03   -0.36280E-03   -0.41335E-03 14875   0.140E-01    0.467E-03
RMM:  35    -0.629893148078E+03   -0.29516E-03   -0.34188E-03 14630   0.132E-01    0.121E-02
RMM:  36    -0.629893404842E+03   -0.25676E-03   -0.30076E-03 14556   0.125E-01    0.203E-02
RMM:  37    -0.629893631441E+03   -0.22660E-03   -0.26515E-03 14397   0.119E-01    0.499E-02
RMM:  38    -0.629893816802E+03   -0.18536E-03   -0.22360E-03 14335   0.113E-01    0.574E-02
RMM:  39    -0.629893975458E+03   -0.15866E-03   -0.19478E-03 14252   0.107E-01    0.647E-02
RMM:  40    -0.629894107681E+03   -0.13222E-03   -0.16881E-03 14162   0.102E-01    0.637E-02
RMM:  41    -0.629894222567E+03   -0.11489E-03   -0.14767E-03 14099   0.982E-02    0.679E-02
RMM:  42    -0.629894320481E+03   -0.97914E-04   -0.12893E-03 13975   0.945E-02    0.723E-02
RMM:  43    -0.629894404661E+03   -0.84180E-04   -0.11397E-03 13878   0.908E-02    0.776E-02
RMM:  44    -0.629894473674E+03   -0.69013E-04   -0.99787E-04 13799   0.878E-02    0.788E-02
RMM:  45    -0.629894535346E+03   -0.61672E-04   -0.89250E-04 13666   0.848E-02    0.823E-02
RMM:  46    -0.629894584996E+03   -0.49650E-04   -0.76851E-04 13446   0.824E-02    0.864E-02
RMM:  47    -0.629894623886E+03   -0.38890E-04   -0.67694E-04 13289   0.800E-02    0.875E-02
RMM:  48    -0.629894657625E+03   -0.33739E-04   -0.60417E-04 12986   0.780E-02    0.906E-02
RMM:  49    -0.629894684694E+03   -0.27069E-04   -0.53138E-04 12643   0.762E-02    0.942E-02
RMM:  50    -0.629894704695E+03   -0.20001E-04   -0.46839E-04 12315   0.745E-02    0.956E-02
RMM:  51    -0.629894718988E+03   -0.14292E-04   -0.41092E-04 12097   0.729E-02    0.969E-02
RMM:  52    -0.629894726987E+03   -0.79998E-05   -0.35976E-04 11814   0.718E-02    0.950E-02
RMM:  53    -0.629894730826E+03   -0.38385E-05   -0.31665E-04 11623   0.707E-02    0.941E-02
RMM:  54    -0.629894731838E+03   -0.10118E-05   -0.27061E-04 11264   0.697E-02    0.953E-02
RMM:  55    -0.629894729506E+03    0.23320E-05   -0.23829E-04 10903   0.688E-02    0.971E-02
RMM:  56    -0.629894723617E+03    0.58884E-05   -0.19868E-04 10606   0.682E-02    0.986E-02
RMM:  57    -0.629894713556E+03    0.10061E-04   -0.17285E-04 10321   0.674E-02    0.979E-02
RMM:  58    -0.629894700713E+03    0.12843E-04   -0.13909E-04 10130   0.670E-02    0.989E-02
RMM:  59    -0.629894685377E+03    0.15336E-04   -0.11468E-04  9871   0.662E-02    0.998E-02
RMM:  60    -0.629894667565E+03    0.17811E-04   -0.86449E-05  9624   0.656E-02
   3 F= -.62989467E+03 E0= -.62979654E+03  d E =-.169134E+03
       N       E                     dE             d eps       ncg     rms          rms(c)
DAV:   1    -0.632455324251E+03   -0.25606E+01   -0.43165E+01 12376   0.259E+01    0.135E+01
RMM:   2    -0.648298923777E+03   -0.15844E+02   -0.25012E+01 11453   0.197E+01    0.465E+01
RMM:   3    -0.635730467719E+03    0.12568E+02   -0.60477E+00 12463   0.879E+00    0.343E+01
RMM:   4    -0.630782628867E+03    0.49478E+01   -0.12432E+00 13949   0.330E+00    0.655E+00
RMM:   5    -0.630801841590E+03   -0.19213E-01   -0.48495E-01 14439   0.191E+00    0.904E+00
RMM:   6    -0.630943842930E+03   -0.14200E+00   -0.58610E-01 13278   0.212E+00    0.114E+01
RMM:   7    -0.630346382293E+03    0.59746E+00   -0.35607E-01 13562   0.157E+00    0.332E+00
RMM:   8    -0.630370679675E+03   -0.24297E-01   -0.11110E-01 14410   0.916E-01    0.448E+00
RMM:   9    -0.630332622889E+03    0.38057E-01   -0.66346E-02 14068   0.676E-01    0.297E+00
RMM:  10    -0.630291444783E+03    0.41178E-01   -0.30622E-02 14501   0.449E-01    0.135E+00
RMM:  11    -0.630291785956E+03   -0.34117E-03   -0.13247E-02 14740   0.298E-01    0.143E+00
RMM:  12    -0.630284483186E+03    0.73028E-02   -0.65960E-03 14835   0.213E-01    0.613E-01
RMM:  13    -0.630283456441E+03    0.10267E-02   -0.34108E-03 15322   0.135E-01    0.402E-01
RMM:  14    -0.630285797971E+03   -0.23415E-02   -0.35935E-03 15431   0.142E-01    0.803E-01
RMM:  15    -0.630283584156E+03    0.22138E-02   -0.22837E-03 15072   0.125E-01    0.207E-01
RMM:  16    -0.630284270118E+03   -0.68596E-03   -0.14363E-03 14871   0.862E-02    0.380E-01
RMM:  17    -0.630283965469E+03    0.30465E-03   -0.11757E-03 14807   0.810E-02    0.192E-01
RMM:  18    -0.630284010071E+03   -0.44602E-04   -0.91350E-04 14103   0.663E-02    0.162E-01
RMM:  19    -0.630284152193E+03   -0.14212E-03   -0.75196E-04 13699   0.603E-02    0.133E-01
RMM:  20    -0.630284119674E+03    0.32520E-04   -0.52758E-04 13284   0.519E-02    0.529E-02
RMM:  21    -0.630284171061E+03   -0.51388E-04   -0.45699E-04 12225   0.426E-02    0.242E-02
RMM:  22    -0.630284212011E+03   -0.40950E-04   -0.35137E-04 12575   0.410E-02    0.105E-02
RMM:  23    -0.630284234136E+03   -0.22125E-04   -0.26106E-04 11784   0.360E-02    0.735E-03
RMM:  24    -0.630284250778E+03   -0.16642E-04   -0.19834E-04 11664   0.315E-02    0.539E-03
RMM:  25    -0.630284265290E+03   -0.14512E-04   -0.15882E-04 11358   0.271E-02    0.365E-03
RMM:  26    -0.630284277616E+03   -0.12325E-04   -0.12994E-04 11043   0.248E-02    0.232E-03
RMM:  27    -0.630284285372E+03   -0.77559E-05   -0.91406E-05 10827   0.234E-02
   4 F= -.63028429E+03 E0= -.63018943E+03  d E =-.169523E+03
       N       E                     dE             d eps       ncg     rms          rms(c)
DAV:   1    -0.630581199011E+03   -0.29692E+00   -0.53052E+00 12432   0.912E+00    0.482E+00
RMM:   2    -0.632821805762E+03   -0.22406E+01   -0.27490E+00 11790   0.617E+00    0.196E+01
RMM:   3    -0.631231148367E+03    0.15907E+01   -0.91026E-01 12339   0.345E+00    0.137E+01
RMM:   4    -0.630404213910E+03    0.82693E+00   -0.20067E-01 13083   0.142E+00    0.351E+00
RMM:   5    -0.630368405052E+03    0.35809E-01   -0.63421E-02 14181   0.782E-01    0.308E+00
RMM:   6    -0.630394458793E+03   -0.26054E-01   -0.74661E-02 13416   0.673E-01    0.393E+00
RMM:   7    -0.630325091694E+03    0.69367E-01   -0.41851E-02 13446   0.553E-01    0.157E+00
RMM:   8    -0.630321561651E+03    0.35300E-02   -0.16116E-02 14391   0.347E-01    0.137E+00
RMM:   9    -0.630322699648E+03   -0.11380E-02   -0.11553E-02 13993   0.270E-01    0.135E+00
RMM:  10    -0.630314534981E+03    0.81647E-02   -0.47976E-03 14274   0.187E-01    0.573E-01
RMM:  11    -0.630313511294E+03    0.10237E-02   -0.16923E-03 14620   0.109E-01    0.307E-01
RMM:  12    -0.630313933431E+03   -0.42214E-03   -0.10780E-03 14381   0.823E-02    0.404E-01
RMM:  13    -0.630313275668E+03    0.65776E-03   -0.65002E-04 14092   0.691E-02    0.178E-01
RMM:  14    -0.630313247820E+03    0.27848E-04   -0.37138E-04 13362   0.477E-02    0.133E-01
RMM:  15    -0.630313396709E+03   -0.14889E-03   -0.34519E-04 13233   0.438E-02    0.166E-01
RMM:  16    -0.630313325595E+03    0.71114E-04   -0.24756E-04 12896   0.390E-02    0.713E-02
RMM:  17    -0.630313389331E+03   -0.63735E-04   -0.19987E-04 12313   0.338E-02    0.116E-01
RMM:  18    -0.630313393170E+03   -0.38394E-05   -0.16823E-04 12126   0.323E-02    0.570E-02
RMM:  19    -0.630313396023E+03   -0.28527E-05   -0.13312E-04 11879   0.253E-02    0.316E-02
RMM:  20    -0.630313411734E+03   -0.15711E-04   -0.10432E-04 11148   0.232E-02    0.136E-02
RMM:  21    -0.630313424407E+03   -0.12673E-04   -0.87144E-05 10149   0.206E-02    0.709E-03
RMM:  22    -0.630313432161E+03   -0.77539E-05   -0.65290E-05 10229   0.189E-02
   5 F= -.63031343E+03 E0= -.63021969E+03  d E =-.169553E+03
       N       E                     dE             d eps       ncg     rms          rms(c)
DAV:   1    -0.625160024482E+03    0.51534E+01   -0.73577E+02  9996   0.116E+02    0.846E+00
RMM:   2    -0.638049558394E+03   -0.12890E+02   -0.90432E+01 14543   0.276E+01    0.283E+01
RMM:   3    -0.634654237561E+03    0.33953E+01   -0.14160E+01 14274   0.119E+01    0.151E+01
RMM:   4    -0.634289909279E+03    0.36433E+00   -0.40733E+00 15109   0.566E+00    0.110E+01
RMM:   5    -0.633952316055E+03    0.33759E+00   -0.13021E+00 15197   0.329E+00    0.722E+00
RMM:   6    -0.633725384324E+03    0.22693E+00   -0.64865E-01 15140   0.223E+00    0.636E+00
RMM:   7    -0.633606622034E+03    0.11876E+00   -0.36220E-01 15673   0.143E+00    0.469E+00
RMM:   8    -0.633832319351E+03   -0.22570E+00   -0.47062E-01 15087   0.177E+00    0.806E+00
RMM:   9    -0.633550877810E+03    0.28144E+00   -0.34006E-01 15297   0.150E+00    0.447E+00
RMM:  10    -0.633478124650E+03    0.72753E-01   -0.15128E-01 15761   0.805E-01    0.144E+00
RMM:  11    -0.633495058806E+03   -0.16934E-01   -0.56424E-02 15736   0.553E-01    0.239E+00
RMM:  12    -0.633474055713E+03    0.21003E-01   -0.33859E-02 15771   0.425E-01    0.115E+00
RMM:  13    -0.633470838726E+03    0.32170E-02   -0.24546E-02 15793   0.302E-01    0.674E-01
RMM:  14    -0.633473361971E+03   -0.25232E-02   -0.16771E-02 15709   0.264E-01    0.950E-01
RMM:  15    -0.633471277871E+03    0.20841E-02   -0.11985E-02 15801   0.220E-01    0.378E-01
RMM:  16    -0.633472232258E+03   -0.95439E-03   -0.80097E-03 15901   0.167E-01    0.397E-01
RMM:  17    -0.633471793360E+03    0.43890E-03   -0.50202E-03 15729   0.142E-01    0.154E-01
RMM:  18    -0.633472445389E+03   -0.65203E-03   -0.49200E-03 15552   0.120E-01    0.241E-01
RMM:  19    -0.633472567646E+03   -0.12226E-03   -0.36142E-03 15496   0.111E-01    0.668E-02
RMM:  20    -0.633472907117E+03   -0.33947E-03   -0.27059E-03 14926   0.978E-02    0.120E-01
RMM:  21    -0.633473001516E+03   -0.94399E-04   -0.20601E-03 14158   0.869E-02    0.262E-02
RMM:  22    -0.633473168131E+03   -0.16661E-03   -0.18904E-03 13538   0.769E-02    0.152E-02
RMM:  23    -0.633473296169E+03   -0.12804E-03   -0.13879E-03 13353   0.672E-02    0.872E-03
RMM:  24    -0.633473403104E+03   -0.10693E-03   -0.11592E-03 13076   0.600E-02    0.700E-03
RMM:  25    -0.633473491349E+03   -0.88246E-04   -0.94572E-04 12967   0.545E-02    0.503E-03
RMM:  26    -0.633473563622E+03   -0.72273E-04   -0.77372E-04 12860   0.493E-02    0.466E-03
RMM:  27    -0.633473622256E+03   -0.58634E-04   -0.62676E-04 12801   0.450E-02    0.241E-03
RMM:  28    -0.633473671821E+03   -0.49565E-04   -0.53846E-04 12718   0.408E-02    0.329E-03
RMM:  29    -0.633473712027E+03   -0.40206E-04   -0.43169E-04 12648   0.373E-02    0.156E-03
RMM:  30    -0.633473746601E+03   -0.34573E-04   -0.37342E-04 12600   0.341E-02    0.256E-03
RMM:  31    -0.633473774460E+03   -0.27859E-04   -0.30283E-04 12478   0.312E-02    0.307E-03
RMM:  32    -0.633473799361E+03   -0.24901E-04   -0.27620E-04 12324   0.287E-02    0.101E-02
RMM:  33    -0.633473819539E+03   -0.20179E-04   -0.22120E-04 12089   0.265E-02    0.101E-02
RMM:  34    -0.633473836014E+03   -0.16475E-04   -0.18131E-04 11879   0.246E-02    0.114E-02
RMM:  35    -0.633473850741E+03   -0.14727E-04   -0.16094E-04 11507   0.228E-02    0.126E-02
RMM:  36    -0.633473862902E+03   -0.12161E-04   -0.13479E-04 11214   0.212E-02    0.137E-02
RMM:  37    -0.633473873265E+03   -0.10363E-04   -0.11544E-04 10722   0.199E-02    0.149E-02
RMM:  38    -0.633473881812E+03   -0.85477E-05   -0.95297E-05 10293   0.185E-02
   6 F= -.63347388E+03 E0= -.63338230E+03  d E =-.316045E+01
       N       E                     dE             d eps       ncg     rms          rms(c)
DAV:   1    -0.632953309983E+03    0.52056E+00   -0.65037E+01 10612   0.347E+01    0.258E+00
RMM:   2    -0.634134083425E+03   -0.11808E+01   -0.75294E+00 14379   0.770E+00    0.994E+00
RMM:   3    -0.633776880437E+03    0.35720E+00   -0.11039E+00 14254   0.349E+00    0.502E+00
RMM:   4    -0.633723171368E+03    0.53709E-01   -0.35163E-01 14997   0.173E+00    0.353E+00
RMM:   5    -0.633684396492E+03    0.38775E-01   -0.12158E-01 15357   0.965E-01    0.196E+00
RMM:   6    -0.633674470861E+03    0.99256E-02   -0.57270E-02 14953   0.667E-01    0.223E+00
RMM:   7    -0.633657501347E+03    0.16970E-01   -0.34021E-02 15721   0.443E-01    0.125E+00
RMM:   8    -0.633676378212E+03   -0.18877E-01   -0.33190E-02 14856   0.475E-01    0.227E+00
RMM:   9    -0.633656496890E+03    0.19881E-01   -0.25231E-02 15279   0.409E-01    0.135E+00
RMM:  10    -0.633648930176E+03    0.75667E-02   -0.10953E-02 15623   0.245E-01    0.471E-01
RMM:  11    -0.633649721982E+03   -0.79181E-03   -0.55907E-03 15249   0.157E-01    0.559E-01
RMM:  12    -0.633648846633E+03    0.87535E-03   -0.30865E-03 15183   0.129E-01    0.388E-01
RMM:  13    -0.633648342183E+03    0.50445E-03   -0.21596E-03 14771   0.931E-02    0.157E-01
RMM:  14    -0.633648572417E+03   -0.23023E-03   -0.14736E-03 14682   0.771E-02    0.216E-01
RMM:  15    -0.633648501208E+03    0.71209E-04   -0.11139E-03 14030   0.668E-02    0.121E-01
RMM:  16    -0.633648564219E+03   -0.63010E-04   -0.90806E-04 13577   0.536E-02    0.849E-02
RMM:  17    -0.633648587851E+03   -0.23632E-04   -0.51567E-04 13164   0.479E-02    0.470E-02
RMM:  18    -0.633648635394E+03   -0.47543E-04   -0.46036E-04 12731   0.410E-02    0.534E-02
RMM:  19    -0.633648683136E+03   -0.47743E-04   -0.36771E-04 12594   0.382E-02    0.577E-02
RMM:  20    -0.633648694118E+03   -0.10982E-04   -0.26968E-04 12126   0.331E-02    0.137E-02
RMM:  21    -0.633648715566E+03   -0.21448E-04   -0.21832E-04 11961   0.291E-02    0.623E-03
RMM:  22    -0.633648731035E+03   -0.15469E-04   -0.17442E-04 11900   0.258E-02    0.395E-03
RMM:  23    -0.633648743464E+03   -0.12429E-04   -0.13475E-04 11690   0.227E-02    0.218E-03
RMM:  24    -0.633648755465E+03   -0.12000E-04   -0.12235E-04 11473   0.205E-02    0.149E-03
RMM:  25    -0.633648763838E+03   -0.83737E-05   -0.91114E-05 10997   0.188E-02
   7 F= -.63364876E+03 E0= -.63355853E+03  d E =-.333533E+01
       N       E                     dE             d eps       ncg     rms          rms(c)
DAV:   1    -0.632404959408E+03    0.12438E+01   -0.36490E+02 12544   0.110E+02    0.210E+01
RMM:   2    -0.666005794484E+03   -0.33601E+02   -0.82500E+01 13351   0.275E+01    0.504E+01
RMM:   3    -0.637196469597E+03    0.28809E+02   -0.24755E+01 12542   0.196E+01    0.216E+01
RMM:   4    -0.635356841050E+03    0.18396E+01   -0.72595E+00 14849   0.730E+00    0.148E+01
RMM:   5    -0.636018083061E+03   -0.66124E+00   -0.27358E+00 15223   0.429E+00    0.178E+01
RMM:   6    -0.634539217157E+03    0.14789E+01   -0.10726E+00 14535   0.293E+00    0.762E+00
RMM:   7    -0.634486211657E+03    0.53006E-01   -0.56551E-01 15322   0.185E+00    0.776E+00
RMM:   8    -0.634394350755E+03    0.91861E-01   -0.38034E-01 14805   0.161E+00    0.687E+00
RMM:   9    -0.634202641496E+03    0.19171E+00   -0.18831E-01 15464   0.115E+00    0.329E+00
RMM:  10    -0.634304799618E+03   -0.10216E+00   -0.14313E-01 15770   0.942E-01    0.578E+00
RMM:  11    -0.634201728442E+03    0.10307E+00   -0.91090E-02 15499   0.831E-01    0.299E+00
RMM:  12    -0.634159399534E+03    0.42329E-01   -0.39693E-02 15940   0.509E-01    0.120E+00
RMM:  13    -0.634162708524E+03   -0.33090E-02   -0.24661E-02 16237   0.348E-01    0.129E+00
RMM:  14    -0.634155946879E+03    0.67616E-02   -0.14422E-02 16081   0.278E-01    0.420E-01
RMM:  15    -0.634156926612E+03   -0.97973E-03   -0.10709E-02 16279   0.210E-01    0.465E-01
RMM:  16    -0.634158311582E+03   -0.13850E-02   -0.90787E-03 16281   0.196E-01    0.552E-01
RMM:  17    -0.634157744263E+03    0.56732E-03   -0.68067E-03 16069   0.163E-01    0.188E-01
RMM:  18    -0.634158936976E+03   -0.11927E-02   -0.51065E-03 16149   0.144E-01    0.388E-01
RMM:  19    -0.634158831557E+03    0.10542E-03   -0.40155E-03 16108   0.134E-01    0.195E-01
RMM:  20    -0.634159028189E+03   -0.19663E-03   -0.32878E-03 15627   0.112E-01    0.117E-01
RMM:  21    -0.634159164405E+03   -0.13622E-03   -0.23163E-03 15212   0.993E-02    0.292E-02
RMM:  22    -0.634159349487E+03   -0.18508E-03   -0.20834E-03 14704   0.880E-02    0.194E-02
RMM:  23    -0.634159479703E+03   -0.13022E-03   -0.14523E-03 14189   0.770E-02    0.113E-02
RMM:  24    -0.634159595853E+03   -0.11615E-03   -0.12572E-03 13799   0.698E-02    0.792E-03
RMM:  25    -0.634159683912E+03   -0.88059E-04   -0.95460E-04 13520   0.628E-02    0.692E-03
RMM:  26    -0.634159760022E+03   -0.76110E-04   -0.83105E-04 13268   0.573E-02    0.394E-03
RMM:  27    -0.634159818448E+03   -0.58426E-04   -0.63270E-04 13121   0.522E-02    0.638E-03
RMM:  28    -0.634159866058E+03   -0.47610E-04   -0.52427E-04 13031   0.479E-02    0.398E-03
RMM:  29    -0.634159901616E+03   -0.35557E-04   -0.39910E-04 12893   0.441E-02    0.273E-03
RMM:  30    -0.634159936088E+03   -0.34472E-04   -0.35379E-04 12771   0.408E-02    0.117E-02
RMM:  31    -0.634159965425E+03   -0.29337E-04   -0.30364E-04 12642   0.377E-02    0.202E-02
RMM:  32    -0.634159987142E+03   -0.21716E-04   -0.24403E-04 12548   0.349E-02    0.219E-02
RMM:  33    -0.634160004646E+03   -0.17505E-04   -0.18973E-04 12314   0.323E-02    0.254E-02
RMM:  34    -0.634160025211E+03   -0.20565E-04   -0.22102E-04 12112   0.303E-02    0.276E-02
RMM:  35    -0.634160035895E+03   -0.10684E-04   -0.12832E-04 11769   0.285E-02    0.304E-02
RMM:  36    -0.634160049900E+03   -0.14005E-04   -0.15244E-04 11453   0.269E-02    0.322E-02
RMM:  37    -0.634160057679E+03   -0.77790E-05   -0.91049E-05 11001   0.256E-02
   8 F= -.63416006E+03 E0= -.63406892E+03  d E =-.511294E+00
       N       E                     dE             d eps       ncg     rms          rms(c)
DAV:   1    -0.634070394673E+03    0.89655E-01   -0.17618E+01 12964   0.260E+01    0.453E+00
RMM:   2    -0.636113174686E+03   -0.20428E+01   -0.50152E+00 12211   0.818E+00    0.166E+01
RMM:   3    -0.634828134285E+03    0.12850E+01   -0.14747E+00 12921   0.448E+00    0.113E+01
RMM:   4    -0.634304192650E+03    0.52394E+00   -0.52036E-01 14898   0.200E+00    0.399E+00
RMM:   5    -0.634260814745E+03    0.43378E-01   -0.13802E-01 15216   0.103E+00    0.299E+00
RMM:   6    -0.634275661400E+03   -0.14847E-01   -0.71951E-02 14652   0.678E-01    0.361E+00
RMM:   7    -0.634218311907E+03    0.57349E-01   -0.37480E-02 14311   0.523E-01    0.146E+00
RMM:   8    -0.634220014218E+03   -0.17023E-02   -0.20994E-02 15111   0.375E-01    0.173E+00
RMM:   9    -0.634227687270E+03   -0.76731E-02   -0.20786E-02 14652   0.376E-01    0.200E+00
RMM:  10    -0.634207627794E+03    0.20059E-01   -0.11435E-02 14524   0.291E-01    0.525E-01
RMM:  11    -0.634207056578E+03    0.57122E-03   -0.42917E-03 15594   0.160E-01    0.468E-01
RMM:  12    -0.634207480322E+03   -0.42374E-03   -0.24369E-03 14786   0.121E-01    0.502E-01
RMM:  13    -0.634206342009E+03    0.11383E-02   -0.11776E-03 14145   0.881E-02    0.139E-01
RMM:  14    -0.634206389502E+03   -0.47493E-04   -0.72198E-04 14188   0.568E-02    0.134E-01
RMM:  15    -0.634206486266E+03   -0.96764E-04   -0.56375E-04 13881   0.536E-02    0.146E-01
RMM:  16    -0.634206460813E+03    0.25453E-04   -0.44319E-04 13416   0.444E-02    0.635E-02
RMM:  17    -0.634206538384E+03   -0.77571E-04   -0.32164E-04 13014   0.388E-02    0.716E-02
RMM:  18    -0.634206560026E+03   -0.21642E-04   -0.23752E-04 12776   0.347E-02    0.679E-02
RMM:  19    -0.634206589918E+03   -0.29892E-04   -0.22388E-04 12630   0.323E-02    0.617E-02
RMM:  20    -0.634206588300E+03    0.16179E-05   -0.15318E-04 12394   0.282E-02    0.133E-02
RMM:  21    -0.634206601719E+03   -0.13419E-04   -0.14361E-04 11036   0.237E-02    0.682E-03
RMM:  22    -0.634206610630E+03   -0.89110E-05   -0.96300E-05 11578   0.211E-02
   9 F= -.63420661E+03 E0= -.63411584E+03  d E =-.557847E+00
       N       E                     dE             d eps       ncg     rms          rms(c)
DAV:   1    -0.627906904227E+03    0.62997E+01   -0.27164E+02 13244   0.111E+02    0.903E+00
RMM:   2    -0.642986305402E+03   -0.15079E+02   -0.77411E+01 13431   0.258E+01    0.342E+01
RMM:   3    -0.635507834802E+03    0.74785E+01   -0.13547E+01 12781   0.119E+01    0.153E+01
RMM:   4    -0.634957559748E+03    0.55028E+00   -0.45530E+00 15055   0.490E+00    0.771E+00
RMM:   5    -0.634903669228E+03    0.53891E-01   -0.10993E+00 15419   0.261E+00    0.716E+00
RMM:   6    -0.634767230197E+03    0.13644E+00   -0.44215E-01 15295   0.159E+00    0.510E+00
RMM:   7    -0.634652355026E+03    0.11488E+00   -0.17019E-01 15334   0.106E+00    0.307E+00
RMM:   8    -0.634694792035E+03   -0.42437E-01   -0.13057E-01 15302   0.883E-01    0.440E+00
RMM:   9    -0.634684238168E+03    0.10554E-01   -0.16344E-01 14946   0.108E+00    0.445E+00
RMM:  10    -0.634596698466E+03    0.87540E-01   -0.86053E-02 15065   0.788E-01    0.209E+00
RMM:  11    -0.634583891349E+03    0.12807E-01   -0.38569E-02 16075   0.435E-01    0.105E+00
RMM:  12    -0.634583490736E+03    0.40061E-03   -0.16994E-02 15937   0.299E-01    0.917E-01
RMM:  13    -0.634580032937E+03    0.34578E-02   -0.98835E-03 16017   0.224E-01    0.388E-01
RMM:  14    -0.634581325476E+03   -0.12925E-02   -0.79199E-03 16032   0.164E-01    0.497E-01
RMM:  15    -0.634580821130E+03    0.50435E-03   -0.45307E-03 15712   0.136E-01    0.240E-01
RMM:  16    -0.634581051984E+03   -0.23085E-03   -0.33257E-03 15624   0.111E-01    0.200E-01
RMM:  17    -0.634581587035E+03   -0.53505E-03   -0.27989E-03 15461   0.102E-01    0.270E-01
RMM:  18    -0.634581520949E+03    0.66086E-04   -0.21667E-03 14921   0.904E-02    0.981E-02
RMM:  19    -0.634581730609E+03   -0.20966E-03   -0.16902E-03 14754   0.774E-02    0.501E-02
RMM:  20    -0.634581847221E+03   -0.11661E-03   -0.11713E-03 14128   0.668E-02    0.600E-02
RMM:  21    -0.634581909476E+03   -0.62254E-04   -0.95225E-04 13492   0.611E-02    0.182E-02
RMM:  22    -0.634581987125E+03   -0.77650E-04   -0.84525E-04 13072   0.526E-02    0.111E-02
RMM:  23    -0.634582046575E+03   -0.59450E-04   -0.63296E-04 12860   0.455E-02    0.677E-03
RMM:  24    -0.634582094543E+03   -0.47968E-04   -0.50356E-04 12635   0.408E-02    0.425E-03
RMM:  25    -0.634582131942E+03   -0.37399E-04   -0.39866E-04 12508   0.359E-02    0.335E-03
RMM:  26    -0.634582163178E+03   -0.31236E-04   -0.33199E-04 12223   0.327E-02    0.220E-03
RMM:  27    -0.634582188595E+03   -0.25417E-04   -0.26692E-04 12197   0.295E-02    0.167E-03
RMM:  28    -0.634582210369E+03   -0.21773E-04   -0.22560E-04 11965   0.264E-02    0.102E-03
RMM:  29    -0.634582226816E+03   -0.16448E-04   -0.17758E-04 11924   0.240E-02    0.252E-03
RMM:  30    -0.634582241396E+03   -0.14579E-04   -0.16301E-04 11632   0.217E-02    0.128E-02
RMM:  31    -0.634582253132E+03   -0.11737E-04   -0.12830E-04 11531   0.200E-02    0.158E-02
RMM:  32    -0.634582262963E+03   -0.98305E-05   -0.10654E-04 11050   0.180E-02    0.175E-02
RMM:  33    -0.634582270492E+03   -0.75289E-05   -0.83236E-05 10732   0.169E-02
  10 F= -.63458227E+03 E0= -.63449635E+03  d E =-.375660E+00
       N       E                     dE             d eps       ncg     rms          rms(c)
DAV:   1    -0.634579610237E+03    0.26527E-02   -0.10019E-01 13776   0.224E+00    0.178E-01
RMM:   2    -0.634584792940E+03   -0.51827E-02   -0.30542E-02 14141   0.456E-01    0.629E-01
RMM:   3    -0.634582989027E+03    0.18039E-02   -0.46066E-03 13049   0.235E-01    0.348E-01
RMM:   4    -0.634582707757E+03    0.28127E-03   -0.19234E-03 13937   0.113E-01    0.227E-01
RMM:   5    -0.634582601825E+03    0.10593E-03   -0.52552E-04 12790   0.647E-02    0.143E-01
RMM:   6    -0.634582590591E+03    0.11234E-04   -0.20518E-04 12164   0.393E-02    0.139E-01
RMM:   7    -0.634582506276E+03    0.84315E-04   -0.93269E-05 10420   0.292E-02    0.635E-02
RMM:   8    -0.634582518985E+03   -0.12709E-04   -0.59469E-05  8989   0.237E-02    0.872E-02
RMM:   9    -0.634582536809E+03   -0.17824E-04   -0.60408E-05  8980   0.251E-02    0.105E-01
RMM:  10    -0.634582482969E+03    0.53840E-04   -0.37535E-05  7267   0.209E-02    0.359E-02
RMM:  11    -0.634582480931E+03    0.20381E-05   -0.20957E-05  6429   0.199E-02
  11 F= -.63458248E+03 E0= -.63449648E+03  d E =-.375870E+00
       N       E                     dE             d eps       ncg     rms          rms(c)
DAV:   1    -0.631728139254E+03    0.28543E+01   -0.10360E+02 10192   0.695E+01    0.340E+00
RMM:   2    -0.635138944882E+03   -0.34108E+01   -0.29349E+01 14585   0.132E+01    0.114E+01
RMM:   3    -0.634911998427E+03    0.22695E+00   -0.37298E+00 13467   0.556E+00    0.562E+00
RMM:   4    -0.635005239652E+03   -0.93241E-01   -0.77808E-01 14748   0.242E+00    0.677E+00
RMM:   5    -0.634868868198E+03    0.13637E+00   -0.21667E-01 14683   0.137E+00    0.318E+00
RMM:   6    -0.634817338250E+03    0.51530E-01   -0.92065E-02 15526   0.753E-01    0.165E+00
RMM:   7    -0.634811936070E+03    0.54022E-02   -0.42572E-02 16104   0.441E-01    0.133E+00
RMM:   8    -0.634822397110E+03   -0.10461E-01   -0.35128E-02 15013   0.454E-01    0.214E+00
RMM:   9    -0.634805818725E+03    0.16578E-01   -0.31199E-02 15139   0.433E-01    0.132E+00
RMM:  10    -0.634799466973E+03    0.63518E-02   -0.14325E-02 15700   0.273E-01    0.619E-01
RMM:  11    -0.634800741243E+03   -0.12743E-02   -0.76308E-03 15632   0.209E-01    0.722E-01
RMM:  12    -0.634797883319E+03    0.28579E-02   -0.39412E-03 15591   0.163E-01    0.242E-01
RMM:  13    -0.634798213221E+03   -0.32990E-03   -0.32120E-03 15529   0.111E-01    0.275E-01
RMM:  14    -0.634797962122E+03    0.25110E-03   -0.17054E-03 15298   0.923E-02    0.133E-01
RMM:  15    -0.634797996062E+03   -0.33940E-04   -0.11771E-03 14686   0.714E-02    0.955E-02
RMM:  16    -0.634798110809E+03   -0.11475E-03   -0.93350E-04 14185   0.618E-02    0.118E-01
RMM:  17    -0.634798081491E+03    0.29318E-04   -0.58062E-04 13804   0.515E-02    0.282E-02
RMM:  18    -0.634798126749E+03   -0.45258E-04   -0.48073E-04 13329   0.447E-02    0.341E-02
RMM:  19    -0.634798159363E+03   -0.32614E-04   -0.40425E-04 12715   0.396E-02    0.232E-02
RMM:  20    -0.634798185161E+03   -0.25798E-04   -0.29412E-04 12374   0.360E-02    0.211E-02
RMM:  21    -0.634798204697E+03   -0.19536E-04   -0.24664E-04 12241   0.317E-02    0.880E-03
RMM:  22    -0.634798219887E+03   -0.15190E-04   -0.18089E-04 11767   0.282E-02    0.370E-03
RMM:  23    -0.634798233317E+03   -0.13430E-04   -0.14429E-04 11711   0.256E-02    0.307E-03
RMM:  24    -0.634798244897E+03   -0.11580E-04   -0.12810E-04 11098   0.227E-02    0.202E-03
RMM:  25    -0.634798255920E+03   -0.11023E-04   -0.12160E-04 10769   0.213E-02    0.197E-03
RMM:  26    -0.634798264464E+03   -0.85436E-05   -0.99987E-05 10183   0.200E-02
  12 F= -.63479826E+03 E0= -.63471578E+03  d E =-.215784E+00
       N       E                     dE             d eps       ncg     rms          rms(c)
DAV:   1    -0.634256567917E+03    0.54169E+00   -0.17515E+01 10080   0.292E+01    0.142E+00
RMM:   2    -0.634845262004E+03   -0.58869E+00   -0.52259E+00 14552   0.555E+00    0.434E+00
RMM:   3    -0.634852289096E+03   -0.70271E-02   -0.74659E-01 13525   0.234E+00    0.281E+00
RMM:   4    -0.634849224303E+03    0.30648E-02   -0.13326E-01 14700   0.101E+00    0.236E+00
RMM:   5    -0.634836547153E+03    0.12677E-01   -0.38942E-02 14987   0.574E-01    0.152E+00
RMM:   6    -0.634826401374E+03    0.10146E-01   -0.15869E-02 15104   0.330E-01    0.787E-01
RMM:   7    -0.634824910697E+03    0.14907E-02   -0.77020E-03 15592   0.194E-01    0.589E-01
RMM:   8    -0.634826693497E+03   -0.17828E-02   -0.55474E-03 14822   0.181E-01    0.879E-01
RMM:   9    -0.634823567116E+03    0.31264E-02   -0.64145E-03 15105   0.193E-01    0.528E-01
RMM:  10    -0.634822483356E+03    0.10838E-02   -0.27908E-03 15023   0.132E-01    0.274E-01
RMM:  11    -0.634822769700E+03   -0.28634E-03   -0.16173E-03 14617   0.100E-01    0.311E-01
RMM:  12    -0.634822206819E+03    0.56288E-03   -0.77907E-04 14221   0.760E-02    0.828E-02
RMM:  13    -0.634822284867E+03   -0.78048E-04   -0.54490E-04 13537   0.543E-02    0.128E-01
RMM:  14    -0.634822246454E+03    0.38413E-04   -0.38217E-04 13459   0.451E-02    0.640E-02
RMM:  15    -0.634822243363E+03    0.30917E-05   -0.26450E-04 12805   0.350E-02    0.292E-02
RMM:  16    -0.634822253244E+03   -0.98814E-05   -0.18939E-04 11984   0.311E-02    0.136E-02
RMM:  17    -0.634822273928E+03   -0.20684E-04   -0.18257E-04 11313   0.273E-02    0.325E-02
RMM:  18    -0.634822279246E+03   -0.53180E-05   -0.12672E-04 10869   0.242E-02    0.125E-02
RMM:  19    -0.634822289677E+03   -0.10431E-04   -0.12272E-04 10273   0.213E-02    0.858E-03
RMM:  20    -0.634822296270E+03   -0.65929E-05   -0.84809E-05 10350   0.188E-02
  13 F= -.63482230E+03 E0= -.63474133E+03  d E =-.239815E+00
       N       E                     dE             d eps       ncg     rms          rms(c)
DAV:   1    -0.633817012857E+03    0.10053E+01   -0.44478E+01 10192   0.429E+01    0.274E+00
RMM:   2    -0.635076955053E+03   -0.12599E+01   -0.11058E+01 14633   0.844E+00    0.580E+00
RMM:   3    -0.635047936077E+03    0.29019E-01   -0.14792E+00 13611   0.388E+00    0.543E+00
RMM:   4    -0.634974078628E+03    0.73857E-01   -0.39761E-01 14941   0.175E+00    0.281E+00
RMM:   5    -0.634979985946E+03   -0.59073E-02   -0.11908E-01 15378   0.925E-01    0.296E+00
RMM:   6    -0.634942091155E+03    0.37895E-01   -0.44070E-02 15082   0.585E-01    0.140E+00
RMM:   7    -0.634937060520E+03    0.50306E-02   -0.22326E-02 15808   0.335E-01    0.102E+00
RMM:   8    -0.634946443404E+03   -0.93829E-02   -0.19449E-02 15012   0.336E-01    0.188E+00
RMM:   9    -0.634933192473E+03    0.13251E-01   -0.17686E-02 15280   0.363E-01    0.939E-01
RMM:  10    -0.634930260434E+03    0.29320E-02   -0.80159E-03 15592   0.218E-01    0.563E-01
RMM:  11    -0.634931151152E+03   -0.89072E-03   -0.43400E-03 15398   0.169E-01    0.646E-01
RMM:  12    -0.634929003724E+03    0.21474E-02   -0.20627E-03 15267   0.123E-01    0.183E-01
RMM:  13    -0.634929049401E+03   -0.45677E-04   -0.12812E-03 14955   0.814E-02    0.187E-01
RMM:  14    -0.634929056684E+03   -0.72824E-05   -0.94914E-04 14757   0.678E-02    0.145E-01
RMM:  15    -0.634928972720E+03    0.83964E-04   -0.56938E-04 14044   0.535E-02    0.457E-02
RMM:  16    -0.634929017416E+03   -0.44697E-04   -0.46306E-04 13498   0.446E-02    0.536E-02
RMM:  17    -0.634929040033E+03   -0.22616E-04   -0.31344E-04 13077   0.410E-02    0.482E-02
RMM:  18    -0.634929063458E+03   -0.23426E-04   -0.30119E-04 12547   0.361E-02    0.362E-02
RMM:  19    -0.634929073338E+03   -0.98795E-05   -0.21242E-04 12095   0.316E-02    0.141E-02
RMM:  20    -0.634929090305E+03   -0.16967E-04   -0.18062E-04 11604   0.273E-02    0.182E-02
RMM:  21    -0.634929099972E+03   -0.96671E-05   -0.13464E-04 11547   0.251E-02    0.695E-03
RMM:  22    -0.634929109950E+03   -0.99783E-05   -0.11514E-04 11093   0.218E-02    0.331E-03
RMM:  23    -0.634929116439E+03   -0.64883E-05   -0.73130E-05 10790   0.201E-02
  14 F= -.63492912E+03 E0= -.63485037E+03  d E =-.106820E+00
       N       E                     dE             d eps       ncg     rms          rms(c)
DAV:   1    -0.634710474148E+03    0.21864E+00   -0.90964E+00 10864   0.195E+01    0.126E+00
RMM:   2    -0.634985382070E+03   -0.27491E+00   -0.23270E+00 14632   0.386E+00    0.296E+00
RMM:   3    -0.634972179113E+03    0.13203E-01   -0.31328E-01 13613   0.178E+00    0.263E+00
RMM:   4    -0.634951225765E+03    0.20953E-01   -0.85528E-02 14855   0.805E-01    0.113E+00
RMM:   5    -0.634952798255E+03   -0.15725E-02   -0.25285E-02 15372   0.419E-01    0.128E+00
RMM:   6    -0.634946026039E+03    0.67722E-02   -0.89195E-03 14837   0.261E-01    0.681E-01
RMM:   7    -0.634944687398E+03    0.13386E-02   -0.48542E-03 15275   0.157E-01    0.435E-01
RMM:   8    -0.634946589082E+03   -0.19017E-02   -0.42312E-03 14944   0.157E-01    0.829E-01
RMM:   9    -0.634944137954E+03    0.24511E-02   -0.37495E-03 15174   0.169E-01    0.478E-01
RMM:  10    -0.634943367046E+03    0.77091E-03   -0.17692E-03 14767   0.105E-01    0.253E-01
RMM:  11    -0.634943545719E+03   -0.17867E-03   -0.96967E-04 14239   0.823E-02    0.285E-01
RMM:  12    -0.634943132753E+03    0.41297E-03   -0.46855E-04 13852   0.589E-02    0.824E-02
RMM:  13    -0.634943140402E+03   -0.76499E-05   -0.30350E-04 13235   0.423E-02    0.808E-02
RMM:  14    -0.634943150371E+03   -0.99689E-05   -0.23513E-04 12865   0.358E-02    0.709E-02
RMM:  15    -0.634943130823E+03    0.19548E-04   -0.14871E-04 12336   0.291E-02    0.213E-02
RMM:  16    -0.634943149372E+03   -0.18549E-04   -0.15058E-04 11428   0.254E-02    0.422E-02
RMM:  17    -0.634943147952E+03    0.14199E-05   -0.96808E-05 11010   0.236E-02
  15 F= -.63494315E+03 E0= -.63486530E+03  d E =-.120852E+00
       N       E                     dE             d eps       ncg     rms          rms(c)
DAV:   1    -0.634026448696E+03    0.91670E+00   -0.47264E+01 12740   0.457E+01    0.435E+00
RMM:   2    -0.636533584007E+03   -0.25071E+01   -0.11977E+01 12847   0.105E+01    0.151E+01
RMM:   3    -0.635298205352E+03    0.12354E+01   -0.23477E+00 13040   0.535E+00    0.775E+00
RMM:   4    -0.635082016255E+03    0.21619E+00   -0.86936E-01 15275   0.231E+00    0.349E+00
RMM:   5    -0.635064690866E+03    0.17325E-01   -0.21396E-01 15473   0.119E+00    0.298E+00
RMM:   6    -0.635048180312E+03    0.16511E-01   -0.80976E-02 14864   0.766E-01    0.277E+00
RMM:   7    -0.635014683935E+03    0.33496E-01   -0.37914E-02 15124   0.504E-01    0.121E+00
RMM:   8    -0.635030868268E+03   -0.16184E-01   -0.32721E-02 15013   0.464E-01    0.220E+00
RMM:   9    -0.635012127703E+03    0.18741E-01   -0.28358E-02 14842   0.473E-01    0.117E+00
RMM:  10    -0.635003719179E+03    0.84085E-02   -0.99700E-03 15838   0.252E-01    0.337E-01
RMM:  11    -0.635005702447E+03   -0.19833E-02   -0.56483E-03 15718   0.180E-01    0.665E-01
RMM:  12    -0.635003950988E+03    0.17515E-02   -0.26518E-03 15346   0.138E-01    0.250E-01
RMM:  13    -0.635003838659E+03    0.11233E-03   -0.14672E-03 14753   0.875E-02    0.163E-01
RMM:  14    -0.635003951277E+03   -0.11262E-03   -0.98251E-04 14603   0.695E-02    0.146E-01
RMM:  15    -0.635003982380E+03   -0.31103E-04   -0.75585E-04 14550   0.620E-02    0.863E-02
RMM:  16    -0.635004058579E+03   -0.76199E-04   -0.60666E-04 13867   0.549E-02    0.908E-02
RMM:  17    -0.635004127491E+03   -0.68912E-04   -0.48129E-04 13844   0.492E-02    0.561E-02
RMM:  18    -0.635004147380E+03   -0.19888E-04   -0.32707E-04 13149   0.432E-02    0.340E-02
RMM:  19    -0.635004175689E+03   -0.28309E-04   -0.32256E-04 12785   0.400E-02    0.121E-02
RMM:  20    -0.635004200853E+03   -0.25164E-04   -0.26108E-04 12346   0.350E-02    0.131E-02
RMM:  21    -0.635004220237E+03   -0.19385E-04   -0.21605E-04 12357   0.314E-02    0.902E-03
RMM:  22    -0.635004234175E+03   -0.13938E-04   -0.15187E-04 12135   0.274E-02    0.474E-03
RMM:  23    -0.635004247110E+03   -0.12935E-04   -0.12744E-04 11856   0.242E-02    0.258E-03
RMM:  24    -0.635004258712E+03   -0.11602E-04   -0.12454E-04 11568   0.227E-02    0.238E-03
RMM:  25    -0.635004266525E+03   -0.78134E-05   -0.88122E-05 11074   0.202E-02
  16 F= -.63500427E+03 E0= -.63492961E+03  d E =-.611186E-01
       N       E                     dE             d eps       ncg     rms          rms(c)
DAV:   1    -0.635003895516E+03    0.36320E-03   -0.23806E-02 14560   0.101E+00    0.959E-02
RMM:   2    -0.635005125360E+03   -0.12298E-02   -0.58074E-03 12849   0.228E-01    0.335E-01
RMM:   3    -0.635004516698E+03    0.60866E-03   -0.10363E-03 11257   0.121E-01    0.160E-01
RMM:   4    -0.635004422612E+03    0.94087E-04   -0.45188E-04 12545   0.574E-02    0.844E-02
RMM:   5    -0.635004417120E+03    0.54922E-05   -0.14170E-04 10481   0.328E-02    0.677E-02
RMM:   6    -0.635004411256E+03    0.58639E-05   -0.50482E-05  8429   0.212E-02
  17 F= -.63500441E+03 E0= -.63492981E+03  d E =-.612633E-01
       N       E                     dE             d eps       ncg     rms          rms(c)
DAV:   1    -0.633997818319E+03    0.10066E+01   -0.41699E+01 10836   0.421E+01    0.290E+00
RMM:   2    -0.635420705591E+03   -0.14229E+01   -0.10877E+01 14053   0.813E+00    0.809E+00
RMM:   3    -0.635248684388E+03    0.17202E+00   -0.14855E+00 13365   0.396E+00    0.653E+00
RMM:   4    -0.635099697567E+03    0.14899E+00   -0.42071E-01 14342   0.182E+00    0.243E+00
RMM:   5    -0.635100480498E+03   -0.78293E-03   -0.14060E-01 15285   0.956E-01    0.237E+00
RMM:   6    -0.635073730371E+03    0.26750E-01   -0.40281E-02 14855   0.550E-01    0.142E+00
RMM:   7    -0.635067872396E+03    0.58580E-02   -0.20693E-02 15679   0.318E-01    0.949E-01
RMM:   8    -0.635074785071E+03   -0.69127E-02   -0.18799E-02 14831   0.340E-01    0.163E+00
RMM:   9    -0.635064540830E+03    0.10244E-01   -0.16430E-02 15031   0.333E-01    0.926E-01
RMM:  10    -0.635060654413E+03    0.38864E-02   -0.69604E-03 15456   0.201E-01    0.370E-01
RMM:  11    -0.635061312920E+03   -0.65851E-03   -0.33445E-03 15399   0.144E-01    0.488E-01
RMM:  12    -0.635060158443E+03    0.11545E-02   -0.17654E-03 15139   0.108E-01    0.165E-01
RMM:  13    -0.635060185341E+03   -0.26898E-04   -0.12741E-03 14551   0.660E-02    0.130E-01
RMM:  14    -0.635060135444E+03    0.49897E-04   -0.69945E-04 14577   0.571E-02    0.672E-02
RMM:  15    -0.635060211800E+03   -0.76356E-04   -0.57074E-04 13610   0.472E-02    0.987E-02
RMM:  16    -0.635060223999E+03   -0.12199E-04   -0.40636E-04 13301   0.439E-02    0.601E-02
RMM:  17    -0.635060226538E+03   -0.25391E-05   -0.27329E-04 12909   0.367E-02    0.279E-02
RMM:  18    -0.635060254731E+03   -0.28193E-04   -0.24843E-04 12203   0.312E-02    0.438E-02
RMM:  19    -0.635060260609E+03   -0.58774E-05   -0.18066E-04 12077   0.281E-02    0.159E-02
RMM:  20    -0.635060276230E+03   -0.15621E-04   -0.16211E-04 11507   0.237E-02    0.199E-02
RMM:  21    -0.635060283100E+03   -0.68703E-05   -0.11350E-04 11607   0.217E-02    0.675E-03
RMM:  22    -0.635060290355E+03   -0.72553E-05   -0.88022E-05 11108   0.189E-02
  18 F= -.63506029E+03 E0= -.63498702E+03  d E =-.558791E-01
       N       E                     dE             d eps       ncg     rms          rms(c)
DAV:   1    -0.634995246269E+03    0.65037E-01   -0.26403E+00 11172   0.107E+01    0.742E-01
RMM:   2    -0.635088999112E+03   -0.93753E-01   -0.70297E-01 14056   0.210E+00    0.213E+00
RMM:   3    -0.635076102610E+03    0.12897E-01   -0.97965E-02 13236   0.101E+00    0.170E+00
RMM:   4    -0.635065999874E+03    0.10103E-01   -0.28044E-02 14372   0.464E-01    0.626E-01
RMM:   5    -0.635066093111E+03   -0.93237E-04   -0.91996E-03 15160   0.247E-01    0.618E-01
RMM:   6    -0.635064408565E+03    0.16845E-02   -0.28036E-03 14193   0.144E-01    0.372E-01
RMM:   7    -0.635063912006E+03    0.49656E-03   -0.13954E-03 13707   0.879E-02    0.222E-01
RMM:   8    -0.635064561222E+03   -0.64922E-03   -0.13508E-03 14359   0.944E-02    0.465E-01
RMM:   9    -0.635063792657E+03    0.76856E-03   -0.11482E-03 14688   0.913E-02    0.244E-01
RMM:  10    -0.635063494450E+03    0.29821E-03   -0.52644E-04 13637   0.580E-02    0.819E-02
RMM:  11    -0.635063554956E+03   -0.60506E-04   -0.25653E-04 12861   0.436E-02    0.129E-01
RMM:  12    -0.635063476863E+03    0.78094E-04   -0.13995E-04 12377   0.317E-02    0.378E-02
RMM:  13    -0.635063481540E+03   -0.46777E-05   -0.11842E-04 11037   0.221E-02    0.306E-02
RMM:  14    -0.635063479617E+03    0.19235E-05   -0.75055E-05 10347   0.208E-02
  19 F= -.63506348E+03 E0= -.63499050E+03  d E =-.590684E-01
       N       E                     dE             d eps       ncg     rms          rms(c)
DAV:   1    -0.634688698130E+03    0.37478E+00   -0.17015E+01 10304   0.254E+01    0.109E+00
RMM:   2    -0.635071719010E+03   -0.38302E+00   -0.37456E+00 14180   0.510E+00    0.222E+00
RMM:   3    -0.635112971926E+03   -0.41253E-01   -0.49072E-01 13719   0.211E+00    0.217E+00
RMM:   4    -0.635109802800E+03    0.31691E-02   -0.11125E-01 15054   0.914E-01    0.134E+00
RMM:   5    -0.635104601132E+03    0.52017E-02   -0.28674E-02 15422   0.491E-01    0.981E-01
RMM:   6    -0.635100339340E+03    0.42618E-02   -0.11614E-02 15471   0.261E-01    0.435E-01
RMM:   7    -0.635100453577E+03   -0.11424E-03   -0.53648E-03 15053   0.163E-01    0.514E-01
RMM:   8    -0.635100908893E+03   -0.45532E-03   -0.50529E-03 14982   0.167E-01    0.694E-01
RMM:   9    -0.635098730614E+03    0.21783E-02   -0.46197E-03 14925   0.158E-01    0.312E-01
RMM:  10    -0.635098886937E+03   -0.15632E-03   -0.22442E-03 14915   0.112E-01    0.316E-01
RMM:  11    -0.635098526548E+03    0.36039E-03   -0.94415E-04 14252   0.796E-02    0.170E-01
RMM:  12    -0.635098417465E+03    0.10908E-03   -0.53022E-04 13689   0.552E-02    0.944E-02
RMM:  13    -0.635098447893E+03   -0.30429E-04   -0.40675E-04 12985   0.427E-02    0.106E-01
RMM:  14    -0.635098386027E+03    0.61866E-04   -0.31175E-04 12979   0.410E-02    0.424E-02
RMM:  15    -0.635098404784E+03   -0.18757E-04   -0.21507E-04 12047   0.306E-02    0.440E-02
RMM:  16    -0.635098403931E+03    0.85330E-06   -0.14510E-04 11372   0.265E-02    0.116E-02
RMM:  17    -0.635098419956E+03   -0.16025E-04   -0.13467E-04 10807   0.233E-02    0.321E-02
RMM:  18    -0.635098422633E+03   -0.26773E-05   -0.93842E-05 10136   0.203E-02
  20 F= -.63509842E+03 E0= -.63502604E+03  d E =-.349430E-01
       N       E                     dE             d eps       ncg     rms          rms(c)
DAV:   1    -0.634984948316E+03    0.11347E+00   -0.50083E+00 10304   0.138E+01    0.596E-01
RMM:   2    -0.635098066986E+03   -0.11312E+00   -0.11024E+00 14197   0.277E+00    0.122E+00
RMM:   3    -0.635109370136E+03   -0.11303E-01   -0.14141E-01 13744   0.115E+00    0.117E+00
RMM:   4    -0.635108530194E+03    0.83994E-03   -0.35222E-02 15183   0.512E-01    0.701E-01
RMM:   5    -0.635107220096E+03    0.13101E-02   -0.90284E-03 15283   0.275E-01    0.539E-01
RMM:   6    -0.635105995789E+03    0.12243E-02   -0.38191E-03 15007   0.150E-01    0.236E-01
RMM:   7    -0.635105995573E+03    0.21586E-06   -0.16911E-03 14050   0.928E-02    0.259E-01
RMM:   8    -0.635106220500E+03   -0.22493E-03   -0.16380E-03 14405   0.950E-02    0.399E-01
RMM:   9    -0.635105546140E+03    0.67436E-03   -0.13777E-03 14287   0.881E-02    0.171E-01
RMM:  10    -0.635105602871E+03   -0.56732E-04   -0.68213E-04 13555   0.649E-02    0.179E-01
RMM:  11    -0.635105491927E+03    0.11094E-03   -0.31607E-04 12920   0.468E-02    0.916E-02
RMM:  12    -0.635105462198E+03    0.29730E-04   -0.18420E-04 11983   0.333E-02    0.512E-02
RMM:  13    -0.635105472940E+03   -0.10742E-04   -0.14979E-04 11630   0.273E-02    0.543E-02
RMM:  14    -0.635105455186E+03    0.17754E-04   -0.10724E-04 11512   0.237E-02    0.147E-02
RMM:  15    -0.635105466264E+03   -0.11078E-04   -0.84462E-05 10615   0.200E-02    0.299E-02
RMM:  16    -0.635105465170E+03    0.10945E-05   -0.60155E-05  9667   0.177E-02
  21 F= -.63510547E+03 E0= -.63503339E+03  d E =-.419856E-01
       N       E                     dE             d eps       ncg     rms          rms(c)
DAV:   1    -0.634835548497E+03    0.26992E+00   -0.12817E+01 10444   0.220E+01    0.162E+00
RMM:   2    -0.635294887812E+03   -0.45934E+00   -0.30924E+00 14040   0.466E+00    0.538E+00
RMM:   3    -0.635175975417E+03    0.11891E+00   -0.43760E-01 13325   0.216E+00    0.326E+00
RMM:   4    -0.635143381751E+03    0.32594E-01   -0.12642E-01 14621   0.101E+00    0.179E+00
RMM:   5    -0.635135715201E+03    0.76665E-02   -0.40254E-02 15382   0.545E-01    0.115E+00
RMM:   6    -0.635129453480E+03    0.62617E-02   -0.14355E-02 14918   0.330E-01    0.768E-01
RMM:   7    -0.635127344299E+03    0.21092E-02   -0.69286E-03 15597   0.204E-01    0.532E-01
RMM:   8    -0.635130448175E+03   -0.31039E-02   -0.62376E-03 14820   0.204E-01    0.976E-01
RMM:   9    -0.635126086596E+03    0.43616E-02   -0.59934E-03 15116   0.206E-01    0.446E-01
RMM:  10    -0.635125261376E+03    0.82522E-03   -0.21904E-03 15264   0.124E-01    0.217E-01
RMM:  11    -0.635125434321E+03   -0.17295E-03   -0.11986E-03 14447   0.836E-02    0.233E-01
RMM:  12    -0.635125142089E+03    0.29223E-03   -0.51305E-04 13988   0.612E-02    0.753E-02
RMM:  13    -0.635125172507E+03   -0.30418E-04   -0.40584E-04 13680   0.410E-02    0.759E-02
RMM:  14    -0.635125196283E+03   -0.23777E-04   -0.23838E-04 13094   0.358E-02    0.648E-02
RMM:  15    -0.635125197069E+03   -0.78596E-06   -0.19210E-04 12620   0.295E-02    0.277E-02
RMM:  16    -0.635125222463E+03   -0.25394E-04   -0.15214E-04 11958   0.286E-02    0.256E-02
RMM:  17    -0.635125236944E+03   -0.14481E-04   -0.14522E-04 11600   0.250E-02    0.269E-02
RMM:  18    -0.635125247161E+03   -0.10217E-04   -0.10888E-04 10742   0.229E-02    0.187E-02
RMM:  19    -0.635125252896E+03   -0.57347E-05   -0.81396E-05 10531   0.193E-02
  22 F= -.63512525E+03 E0= -.63505460E+03  d E =-.197877E-01
       N       E                     dE             d eps       ncg     rms          rms(c)
DAV:   1    -0.635115834963E+03    0.94122E-02   -0.44424E-01 11620   0.408E+00    0.296E-01
RMM:   2    -0.635131062970E+03   -0.15228E-01   -0.10512E-01 14040   0.835E-01    0.945E-01
RMM:   3    -0.635127517735E+03    0.35452E-02   -0.14455E-02 13118   0.399E-01    0.596E-01
RMM:   4    -0.635126472131E+03    0.10456E-02   -0.44443E-03 14559   0.187E-01    0.328E-01
RMM:   5    -0.635126228710E+03    0.24342E-03   -0.14412E-03 14364   0.102E-01    0.211E-01
RMM:   6    -0.635126025306E+03    0.20340E-03   -0.54694E-04 12704   0.645E-02    0.139E-01
RMM:   7    -0.635125967842E+03    0.57464E-04   -0.26985E-04 11571   0.408E-02    0.103E-01
RMM:   8    -0.635126061858E+03   -0.94016E-04   -0.22221E-04 11618   0.400E-02    0.170E-01
RMM:   9    -0.635125923581E+03    0.13828E-03   -0.21849E-04 12650   0.412E-02    0.736E-02
RMM:  10    -0.635125902578E+03    0.21003E-04   -0.92418E-05 10489   0.286E-02    0.363E-02
RMM:  11    -0.635125911632E+03   -0.90542E-05   -0.55830E-05 10186   0.193E-02
  23 F= -.63512591E+03 E0= -.63505552E+03  d E =-.204465E-01
       N       E                     dE             d eps       ncg     rms          rms(c)
DAV:   1    -0.634942982050E+03    0.18292E+00   -0.86528E+00 10948   0.184E+01    0.170E+00
RMM:   2    -0.635321211861E+03   -0.37823E+00   -0.22556E+00 13496   0.437E+00    0.525E+00
RMM:   3    -0.635192894896E+03    0.12832E+00   -0.38751E-01 13055   0.214E+00    0.321E+00
RMM:   4    -0.635153100157E+03    0.39795E-01   -0.11488E-01 14751   0.940E-01    0.156E+00
RMM:   5    -0.635149943837E+03    0.31563E-02   -0.32660E-02 15069   0.506E-01    0.128E+00
RMM:   6    -0.635144298426E+03    0.56454E-02   -0.12860E-02 14656   0.306E-01    0.921E-01
RMM:   7    -0.635140887524E+03    0.34109E-02   -0.59049E-03 15219   0.202E-01    0.507E-01
RMM:   8    -0.635143548540E+03   -0.26610E-02   -0.50035E-03 14705   0.189E-01    0.897E-01
RMM:   9    -0.635140235359E+03    0.33132E-02   -0.41160E-03 15161   0.175E-01    0.465E-01
RMM:  10    -0.635139253048E+03    0.98231E-03   -0.17685E-03 15270   0.114E-01    0.228E-01
RMM:  11    -0.635139416474E+03   -0.16343E-03   -0.10184E-03 14338   0.782E-02    0.259E-01
RMM:  12    -0.635139059662E+03    0.35681E-03   -0.46442E-04 13925   0.600E-02    0.852E-02
RMM:  13    -0.635139059290E+03    0.37254E-06   -0.31167E-04 13514   0.385E-02    0.628E-02
RMM:  14    -0.635139067338E+03   -0.80485E-05   -0.19906E-04 12811   0.310E-02    0.497E-02
RMM:  15    -0.635139066349E+03    0.98862E-06   -0.14714E-04 11983   0.268E-02    0.288E-02
RMM:  16    -0.635139086194E+03   -0.19845E-04   -0.13060E-04 11752   0.274E-02    0.514E-02
RMM:  17    -0.635139078591E+03    0.76030E-05   -0.94846E-05 11146   0.237E-02
  24 F= -.63513908E+03 E0= -.63506922E+03  d E =-.131670E-01
       N       E                     dE             d eps       ncg     rms          rms(c)
DAV:   1    -0.635123810696E+03    0.15275E-01   -0.82633E-01 12404   0.565E+00    0.512E-01
RMM:   2    -0.635157538684E+03   -0.33728E-01   -0.19691E-01 13315   0.124E+00    0.159E+00
RMM:   3    -0.635145369775E+03    0.12169E-01   -0.31391E-02 12827   0.624E-01    0.990E-01
RMM:   4    -0.635141437684E+03    0.39321E-02   -0.10378E-02 14664   0.277E-01    0.440E-01
RMM:   5    -0.635141201848E+03    0.23584E-03   -0.29272E-03 14632   0.148E-01    0.368E-01
RMM:   6    -0.635140792194E+03    0.40965E-03   -0.11777E-03 13783   0.923E-02    0.291E-01
RMM:   7    -0.635140449878E+03    0.34232E-03   -0.57691E-04 13068   0.662E-02    0.152E-01
RMM:   8    -0.635140713976E+03   -0.26410E-03   -0.49664E-04 13373   0.624E-02    0.276E-01
RMM:   9    -0.635140422803E+03    0.29117E-03   -0.39941E-04 13752   0.574E-02    0.149E-01
RMM:  10    -0.635140316504E+03    0.10630E-03   -0.18545E-04 11936   0.413E-02    0.617E-02
RMM:  11    -0.635140328025E+03   -0.11521E-04   -0.10532E-04 11550   0.273E-02    0.681E-02
RMM:  12    -0.635140305041E+03    0.22984E-04   -0.52094E-05 10727   0.203E-02    0.279E-02
RMM:  13    -0.635140305870E+03   -0.82886E-06   -0.50872E-05  8824   0.161E-02
  25 F= -.63514031E+03 E0= -.63507064E+03  d E =-.143942E-01
       N       E                     dE             d eps       ncg     rms          rms(c)
DAV:   1    -0.635038714027E+03    0.10159E+00   -0.41766E+00  9884   0.130E+01    0.574E-01
RMM:   2    -0.635153156827E+03   -0.11444E+00   -0.10126E+00 14040   0.274E+00    0.188E+00
RMM:   3    -0.635152127934E+03    0.10289E-02   -0.13948E-01 13780   0.110E+00    0.989E-01
RMM:   4    -0.635154309568E+03   -0.21816E-02   -0.34818E-02 14654   0.505E-01    0.878E-01
RMM:   5    -0.635151448667E+03    0.28609E-02   -0.92404E-03 15048   0.274E-01    0.425E-01
RMM:   6    -0.635150714752E+03    0.73391E-03   -0.34054E-03 15013   0.145E-01    0.268E-01
RMM:   7    -0.635150553341E+03    0.16141E-03   -0.15116E-03 13872   0.845E-02    0.192E-01
RMM:   8    -0.635150779091E+03   -0.22575E-03   -0.10591E-03 13910   0.781E-02    0.321E-01
RMM:   9    -0.635150303015E+03    0.47608E-03   -0.98851E-04 14080   0.789E-02    0.165E-01
RMM:  10    -0.635150251283E+03    0.51732E-04   -0.46271E-04 12960   0.557E-02    0.120E-01
RMM:  11    -0.635150266706E+03   -0.15423E-04   -0.27367E-04 12264   0.443E-02    0.112E-01
RMM:  12    -0.635150197374E+03    0.69332E-04   -0.13035E-04 11467   0.315E-02    0.343E-02
RMM:  13    -0.635150213178E+03   -0.15804E-04   -0.99404E-05 11107   0.226E-02    0.526E-02
RMM:  14    -0.635150207989E+03    0.51895E-05   -0.66441E-05 10714   0.196E-02
  26 F= -.63515021E+03 E0= -.63508065E+03  d E =-.990212E-02
       N       E                     dE             d eps       ncg     rms          rms(c)
DAV:   1    -0.635105401671E+03    0.44812E-01   -0.17863E+00  9940   0.848E+00    0.374E-01
RMM:   2    -0.635153762806E+03   -0.48361E-01   -0.43401E-01 14058   0.179E+00    0.115E+00
RMM:   3    -0.635154186963E+03   -0.42416E-03   -0.59684E-02 13735   0.720E-01    0.662E-01
RMM:   4    -0.635155136654E+03   -0.94969E-03   -0.15062E-02 14787   0.333E-01    0.578E-01
RMM:   5    -0.635153871310E+03    0.12653E-02   -0.40364E-03 14827   0.180E-01    0.269E-01
RMM:   6    -0.635153589592E+03    0.28172E-03   -0.15374E-03 13993   0.952E-02    0.172E-01
RMM:   7    -0.635153534235E+03    0.55356E-04   -0.70115E-04 12811   0.566E-02    0.126E-01
RMM:   8    -0.635153627068E+03   -0.92833E-04   -0.48442E-04 12896   0.526E-02    0.205E-01
RMM:   9    -0.635153436886E+03    0.19018E-03   -0.44251E-04 13238   0.535E-02    0.108E-01
RMM:  10    -0.635153420982E+03    0.15904E-04   -0.22733E-04 11995   0.368E-02    0.796E-02
RMM:  11    -0.635153426468E+03   -0.54859E-05   -0.12767E-04 11051   0.315E-02    0.699E-02
RMM:  12    -0.635153401058E+03    0.25410E-04   -0.71033E-05 10162   0.220E-02    0.215E-02
RMM:  13    -0.635153411154E+03   -0.10096E-04   -0.65928E-05  9239   0.183E-02    0.366E-02
RMM:  14    -0.635153409265E+03    0.18887E-05   -0.40675E-05  8424   0.165E-02
  27 F= -.63515341E+03 E0= -.63508396E+03  d E =-.131034E-01
       N       E                     dE             d eps       ncg     rms          rms(c)
DAV:   1    -0.634960844100E+03    0.19257E+00   -0.71473E+00  9884   0.169E+01    0.756E-01
RMM:   2    -0.635158646679E+03   -0.19780E+00   -0.17375E+00 13980   0.362E+00    0.251E+00
RMM:   3    -0.635154543541E+03    0.41031E-02   -0.23732E-01 13703   0.145E+00    0.127E+00
RMM:   4    -0.635158573763E+03   -0.40302E-02   -0.62070E-02 14602   0.670E-01    0.114E+00
RMM:   5    -0.635153814016E+03    0.47597E-02   -0.16234E-02 14981   0.360E-01    0.554E-01
RMM:   6    -0.635152593680E+03    0.12203E-02   -0.59128E-03 15308   0.191E-01    0.358E-01
RMM:   7    -0.635152301584E+03    0.29210E-03   -0.26519E-03 14449   0.110E-01    0.248E-01
RMM:   8    -0.635152669313E+03   -0.36773E-03   -0.17516E-03 14256   0.101E-01    0.408E-01
RMM:   9    -0.635151897886E+03    0.77143E-03   -0.16761E-03 14395   0.995E-02    0.218E-01
RMM:  10    -0.635151800920E+03    0.96966E-04   -0.77907E-04 13712   0.712E-02    0.152E-01
RMM:  11    -0.635151822552E+03   -0.21632E-04   -0.46617E-04 13342   0.552E-02    0.134E-01
RMM:  12    -0.635151718099E+03    0.10445E-03   -0.21794E-04 12720   0.399E-02    0.380E-02
RMM:  13    -0.635151752784E+03   -0.34685E-04   -0.17683E-04 11997   0.291E-02    0.728E-02
RMM:  14    -0.635151739036E+03    0.13748E-04   -0.11479E-04 11468   0.256E-02    0.366E-02
RMM:  15    -0.635151740721E+03   -0.16848E-05   -0.10155E-04 10147   0.199E-02    0.140E-02
RMM:  16    -0.635151746685E+03   -0.59640E-05   -0.66418E-05  9123   0.191E-02
  28 F= -.63515175E+03 E0= -.63508255E+03  d E =-.114408E-01
       N       E                     dE             d eps       ncg     rms          rms(c)
DAV:   1    -0.635060577463E+03    0.91163E-01   -0.34644E+00  9912   0.119E+01    0.511E-01
RMM:   2    -0.635149203517E+03   -0.88626E-01   -0.84216E-01 14109   0.248E+00    0.120E+00
RMM:   3    -0.635155989577E+03   -0.67861E-02   -0.11732E-01 13735   0.990E-01    0.920E-01
RMM:   4    -0.635158182526E+03   -0.21929E-02   -0.26754E-02 14279   0.445E-01    0.883E-01
RMM:   5    -0.635155054916E+03    0.31276E-02   -0.64693E-03 14556   0.238E-01    0.359E-01
RMM:   6    -0.635154493265E+03    0.56165E-03   -0.25976E-03 14690   0.124E-01    0.217E-01
RMM:   7    -0.635154396997E+03    0.96267E-04   -0.10497E-03 13590   0.734E-02    0.175E-01
RMM:   8    -0.635154451648E+03   -0.54651E-04   -0.85464E-04 13809   0.714E-02    0.256E-01
RMM:   9    -0.635154132632E+03    0.31902E-03   -0.61969E-04 13592   0.643E-02    0.132E-01
RMM:  10    -0.635154171737E+03   -0.39104E-04   -0.32781E-04 12800   0.481E-02    0.147E-01
RMM:  11    -0.635154125433E+03    0.46304E-04   -0.19674E-04 11660   0.401E-02    0.101E-01
RMM:  12    -0.635154070334E+03    0.55098E-04   -0.93155E-05  9893   0.267E-02    0.315E-02
RMM:  13    -0.635154083194E+03   -0.12860E-04   -0.58302E-05  9591   0.196E-02    0.562E-02
RMM:  14    -0.635154068932E+03    0.14262E-04   -0.42766E-05  8414   0.171E-02    0.272E-02
RMM:  15    -0.635154065862E+03    0.30705E-05   -0.27874E-05  7174   0.143E-02
  29 F= -.63515407E+03 E0= -.63508469E+03  d E =-.137600E-01
       N       E                     dE             d eps       ncg     rms          rms(c)
DAV:   1    -0.635021999599E+03    0.13207E+00   -0.54964E+00 10080   0.146E+01    0.626E-01
RMM:   2    -0.635174814799E+03   -0.15282E+00   -0.12773E+00 13259   0.310E+00    0.270E+00
RMM:   3    -0.635161994841E+03    0.12820E-01   -0.19230E-01 13919   0.119E+00    0.669E-01
RMM:   4    -0.635168454222E+03   -0.64594E-02   -0.39096E-02 14594   0.514E-01    0.103E+00
RMM:   5    -0.635163515250E+03    0.49390E-02   -0.95651E-03 14385   0.278E-01    0.395E-01
RMM:   6    -0.635163095964E+03    0.41929E-03   -0.38285E-03 15099   0.138E-01    0.225E-01
RMM:   7    -0.635163325673E+03   -0.22971E-03   -0.14273E-03 13907   0.897E-02    0.333E-01
RMM:   8    -0.635162838543E+03    0.48713E-03   -0.10056E-03 13799   0.822E-02    0.191E-01
RMM:   9    -0.635162786183E+03    0.52361E-04   -0.59005E-04 13278   0.618E-02    0.168E-01
RMM:  10    -0.635162753557E+03    0.32626E-04   -0.40866E-04 12906   0.546E-02    0.125E-01
RMM:  11    -0.635162697321E+03    0.56236E-04   -0.20627E-04 11794   0.399E-02    0.777E-02
RMM:  12    -0.635162668195E+03    0.29126E-04   -0.11079E-04 10833   0.270E-02    0.312E-02
RMM:  13    -0.635162678590E+03   -0.10395E-04   -0.76682E-05 10390   0.197E-02    0.468E-02
RMM:  14    -0.635162669025E+03    0.95645E-05   -0.48881E-05  9885   0.167E-02
  30 F= -.63516267E+03 E0= -.63509342E+03  d E =-.860316E-02
       N       E                     dE             d eps       ncg     rms          rms(c)
DAV:   1    -0.635074225817E+03    0.88453E-01   -0.35942E+00 10136   0.117E+01    0.503E-01
RMM:   2    -0.635172512193E+03   -0.98286E-01   -0.83128E-01 13262   0.250E+00    0.210E+00
RMM:   3    -0.635165607572E+03    0.69046E-02   -0.12595E-01 14099   0.961E-01    0.544E-01
RMM:   4    -0.635169764433E+03   -0.41569E-02   -0.24925E-02 14842   0.415E-01    0.823E-01
RMM:   5    -0.635166631683E+03    0.31328E-02   -0.65863E-03 14663   0.228E-01    0.315E-01
RMM:   6    -0.635166394856E+03    0.23683E-03   -0.26714E-03 14696   0.115E-01    0.182E-01
RMM:   7    -0.635166572507E+03   -0.17765E-03   -0.10329E-03 13472   0.751E-02    0.275E-01
RMM:   8    -0.635166237387E+03    0.33512E-03   -0.73884E-04 13716   0.693E-02    0.149E-01
RMM:   9    -0.635166230451E+03    0.69361E-05   -0.43864E-04 12682   0.513E-02    0.141E-01
RMM:  10    -0.635166203769E+03    0.26681E-04   -0.30816E-04 12353   0.455E-02    0.962E-02
RMM:  11    -0.635166169096E+03    0.34674E-04   -0.14693E-04 11570   0.332E-02    0.588E-02
RMM:  12    -0.635166155172E+03    0.13924E-04   -0.95387E-05 10707   0.232E-02    0.242E-02
RMM:  13    -0.635166165910E+03   -0.10738E-04   -0.76850E-05  9929   0.184E-02    0.414E-02
RMM:  14    -0.635166158781E+03    0.71289E-05   -0.48666E-05  9130   0.162E-02
  31 F= -.63516616E+03 E0= -.63509705E+03  d E =-.120929E-01
       N       E                     dE             d eps       ncg     rms          rms(c)
DAV:   1    -0.635145463767E+03    0.20702E-01   -0.83150E-01 10920   0.563E+00    0.238E-01
RMM:   2    -0.635167418820E+03   -0.21955E-01   -0.19069E-01 13277   0.119E+00    0.924E-01
RMM:   3    -0.635166520157E+03    0.89866E-03   -0.28705E-02 14287   0.461E-01    0.269E-01
RMM:   4    -0.635167500633E+03   -0.98048E-03   -0.59941E-03 14816   0.202E-01    0.392E-01
RMM:   5    -0.635166784436E+03    0.71620E-03   -0.15170E-03 13694   0.108E-01    0.147E-01
RMM:   6    -0.635166742132E+03    0.42303E-04   -0.65597E-04 12617   0.580E-02    0.864E-02
RMM:   7    -0.635166787773E+03   -0.45640E-04   -0.26778E-04 11727   0.388E-02    0.134E-01
RMM:   8    -0.635166703003E+03    0.84770E-04   -0.18011E-04 11683   0.349E-02    0.664E-02
RMM:   9    -0.635166710618E+03   -0.76151E-05   -0.11316E-04 10205   0.264E-02    0.699E-02
RMM:  10    -0.635166703181E+03    0.74371E-05   -0.78255E-05  9646   0.231E-02
  32 F= -.63516670E+03 E0= -.63509770E+03  d E =-.126373E-01
       N       E                     dE             d eps       ncg     rms          rms(c)
DAV:   1    -0.635010250951E+03    0.15646E+00   -0.60762E+00 10052   0.152E+01    0.817E-01
RMM:   2    -0.635212609220E+03   -0.20236E+00   -0.15626E+00 13999   0.318E+00    0.351E+00
RMM:   3    -0.635179876331E+03    0.32733E-01   -0.21000E-01 13580   0.129E+00    0.115E+00
RMM:   4    -0.635178093114E+03    0.17832E-02   -0.48798E-02 14792   0.559E-01    0.772E-01
RMM:   5    -0.635177784185E+03    0.30893E-03   -0.11693E-02 14872   0.306E-01    0.794E-01
RMM:   6    -0.635175105943E+03    0.26782E-02   -0.46036E-03 14898   0.180E-01    0.310E-01
RMM:   7    -0.635174904404E+03    0.20154E-03   -0.19540E-03 13974   0.991E-02    0.271E-01
RMM:   8    -0.635175571511E+03   -0.66711E-03   -0.19232E-03 14286   0.108E-01    0.485E-01
RMM:   9    -0.635174305888E+03    0.12656E-02   -0.14911E-03 14517   0.102E-01    0.123E-01
RMM:  10    -0.635174425440E+03   -0.11955E-03   -0.62789E-04 13727   0.653E-02    0.183E-01
RMM:  11    -0.635174303092E+03    0.12235E-03   -0.34768E-04 12846   0.481E-02    0.805E-02
RMM:  12    -0.635174271243E+03    0.31849E-04   -0.16348E-04 12183   0.309E-02    0.318E-02
RMM:  13    -0.635174284160E+03   -0.12917E-04   -0.11944E-04 11396   0.239E-02    0.484E-02
RMM:  14    -0.635174276826E+03    0.73341E-05   -0.84844E-05 10726   0.211E-02
  33 F= -.63517428E+03 E0= -.63510525E+03  d E =-.757365E-02
       N       E                     dE             d eps       ncg     rms          rms(c)
DAV:   1    -0.635152768118E+03    0.21516E-01   -0.83604E-01 10304   0.560E+00    0.300E-01
RMM:   2    -0.635179014910E+03   -0.26247E-01   -0.21273E-01 13977   0.119E+00    0.116E+00
RMM:   3    -0.635176357986E+03    0.26569E-02   -0.29467E-02 13640   0.480E-01    0.489E-01
RMM:   4    -0.635175890431E+03    0.46755E-03   -0.67327E-03 14805   0.210E-01    0.276E-01
RMM:   5    -0.635175867705E+03    0.22726E-04   -0.17068E-03 14216   0.115E-01    0.288E-01
RMM:   6    -0.635175522167E+03    0.34554E-03   -0.72241E-04 12675   0.700E-02    0.119E-01
RMM:   7    -0.635175496539E+03    0.25627E-04   -0.32072E-04 11697   0.404E-02    0.101E-01
RMM:   8    -0.635175576156E+03   -0.79617E-04   -0.28791E-04 11944   0.420E-02    0.167E-01
RMM:   9    -0.635175422999E+03    0.15316E-03   -0.24830E-04 12668   0.411E-02    0.583E-02
RMM:  10    -0.635175432800E+03   -0.98002E-05   -0.11522E-04 10720   0.288E-02    0.636E-02
RMM:  11    -0.635175416771E+03    0.16029E-04   -0.60835E-05 10211   0.201E-02    0.194E-02
RMM:  12    -0.635175418350E+03   -0.15791E-05   -0.45335E-05  8596   0.162E-02
  34 F= -.63517542E+03 E0= -.63510641E+03  d E =-.871517E-02
       N       E                     dE             d eps       ncg     rms          rms(c)
DAV:   1    -0.635084394729E+03    0.91022E-01   -0.33383E+00  9940   0.112E+01    0.604E-01
RMM:   2    -0.635192094193E+03   -0.10770E+00   -0.85680E-01 14002   0.236E+00    0.242E+00
RMM:   3    -0.635178370700E+03    0.13723E-01   -0.11587E-01 13582   0.954E-01    0.915E-01
RMM:   4    -0.635176905190E+03    0.14655E-02   -0.26777E-02 14822   0.416E-01    0.560E-01
RMM:   5    -0.635176793229E+03    0.11196E-03   -0.65841E-03 14867   0.226E-01    0.584E-01
RMM:   6    -0.635175334356E+03    0.14589E-02   -0.24929E-03 14378   0.131E-01    0.233E-01
RMM:   7    -0.635175231135E+03    0.10322E-03   -0.11159E-03 13197   0.763E-02    0.205E-01
RMM:   8    -0.635175537313E+03   -0.30618E-03   -0.10537E-03 13993   0.788E-02    0.341E-01
RMM:   9    -0.635174912537E+03    0.62478E-03   -0.85953E-04 14382   0.789E-02    0.111E-01
RMM:  10    -0.635174941970E+03   -0.29432E-04   -0.37756E-04 12876   0.506E-02    0.124E-01
RMM:  11    -0.635174903314E+03    0.38656E-04   -0.21068E-04 12104   0.379E-02    0.708E-02
RMM:  12    -0.635174876861E+03    0.26453E-04   -0.10165E-04 11380   0.244E-02    0.254E-02
RMM:  13    -0.635174886523E+03   -0.96621E-05   -0.82806E-05 10205   0.204E-02
  35 F= -.63517489E+03 E0= -.63510593E+03  d E =-.818334E-02
       N       E                     dE             d eps       ncg     rms          rms(c)
DAV:   1    -0.635128564162E+03    0.46313E-01   -0.17222E+00  9716   0.802E+00    0.425E-01
RMM:   2    -0.635179272529E+03   -0.50708E-01   -0.43786E-01 13887   0.172E+00    0.137E+00
RMM:   3    -0.635178356550E+03    0.91598E-03   -0.63105E-02 13809   0.699E-01    0.807E-01
RMM:   4    -0.635176739141E+03    0.16174E-02   -0.13640E-02 14378   0.303E-01    0.380E-01
RMM:   5    -0.635176667473E+03    0.71669E-04   -0.31361E-03 14132   0.158E-01    0.409E-01
RMM:   6    -0.635175913158E+03    0.75431E-03   -0.10635E-03 12860   0.956E-02    0.167E-01
RMM:   7    -0.635175858082E+03    0.55076E-04   -0.52297E-04 12663   0.545E-02    0.150E-01
RMM:   8    -0.635175998599E+03   -0.14052E-03   -0.50277E-04 12682   0.584E-02    0.247E-01
RMM:   9    -0.635175665451E+03    0.33315E-03   -0.42936E-04 12787   0.582E-02    0.827E-02
RMM:  10    -0.635175681806E+03   -0.16354E-04   -0.16930E-04 11780   0.367E-02    0.959E-02
RMM:  11    -0.635175651194E+03    0.30611E-04   -0.77716E-05  8945   0.278E-02    0.438E-02
RMM:  12    -0.635175640781E+03    0.10413E-04   -0.40008E-05  7453   0.170E-02    0.184E-02
RMM:  13    -0.635175645712E+03   -0.49313E-05   -0.19350E-05  6303   0.166E-02
  36 F= -.63517565E+03 E0= -.63510665E+03  d E =-.894253E-02
       N       E                     dE             d eps       ncg     rms          rms(c)
DAV:   1    -0.634984636748E+03    0.19100E+00   -0.75018E+00  9828   0.170E+01    0.944E-01
RMM:   2    -0.635236639893E+03   -0.25200E+00   -0.18833E+00 14181   0.358E+00    0.379E+00
RMM:   3    -0.635191469757E+03    0.45170E-01   -0.26461E-01 13200   0.152E+00    0.151E+00
RMM:   4    -0.635191368998E+03    0.10076E-03   -0.65553E-02 13899   0.692E-01    0.126E+00
RMM:   5    -0.635186361004E+03    0.50080E-02   -0.17077E-02 14600   0.367E-01    0.688E-01
RMM:   6    -0.635184250344E+03    0.21107E-02   -0.61842E-03 14804   0.208E-01    0.502E-01
RMM:   7    -0.635183380643E+03    0.86970E-03   -0.27564E-03 14467   0.122E-01    0.283E-01
RMM:   8    -0.635184212567E+03   -0.83192E-03   -0.20298E-03 14405   0.115E-01    0.522E-01
RMM:   9    -0.635182923951E+03    0.12886E-02   -0.20512E-03 14828   0.117E-01    0.275E-01
RMM:  10    -0.635182653413E+03    0.27054E-03   -0.83791E-04 14201   0.749E-02    0.142E-01
RMM:  11    -0.635182701411E+03   -0.47997E-04   -0.43661E-04 13283   0.529E-02    0.139E-01
RMM:  12    -0.635182594979E+03    0.10643E-03   -0.21049E-04 12834   0.390E-02    0.561E-02
RMM:  13    -0.635182602131E+03   -0.71527E-05   -0.16973E-04 12121   0.272E-02    0.453E-02
RMM:  14    -0.635182605350E+03   -0.32181E-05   -0.10079E-04 11639   0.236E-02    0.255E-02
[...]
RMM:   5    -0.635209794257E+03    0.21768E-04   -0.31204E-04 12499   0.500E-02    0.971E-02
RMM:   6    -0.635209764031E+03    0.30227E-04   -0.12354E-04 10806   0.330E-02    0.771E-02
RMM:   7    -0.635209743112E+03    0.20919E-04   -0.57070E-05  8354   0.238E-02    0.480E-02
RMM:   8    -0.635209765418E+03   -0.22306E-04   -0.50200E-05  7961   0.215E-02    0.781E-02
RMM:   9    -0.635209738248E+03    0.27170E-04   -0.30733E-05  6699   0.203E-02    0.429E-02
RMM:  10    -0.635209730220E+03    0.80287E-05   -0.17539E-05  6199   0.177E-02
  64 F= -.63520973E+03 E0= -.63514141E+03  d E =-.431500E-03
       N       E                     dE             d eps       ncg     rms          rms(c)
DAV:   1    -0.635207366003E+03    0.23722E-02   -0.20385E-01 12460   0.242E+00    0.258E-01
RMM:   2    -0.635215192211E+03   -0.78262E-02   -0.36129E-02 13021   0.568E-01    0.859E-01
RMM:   3    -0.635211124684E+03    0.40675E-02   -0.67567E-03 12572   0.308E-01    0.443E-01
RMM:   4    -0.635210261394E+03    0.86329E-03   -0.25808E-03 14178   0.140E-01    0.198E-01
RMM:   5    -0.635210215868E+03    0.45526E-04   -0.71458E-04 13259   0.736E-02    0.159E-01
RMM:   6    -0.635210126606E+03    0.89262E-04   -0.28540E-04 12335   0.472E-02    0.129E-01
RMM:   7    -0.635210070660E+03    0.55946E-04   -0.14500E-04 10456   0.367E-02    0.749E-02
RMM:   8    -0.635210128416E+03   -0.57756E-04   -0.12585E-04 10985   0.322E-02    0.126E-01
RMM:   9    -0.635210037290E+03    0.91126E-04   -0.89254E-05  9510   0.295E-02    0.258E-02
RMM:  10    -0.635210044272E+03   -0.69813E-05   -0.35216E-05  7162   0.185E-02
  65 F= -.63521004E+03 E0= -.63514178E+03  d E =-.745552E-03
       N       E                     dE             d eps       ncg     rms          rms(c)
DAV:   1    -0.635209543638E+03    0.49365E-03   -0.52459E-02 12096   0.125E+00    0.117E-01
RMM:   2    -0.635211415537E+03   -0.18719E-02   -0.99435E-03 13352   0.284E-01    0.405E-01
RMM:   3    -0.635210618914E+03    0.79662E-03   -0.15652E-03 12512   0.148E-01    0.225E-01
RMM:   4    -0.635210408822E+03    0.21009E-03   -0.58351E-04 13039   0.725E-02    0.101E-01
RMM:   5    -0.635210392616E+03    0.16206E-04   -0.19038E-04 11988   0.391E-02    0.779E-02
RMM:   6    -0.635210370317E+03    0.22299E-04   -0.76816E-05  9395   0.267E-02    0.615E-02
RMM:   7    -0.635210357147E+03    0.13170E-04   -0.34365E-05  7353   0.193E-02    0.414E-02
RMM:   8    -0.635210364540E+03   -0.73921E-05   -0.29797E-05  7001   0.195E-02
  66 F= -.63521036E+03 E0= -.63514209E+03  d E =-.320268E-03
       N       E                     dE             d eps       ncg     rms          rms(c)
DAV:   1    -0.635203410158E+03    0.69470E-02   -0.46792E-01 11284   0.374E+00    0.344E-01
RMM:   2    -0.635218405955E+03   -0.14996E-01   -0.89444E-02 13273   0.840E-01    0.105E+00
RMM:   3    -0.635213061646E+03    0.53443E-02   -0.13724E-02 12991   0.421E-01    0.654E-01
RMM:   4    -0.635211214393E+03    0.18473E-02   -0.46203E-03 14415   0.193E-01    0.278E-01
RMM:   5    -0.635211207158E+03    0.72342E-05   -0.14436E-03 14121   0.106E-01    0.263E-01
RMM:   6    -0.635210904533E+03    0.30263E-03   -0.56005E-04 13023   0.674E-02    0.151E-01
RMM:   7    -0.635210835300E+03    0.69233E-04   -0.27788E-04 12256   0.457E-02    0.113E-01
RMM:   8    -0.635210914049E+03   -0.78749E-04   -0.26686E-04 12565   0.483E-02    0.159E-01
RMM:   9    -0.635210783245E+03    0.13080E-03   -0.17666E-04 12382   0.404E-02    0.769E-02
RMM:  10    -0.635210761330E+03    0.21915E-04   -0.86638E-05  9618   0.269E-02    0.353E-02
RMM:  11    -0.635210771601E+03   -0.10271E-04   -0.47165E-05  8456   0.186E-02    0.468E-02
RMM:  12    -0.635210763159E+03    0.84423E-05   -0.27019E-05  6999   0.171E-02
  67 F= -.63521076E+03 E0= -.63514259E+03  d E =-.718888E-03
       N       E                     dE             d eps       ncg     rms          rms(c)
DAV:   1    -0.635209628693E+03    0.11429E-02   -0.69728E-02 10976   0.149E+00    0.733E-02
RMM:   2    -0.635211135514E+03   -0.15068E-02   -0.13538E-02 13771   0.306E-01    0.221E-01
RMM:   3    -0.635211109310E+03    0.26204E-04   -0.18017E-03 13217   0.129E-01    0.101E-01
RMM:   4    -0.635211119875E+03   -0.10565E-04   -0.44607E-04 12806   0.602E-02    0.767E-02
RMM:   5    -0.635211115279E+03    0.45958E-05   -0.13915E-04 10689   0.353E-02    0.704E-02
RMM:   6    -0.635211096425E+03    0.18854E-04   -0.55249E-05  7891   0.222E-02    0.296E-02
RMM:   7    -0.635211099973E+03   -0.35479E-05   -0.30219E-05  6920   0.175E-02
  68 F= -.63521110E+03 E0= -.63514295E+03  d E =-.336814E-03
       N       E                     dE             d eps       ncg     rms          rms(c)
DAV:   1    -0.635207145208E+03    0.39512E-02   -0.20334E-01 10640   0.254E+00    0.138E-01
RMM:   2    -0.635212730042E+03   -0.55848E-02   -0.39918E-02 13826   0.527E-01    0.622E-01
RMM:   3    -0.635211405783E+03    0.13243E-02   -0.54106E-03 13308   0.228E-01    0.144E-01
RMM:   4    -0.635211481813E+03   -0.76030E-04   -0.14085E-03 14072   0.998E-02    0.138E-01
RMM:   5    -0.635211403212E+03    0.78601E-04   -0.39136E-04 12751   0.550E-02    0.789E-02
RMM:   6    -0.635211387292E+03    0.15919E-04   -0.18367E-04 10892   0.321E-02    0.574E-02
RMM:   7    -0.635211396979E+03   -0.96870E-05   -0.96324E-05  8924   0.250E-02
  69 F= -.63521140E+03 E0= -.63514322E+03  d E =-.633820E-03
       N       E                     dE             d eps       ncg     rms          rms(c)
DAV:   1    -0.635210479274E+03    0.90802E-03   -0.12429E-01 13356   0.203E+00    0.321E-01
RMM:   2    -0.635221486325E+03   -0.11007E-01   -0.28298E-02 12431   0.566E-01    0.123E+00
RMM:   3    -0.635214067436E+03    0.74189E-02   -0.73207E-03 12569   0.333E-01    0.657E-01
RMM:   4    -0.635212110115E+03    0.19573E-02   -0.28421E-03 13588   0.162E-01    0.291E-01
RMM:   5    -0.635211805387E+03    0.30473E-03   -0.80910E-04 13235   0.838E-02    0.160E-01
RMM:   6    -0.635211790996E+03    0.14391E-04   -0.40552E-04 13189   0.577E-02    0.177E-01
RMM:   7    -0.635211643567E+03    0.14743E-03   -0.19869E-04 11731   0.435E-02    0.818E-02
RMM:   8    -0.635211700568E+03   -0.57001E-04   -0.14028E-04 10920   0.365E-02    0.129E-01
RMM:   9    -0.635211633366E+03    0.67202E-04   -0.91895E-05  9476   0.298E-02    0.725E-02
RMM:  10    -0.635211605332E+03    0.28034E-04   -0.38267E-05  6908   0.216E-02    0.257E-02
RMM:  11    -0.635211609565E+03   -0.42332E-05   -0.24069E-05  6515   0.193E-02
  70 F= -.63521161E+03 E0= -.63514343E+03  d E =-.212586E-03
       N       E                     dE             d eps       ncg     rms          rms(c)
DAV:   1    -0.635211604058E+03    0.12742E-05   -0.12804E-04 13356   0.544E-02    0.165E-02
RMM:   2    -0.635211672255E+03   -0.68197E-04   -0.37502E-05  6935   0.244E-02    0.115E-01
RMM:   3    -0.635211605013E+03    0.67241E-04   -0.19078E-05  6085   0.227E-02    0.179E-02
RMM:   4    -0.635211602520E+03    0.24931E-05   -0.51755E-06  5645   0.814E-03
  71 F= -.63521160E+03 E0= -.63514338E+03  d E =-.205541E-03
       N       E                     dE             d eps       ncg     rms          rms(c)
DAV:   1    -0.635209673837E+03    0.19312E-02   -0.99484E-02 11088   0.182E+00    0.821E-02
RMM:   2    -0.635211960330E+03   -0.22865E-02   -0.20154E-02 13828   0.373E-01    0.286E-01
RMM:   3    -0.635211870406E+03    0.89924E-04   -0.26914E-03 13285   0.158E-01    0.973E-02
RMM:   4    -0.635211928273E+03   -0.57866E-04   -0.62898E-04 13167   0.698E-02    0.108E-01
RMM:   5    -0.635211886993E+03    0.41280E-04   -0.16023E-04 11275   0.397E-02    0.618E-02
RMM:   6    -0.635211876160E+03    0.10832E-04   -0.76619E-05  8910   0.239E-02    0.367E-02
RMM:   7    -0.635211875536E+03    0.62420E-06   -0.25029E-05  6518   0.181E-02
  72 F= -.63521188E+03 E0= -.63514367E+03  d E =-.273016E-03
       N       E                     dE             d eps       ncg     rms          rms(c)
DAV:   1    -0.635208929534E+03    0.29466E-02   -0.13992E-01 10584   0.216E+00    0.102E-01
RMM:   2    -0.635212393775E+03   -0.34642E-02   -0.28414E-02 13961   0.439E-01    0.385E-01
RMM:   3    -0.635212033738E+03    0.36004E-03   -0.38231E-03 13222   0.191E-01    0.133E-01
RMM:   4    -0.635212107453E+03   -0.73715E-04   -0.10075E-03 13680   0.843E-02    0.125E-01
RMM:   5    -0.635212038191E+03    0.69261E-04   -0.25118E-04 12032   0.466E-02    0.665E-02
RMM:   6    -0.635212031784E+03    0.64069E-05   -0.13445E-04 10216   0.273E-02    0.450E-02
RMM:   7    -0.635212043403E+03   -0.11618E-04   -0.51487E-05  7628   0.208E-02    0.699E-02
RMM:   8    -0.635212030697E+03    0.12706E-04   -0.50661E-05  7725   0.237E-02    0.532E-02
RMM:   9    -0.635212018948E+03    0.11748E-04   -0.37767E-05  7158   0.181E-02    0.260E-02
RMM:  10    -0.635212018275E+03    0.67314E-06   -0.15887E-05  5997   0.155E-02
  73 F= -.63521202E+03 E0= -.63514383E+03  d E =-.415755E-03
       N       E                     dE             d eps       ncg     rms          rms(c)
DAV:   1    -0.635212241488E+03   -0.22254E-03   -0.13240E-01 13188   0.204E+00    0.410E-01
RMM:   2    -0.635224305937E+03   -0.12064E-01   -0.32159E-02 12251   0.648E-01    0.121E+00
RMM:   3    -0.635215292250E+03    0.90137E-02   -0.97726E-03 12326   0.399E-01    0.709E-01
RMM:   4    -0.635212574552E+03    0.27177E-02   -0.31040E-03 14122   0.165E-01    0.215E-01
RMM:   5    -0.635212698088E+03   -0.12354E-03   -0.90058E-04 13286   0.925E-02    0.282E-01
RMM:   6    -0.635212377412E+03    0.32068E-03   -0.57154E-04 13031   0.697E-02    0.178E-01
RMM:   7    -0.635212257567E+03    0.11984E-03   -0.27525E-04 12077   0.499E-02    0.105E-01
RMM:   8    -0.635212365834E+03   -0.10827E-03   -0.19310E-04 11385   0.437E-02    0.176E-01
RMM:   9    -0.635212220952E+03    0.14488E-03   -0.94680E-05  9241   0.345E-02    0.536E-02
RMM:  10    -0.635212212934E+03    0.80176E-05   -0.42717E-05  7415   0.215E-02
  74 F= -.63521221E+03 E0= -.63514409E+03  d E =-.194659E-03
       N       E                     dE             d eps       ncg     rms          rms(c)
DAV:   1    -0.635212233925E+03   -0.12973E-04   -0.57603E-03 13524   0.420E-01    0.905E-02
RMM:   2    -0.635213109441E+03   -0.87552E-03   -0.14871E-03 12059   0.140E-01    0.368E-01
RMM:   3    -0.635212405842E+03    0.70360E-03   -0.46477E-04 10627   0.924E-02    0.173E-01
RMM:   4    -0.635212253096E+03    0.15275E-03   -0.15175E-04 10507   0.459E-02    0.695E-02
RMM:   5    -0.635212239500E+03    0.13595E-04   -0.57700E-05  8302   0.259E-02    0.490E-02
RMM:   6    -0.635212238230E+03    0.12696E-05   -0.28676E-05  6746   0.213E-02
  75 F= -.63521224E+03 E0= -.63514410E+03  d E =-.219955E-03
       N       E                     dE             d eps       ncg     rms          rms(c)
DAV:   1    -0.635209967894E+03    0.22716E-02   -0.11414E-01 10640   0.195E+00    0.112E-01
RMM:   2    -0.635212965374E+03   -0.29975E-02   -0.23587E-02 13893   0.400E-01    0.403E-01
RMM:   3    -0.635212584690E+03    0.38068E-03   -0.32906E-03 13022   0.178E-01    0.193E-01
RMM:   4    -0.635212494305E+03    0.90385E-04   -0.84946E-04 13018   0.842E-02    0.112E-01
RMM:   5    -0.635212494227E+03    0.77445E-07   -0.25421E-04 11722   0.505E-02    0.111E-01
RMM:   6    -0.635212437426E+03    0.56801E-04   -0.92406E-05  8724   0.311E-02    0.474E-02
RMM:   7    -0.635212434738E+03    0.26880E-05   -0.47535E-05  7579   0.203E-02
  76 F= -.63521243E+03 E0= -.63514435E+03  d E =-.196508E-03
       N       E                     dE             d eps       ncg     rms          rms(c)
DAV:   1    -0.635211943726E+03    0.49370E-03   -0.25502E-02 10780   0.924E-01    0.847E-02
RMM:   2    -0.635213806515E+03   -0.18628E-02   -0.58464E-03 12918   0.205E-01    0.502E-01
RMM:   3    -0.635212543475E+03    0.12630E-02   -0.97833E-04 10542   0.119E-01    0.123E-01
RMM:   4    -0.635212478911E+03    0.64564E-04   -0.35713E-04 11745   0.543E-02    0.570E-02
RMM:   5    -0.635212482514E+03   -0.36038E-05   -0.11527E-04  9945   0.295E-02    0.542E-02
RMM:   6    -0.635212471398E+03    0.11116E-04   -0.41678E-05  7368   0.200E-02    0.327E-02
RMM:   7    -0.635212470298E+03    0.11005E-05   -0.22709E-05  6482   0.155E-02
  77 F= -.63521247E+03 E0= -.63514442E+03  d E =-.232067E-03
       N       E                     dE             d eps       ncg     rms          rms(c)
DAV:   1    -0.635210216607E+03    0.22548E-02   -0.10284E-01 10640   0.185E+00    0.107E-01
RMM:   2    -0.635213054138E+03   -0.28375E-02   -0.21288E-02 14044   0.379E-01    0.412E-01
RMM:   3    -0.635212557145E+03    0.49699E-03   -0.29488E-03 13139   0.170E-01    0.166E-01
RMM:   4    -0.635212538957E+03    0.18188E-04   -0.79633E-04 13072   0.803E-02    0.131E-01
RMM:   5    -0.635212495891E+03    0.43066E-04   -0.24387E-04 11882   0.481E-02    0.862E-02
RMM:   6    -0.635212465667E+03    0.30224E-04   -0.11267E-04  9704   0.301E-02    0.534E-02
RMM:   7    -0.635212461600E+03    0.40674E-05   -0.53425E-05  7898   0.194E-02
  78 F= -.63521246E+03 E0= -.63514444E+03  d E =-.223369E-03
       N       E                     dE             d eps       ncg     rms          rms(c)
DAV:   1    -0.635211197437E+03    0.12682E-02   -0.61700E-02 10640   0.143E+00    0.109E-01
RMM:   2    -0.635214068071E+03   -0.28706E-02   -0.13531E-02 13301   0.308E-01    0.556E-01
RMM:   3    -0.635212605456E+03    0.14626E-02   -0.20069E-03 11797   0.158E-01    0.162E-01
RMM:   4    -0.635212540988E+03    0.64469E-04   -0.68492E-04 11693   0.751E-02    0.110E-01
RMM:   5    -0.635212521394E+03    0.19594E-04   -0.19374E-04  9957   0.426E-02    0.806E-02
RMM:   6    -0.635212495808E+03    0.25587E-04   -0.54798E-05  7049   0.253E-02    0.511E-02
RMM:   7    -0.635212484452E+03    0.11356E-04   -0.20332E-05  6147   0.199E-02    0.297E-02
RMM:   8    -0.635212483478E+03    0.97314E-06   -0.11291E-05  5826   0.136E-02
  79 F= -.63521248E+03 E0= -.63514441E+03  d E =-.245248E-03
       N       E                     dE             d eps       ncg     rms          rms(c)
DAV:   1    -0.635212148305E+03    0.33615E-03   -0.15569E-02 11144   0.717E-01    0.462E-02
RMM:   2    -0.635212615553E+03   -0.46725E-03   -0.32391E-03 13264   0.149E-01    0.166E-01
RMM:   3    -0.635212495975E+03    0.11958E-03   -0.46734E-04 10884   0.754E-02    0.685E-02
RMM:   4    -0.635212485534E+03    0.10440E-04   -0.12180E-04  8528   0.369E-02    0.437E-02
RMM:   5    -0.635212485049E+03    0.48512E-06   -0.34172E-05  6547   0.212E-02
  80 F= -.63521249E+03 E0= -.63514446E+03  d E =-.246818E-03
       N       E                     dE             d eps       ncg     rms          rms(c)
DAV:   1    -0.635212361101E+03    0.12443E-03   -0.59174E-03 11452   0.449E-01    0.292E-02
RMM:   2    -0.635212572295E+03   -0.21119E-03   -0.11892E-03 12374   0.893E-02    0.151E-01
RMM:   3    -0.635212485101E+03    0.87194E-04   -0.16760E-04  9005   0.517E-02    0.405E-02
RMM:   4    -0.635212486368E+03   -0.12674E-05   -0.48586E-05  7057   0.240E-02
  81 F= -.63521249E+03 E0= -.63514443E+03  d E =-.248137E-03
       N       E                     dE             d eps       ncg     rms          rms(c)
DAV:   1    -0.635212443846E+03    0.41255E-04   -0.20984E-03 12236   0.271E-01    0.294E-02
RMM:   2    -0.635212705799E+03   -0.26195E-03   -0.45369E-04 10467   0.613E-02    0.206E-01
RMM:   3    -0.635212482328E+03    0.22347E-03   -0.94421E-05  7666   0.447E-02    0.275E-02
RMM:   4    -0.635212480191E+03    0.21377E-05   -0.32423E-05  6707   0.193E-02
  82 F= -.63521248E+03 E0= -.63514444E+03  d E =-.241960E-03
       N       E                     dE             d eps       ncg     rms          rms(c)
DAV:   1    -0.635212474583E+03    0.77453E-05   -0.53053E-04 12656   0.137E-01    0.224E-02
RMM:   2    -0.635212619188E+03   -0.14460E-03   -0.13229E-04  8804   0.359E-02    0.167E-01
RMM:   3    -0.635212490836E+03    0.12835E-03   -0.41469E-05  6698   0.296E-02    0.403E-02
RMM:   4    -0.635212480455E+03    0.10381E-04   -0.11747E-05  5911   0.139E-02    0.129E-02
RMM:   5    -0.635212480514E+03   -0.58477E-07   -0.44484E-06  5349   0.912E-03
  83 F= -.63521248E+03 E0= -.63514443E+03  d E =-.242283E-03
       N       E                     dE             d eps       ncg     rms          rms(c)
DAV:   1    -0.635212478544E+03    0.19110E-05   -0.32248E-05  9072   0.376E-02    0.439E-03
RMM:   2    -0.635212481997E+03   -0.34529E-05   -0.92829E-06  5159   0.124E-02
  84 F= -.63521248E+03 E0= -.63514445E+03  d E =-.243767E-03
       N       E                     dE             d eps       ncg     rms          rms(c)
DAV:   1    -0.635212480187E+03   -0.16429E-05   -0.28057E-05  7812   0.331E-02    0.720E-03
RMM:   2    -0.635212497583E+03   -0.17396E-04   -0.77241E-06  5501   0.115E-02    0.591E-02
RMM:   3    -0.635212481153E+03    0.16430E-04   -0.48246E-06  4581   0.106E-02    0.102E-02
RMM:   4    -0.635212480314E+03    0.83933E-06   -0.10334E-06  4213   0.353E-03
  85 F= -.63521248E+03 E0= -.63514442E+03  d E =-.242084E-03
       N       E                     dE             d eps       ncg     rms          rms(c)
DAV:   1    -0.635212926503E+03   -0.44535E-03   -0.35658E-02 13300   0.995E-01    0.241E-01
RMM:   2    -0.635217255955E+03   -0.43295E-02   -0.90662E-03 12083   0.358E-01    0.759E-01
RMM:   3    -0.635213673006E+03    0.35829E-02   -0.30035E-03 11887   0.225E-01    0.394E-01
RMM:   4    -0.635212791793E+03    0.88121E-03   -0.82882E-04 13286   0.886E-02    0.134E-01
RMM:   5    -0.635212813985E+03   -0.22192E-04   -0.26150E-04 11879   0.533E-02    0.162E-01
RMM:   6    -0.635212742912E+03    0.71073E-04   -0.19296E-04 11334   0.422E-02    0.128E-01
RMM:   7    -0.635212666318E+03    0.76594E-04   -0.87972E-05  8992   0.306E-02    0.546E-02
RMM:   8    -0.635212692910E+03   -0.26591E-04   -0.52593E-05  7418   0.250E-02    0.901E-02
RMM:   9    -0.635212649658E+03    0.43251E-04   -0.25632E-05  6182   0.210E-02    0.237E-02
RMM:  10    -0.635212647512E+03    0.21459E-05   -0.11964E-05  5735   0.154E-02
  86 F= -.63521265E+03 E0= -.63514458E+03  d E =-.167198E-03
       N       E                     dE             d eps       ncg     rms          rms(c)
DAV:   1    -0.635212659734E+03   -0.10076E-04   -0.86237E-04 13692   0.158E-01    0.443E-02
RMM:   2    -0.635212910013E+03   -0.25028E-03   -0.28230E-04  9423   0.610E-02    0.199E-01
RMM:   3    -0.635212683283E+03    0.22673E-03   -0.96618E-05  7620   0.452E-02    0.689E-02
RMM:   4    -0.635212654438E+03    0.28846E-04   -0.22737E-05  6228   0.205E-02    0.296E-02
RMM:   5    -0.635212651583E+03    0.28547E-05   -0.10175E-05  5837   0.153E-02
  87 F= -.63521265E+03 E0= -.63514454E+03  d E =-.171269E-03
       N       E                     dE             d eps       ncg     rms          rms(c)
DAV:   1    -0.635212684956E+03   -0.30518E-04   -0.34581E-03 13608   0.311E-01    0.841E-02
RMM:   2    -0.635213309031E+03   -0.62408E-03   -0.10010E-03 10943   0.118E-01    0.309E-01
RMM:   3    -0.635212813237E+03    0.49579E-03   -0.33837E-04  9415   0.808E-02    0.167E-01
RMM:   4    -0.635212675992E+03    0.13725E-03   -0.99580E-05  9076   0.372E-02    0.736E-02
RMM:   5    -0.635212655769E+03    0.20223E-04   -0.34429E-05  6521   0.226E-02    0.399E-02
RMM:   6    -0.635212656324E+03   -0.55489E-06   -0.22132E-05  6189   0.189E-02
  88 F= -.63521266E+03 E0= -.63514458E+03  d E =-.176010E-03
       N       E                     dE             d eps       ncg     rms          rms(c)
DAV:   1    -0.635212557335E+03    0.98434E-04   -0.83058E-03 10528   0.454E-01    0.278E-02
RMM:   2    -0.635212755118E+03   -0.19778E-03   -0.13282E-03 12997   0.102E-01    0.119E-01
RMM:   3    -0.635212702025E+03    0.53093E-04   -0.19664E-04 11018   0.548E-02    0.419E-02
RMM:   4    -0.635212699747E+03    0.22781E-05   -0.59578E-05  7596   0.259E-02
  89 F= -.63521270E+03 E0= -.63514465E+03  d E =-.434229E-04
