  64  64   0   0
  0.1042286E+02  0.8721462E-09  0.8777827E-09  0.8713615E-09  0.5000000E-15
  1.000000000000000E-004
  CAR 
 HECN                                    
     14.30073672    -60.62072065  301      7.67034840      1.00000000
    -60.621  0.0000E+00  0.0000E+00
    -60.371  0.0000E+00  0.0000E+00
    -60.121  0.0000E+00  0.0000E+00
    -59.872  0.0000E+00  0.0000E+00
    -59.622  0.0000E+00  0.0000E+00
    -59.372  0.0000E+00  0.0000E+00
    -59.122  0.0000E+00  0.0000E+00
    -58.873  0.0000E+00  0.0000E+00
    -58.623  0.0000E+00  0.0000E+00
    -58.373  0.0000E+00  0.0000E+00
    -58.123  0.0000E+00  0.0000E+00
    -57.874  0.0000E+00  0.0000E+00
    -57.624  0.3108E-09  0.7762E-10
    -57.374  0.1282E-02  0.3203E-03
    -57.124  0.2660E+00  0.6675E-01
    -56.875  0.2125E+00  0.1198E+00
    -56.625  0.6993E-03  0.1200E+00
    -56.375  0.1121E-09  0.1200E+00
    -56.125  0.0000E+00  0.1200E+00
    -55.876  0.0000E+00  0.1200E+00
    -55.626  0.0000E+00  0.1200E+00
    -55.376  0.0000E+00  0.1200E+00
    -55.126  0.0000E+00  0.1200E+00
    -54.877  0.0000E+00  0.1200E+00
    -54.627  0.0000E+00  0.1200E+00
    -54.377  0.0000E+00  0.1200E+00
    -54.128  0.0000E+00  0.1200E+00
    -53.878  0.0000E+00  0.1200E+00
    -53.628  0.0000E+00  0.1200E+00
    -53.378  0.0000E+00  0.1200E+00
    -53.129  0.0000E+00  0.1200E+00
    -52.879  0.0000E+00  0.1200E+00
    -52.629  0.0000E+00  0.1200E+00
    -52.379  0.0000E+00  0.1200E+00
    -52.130  0.0000E+00  0.1200E+00
    -51.880  0.0000E+00  0.1200E+00
    -51.630  0.0000E+00  0.1200E+00
    -51.380  0.0000E+00  0.1200E+00
    -51.131  0.0000E+00  0.1200E+00
    -50.881  0.0000E+00  0.1200E+00
    -50.631  0.0000E+00  0.1200E+00
    -50.381  0.2594E-11  0.1200E+00
    -50.132  0.1666E-03  0.1200E+00
    -49.882  0.1503E+00  0.1576E+00
    -49.632  0.2377E+00  0.2169E+00
    -49.383  0.1175E+00  0.2463E+00
    -49.133  0.5485E-01  0.2600E+00
    -48.883  0.9144E-04  0.2600E+00
    -48.633  0.1853E-11  0.2600E+00
    -48.384  0.0000E+00  0.2600E+00
    -48.134  0.0000E+00  0.2600E+00
    -47.884  0.0000E+00  0.2600E+00
    -47.634  0.0000E+00  0.2600E+00
    -47.385  0.0000E+00  0.2600E+00
    -47.135  0.0000E+00  0.2600E+00
    -46.885  0.0000E+00  0.2600E+00
    -46.635  0.0000E+00  0.2600E+00
    -46.386  0.0000E+00  0.2600E+00
    -46.136  0.0000E+00  0.2600E+00
    -45.886  0.0000E+00  0.2600E+00
    -45.636  0.0000E+00  0.2600E+00
    -45.387  0.0000E+00  0.2600E+00
    -45.137  0.0000E+00  0.2600E+00
    -44.887  0.0000E+00  0.2600E+00
    -44.637  0.0000E+00  0.2600E+00
    -44.388  0.0000E+00  0.2600E+00
    -44.138  0.0000E+00  0.2600E+00
    -43.888  0.0000E+00  0.2600E+00
    -43.639  0.0000E+00  0.2600E+00
    -43.389  0.0000E+00  0.2600E+00
    -43.139  0.0000E+00  0.2600E+00
    -42.889  0.0000E+00  0.2600E+00
    -42.640  0.0000E+00  0.2600E+00
    -42.390  0.0000E+00  0.2600E+00
    -42.140  0.0000E+00  0.2600E+00
    -41.890  0.1556E-14  0.2600E+00
    -41.641  0.2206E-05  0.2600E+00
    -41.391  0.2468E-01  0.2662E+00
    -41.141  0.5781E-01  0.2806E+00
    -40.891  0.1278E+00  0.3125E+00
    -40.642  0.3182E+00  0.3920E+00
    -40.392  0.3209E-01  0.4000E+00
    -40.142  0.1190E-05  0.4000E+00
    -39.892  0.4712E-15  0.4000E+00
    -39.643  0.0000E+00  0.4000E+00
    -39.393  0.0000E+00  0.4000E+00
    -39.143  0.0000E+00  0.4000E+00
    -38.893  0.0000E+00  0.4000E+00
    -38.644  0.0000E+00  0.4000E+00
    -38.394  0.0000E+00  0.4000E+00
    -38.144  0.0000E+00  0.4000E+00
    -37.895  0.0000E+00  0.4000E+00
    -37.645  0.0000E+00  0.4000E+00
    -37.395  0.0000E+00  0.4000E+00
    -37.145  0.0000E+00  0.4000E+00
    -36.896  0.0000E+00  0.4000E+00
    -36.646  0.1122E-10  0.4000E+00
    -36.396  0.2193E-03  0.4001E+00
    -36.146  0.6526E-01  0.4164E+00
    -35.897  0.6481E+00  0.5782E+00
    -35.647  0.7165E+00  0.7571E+00
    -35.397  0.1147E-01  0.7600E+00
    -35.147  0.5525E-07  0.7600E+00
    -34.898  0.0000E+00  0.7600E+00
    -34.648  0.0000E+00  0.7600E+00
    -34.398  0.0000E+00  0.7600E+00
    -34.148  0.0000E+00  0.7600E+00
    -33.899  0.0000E+00  0.7600E+00
    -33.649  0.0000E+00  0.7600E+00
    -33.399  0.0000E+00  0.7600E+00
    -33.150  0.0000E+00  0.7600E+00
    -32.900  0.0000E+00  0.7600E+00
    -32.650  0.0000E+00  0.7600E+00
    -32.400  0.0000E+00  0.7600E+00
    -32.151  0.0000E+00  0.7600E+00
    -31.901  0.0000E+00  0.7600E+00
    -31.651  0.1322E-08  0.7600E+00
    -31.401  0.2265E-02  0.7606E+00
    -31.152  0.4386E+00  0.8701E+00
    -30.902  0.9439E+00  0.1106E+01
    -30.652  0.5674E-01  0.1120E+01
    -30.402  0.1586E-05  0.1120E+01
    -30.153  0.5512E-15  0.1120E+01
    -29.903  0.0000E+00  0.1120E+01
    -29.653  0.0000E+00  0.1120E+01
    -29.403  0.0000E+00  0.1120E+01
    -29.154  0.0000E+00  0.1120E+01
    -28.904  0.0000E+00  0.1120E+01
    -28.654  0.0000E+00  0.1120E+01
    -28.404  0.4294E-09  0.1120E+01
    -28.155  0.1209E-02  0.1120E+01
    -27.905  0.1601E+00  0.1160E+01
    -27.655  0.2661E+00  0.1227E+01
    -27.406  0.4321E+00  0.1335E+01
    -27.156  0.3426E+00  0.1420E+01
    -26.906  0.2369E+00  0.1479E+01
    -26.656  0.2603E-02  0.1480E+01
    -26.407  0.6932E-01  0.1497E+01
    -26.157  0.6660E+00  0.1664E+01
    -25.907  0.6365E+00  0.1823E+01
    -25.657  0.2743E+00  0.1891E+01
    -25.408  0.3567E-01  0.1900E+01
    -25.158  0.1002E-05  0.1900E+01
    -24.908  0.0000E+00  0.1900E+01
    -24.658  0.0000E+00  0.1900E+01
    -24.409  0.0000E+00  0.1900E+01
    -24.159  0.0000E+00  0.1900E+01
    -23.909  0.0000E+00  0.1900E+01
    -23.659  0.0000E+00  0.1900E+01
    -23.410  0.0000E+00  0.1900E+01
    -23.160  0.0000E+00  0.1900E+01
    -22.910  0.0000E+00  0.1900E+01
    -22.661  0.0000E+00  0.1900E+01
    -22.411  0.0000E+00  0.1900E+01
    -22.161  0.0000E+00  0.1900E+01
    -21.911  0.0000E+00  0.1900E+01
    -21.662  0.0000E+00  0.1900E+01
    -21.412  0.0000E+00  0.1900E+01
    -21.162  0.0000E+00  0.1900E+01
    -20.912  0.0000E+00  0.1900E+01
    -20.663  0.0000E+00  0.1900E+01
    -20.413  0.0000E+00  0.1900E+01
    -20.163  0.4446E-08  0.1900E+01
    -19.913  0.3193E-02  0.1901E+01
    -19.664  0.1782E+00  0.1945E+01
    -19.414  0.2026E+00  0.1996E+01
    -19.164  0.6950E+00  0.2169E+01
    -18.914  0.4855E+00  0.2291E+01
    -18.665  0.1140E+00  0.2319E+01
    -18.415  0.3264E-02  0.2320E+01
    -18.165  0.5345E-08  0.2320E+01
    -17.915  0.0000E+00  0.2320E+01
    -17.666  0.0000E+00  0.2320E+01
    -17.416  0.0000E+00  0.2320E+01
    -17.166  0.0000E+00  0.2320E+01
    -16.917  0.0000E+00  0.2320E+01
    -16.667  0.0000E+00  0.2320E+01
    -16.417  0.0000E+00  0.2320E+01
    -16.167  0.0000E+00  0.2320E+01
    -15.918  0.0000E+00  0.2320E+01
    -15.668  0.0000E+00  0.2320E+01
    -15.418  0.0000E+00  0.2320E+01
    -15.168  0.0000E+00  0.2320E+01
    -14.919  0.0000E+00  0.2320E+01
    -14.669  0.0000E+00  0.2320E+01
    -14.419  0.0000E+00  0.2320E+01
    -14.169  0.0000E+00  0.2320E+01
    -13.920  0.0000E+00  0.2320E+01
    -13.670  0.0000E+00  0.2320E+01
    -13.420  0.0000E+00  0.2320E+01
    -13.170  0.0000E+00  0.2320E+01
    -12.921  0.0000E+00  0.2320E+01
    -12.671  0.0000E+00  0.2320E+01
    -12.421  0.0000E+00  0.2320E+01
    -12.172  0.0000E+00  0.2320E+01
    -11.922  0.0000E+00  0.2320E+01
    -11.672  0.0000E+00  0.2320E+01
    -11.422  0.0000E+00  0.2320E+01
    -11.173  0.0000E+00  0.2320E+01
    -10.923  0.0000E+00  0.2320E+01
    -10.673  0.0000E+00  0.2320E+01
    -10.423  0.0000E+00  0.2320E+01
    -10.174  0.0000E+00  0.2320E+01
     -9.924  0.0000E+00  0.2320E+01
     -9.674  0.0000E+00  0.2320E+01
     -9.424  0.0000E+00  0.2320E+01
     -9.175  0.0000E+00  0.2320E+01
     -8.925  0.2408E-09  0.2320E+01
     -8.675  0.2129E-03  0.2320E+01
     -8.425  0.3131E-01  0.2328E+01
     -8.176  0.5939E-01  0.2343E+01
     -7.926  0.1205E+00  0.2373E+01
     -7.676  0.1162E+00  0.2402E+01
     -7.426  0.1359E+00  0.2436E+01
     -7.177  0.1988E+00  0.2485E+01
     -6.927  0.1851E+00  0.2532E+01
     -6.677  0.1480E+00  0.2569E+01
     -6.428  0.4565E-01  0.2580E+01
     -6.178  0.3196E-04  0.2580E+01
     -5.928  0.2408E-12  0.2580E+01
     -5.678  0.0000E+00  0.2580E+01
     -5.429  0.6149E-13  0.2580E+01
     -5.179  0.4717E-05  0.2580E+01
     -4.929  0.8800E-02  0.2582E+01
     -4.679  0.6191E-01  0.2598E+01
     -4.430  0.2381E-01  0.2604E+01
     -4.180  0.8952E-01  0.2626E+01
     -3.930  0.1072E+00  0.2653E+01
     -3.680  0.1482E+00  0.2690E+01
     -3.431  0.1826E+00  0.2735E+01
     -3.181  0.2572E+00  0.2800E+01
     -2.931  0.2720E+00  0.2868E+01
     -2.681  0.2338E+00  0.2926E+01
     -2.432  0.1000E+00  0.2951E+01
     -2.182  0.3358E-01  0.2959E+01
     -1.932  0.2987E-02  0.2960E+01
     -1.683  0.5962E-06  0.2960E+01
     -1.433  0.2181E-14  0.2960E+01
     -1.183  0.0000E+00  0.2960E+01
     -0.933  0.0000E+00  0.2960E+01
     -0.684  0.0000E+00  0.2960E+01
     -0.434  0.1921E-10  0.2960E+01
     -0.184  0.7008E-04  0.2960E+01
      0.066  0.7758E-02  0.2962E+01
      0.315  0.4452E-01  0.2973E+01
      0.565  0.1105E+00  0.3001E+01
      0.815  0.1198E+00  0.3031E+01
      1.065  0.1559E+00  0.3070E+01
      1.314  0.2474E+00  0.3131E+01
      1.564  0.2918E+00  0.3204E+01
      1.814  0.2581E+00  0.3269E+01
      2.064  0.3420E+00  0.3354E+01
      2.313  0.3759E+00  0.3448E+01
      2.563  0.3778E+00  0.3542E+01
      2.813  0.4370E+00  0.3651E+01
      3.063  0.4708E+00  0.3769E+01
      3.312  0.5447E+00  0.3905E+01
      3.562  0.6119E+00  0.4058E+01
      3.812  0.6163E+00  0.4212E+01
      4.061  0.5923E+00  0.4360E+01
      4.311  0.5166E+00  0.4489E+01
      4.561  0.4030E+00  0.4589E+01
      4.811  0.3460E+00  0.4676E+01
      5.060  0.3027E+00  0.4751E+01
      5.310  0.2082E+00  0.4803E+01
      5.560  0.1662E+00  0.4845E+01
      5.810  0.1144E+00  0.4873E+01
      6.059  0.6851E-01  0.4891E+01
      6.309  0.1545E+00  0.4929E+01
      6.559  0.1813E+00  0.4974E+01
      6.809  0.2174E+00  0.5029E+01
      7.058  0.2316E+00  0.5087E+01
      7.308  0.2164E+00  0.5141E+01
      7.558  0.2950E+00  0.5214E+01
      7.808  0.3072E+00  0.5291E+01
      8.057  0.3440E+00  0.5377E+01
      8.307  0.4356E+00  0.5486E+01
      8.557  0.5102E+00  0.5613E+01
      8.806  0.5298E+00  0.5745E+01
      9.056  0.5452E+00  0.5882E+01
      9.306  0.5504E+00  0.6019E+01
      9.556  0.5184E+00  0.6148E+01
      9.805  0.4928E+00  0.6272E+01
     10.055  0.5097E+00  0.6399E+01
     10.305  0.4372E+00  0.6508E+01
     10.555  0.4252E+00  0.6614E+01
     10.804  0.3557E+00  0.6703E+01
     11.054  0.6773E-01  0.6720E+01
     11.304  0.2207E-03  0.6720E+01
     11.554  0.4601E-10  0.6720E+01
     11.803  0.0000E+00  0.6720E+01
     12.053  0.0000E+00  0.6720E+01
     12.303  0.0000E+00  0.6720E+01
     12.553  0.0000E+00  0.6720E+01
     12.802  0.0000E+00  0.6720E+01
     13.052  0.0000E+00  0.6720E+01
     13.302  0.0000E+00  0.6720E+01
     13.552  0.0000E+00  0.6720E+01
     13.801  0.0000E+00  0.6720E+01
     14.051  0.0000E+00  0.6720E+01
     14.301  0.0000E+00  0.6720E+01
