       N       E                     dE             d eps       ncg     rms          rms(c)
DAV:   1     0.702620614726E+04    0.70262E+04   -0.21614E+05  9432   0.152E+03
DAV:   2     0.381937896854E+03   -0.66443E+04   -0.64036E+04  9480   0.579E+02
DAV:   3    -0.648905148811E+03   -0.10308E+04   -0.94985E+03 13584   0.198E+02
DAV:   4    -0.783196577876E+03   -0.13429E+03   -0.13044E+03 17088   0.866E+01
DAV:   5    -0.794656164133E+03   -0.11460E+02   -0.11320E+02 18216   0.219E+01    0.808E+01
RMM:   6    -0.877981162866E+03   -0.83325E+02   -0.22786E+03 12515   0.124E+02    0.120E+02
RMM:   7    -0.658295862907E+03    0.21969E+03   -0.24644E+02 14551   0.402E+01    0.537E+01
RMM:   8    -0.641708522782E+03    0.16587E+02   -0.56406E+01 14714   0.169E+01    0.311E+01
RMM:   9    -0.631659782536E+03    0.10049E+02   -0.18819E+01 14816   0.102E+01    0.168E+01
RMM:  10    -0.631460621488E+03    0.19916E+00   -0.68472E+00 14915   0.644E+00    0.176E+01
RMM:  11    -0.630322817678E+03    0.11378E+01   -0.41759E+00 14470   0.463E+00    0.118E+01
RMM:  12    -0.629846208296E+03    0.47661E+00   -0.30676E+00 14717   0.354E+00    0.925E+00
RMM:  13    -0.630361027668E+03   -0.51482E+00   -0.25812E+00 14649   0.387E+00    0.140E+01
RMM:  14    -0.629665296120E+03    0.69573E+00   -0.16360E+00 14483   0.321E+00    0.611E+00
RMM:  15    -0.629761461878E+03   -0.96166E-01   -0.10861E+00 14446   0.227E+00    0.641E+00
RMM:  16    -0.629574014563E+03    0.18745E+00   -0.52301E-01 14759   0.181E+00    0.413E+00
RMM:  17    -0.629529088882E+03    0.44926E-01   -0.37702E-01 14793   0.127E+00    0.317E+00
RMM:  18    -0.629489882657E+03    0.39206E-01   -0.31882E-01 15008   0.107E+00    0.243E+00
RMM:  19    -0.629477210792E+03    0.12672E-01   -0.13795E-01 14850   0.744E-01    0.132E+00
RMM:  20    -0.629476684224E+03    0.52657E-03   -0.78656E-02 14722   0.468E-01    0.115E+00
RMM:  21    -0.629473552217E+03    0.31320E-02   -0.43728E-02 14858   0.419E-01    0.842E-01
RMM:  22    -0.629469521804E+03    0.40304E-02   -0.37201E-02 14786   0.324E-01    0.423E-01
RMM:  23    -0.629473602683E+03   -0.40809E-02   -0.13792E-02 14183   0.331E-01    0.983E-01
RMM:  24    -0.629469215461E+03    0.43872E-02   -0.11225E-02 14445   0.214E-01    0.134E-01
RMM:  25    -0.629469449671E+03   -0.23421E-03   -0.58605E-03 13696   0.119E-01    0.107E-01
RMM:  26    -0.629469583356E+03   -0.13368E-03   -0.27435E-03 12893   0.805E-02    0.861E-02
RMM:  27    -0.629469636921E+03   -0.53565E-04   -0.16777E-03 12988   0.583E-02    0.470E-02
RMM:  28    -0.629469695667E+03   -0.58747E-04   -0.98172E-04 12071   0.481E-02    0.418E-02
RMM:  29    -0.629469730745E+03   -0.35077E-04   -0.62585E-04 11650   0.348E-02    0.257E-02
RMM:  30    -0.629469762896E+03   -0.32151E-04   -0.44765E-04 11736   0.297E-02    0.143E-02
RMM:  31    -0.629469785274E+03   -0.22379E-04   -0.27823E-04 11476   0.232E-02    0.121E-02
RMM:  32    -0.629469798822E+03   -0.13548E-04   -0.17682E-04 10448   0.190E-02    0.507E-03
RMM:  33    -0.629469808539E+03   -0.97177E-05   -0.11855E-04 10354   0.165E-02    0.251E-03
RMM:  34    -0.629469814565E+03   -0.60252E-05   -0.73602E-05  9538   0.141E-02
   1 F= -.62946981E+03 E0= -.62939280E+03  d E =-.629470E+03
       N       E                     dE             d eps       ncg     rms          rms(c)
DAV:   1    -0.629901177359E+03   -0.43137E+00   -0.93997E+00 13176   0.120E+01    0.577E+00
RMM:   2    -0.631744870278E+03   -0.18437E+01   -0.51136E+00 11844   0.778E+00    0.164E+01
RMM:   3    -0.630125677342E+03    0.16192E+01   -0.14241E+00 11957   0.470E+00    0.101E+01
RMM:   4    -0.629617484701E+03    0.50819E+00   -0.40321E-01 13053   0.205E+00    0.495E+00
RMM:   5    -0.629552483698E+03    0.65001E-01   -0.15678E-01 13081   0.124E+00    0.365E+00
RMM:   6    -0.629490472868E+03    0.62011E-01   -0.94400E-02 13337   0.851E-01    0.227E+00
RMM:   7    -0.629482881740E+03    0.75911E-02   -0.49244E-02 13047   0.682E-01    0.223E+00
RMM:   8    -0.629468052546E+03    0.14829E-01   -0.42659E-02 12851   0.620E-01    0.144E+00
RMM:   9    -0.629457166164E+03    0.10886E-01   -0.17510E-02 13755   0.375E-01    0.834E-01
RMM:  10    -0.629456215785E+03    0.95038E-03   -0.71434E-03 13461   0.242E-01    0.668E-01
RMM:  11    -0.629454097334E+03    0.21185E-02   -0.31751E-03 13212   0.154E-01    0.288E-01
RMM:  12    -0.629453904161E+03    0.19317E-03   -0.14843E-03 13207   0.978E-02    0.208E-01
RMM:  13    -0.629453893095E+03    0.11066E-04   -0.88397E-04 13020   0.709E-02    0.138E-01
RMM:  14    -0.629453960661E+03   -0.67566E-04   -0.60348E-04 13031   0.516E-02    0.109E-01
RMM:  15    -0.629454179987E+03   -0.21933E-03   -0.49789E-04 12878   0.543E-02    0.159E-01
RMM:  16    -0.629454169681E+03    0.10306E-04   -0.37350E-04 12358   0.459E-02    0.781E-02
RMM:  17    -0.629454282236E+03   -0.11256E-03   -0.39412E-04 12603   0.378E-02    0.739E-02
RMM:  18    -0.629454297175E+03   -0.14939E-04   -0.29824E-04 12295   0.326E-02    0.272E-02
RMM:  19    -0.629454312736E+03   -0.15561E-04   -0.15511E-04 11094   0.237E-02    0.176E-02
RMM:  20    -0.629454320983E+03   -0.82463E-05   -0.81113E-05 10600   0.199E-02
   2 F= -.62945432E+03 E0= -.62937834E+03  d E =0.154936E-01
       N       E                     dE             d eps       ncg     rms          rms(c)
DAV:   1    -0.629667962340E+03   -0.21365E+00   -0.39601E+00 12744   0.774E+00    0.383E+00
RMM:   2    -0.630550331073E+03   -0.88237E+00   -0.19906E+00 12366   0.464E+00    0.116E+01
RMM:   3    -0.629770811921E+03    0.77952E+00   -0.68500E-01 11858   0.325E+00    0.656E+00
RMM:   4    -0.629578503484E+03    0.19231E+00   -0.19342E-01 12762   0.140E+00    0.414E+00
RMM:   5    -0.629518424160E+03    0.60079E-01   -0.79082E-02 13055   0.901E-01    0.226E+00
RMM:   6    -0.629493250531E+03    0.25174E-01   -0.41054E-02 13463   0.547E-01    0.152E+00
RMM:   7    -0.629490808836E+03    0.24417E-02   -0.22506E-02 12829   0.481E-01    0.151E+00
RMM:   8    -0.629482346880E+03    0.84620E-02   -0.18576E-02 13184   0.399E-01    0.905E-01
RMM:   9    -0.629478066536E+03    0.42803E-02   -0.75167E-03 13468   0.250E-01    0.542E-01
RMM:  10    -0.629478180839E+03   -0.11430E-03   -0.33559E-03 13016   0.175E-01    0.535E-01
RMM:  11    -0.629476716731E+03    0.14641E-02   -0.16467E-03 12477   0.118E-01    0.217E-01
RMM:  12    -0.629476605062E+03    0.11167E-03   -0.77683E-04 12334   0.741E-02    0.170E-01
RMM:  13    -0.629476529626E+03    0.75436E-04   -0.45079E-04 12239   0.541E-02    0.103E-01
RMM:  14    -0.629476526873E+03    0.27530E-05   -0.28842E-04 12299   0.367E-02    0.811E-02
RMM:  15    -0.629476578729E+03   -0.51856E-04   -0.18832E-04 11652   0.345E-02    0.108E-01
RMM:  16    -0.629476559196E+03    0.19533E-04   -0.15464E-04 11558   0.294E-02    0.485E-02
RMM:  17    -0.629476598626E+03   -0.39430E-04   -0.19016E-04 12142   0.258E-02    0.388E-02
RMM:  18    -0.629476602379E+03   -0.37534E-05   -0.13542E-04 11866   0.247E-02    0.235E-02
RMM:  19    -0.629476603293E+03   -0.91436E-06   -0.77275E-05 10511   0.181E-02
   3 F= -.62947660E+03 E0= -.62939995E+03  d E =-.678873E-02
       N       E                     dE             d eps       ncg     rms          rms(c)
DAV:   1    -0.629476612405E+03   -0.10026E-04   -0.11775E-04 15504   0.308E-02    0.211E-02
RMM:   2    -0.629476641292E+03   -0.28888E-04   -0.40839E-05  6962   0.200E-02    0.645E-02
RMM:   3    -0.629476618276E+03    0.23017E-04   -0.13978E-05  6000   0.186E-02    0.398E-02
RMM:   4    -0.629476612541E+03    0.57350E-05   -0.52676E-06  5028   0.962E-03
   4 F= -.62947661E+03 E0= -.62939996E+03  d E =-.679798E-02
       N       E                     dE             d eps       ncg     rms          rms(c)
DAV:   1    -0.629476613484E+03    0.47915E-05   -0.24117E-05  7104   0.253E-02    0.191E-02
RMM:   2    -0.629476703778E+03   -0.90294E-04   -0.50237E-05  6911   0.283E-02    0.134E-01
RMM:   3    -0.629476617835E+03    0.85943E-04   -0.22117E-05  6170   0.217E-02    0.323E-02
RMM:   4    -0.629476612101E+03    0.57331E-05   -0.34810E-06  4864   0.783E-03
   5 F= -.62947661E+03 E0= -.62939995E+03  d E =-.679754E-02
       N       E                     dE             d eps       ncg     rms          rms(c)
DAV:   1    -0.629476612384E+03    0.54511E-05   -0.57003E-06  5640   0.131E-02    0.131E-02
RMM:   2    -0.629476657921E+03   -0.45537E-04   -0.21979E-05  6108   0.176E-02    0.947E-02
RMM:   3    -0.629476613317E+03    0.44603E-04   -0.12577E-05  5689   0.170E-02    0.176E-02
RMM:   4    -0.629476611440E+03    0.18779E-05   -0.16028E-06  4357   0.477E-03
   6 F= -.62947661E+03 E0= -.62939996E+03  d E =-.679687E-02
       N       E                     dE             d eps       ncg     rms          rms(c)
DAV:   1    -0.629476611225E+03    0.20928E-05   -0.21693E-06  5712   0.816E-03    0.544E-03
RMM:   2    -0.629476618848E+03   -0.76236E-05   -0.29726E-06  4531   0.707E-03
   7 F= -.62947662E+03 E0= -.62939998E+03  d E =-.680428E-02
       N       E                     dE             d eps       ncg     rms          rms(c)
DAV:   1    -0.629476611383E+03   -0.15798E-06   -0.17505E-05  5712   0.202E-02    0.715E-03
RMM:   2    -0.629476627874E+03   -0.16491E-04   -0.57047E-06  4857   0.840E-03    0.607E-02
RMM:   3    -0.629476612137E+03    0.15736E-04   -0.45711E-06  4310   0.100E-02    0.126E-02
RMM:   4    -0.629476610980E+03    0.11574E-05   -0.66948E-07  3760   0.316E-03
   8 F= -.62947661E+03 E0= -.62939996E+03  d E =-.679642E-02
       N       E                     dE             d eps       ncg     rms          rms(c)
DAV:   1    -0.629476610969E+03    0.11683E-05   -0.42061E-07  5712   0.403E-03    0.270E-03
RMM:   2    -0.629476613213E+03   -0.22438E-05   -0.10715E-06  3670   0.398E-03
   9 F= -.62947661E+03 E0= -.62939998E+03  d E =-.679865E-02
       N       E                     dE             d eps       ncg     rms          rms(c)
DAV:   1    -0.629476611002E+03   -0.33331E-07   -0.40835E-06  5640   0.108E-02    0.164E-03
RMM:   2    -0.629476611581E+03   -0.57843E-06   -0.36395E-07  3290   0.213E-03
  10 F= -.62947661E+03 E0= -.62939997E+03  d E =-.679702E-02
       N       E                     dE             d eps       ncg     rms          rms(c)
DAV:   1    -0.629476611044E+03   -0.41568E-07   -0.13626E-06  5712   0.627E-03    0.284E-03
RMM:   2    -0.629476613970E+03   -0.29258E-05   -0.10635E-06  3584   0.361E-03
  11 F= -.62947661E+03 E0= -.62939998E+03  d E =-.679940E-02
       N       E                     dE             d eps       ncg     rms          rms(c)
DAV:   1    -0.629474370084E+03    0.22410E-02   -0.11919E-01  9744   0.212E+00    0.121E-01
RMM:   2    -0.629477746322E+03   -0.33762E-02   -0.30554E-02 15077   0.431E-01    0.330E-01
RMM:   3    -0.629477394864E+03    0.35146E-03   -0.19309E-03 13435   0.142E-01    0.236E-01
RMM:   4    -0.629477229367E+03    0.16550E-03   -0.55640E-04 12756   0.746E-02    0.132E-01
RMM:   5    -0.629477185902E+03    0.43465E-04   -0.21679E-04 11767   0.437E-02    0.116E-01
RMM:   6    -0.629477115773E+03    0.70129E-04   -0.10597E-04 11073   0.317E-02    0.564E-02
RMM:   7    -0.629477118672E+03   -0.28989E-05   -0.84174E-05 10993   0.233E-02
  12 F= -.62947712E+03 E0= -.62940042E+03  d E =-.504703E-03
       N       E                     dE             d eps       ncg     rms          rms(c)
DAV:   1    -0.629471627477E+03    0.54883E-02   -0.24438E-01  9744   0.304E+00    0.184E-01
RMM:   2    -0.629479642148E+03   -0.80147E-02   -0.63196E-02 15114   0.628E-01    0.649E-01
RMM:   3    -0.629477699876E+03    0.19423E-02   -0.44285E-03 13744   0.210E-01    0.305E-01
RMM:   4    -0.629477454851E+03    0.24502E-03   -0.13665E-03 13476   0.101E-01    0.199E-01
RMM:   5    -0.629477437090E+03    0.17762E-04   -0.50445E-04 12563   0.632E-02    0.228E-01
RMM:   6    -0.629477208569E+03    0.22852E-03   -0.25440E-04 11837   0.467E-02    0.841E-02
RMM:   7    -0.629477186875E+03    0.21694E-04   -0.20823E-04 12161   0.348E-02    0.732E-02
RMM:   8    -0.629477244837E+03   -0.57962E-04   -0.18605E-04 12027   0.376E-02    0.133E-01
RMM:   9    -0.629477153670E+03    0.91166E-04   -0.96915E-05 10776   0.319E-02    0.492E-02
RMM:  10    -0.629477148583E+03    0.50872E-05   -0.67633E-05 10322   0.197E-02
  13 F= -.62947715E+03 E0= -.62940039E+03  d E =-.534614E-03
       N       E                     dE             d eps       ncg     rms          rms(c)
DAV:   1    -0.629476505299E+03    0.64837E-03   -0.31790E-02  9768   0.109E+00    0.666E-02
RMM:   2    -0.629477555188E+03   -0.10499E-02   -0.80208E-03 14939   0.229E-01    0.248E-01
RMM:   3    -0.629477278594E+03    0.27659E-03   -0.55185E-04 11521   0.795E-02    0.101E-01
RMM:   4    -0.629477260637E+03    0.17957E-04   -0.16541E-04 10940   0.390E-02    0.809E-02
RMM:   5    -0.629477247814E+03    0.12823E-04   -0.46170E-05  7353   0.264E-02    0.727E-02
RMM:   6    -0.629477222227E+03    0.25587E-04   -0.22446E-05  6167   0.207E-02    0.338E-02
RMM:   7    -0.629477221406E+03    0.82063E-06   -0.15257E-05  5907   0.156E-02
  14 F= -.62947722E+03 E0= -.62940049E+03  d E =-.607437E-03
       N       E                     dE             d eps       ncg     rms          rms(c)
DAV:   1    -0.629477083076E+03    0.13915E-03   -0.62462E-03 11088   0.489E-01    0.382E-02
RMM:   2    -0.629477419855E+03   -0.33678E-03   -0.16582E-03 14044   0.102E-01    0.189E-01
RMM:   3    -0.629477232201E+03    0.18765E-03   -0.15817E-04  9147   0.485E-02    0.584E-02
RMM:   4    -0.629477219584E+03    0.12617E-04   -0.56020E-05  9647   0.217E-02    0.302E-02
RMM:   5    -0.629477223423E+03   -0.38392E-05   -0.16126E-05  5952   0.170E-02
  15 F= -.62947722E+03 E0= -.62940049E+03  d E =-.609453E-03
       N       E                     dE             d eps       ncg     rms          rms(c)
DAV:   1    -0.629477182752E+03    0.36832E-04   -0.17564E-03 11616   0.255E-01    0.267E-02
RMM:   2    -0.629477419471E+03   -0.23672E-03   -0.49846E-04 10818   0.604E-02    0.209E-01
RMM:   3    -0.629477224307E+03    0.19516E-03   -0.69655E-05  7181   0.367E-02    0.354E-02
RMM:   4    -0.629477218494E+03    0.58126E-05   -0.16853E-05  5962   0.173E-02
  16 F= -.62947722E+03 E0= -.62940049E+03  d E =-.604525E-03
       N       E                     dE             d eps       ncg     rms          rms(c)
DAV:   1    -0.629477207383E+03    0.16923E-04   -0.41696E-04 13152   0.129E-01    0.146E-02
RMM:   2    -0.629477277958E+03   -0.70575E-04   -0.99588E-05  7979   0.295E-02    0.115E-01
RMM:   3    -0.629477214531E+03    0.63427E-04   -0.21507E-05  6128   0.224E-02    0.135E-02
RMM:   4    -0.629477213628E+03    0.90254E-06   -0.53472E-06  4807   0.892E-03
  17 F= -.62947721E+03 E0= -.62940048E+03  d E =-.599659E-03
       N       E                     dE             d eps       ncg     rms          rms(c)
DAV:   1    -0.629477211944E+03    0.25870E-05   -0.14402E-04 11088   0.767E-02    0.116E-02
RMM:   2    -0.629477260891E+03   -0.48947E-04   -0.41676E-05  6662   0.230E-02    0.103E-01
RMM:   3    -0.629477215969E+03    0.44923E-04   -0.15541E-05  5905   0.208E-02    0.143E-02
RMM:   4    -0.629477214577E+03    0.13921E-05   -0.37389E-06  4729   0.698E-03
  18 F= -.62947721E+03 E0= -.62940048E+03  d E =-.600607E-03
       N       E                     dE             d eps       ncg     rms          rms(c)
DAV:   1    -0.629476050619E+03    0.11653E-02   -0.75978E-02 11064   0.167E+00    0.147E-01
RMM:   2    -0.629478832748E+03   -0.27821E-02   -0.19229E-02 14589   0.375E-01    0.443E-01
RMM:   3    -0.629478003761E+03    0.82899E-03   -0.19874E-03 12239   0.173E-01    0.348E-01
RMM:   4    -0.629477537278E+03    0.46648E-03   -0.65019E-04 12130   0.861E-02    0.155E-01
RMM:   5    -0.629477457331E+03    0.79947E-04   -0.26114E-04 11610   0.462E-02    0.100E-01
RMM:   6    -0.629477411540E+03    0.45791E-04   -0.11255E-04 10912   0.299E-02    0.790E-02
RMM:   7    -0.629477387305E+03    0.24235E-04   -0.57564E-05  9301   0.241E-02    0.553E-02
RMM:   8    -0.629477388078E+03   -0.77356E-06   -0.56681E-05  8401   0.258E-02
  19 F= -.62947739E+03 E0= -.62940071E+03  d E =-.173502E-03
       N       E                     dE             d eps       ncg     rms          rms(c)
DAV:   1    -0.629476981996E+03    0.40531E-03   -0.22004E-02 11808   0.908E-01    0.901E-02
RMM:   2    -0.629478340538E+03   -0.13585E-02   -0.57046E-03 14123   0.210E-01    0.413E-01
RMM:   3    -0.629477523464E+03    0.81707E-03   -0.76658E-04 10942   0.113E-01    0.163E-01
RMM:   4    -0.629477417327E+03    0.10614E-03   -0.26635E-04 11153   0.542E-02    0.106E-01
RMM:   5    -0.629477379780E+03    0.37546E-04   -0.90282E-05  9680   0.289E-02    0.554E-02
RMM:   6    -0.629477372089E+03    0.76909E-05   -0.37617E-05  7691   0.210E-02
  20 F= -.62947737E+03 E0= -.62940073E+03  d E =-.157513E-03
       N       E                     dE             d eps       ncg     rms          rms(c)
DAV:   1    -0.629477299630E+03    0.80150E-04   -0.37886E-03 11232   0.370E-01    0.335E-02
RMM:   2    -0.629477526632E+03   -0.22700E-03   -0.10611E-03 13332   0.864E-02    0.162E-01
RMM:   3    -0.629477388560E+03    0.13807E-03   -0.11223E-04  8434   0.463E-02    0.569E-02
RMM:   4    -0.629477374164E+03    0.14396E-04   -0.33943E-05  6691   0.232E-02    0.282E-02
RMM:   5    -0.629477374235E+03   -0.71261E-07   -0.11956E-05  5484   0.174E-02
  21 F= -.62947737E+03 E0= -.62940072E+03  d E =-.159659E-03
       N       E                     dE             d eps       ncg     rms          rms(c)
DAV:   1    -0.629477085409E+03    0.28876E-03   -0.13349E-02 10272   0.760E-01    0.487E-02
RMM:   2    -0.629477570586E+03   -0.48518E-03   -0.36087E-03 14642   0.151E-01    0.176E-01
RMM:   3    -0.629477454845E+03    0.11574E-03   -0.33128E-04 10119   0.714E-02    0.103E-01
RMM:   4    -0.629477425025E+03    0.29819E-04   -0.10152E-04  9614   0.354E-02    0.581E-02
RMM:   5    -0.629477412371E+03    0.12654E-04   -0.38732E-05  7537   0.207E-02    0.320E-02
RMM:   6    -0.629477407754E+03    0.46173E-05   -0.14591E-05  5892   0.161E-02
  22 F= -.62947741E+03 E0= -.62940073E+03  d E =-.335183E-04
       N       E                     dE             d eps       ncg     rms          rms(c)
DAV:   1    -0.629477401608E+03    0.10763E-04   -0.46144E-04 14400   0.137E-01    0.206E-02
RMM:   2    -0.629477492230E+03   -0.90622E-04   -0.12251E-04  8143   0.347E-02    0.128E-01
RMM:   3    -0.629477408343E+03    0.83886E-04   -0.30722E-05  6220   0.272E-02    0.211E-02
RMM:   4    -0.629477407360E+03    0.98329E-06   -0.76441E-06  5099   0.118E-02
  23 F= -.62947741E+03 E0= -.62940075E+03  d E =-.331246E-04
       N       E                     dE             d eps       ncg     rms          rms(c)
DAV:   1    -0.629477448843E+03   -0.40499E-04   -0.13900E-03 13272   0.179E-01    0.462E-02
RMM:   2    -0.629477631690E+03   -0.18285E-03   -0.44401E-04 11873   0.722E-02    0.175E-01
RMM:   3    -0.629477496675E+03    0.13502E-03   -0.10762E-04  7770   0.448E-02    0.105E-01
RMM:   4    -0.629477450687E+03    0.45988E-04   -0.33721E-05  6348   0.256E-02    0.493E-02
RMM:   5    -0.629477439922E+03    0.10765E-04   -0.13656E-05  5797   0.178E-02    0.232E-02
RMM:   6    -0.629477440235E+03   -0.31326E-06   -0.82780E-06  4824   0.122E-02
  24 F= -.62947744E+03 E0= -.62940076E+03  d E =-.328752E-04
       N       E                     dE             d eps       ncg     rms          rms(c)
DAV:   1    -0.629477509188E+03   -0.69266E-04   -0.76956E-03 13344   0.425E-01    0.995E-02
RMM:   2    -0.629478161049E+03   -0.65186E-03   -0.21667E-03 12885   0.160E-01    0.307E-01
RMM:   3    -0.629477681777E+03    0.47927E-03   -0.49170E-04 10492   0.843E-02    0.193E-01
RMM:   4    -0.629477538478E+03    0.14330E-03   -0.17223E-04 10085   0.484E-02    0.117E-01
RMM:   5    -0.629477486929E+03    0.51549E-04   -0.67445E-05  8331   0.286E-02    0.604E-02
RMM:   6    -0.629477482928E+03    0.40008E-05   -0.33275E-05  6513   0.220E-02
  25 F= -.62947748E+03 E0= -.62940081E+03  d E =-.755681E-04
       N       E                     dE             d eps       ncg     rms          rms(c)
DAV:   1    -0.629477471339E+03    0.15590E-04   -0.13299E-03 13632   0.190E-01    0.555E-02
RMM:   2    -0.629477857539E+03   -0.38620E-03   -0.53461E-04 11147   0.823E-02    0.271E-01
RMM:   3    -0.629477494619E+03    0.36292E-03   -0.17311E-04  8166   0.552E-02    0.863E-02
RMM:   4    -0.629477477741E+03    0.16878E-04   -0.47390E-05  6862   0.274E-02    0.767E-02
RMM:   5    -0.629477454276E+03    0.23465E-04   -0.19828E-05  5993   0.204E-02    0.367E-02
RMM:   6    -0.629477451941E+03    0.23358E-05   -0.11450E-05  5720   0.144E-02
  26 F= -.62947745E+03 E0= -.62940069E+03  d E =-.445805E-04
       N       E                     dE             d eps       ncg     rms          rms(c)
DAV:   1    -0.629477453106E+03    0.11701E-05   -0.54106E-04 13104   0.109E-01    0.224E-02
RMM:   2    -0.629477491794E+03   -0.38688E-04   -0.15267E-04 10844   0.395E-02    0.670E-02
RMM:   3    -0.629477468656E+03    0.23138E-04   -0.26596E-05  6147   0.262E-02    0.585E-02
RMM:   4    -0.629477452785E+03    0.15871E-04   -0.11819E-05  5125   0.171E-02    0.143E-02
RMM:   5    -0.629477453381E+03   -0.59610E-06   -0.47103E-06  4747   0.101E-02
  27 F= -.62947745E+03 E0= -.62940073E+03  d E =-.460215E-04
       N       E                     dE             d eps       ncg     rms          rms(c)
DAV:   1    -0.629477453897E+03   -0.11114E-05   -0.95612E-05 12456   0.480E-02    0.149E-02
RMM:   2    -0.629477472897E+03   -0.19000E-04   -0.34051E-05  6949   0.206E-02    0.581E-02
RMM:   3    -0.629477455986E+03    0.16911E-04   -0.96894E-06  5233   0.180E-02    0.264E-02
RMM:   4    -0.629477452811E+03    0.31743E-05   -0.48171E-06  4737   0.907E-03
  28 F= -.62947745E+03 E0= -.62940073E+03  d E =-.454514E-04
       N       E                     dE             d eps       ncg     rms          rms(c)
DAV:   1    -0.629477452822E+03    0.31634E-05   -0.11828E-05  5712   0.219E-02    0.146E-02
RMM:   2    -0.629477528299E+03   -0.75476E-04   -0.31391E-05  6375   0.224E-02    0.131E-01
RMM:   3    -0.629477455295E+03    0.73003E-04   -0.17301E-05  6023   0.197E-02    0.181E-02
RMM:   4    -0.629477452760E+03    0.25350E-05   -0.25703E-06  4716   0.636E-03
  29 F= -.62947745E+03 E0= -.62940073E+03  d E =-.454004E-04
       N       E                     dE             d eps       ncg     rms          rms(c)
DAV:   1    -0.629477426931E+03    0.28365E-04   -0.29300E-03 11040   0.292E-01    0.296E-02
RMM:   2    -0.629477555036E+03   -0.12811E-03   -0.61345E-04 13183   0.746E-02    0.117E-01
RMM:   3    -0.629477483134E+03    0.71902E-04   -0.72688E-05  7422   0.392E-02    0.520E-02
RMM:   4    -0.629477475613E+03    0.75203E-05   -0.21099E-05  6037   0.217E-02
  30 F= -.62947748E+03 E0= -.62940077E+03  d E =-.228530E-04
       N       E                     dE             d eps       ncg     rms          rms(c)
DAV:   1    -0.629477472270E+03    0.10864E-04   -0.10914E-04 14040   0.543E-02    0.205E-02
RMM:   2    -0.629477574595E+03   -0.10232E-03   -0.66092E-05  7400   0.281E-02    0.149E-01
RMM:   3    -0.629477477615E+03    0.96979E-04   -0.26339E-05  6225   0.254E-02    0.315E-02
RMM:   4    -0.629477471190E+03    0.64252E-05   -0.57421E-06  4757   0.923E-03
  31 F= -.62947747E+03 E0= -.62940076E+03  d E =-.184296E-04
       N       E                     dE             d eps       ncg     rms          rms(c)
DAV:   1    -0.629477468854E+03    0.87615E-05   -0.21285E-04 13128   0.814E-02    0.150E-02
RMM:   2    -0.629477519112E+03   -0.50258E-04   -0.53369E-05  7091   0.267E-02    0.984E-02
RMM:   3    -0.629477472941E+03    0.46171E-04   -0.19358E-05  6090   0.248E-02    0.178E-02
RMM:   4    -0.629477471782E+03    0.11596E-05   -0.48125E-06  4726   0.849E-03
  32 F= -.62947747E+03 E0= -.62940076E+03  d E =-.190212E-04
       N       E                     dE             d eps       ncg     rms          rms(c)
DAV:   1    -0.629477506764E+03   -0.33823E-04   -0.17535E-03 13824   0.241E-01    0.579E-02
RMM:   2    -0.629477775355E+03   -0.26859E-03   -0.63947E-04 11643   0.869E-02    0.208E-01
RMM:   3    -0.629477581902E+03    0.19345E-03   -0.17016E-04  8425   0.543E-02    0.132E-01
RMM:   4    -0.629477509742E+03    0.72159E-04   -0.56850E-05  7274   0.306E-02    0.628E-02
RMM:   5    -0.629477492185E+03    0.17558E-04   -0.19954E-05  6028   0.206E-02    0.289E-02
RMM:   6    -0.629477491141E+03    0.10442E-05   -0.11590E-05  4911   0.148E-02
  33 F= -.62947749E+03 E0= -.62940077E+03  d E =-.193592E-04
