  64  64   1   0
  0.1103916E+02  0.8875921E-09  0.8940426E-09  0.8903299E-09  0.5000000E-15
  1.000000000000000E-004
  CAR 
 HEBCN                                   
     14.00000000    -50.00000000 1000      9.04998094      1.00000000
    -50.000  0.0000E+00  0.0000E+00
    -49.936  0.0000E+00  0.0000E+00
    -49.872  0.0000E+00  0.0000E+00
    -49.808  0.0000E+00  0.0000E+00
    -49.744  0.0000E+00  0.0000E+00
    -49.680  0.0000E+00  0.0000E+00
    -49.616  0.0000E+00  0.0000E+00
    -49.552  0.0000E+00  0.0000E+00
    -49.487  0.0000E+00  0.0000E+00
    -49.423  0.0000E+00  0.0000E+00
    -49.359  0.0000E+00  0.0000E+00
    -49.295  0.0000E+00  0.0000E+00
    -49.231  0.0000E+00  0.0000E+00
    -49.167  0.7820E-13  0.5010E-14
    -49.103  0.7016E-10  0.4500E-11
    -49.039  0.2809E-07  0.1804E-08
    -48.975  0.5041E-05  0.3247E-06
    -48.911  0.4072E-03  0.2641E-04
    -48.847  0.1490E-01  0.9809E-03
    -48.783  0.2492E+00  0.1695E-01
    -48.719  0.1939E+01  0.1412E+00
    -48.655  0.7343E+01  0.6116E+00
    -48.591  0.1543E+02  0.1600E+01
    -48.527  0.2376E+02  0.3122E+01
    -48.462  0.3245E+02  0.5201E+01
    -48.398  0.3639E+02  0.7532E+01
    -48.334  0.3280E+02  0.9633E+01
    -48.270  0.2379E+02  0.1116E+02
    -48.206  0.1439E+02  0.1208E+02
    -48.142  0.1186E+02  0.1284E+02
    -48.078  0.1087E+02  0.1354E+02
    -48.014  0.5667E+01  0.1390E+02
    -47.950  0.1405E+01  0.1399E+02
    -47.886  0.1611E+00  0.1400E+02
    -47.822  0.8456E-02  0.1400E+02
    -47.758  0.2020E-03  0.1400E+02
    -47.694  0.2180E-05  0.1400E+02
    -47.630  0.1058E-07  0.1400E+02
    -47.566  0.2301E-10  0.1400E+02
    -47.502  0.2080E-13  0.1400E+02
    -47.437  0.0000E+00  0.1400E+02
    -47.373  0.0000E+00  0.1400E+02
    -47.309  0.0000E+00  0.1400E+02
    -47.245  0.1924E-12  0.1400E+02
    -47.181  0.1584E-09  0.1400E+02
    -47.117  0.5843E-07  0.1400E+02
    -47.053  0.9776E-05  0.1400E+02
    -46.989  0.7507E-03  0.1400E+02
    -46.925  0.2694E-01  0.1400E+02
    -46.861  0.4638E+00  0.1403E+02
    -46.797  0.3970E+01  0.1429E+02
    -46.733  0.1759E+02  0.1541E+02
    -46.669  0.4192E+02  0.1810E+02
    -46.605  0.5552E+02  0.2166E+02
    -46.541  0.4238E+02  0.2437E+02
    -46.476  0.1933E+02  0.2561E+02
    -46.412  0.5250E+01  0.2594E+02
    -46.348  0.7947E+00  0.2600E+02
    -46.284  0.6161E-01  0.2600E+02
    -46.220  0.2299E-02  0.2600E+02
    -46.156  0.3984E-04  0.2600E+02
    -46.092  0.3146E-06  0.2600E+02
    -46.028  0.1120E-08  0.2600E+02
    -45.964  0.1788E-11  0.2600E+02
    -45.900  0.0000E+00  0.2600E+02
    -45.836  0.0000E+00  0.2600E+02
    -45.772  0.0000E+00  0.2600E+02
    -45.708  0.0000E+00  0.2600E+02
    -45.644  0.0000E+00  0.2600E+02
    -45.580  0.0000E+00  0.2600E+02
    -45.516  0.0000E+00  0.2600E+02
    -45.451  0.0000E+00  0.2600E+02
    -45.387  0.0000E+00  0.2600E+02
    -45.323  0.0000E+00  0.2600E+02
    -45.259  0.0000E+00  0.2600E+02
    -45.195  0.0000E+00  0.2600E+02
    -45.131  0.0000E+00  0.2600E+02
    -45.067  0.0000E+00  0.2600E+02
    -45.003  0.0000E+00  0.2600E+02
    -44.939  0.0000E+00  0.2600E+02
    -44.875  0.0000E+00  0.2600E+02
    -44.811  0.0000E+00  0.2600E+02
    -44.747  0.0000E+00  0.2600E+02
    -44.683  0.0000E+00  0.2600E+02
    -44.619  0.0000E+00  0.2600E+02
    -44.555  0.0000E+00  0.2600E+02
    -44.490  0.0000E+00  0.2600E+02
    -44.426  0.0000E+00  0.2600E+02
    -44.362  0.0000E+00  0.2600E+02
    -44.298  0.0000E+00  0.2600E+02
    -44.234  0.0000E+00  0.2600E+02
    -44.170  0.0000E+00  0.2600E+02
    -44.106  0.0000E+00  0.2600E+02
    -44.042  0.0000E+00  0.2600E+02
    -43.978  0.0000E+00  0.2600E+02
    -43.914  0.0000E+00  0.2600E+02
    -43.850  0.0000E+00  0.2600E+02
    -43.786  0.0000E+00  0.2600E+02
    -43.722  0.0000E+00  0.2600E+02
    -43.658  0.0000E+00  0.2600E+02
    -43.594  0.0000E+00  0.2600E+02
    -43.530  0.0000E+00  0.2600E+02
    -43.465  0.0000E+00  0.2600E+02
    -43.401  0.0000E+00  0.2600E+02
    -43.337  0.0000E+00  0.2600E+02
    -43.273  0.0000E+00  0.2600E+02
    -43.209  0.0000E+00  0.2600E+02
    -43.145  0.0000E+00  0.2600E+02
    -43.081  0.0000E+00  0.2600E+02
    -43.017  0.0000E+00  0.2600E+02
    -42.953  0.0000E+00  0.2600E+02
    -42.889  0.0000E+00  0.2600E+02
    -42.825  0.0000E+00  0.2600E+02
    -42.761  0.0000E+00  0.2600E+02
    -42.697  0.0000E+00  0.2600E+02
    -42.633  0.0000E+00  0.2600E+02
    -42.569  0.0000E+00  0.2600E+02
    -42.505  0.0000E+00  0.2600E+02
    -42.440  0.0000E+00  0.2600E+02
    -42.376  0.0000E+00  0.2600E+02
    -42.312  0.0000E+00  0.2600E+02
    -42.248  0.0000E+00  0.2600E+02
    -42.184  0.0000E+00  0.2600E+02
    -42.120  0.0000E+00  0.2600E+02
    -42.056  0.0000E+00  0.2600E+02
    -41.992  0.0000E+00  0.2600E+02
    -41.928  0.0000E+00  0.2600E+02
    -41.864  0.0000E+00  0.2600E+02
    -41.800  0.0000E+00  0.2600E+02
    -41.736  0.0000E+00  0.2600E+02
    -41.672  0.0000E+00  0.2600E+02
    -41.608  0.0000E+00  0.2600E+02
    -41.544  0.0000E+00  0.2600E+02
    -41.479  0.0000E+00  0.2600E+02
    -41.415  0.0000E+00  0.2600E+02
    -41.351  0.0000E+00  0.2600E+02
    -41.287  0.0000E+00  0.2600E+02
    -41.223  0.0000E+00  0.2600E+02
    -41.159  0.0000E+00  0.2600E+02
    -41.095  0.0000E+00  0.2600E+02
    -41.031  0.0000E+00  0.2600E+02
    -40.967  0.0000E+00  0.2600E+02
    -40.903  0.0000E+00  0.2600E+02
    -40.839  0.0000E+00  0.2600E+02
    -40.775  0.0000E+00  0.2600E+02
    -40.711  0.0000E+00  0.2600E+02
    -40.647  0.0000E+00  0.2600E+02
    -40.583  0.0000E+00  0.2600E+02
    -40.519  0.0000E+00  0.2600E+02
    -40.454  0.0000E+00  0.2600E+02
    -40.390  0.0000E+00  0.2600E+02
    -40.326  0.0000E+00  0.2600E+02
    -40.262  0.0000E+00  0.2600E+02
    -40.198  0.0000E+00  0.2600E+02
    -40.134  0.0000E+00  0.2600E+02
    -40.070  0.0000E+00  0.2600E+02
    -40.006  0.0000E+00  0.2600E+02
    -39.942  0.0000E+00  0.2600E+02
    -39.878  0.0000E+00  0.2600E+02
    -39.814  0.0000E+00  0.2600E+02
    -39.750  0.0000E+00  0.2600E+02
    -39.686  0.0000E+00  0.2600E+02
    -39.622  0.0000E+00  0.2600E+02
    -39.558  0.0000E+00  0.2600E+02
    -39.493  0.0000E+00  0.2600E+02
    -39.429  0.0000E+00  0.2600E+02
    -39.365  0.0000E+00  0.2600E+02
    -39.301  0.0000E+00  0.2600E+02
    -39.237  0.0000E+00  0.2600E+02
    -39.173  0.0000E+00  0.2600E+02
    -39.109  0.0000E+00  0.2600E+02
    -39.045  0.0000E+00  0.2600E+02
    -38.981  0.0000E+00  0.2600E+02
    -38.917  0.0000E+00  0.2600E+02
    -38.853  0.0000E+00  0.2600E+02
    -38.789  0.0000E+00  0.2600E+02
    -38.725  0.0000E+00  0.2600E+02
    -38.661  0.0000E+00  0.2600E+02
    -38.597  0.0000E+00  0.2600E+02
    -38.533  0.0000E+00  0.2600E+02
    -38.468  0.0000E+00  0.2600E+02
    -38.404  0.0000E+00  0.2600E+02
    -38.340  0.0000E+00  0.2600E+02
    -38.276  0.0000E+00  0.2600E+02
    -38.212  0.0000E+00  0.2600E+02
    -38.148  0.0000E+00  0.2600E+02
    -38.084  0.0000E+00  0.2600E+02
    -38.020  0.0000E+00  0.2600E+02
    -37.956  0.0000E+00  0.2600E+02
    -37.892  0.0000E+00  0.2600E+02
    -37.828  0.0000E+00  0.2600E+02
    -37.764  0.0000E+00  0.2600E+02
    -37.700  0.0000E+00  0.2600E+02
    -37.636  0.0000E+00  0.2600E+02
    -37.572  0.0000E+00  0.2600E+02
    -37.508  0.0000E+00  0.2600E+02
    -37.443  0.0000E+00  0.2600E+02
    -37.379  0.0000E+00  0.2600E+02
    -37.315  0.0000E+00  0.2600E+02
    -37.251  0.0000E+00  0.2600E+02
    -37.187  0.0000E+00  0.2600E+02
    -37.123  0.0000E+00  0.2600E+02
    -37.059  0.0000E+00  0.2600E+02
    -36.995  0.0000E+00  0.2600E+02
    -36.931  0.0000E+00  0.2600E+02
    -36.867  0.0000E+00  0.2600E+02
    -36.803  0.0000E+00  0.2600E+02
    -36.739  0.0000E+00  0.2600E+02
    -36.675  0.0000E+00  0.2600E+02
    -36.611  0.0000E+00  0.2600E+02
    -36.547  0.0000E+00  0.2600E+02
    -36.482  0.0000E+00  0.2600E+02
    -36.418  0.0000E+00  0.2600E+02
    -36.354  0.0000E+00  0.2600E+02
    -36.290  0.0000E+00  0.2600E+02
    -36.226  0.0000E+00  0.2600E+02
    -36.162  0.0000E+00  0.2600E+02
    -36.098  0.0000E+00  0.2600E+02
    -36.034  0.0000E+00  0.2600E+02
    -35.970  0.0000E+00  0.2600E+02
    -35.906  0.0000E+00  0.2600E+02
    -35.842  0.0000E+00  0.2600E+02
    -35.778  0.0000E+00  0.2600E+02
    -35.714  0.0000E+00  0.2600E+02
    -35.650  0.0000E+00  0.2600E+02
    -35.586  0.0000E+00  0.2600E+02
    -35.522  0.0000E+00  0.2600E+02
    -35.457  0.0000E+00  0.2600E+02
    -35.393  0.0000E+00  0.2600E+02
    -35.329  0.0000E+00  0.2600E+02
    -35.265  0.0000E+00  0.2600E+02
    -35.201  0.0000E+00  0.2600E+02
    -35.137  0.0000E+00  0.2600E+02
    -35.073  0.0000E+00  0.2600E+02
    -35.009  0.0000E+00  0.2600E+02
    -34.945  0.0000E+00  0.2600E+02
    -34.881  0.0000E+00  0.2600E+02
    -34.817  0.0000E+00  0.2600E+02
    -34.753  0.0000E+00  0.2600E+02
    -34.689  0.0000E+00  0.2600E+02
    -34.625  0.0000E+00  0.2600E+02
    -34.561  0.0000E+00  0.2600E+02
    -34.496  0.0000E+00  0.2600E+02
    -34.432  0.0000E+00  0.2600E+02
    -34.368  0.0000E+00  0.2600E+02
    -34.304  0.0000E+00  0.2600E+02
    -34.240  0.0000E+00  0.2600E+02
    -34.176  0.0000E+00  0.2600E+02
    -34.112  0.0000E+00  0.2600E+02
    -34.048  0.0000E+00  0.2600E+02
    -33.984  0.0000E+00  0.2600E+02
    -33.920  0.0000E+00  0.2600E+02
    -33.856  0.0000E+00  0.2600E+02
    -33.792  0.0000E+00  0.2600E+02
    -33.728  0.0000E+00  0.2600E+02
    -33.664  0.0000E+00  0.2600E+02
    -33.600  0.0000E+00  0.2600E+02
    -33.536  0.0000E+00  0.2600E+02
    -33.471  0.0000E+00  0.2600E+02
    -33.407  0.0000E+00  0.2600E+02
    -33.343  0.0000E+00  0.2600E+02
    -33.279  0.0000E+00  0.2600E+02
    -33.215  0.0000E+00  0.2600E+02
    -33.151  0.0000E+00  0.2600E+02
    -33.087  0.0000E+00  0.2600E+02
    -33.023  0.0000E+00  0.2600E+02
    -32.959  0.0000E+00  0.2600E+02
    -32.895  0.0000E+00  0.2600E+02
    -32.831  0.0000E+00  0.2600E+02
    -32.767  0.0000E+00  0.2600E+02
    -32.703  0.0000E+00  0.2600E+02
    -32.639  0.0000E+00  0.2600E+02
    -32.575  0.0000E+00  0.2600E+02
    -32.511  0.0000E+00  0.2600E+02
    -32.446  0.0000E+00  0.2600E+02
    -32.382  0.0000E+00  0.2600E+02
    -32.318  0.0000E+00  0.2600E+02
    -32.254  0.0000E+00  0.2600E+02
    -32.190  0.0000E+00  0.2600E+02
    -32.126  0.0000E+00  0.2600E+02
    -32.062  0.0000E+00  0.2600E+02
    -31.998  0.0000E+00  0.2600E+02
    -31.934  0.0000E+00  0.2600E+02
    -31.870  0.0000E+00  0.2600E+02
    -31.806  0.0000E+00  0.2600E+02
    -31.742  0.0000E+00  0.2600E+02
    -31.678  0.0000E+00  0.2600E+02
    -31.614  0.0000E+00  0.2600E+02
    -31.550  0.0000E+00  0.2600E+02
    -31.485  0.0000E+00  0.2600E+02
    -31.421  0.0000E+00  0.2600E+02
    -31.357  0.0000E+00  0.2600E+02
    -31.293  0.0000E+00  0.2600E+02
    -31.229  0.1083E-13  0.2600E+02
    -31.165  0.1179E-10  0.2600E+02
    -31.101  0.5889E-08  0.2600E+02
    -31.037  0.1318E-05  0.2600E+02
    -30.973  0.1328E-03  0.2600E+02
    -30.909  0.6078E-02  0.2600E+02
    -30.845  0.1278E+00  0.2601E+02
    -30.781  0.1262E+01  0.2609E+02
    -30.717  0.6082E+01  0.2648E+02
    -30.653  0.1550E+02  0.2747E+02
    -30.589  0.2508E+02  0.2908E+02
    -30.525  0.3526E+02  0.3134E+02
    -30.460  0.4834E+02  0.3444E+02
    -30.396  0.5405E+02  0.3790E+02
    -30.332  0.4810E+02  0.4098E+02
    -30.268  0.4518E+02  0.4387E+02
    -30.204  0.6119E+02  0.4779E+02
    -30.140  0.8465E+02  0.5322E+02
    -30.076  0.7941E+02  0.5830E+02
    -30.012  0.4302E+02  0.6106E+02
    -29.948  0.1260E+02  0.6187E+02
    -29.884  0.1923E+01  0.6199E+02
    -29.820  0.1490E+00  0.6200E+02
    -29.756  0.5700E-02  0.6200E+02
    -29.692  0.1049E-03  0.6200E+02
    -29.628  0.9063E-06  0.6200E+02
    -29.564  0.3610E-08  0.6200E+02
    -29.499  0.6535E-11  0.6200E+02
    -29.435  0.6932E-14  0.6200E+02
    -29.371  0.0000E+00  0.6200E+02
    -29.307  0.0000E+00  0.6200E+02
    -29.243  0.0000E+00  0.6200E+02
    -29.179  0.0000E+00  0.6200E+02
    -29.115  0.0000E+00  0.6200E+02
    -29.051  0.0000E+00  0.6200E+02
    -28.987  0.0000E+00  0.6200E+02
    -28.923  0.0000E+00  0.6200E+02
    -28.859  0.0000E+00  0.6200E+02
    -28.795  0.0000E+00  0.6200E+02
    -28.731  0.0000E+00  0.6200E+02
    -28.667  0.0000E+00  0.6200E+02
    -28.603  0.0000E+00  0.6200E+02
    -28.539  0.0000E+00  0.6200E+02
    -28.474  0.0000E+00  0.6200E+02
    -28.410  0.0000E+00  0.6200E+02
    -28.346  0.0000E+00  0.6200E+02
    -28.282  0.0000E+00  0.6200E+02
    -28.218  0.0000E+00  0.6200E+02
    -28.154  0.0000E+00  0.6200E+02
    -28.090  0.0000E+00  0.6200E+02
    -28.026  0.0000E+00  0.6200E+02
    -27.962  0.0000E+00  0.6200E+02
    -27.898  0.0000E+00  0.6200E+02
    -27.834  0.0000E+00  0.6200E+02
    -27.770  0.0000E+00  0.6200E+02
    -27.706  0.0000E+00  0.6200E+02
    -27.642  0.0000E+00  0.6200E+02
    -27.578  0.0000E+00  0.6200E+02
    -27.514  0.0000E+00  0.6200E+02
    -27.449  0.0000E+00  0.6200E+02
    -27.385  0.0000E+00  0.6200E+02
    -27.321  0.0000E+00  0.6200E+02
    -27.257  0.0000E+00  0.6200E+02
    -27.193  0.0000E+00  0.6200E+02
    -27.129  0.1733E-13  0.6200E+02
    -27.065  0.1865E-10  0.6200E+02
    -27.001  0.8830E-08  0.6200E+02
    -26.937  0.1877E-05  0.6200E+02
    -26.873  0.1802E-03  0.6200E+02
    -26.809  0.7899E-02  0.6200E+02
    -26.745  0.1604E+00  0.6201E+02
    -26.681  0.1545E+01  0.6211E+02
    -26.617  0.7343E+01  0.6258E+02
    -26.553  0.1861E+02  0.6377E+02
    -26.488  0.3007E+02  0.6570E+02
    -26.424  0.4286E+02  0.6844E+02
    -26.360  0.6303E+02  0.7248E+02
    -26.296  0.8196E+02  0.7773E+02
    -26.232  0.8429E+02  0.8313E+02
    -26.168  0.6660E+02  0.8740E+02
    -26.104  0.4214E+02  0.9010E+02
    -26.040  0.2559E+02  0.9174E+02
    -25.976  0.2420E+02  0.9329E+02
    -25.912  0.3133E+02  0.9530E+02
    -25.848  0.2685E+02  0.9702E+02
    -25.784  0.1218E+02  0.9780E+02
    -25.720  0.2820E+01  0.9798E+02
    -25.656  0.3259E+00  0.9800E+02
    -25.592  0.1829E-01  0.9800E+02
    -25.528  0.4855E-03  0.9800E+02
    -25.463  0.6380E-05  0.9800E+02
    -25.399  0.4977E-04  0.9800E+02
    -25.335  0.2716E-02  0.9800E+02
    -25.271  0.6793E-01  0.9800E+02
    -25.207  0.7953E+00  0.9806E+02
    -25.143  0.4586E+01  0.9835E+02
    -25.079  0.1457E+02  0.9928E+02
    -25.015  0.3081E+02  0.1013E+03
    -24.951  0.5179E+02  0.1046E+03
    -24.887  0.7569E+02  0.1094E+03
    -24.823  0.9754E+02  0.1157E+03
    -24.759  0.1030E+03  0.1223E+03
    -24.695  0.8519E+02  0.1277E+03
    -24.631  0.5977E+02  0.1316E+03
    -24.567  0.4275E+02  0.1343E+03
    -24.503  0.3687E+02  0.1367E+03
    -24.438  0.3065E+02  0.1386E+03
    -24.374  0.1628E+02  0.1397E+03
    -24.310  0.4521E+01  0.1400E+03
    -24.246  0.6108E+00  0.1400E+03
    -24.182  0.3890E-01  0.1400E+03
    -24.118  0.1147E-02  0.1400E+03
    -24.054  0.1548E-04  0.1400E+03
    -23.990  0.9476E-07  0.1400E+03
    -23.926  0.2618E-09  0.1400E+03
    -23.862  0.3249E-12  0.1400E+03
    -23.798  0.0000E+00  0.1400E+03
    -23.734  0.0000E+00  0.1400E+03
    -23.670  0.0000E+00  0.1400E+03
    -23.606  0.1787E-12  0.1400E+03
    -23.542  0.1463E-09  0.1400E+03
    -23.477  0.5371E-07  0.1400E+03
    -23.413  0.8891E-05  0.1400E+03
    -23.349  0.6698E-03  0.1400E+03
    -23.285  0.2327E-01  0.1400E+03
    -23.221  0.3810E+00  0.1400E+03
    -23.157  0.3037E+01  0.1402E+03
    -23.093  0.1248E+02  0.1410E+03
    -23.029  0.2940E+02  0.1429E+03
    -22.965  0.4794E+02  0.1460E+03
    -22.901  0.6507E+02  0.1501E+03
    -22.837  0.7465E+02  0.1549E+03
    -22.773  0.7465E+02  0.1597E+03
    -22.709  0.7439E+02  0.1645E+03
    -22.645  0.7140E+02  0.1690E+03
    -22.581  0.5745E+02  0.1727E+03
    -22.517  0.3435E+02  0.1749E+03
    -22.452  0.1358E+02  0.1758E+03
    -22.388  0.4730E+01  0.1761E+03
    -22.324  0.8061E+01  0.1766E+03
    -22.260  0.1880E+02  0.1778E+03
    -22.196  0.3035E+02  0.1798E+03
    -22.132  0.4047E+02  0.1824E+03
    -22.068  0.4642E+02  0.1853E+03
    -22.004  0.4643E+02  0.1883E+03
    -21.940  0.4282E+02  0.1911E+03
    -21.876  0.3024E+02  0.1930E+03
    -21.812  0.1365E+02  0.1939E+03
    -21.748  0.8893E+01  0.1944E+03
    -21.684  0.2078E+02  0.1958E+03
    -21.620  0.4049E+02  0.1984E+03
    -21.556  0.5694E+02  0.2020E+03
    -21.491  0.6568E+02  0.2062E+03
    -21.427  0.5505E+02  0.2097E+03
    -21.363  0.2724E+02  0.2115E+03
    -21.299  0.7237E+01  0.2119E+03
    -21.235  0.2681E+01  0.2121E+03
    -21.171  0.9319E+01  0.2127E+03
    -21.107  0.2397E+02  0.2143E+03
    -21.043  0.3097E+02  0.2162E+03
    -20.979  0.2001E+02  0.2175E+03
    -20.915  0.6418E+01  0.2179E+03
    -20.851  0.1007E+01  0.2180E+03
    -20.787  0.7593E-01  0.2180E+03
    -20.723  0.2703E-02  0.2180E+03
    -20.659  0.4471E-04  0.2180E+03
    -20.595  0.3395E-06  0.2180E+03
    -20.531  0.1171E-08  0.2180E+03
    -20.466  0.1826E-11  0.2180E+03
    -20.402  0.0000E+00  0.2180E+03
    -20.338  0.0000E+00  0.2180E+03
    -20.274  0.0000E+00  0.2180E+03
    -20.210  0.0000E+00  0.2180E+03
    -20.146  0.0000E+00  0.2180E+03
    -20.082  0.0000E+00  0.2180E+03
    -20.018  0.0000E+00  0.2180E+03
    -19.954  0.0000E+00  0.2180E+03
    -19.890  0.0000E+00  0.2180E+03
    -19.826  0.0000E+00  0.2180E+03
    -19.762  0.0000E+00  0.2180E+03
    -19.698  0.0000E+00  0.2180E+03
    -19.634  0.0000E+00  0.2180E+03
    -19.570  0.0000E+00  0.2180E+03
    -19.506  0.0000E+00  0.2180E+03
    -19.441  0.0000E+00  0.2180E+03
    -19.377  0.0000E+00  0.2180E+03
    -19.313  0.0000E+00  0.2180E+03
    -19.249  0.0000E+00  0.2180E+03
    -19.185  0.0000E+00  0.2180E+03
    -19.121  0.0000E+00  0.2180E+03
    -19.057  0.0000E+00  0.2180E+03
    -18.993  0.0000E+00  0.2180E+03
    -18.929  0.0000E+00  0.2180E+03
    -18.865  0.0000E+00  0.2180E+03
    -18.801  0.0000E+00  0.2180E+03
    -18.737  0.0000E+00  0.2180E+03
    -18.673  0.0000E+00  0.2180E+03
    -18.609  0.0000E+00  0.2180E+03
    -18.545  0.0000E+00  0.2180E+03
    -18.480  0.0000E+00  0.2180E+03
    -18.416  0.0000E+00  0.2180E+03
    -18.352  0.0000E+00  0.2180E+03
    -18.288  0.0000E+00  0.2180E+03
    -18.224  0.0000E+00  0.2180E+03
    -18.160  0.0000E+00  0.2180E+03
    -18.096  0.0000E+00  0.2180E+03
    -18.032  0.0000E+00  0.2180E+03
    -17.968  0.0000E+00  0.2180E+03
    -17.904  0.0000E+00  0.2180E+03
    -17.840  0.0000E+00  0.2180E+03
    -17.776  0.0000E+00  0.2180E+03
    -17.712  0.0000E+00  0.2180E+03
    -17.648  0.0000E+00  0.2180E+03
    -17.584  0.0000E+00  0.2180E+03
    -17.520  0.0000E+00  0.2180E+03
    -17.455  0.0000E+00  0.2180E+03
    -17.391  0.0000E+00  0.2180E+03
    -17.327  0.0000E+00  0.2180E+03
    -17.263  0.0000E+00  0.2180E+03
    -17.199  0.0000E+00  0.2180E+03
    -17.135  0.0000E+00  0.2180E+03
    -17.071  0.0000E+00  0.2180E+03
    -17.007  0.0000E+00  0.2180E+03
    -16.943  0.0000E+00  0.2180E+03
    -16.879  0.0000E+00  0.2180E+03
    -16.815  0.0000E+00  0.2180E+03
    -16.751  0.0000E+00  0.2180E+03
    -16.687  0.0000E+00  0.2180E+03
    -16.623  0.0000E+00  0.2180E+03
    -16.559  0.0000E+00  0.2180E+03
    -16.494  0.0000E+00  0.2180E+03
    -16.430  0.0000E+00  0.2180E+03
    -16.366  0.0000E+00  0.2180E+03
    -16.302  0.0000E+00  0.2180E+03
    -16.238  0.0000E+00  0.2180E+03
    -16.174  0.0000E+00  0.2180E+03
    -16.110  0.0000E+00  0.2180E+03
    -16.046  0.0000E+00  0.2180E+03
    -15.982  0.0000E+00  0.2180E+03
    -15.918  0.0000E+00  0.2180E+03
    -15.854  0.0000E+00  0.2180E+03
    -15.790  0.0000E+00  0.2180E+03
    -15.726  0.0000E+00  0.2180E+03
    -15.662  0.0000E+00  0.2180E+03
    -15.598  0.0000E+00  0.2180E+03
    -15.534  0.0000E+00  0.2180E+03
    -15.469  0.0000E+00  0.2180E+03
    -15.405  0.0000E+00  0.2180E+03
    -15.341  0.0000E+00  0.2180E+03
    -15.277  0.0000E+00  0.2180E+03
    -15.213  0.0000E+00  0.2180E+03
    -15.149  0.0000E+00  0.2180E+03
    -15.085  0.0000E+00  0.2180E+03
    -15.021  0.0000E+00  0.2180E+03
    -14.957  0.0000E+00  0.2180E+03
    -14.893  0.0000E+00  0.2180E+03
    -14.829  0.0000E+00  0.2180E+03
    -14.765  0.0000E+00  0.2180E+03
    -14.701  0.0000E+00  0.2180E+03
    -14.637  0.0000E+00  0.2180E+03
    -14.573  0.0000E+00  0.2180E+03
    -14.509  0.0000E+00  0.2180E+03
    -14.444  0.0000E+00  0.2180E+03
    -14.380  0.0000E+00  0.2180E+03
    -14.316  0.0000E+00  0.2180E+03
    -14.252  0.0000E+00  0.2180E+03
    -14.188  0.0000E+00  0.2180E+03
    -14.124  0.0000E+00  0.2180E+03
    -14.060  0.0000E+00  0.2180E+03
    -13.996  0.0000E+00  0.2180E+03
    -13.932  0.0000E+00  0.2180E+03
    -13.868  0.0000E+00  0.2180E+03
    -13.804  0.0000E+00  0.2180E+03
    -13.740  0.0000E+00  0.2180E+03
    -13.676  0.0000E+00  0.2180E+03
    -13.612  0.0000E+00  0.2180E+03
    -13.548  0.0000E+00  0.2180E+03
    -13.483  0.0000E+00  0.2180E+03
    -13.419  0.0000E+00  0.2180E+03
    -13.355  0.0000E+00  0.2180E+03
    -13.291  0.0000E+00  0.2180E+03
    -13.227  0.0000E+00  0.2180E+03
    -13.163  0.0000E+00  0.2180E+03
    -13.099  0.0000E+00  0.2180E+03
    -13.035  0.0000E+00  0.2180E+03
    -12.971  0.0000E+00  0.2180E+03
    -12.907  0.0000E+00  0.2180E+03
    -12.843  0.0000E+00  0.2180E+03
    -12.779  0.0000E+00  0.2180E+03
    -12.715  0.0000E+00  0.2180E+03
    -12.651  0.0000E+00  0.2180E+03
    -12.587  0.0000E+00  0.2180E+03
    -12.523  0.0000E+00  0.2180E+03
    -12.458  0.0000E+00  0.2180E+03
    -12.394  0.0000E+00  0.2180E+03
    -12.330  0.0000E+00  0.2180E+03
    -12.266  0.0000E+00  0.2180E+03
    -12.202  0.0000E+00  0.2180E+03
    -12.138  0.0000E+00  0.2180E+03
    -12.074  0.0000E+00  0.2180E+03
    -12.010  0.0000E+00  0.2180E+03
    -11.946  0.0000E+00  0.2180E+03
    -11.882  0.0000E+00  0.2180E+03
    -11.818  0.0000E+00  0.2180E+03
    -11.754  0.0000E+00  0.2180E+03
    -11.690  0.0000E+00  0.2180E+03
    -11.626  0.0000E+00  0.2180E+03
    -11.562  0.0000E+00  0.2180E+03
    -11.497  0.0000E+00  0.2180E+03
    -11.433  0.0000E+00  0.2180E+03
    -11.369  0.0000E+00  0.2180E+03
    -11.305  0.0000E+00  0.2180E+03
    -11.241  0.0000E+00  0.2180E+03
    -11.177  0.0000E+00  0.2180E+03
    -11.113  0.0000E+00  0.2180E+03
    -11.049  0.0000E+00  0.2180E+03
    -10.985  0.0000E+00  0.2180E+03
    -10.921  0.0000E+00  0.2180E+03
    -10.857  0.0000E+00  0.2180E+03
    -10.793  0.0000E+00  0.2180E+03
    -10.729  0.0000E+00  0.2180E+03
    -10.665  0.0000E+00  0.2180E+03
    -10.601  0.0000E+00  0.2180E+03
    -10.537  0.0000E+00  0.2180E+03
    -10.472  0.0000E+00  0.2180E+03
    -10.408  0.0000E+00  0.2180E+03
    -10.344  0.0000E+00  0.2180E+03
    -10.280  0.0000E+00  0.2180E+03
    -10.216  0.0000E+00  0.2180E+03
    -10.152  0.0000E+00  0.2180E+03
    -10.088  0.0000E+00  0.2180E+03
    -10.024  0.0000E+00  0.2180E+03
     -9.960  0.0000E+00  0.2180E+03
     -9.896  0.0000E+00  0.2180E+03
     -9.832  0.0000E+00  0.2180E+03
     -9.768  0.0000E+00  0.2180E+03
     -9.704  0.0000E+00  0.2180E+03
     -9.640  0.0000E+00  0.2180E+03
     -9.576  0.0000E+00  0.2180E+03
     -9.512  0.0000E+00  0.2180E+03
     -9.447  0.0000E+00  0.2180E+03
     -9.383  0.0000E+00  0.2180E+03
     -9.319  0.0000E+00  0.2180E+03
     -9.255  0.0000E+00  0.2180E+03
     -9.191  0.0000E+00  0.2180E+03
     -9.127  0.0000E+00  0.2180E+03
     -9.063  0.0000E+00  0.2180E+03
     -8.999  0.0000E+00  0.2180E+03
     -8.935  0.0000E+00  0.2180E+03
     -8.871  0.0000E+00  0.2180E+03
     -8.807  0.0000E+00  0.2180E+03
     -8.743  0.0000E+00  0.2180E+03
     -8.679  0.0000E+00  0.2180E+03
     -8.615  0.0000E+00  0.2180E+03
     -8.551  0.0000E+00  0.2180E+03
     -8.486  0.0000E+00  0.2180E+03
     -8.422  0.0000E+00  0.2180E+03
     -8.358  0.4787E-13  0.2180E+03
     -8.294  0.3645E-10  0.2180E+03
     -8.230  0.1247E-07  0.2180E+03
     -8.166  0.1929E-05  0.2180E+03
     -8.102  0.1361E-03  0.2180E+03
     -8.038  0.4424E-02  0.2180E+03
     -7.974  0.6704E-01  0.2180E+03
     -7.910  0.4817E+00  0.2180E+03
     -7.846  0.1700E+01  0.2181E+03
     -7.782  0.3283E+01  0.2184E+03
     -7.718  0.4579E+01  0.2186E+03
     -7.654  0.5728E+01  0.2190E+03
     -7.590  0.5558E+01  0.2194E+03
     -7.526  0.4393E+01  0.2197E+03
     -7.461  0.3639E+01  0.2199E+03
     -7.397  0.3839E+01  0.2201E+03
     -7.333  0.6709E+01  0.2206E+03
     -7.269  0.9936E+01  0.2212E+03
     -7.205  0.8333E+01  0.2217E+03
     -7.141  0.4249E+01  0.2220E+03
     -7.077  0.3689E+01  0.2222E+03
     -7.013  0.6928E+01  0.2227E+03
     -6.949  0.9976E+01  0.2233E+03
     -6.885  0.9893E+01  0.2240E+03
     -6.821  0.1017E+02  0.2246E+03
     -6.757  0.1339E+02  0.2255E+03
     -6.693  0.1522E+02  0.2264E+03
     -6.629  0.1342E+02  0.2273E+03
     -6.565  0.1136E+02  0.2280E+03
     -6.501  0.1343E+02  0.2289E+03
     -6.436  0.1773E+02  0.2300E+03
     -6.372  0.1883E+02  0.2312E+03
     -6.308  0.1889E+02  0.2324E+03
     -6.244  0.2150E+02  0.2338E+03
     -6.180  0.2459E+02  0.2354E+03
     -6.116  0.2685E+02  0.2371E+03
     -6.052  0.2791E+02  0.2389E+03
     -5.988  0.2725E+02  0.2406E+03
     -5.924  0.2542E+02  0.2423E+03
     -5.860  0.1788E+02  0.2434E+03
     -5.796  0.7305E+01  0.2439E+03
     -5.732  0.1537E+01  0.2440E+03
     -5.668  0.1579E+00  0.2440E+03
     -5.604  0.7689E-02  0.2440E+03
     -5.540  0.1741E-03  0.2440E+03
     -5.475  0.1808E-05  0.2440E+03
     -5.411  0.8531E-08  0.2440E+03
     -5.347  0.1816E-10  0.2440E+03
     -5.283  0.1733E-13  0.2440E+03
     -5.219  0.0000E+00  0.2440E+03
     -5.155  0.0000E+00  0.2440E+03
     -5.091  0.0000E+00  0.2440E+03
     -5.027  0.0000E+00  0.2440E+03
     -4.963  0.0000E+00  0.2440E+03
     -4.899  0.0000E+00  0.2440E+03
     -4.835  0.0000E+00  0.2440E+03
     -4.771  0.0000E+00  0.2440E+03
     -4.707  0.0000E+00  0.2440E+03
     -4.643  0.0000E+00  0.2440E+03
     -4.579  0.0000E+00  0.2440E+03
     -4.515  0.0000E+00  0.2440E+03
     -4.450  0.3466E-14  0.2440E+03
     -4.386  0.3530E-11  0.2440E+03
     -4.322  0.1586E-08  0.2440E+03
     -4.258  0.3196E-06  0.2440E+03
     -4.194  0.2908E-04  0.2440E+03
     -4.130  0.1205E-02  0.2440E+03
     -4.066  0.2310E-01  0.2440E+03
     -4.002  0.2095E+00  0.2440E+03
     -3.938  0.9374E+00  0.2441E+03
     -3.874  0.2251E+01  0.2442E+03
     -3.810  0.3548E+01  0.2444E+03
     -3.746  0.4965E+01  0.2448E+03
     -3.682  0.6350E+01  0.2452E+03
     -3.618  0.6430E+01  0.2456E+03
     -3.554  0.5878E+01  0.2460E+03
     -3.489  0.6057E+01  0.2463E+03
     -3.425  0.6007E+01  0.2467E+03
     -3.361  0.5250E+01  0.2471E+03
     -3.297  0.5409E+01  0.2474E+03
     -3.233  0.7290E+01  0.2479E+03
     -3.169  0.1032E+02  0.2485E+03
     -3.105  0.1177E+02  0.2493E+03
     -3.041  0.1008E+02  0.2499E+03
     -2.977  0.1016E+02  0.2506E+03
     -2.913  0.1497E+02  0.2516E+03
     -2.849  0.1923E+02  0.2528E+03
     -2.785  0.2066E+02  0.2541E+03
     -2.721  0.2256E+02  0.2556E+03
     -2.657  0.2472E+02  0.2571E+03
     -2.593  0.2485E+02  0.2587E+03
     -2.529  0.2300E+02  0.2602E+03
     -2.464  0.2216E+02  0.2616E+03
     -2.400  0.2257E+02  0.2631E+03
     -2.336  0.2190E+02  0.2645E+03
     -2.272  0.2201E+02  0.2659E+03
     -2.208  0.2352E+02  0.2674E+03
     -2.144  0.2491E+02  0.2690E+03
     -2.080  0.2526E+02  0.2706E+03
     -2.016  0.2165E+02  0.2720E+03
     -1.952  0.1640E+02  0.2730E+03
     -1.888  0.1491E+02  0.2740E+03
     -1.824  0.1526E+02  0.2750E+03
     -1.760  0.1601E+02  0.2760E+03
     -1.696  0.1630E+02  0.2770E+03
     -1.632  0.1427E+02  0.2780E+03
     -1.568  0.1280E+02  0.2788E+03
     -1.504  0.1364E+02  0.2797E+03
     -1.439  0.1349E+02  0.2805E+03
     -1.375  0.9962E+01  0.2812E+03
     -1.311  0.5548E+01  0.2815E+03
     -1.247  0.3112E+01  0.2817E+03
     -1.183  0.2275E+01  0.2819E+03
     -1.119  0.1524E+01  0.2820E+03
     -1.055  0.6262E+00  0.2820E+03
     -0.991  0.1311E+00  0.2820E+03
     -0.927  0.1302E-01  0.2820E+03
     -0.863  0.5969E-03  0.2820E+03
     -0.799  0.1246E-04  0.2820E+03
     -0.735  0.1176E-06  0.2820E+03
     -0.671  0.4989E-09  0.2820E+03
     -0.607  0.9471E-12  0.2820E+03
     -0.543  0.8665E-15  0.2820E+03
     -0.478  0.0000E+00  0.2820E+03
     -0.414  0.0000E+00  0.2820E+03
     -0.350  0.0000E+00  0.2820E+03
     -0.286  0.0000E+00  0.2820E+03
     -0.222  0.0000E+00  0.2820E+03
     -0.158  0.0000E+00  0.2820E+03
     -0.094  0.0000E+00  0.2820E+03
     -0.030  0.0000E+00  0.2820E+03
      0.034  0.1126E-13  0.2820E+03
      0.098  0.9982E-11  0.2820E+03
      0.162  0.3950E-08  0.2820E+03
      0.226  0.7029E-06  0.2820E+03
      0.290  0.5667E-04  0.2820E+03
      0.354  0.2093E-02  0.2820E+03
      0.418  0.3598E-01  0.2820E+03
      0.482  0.2943E+00  0.2820E+03
      0.547  0.1184E+01  0.2821E+03
      0.611  0.2477E+01  0.2823E+03
      0.675  0.3087E+01  0.2825E+03
      0.739  0.3180E+01  0.2827E+03
      0.803  0.3821E+01  0.2829E+03
      0.867  0.4994E+01  0.2832E+03
      0.931  0.5633E+01  0.2836E+03
      0.995  0.5049E+01  0.2839E+03
      1.059  0.4460E+01  0.2842E+03
      1.123  0.4799E+01  0.2845E+03
      1.187  0.5201E+01  0.2848E+03
      1.251  0.6347E+01  0.2852E+03
      1.315  0.9250E+01  0.2858E+03
      1.379  0.1272E+02  0.2866E+03
      1.443  0.1478E+02  0.2876E+03
      1.508  0.1468E+02  0.2885E+03
      1.572  0.1498E+02  0.2895E+03
      1.636  0.1731E+02  0.2906E+03
      1.700  0.1843E+02  0.2918E+03
      1.764  0.1708E+02  0.2929E+03
      1.828  0.1667E+02  0.2939E+03
      1.892  0.1911E+02  0.2952E+03
      1.956  0.2131E+02  0.2965E+03
      2.020  0.2013E+02  0.2978E+03
      2.084  0.1855E+02  0.2990E+03
      2.148  0.1968E+02  0.3003E+03
      2.212  0.2220E+02  0.3017E+03
      2.276  0.2514E+02  0.3033E+03
      2.340  0.2659E+02  0.3050E+03
      2.404  0.2725E+02  0.3068E+03
      2.468  0.2914E+02  0.3086E+03
      2.533  0.2966E+02  0.3105E+03
      2.597  0.2910E+02  0.3124E+03
      2.661  0.3057E+02  0.3143E+03
      2.725  0.3200E+02  0.3164E+03
      2.789  0.3146E+02  0.3184E+03
      2.853  0.3008E+02  0.3203E+03