HEBCN                                   
           1
     8.875898    0.005863    0.019571
     0.005930    8.940413   -0.013914
     0.019586   -0.013810    8.903267
   Ti   Ta   Hf   N    C    W    Nb
     7     6     7    13    19     6     6
Direct configuration=     1
   0.00380533  0.98412083  0.00512345
   0.24763126  0.99255941  0.25507024
   0.25551884  0.50796858  0.24753514
   0.49858698  0.48637735  0.99577996
   0.49146963  0.24557171  0.75557620
   0.00025444  0.49907222  0.50945107
   0.50183115  0.75033823  0.74244641
   0.00018191  0.24430350  0.26058276
   0.74951505  0.74830060  0.00291315
   0.00670393  0.24934482  0.74002979
   0.75508486  0.26163371  0.50519582
   0.99848288  0.74800216  0.75211734
   0.25367009  0.49713632  0.75257187
   0.24517754  0.24658744  0.00028915
   0.49857691  0.25318358  0.24722396
   0.75002928  0.99458111  0.25345828
   0.75424053  0.25179540  0.99332661
   0.25975056  0.75456722  0.99935644
   0.25116226  0.25053840  0.49879467
   0.24605971  0.74791459  0.50158877
   0.24878313  0.24930785  0.24862201
   0.25620351  0.00121863  0.99976265
   0.00049901  0.24932571  0.00004518
   0.74936931  0.24725324  0.25128857
   0.75713261  0.99986197  0.00611124
   0.49729148  0.99826948  0.23929736
   0.00186092  0.49135196  0.24537049
   0.50625556  0.75813265  0.00079750
   0.99214190  0.00255671  0.75525056
   0.75007438  0.24443124  0.74675911
   0.74022415  0.00544813  0.50620020
   0.50552216  0.24265176  0.50108381
   0.49899196  0.00235549  0.73339081
   0.00318237  0.00099403  0.24688638
   0.50068354  0.25462045  0.99569095
   0.25407106  0.74919329  0.24977021
   0.24894646  0.50198837  0.00381325
   0.00221231  0.75370087  0.99878621
   0.74801421  0.74817558  0.24937611
   0.75058345  0.50330170  0.00171859
   0.49612972  0.50375996  0.24726717
   0.25413715  0.25139366  0.75010935
   0.24800464  0.99843640  0.49581760
   0.99959071  0.25408335  0.50054619
   0.25161084  0.75316801  0.75093922
   0.24814620  0.49918076  0.49663013
   0.99639718  0.74742762  0.50323981
   0.00049453  0.49939071  0.75074848
   0.74579887  0.75313071  0.75244682
   0.75487339  0.49865952  0.49989925
   0.49956940  0.74958891  0.50628439
   0.49938626  0.50053395  0.75152607
   0.51019703  0.01684735  0.98465434
   0.00348617  0.51852421  0.99198013
   0.49985343  0.74318475  0.26476096
   0.24656381  0.00578288  0.74310364
   0.48024149  0.98400146  0.49337858
   0.73286609  0.98371752  0.76967571
   0.00167721  0.75373305  0.24920699
   0.74230688  0.50623454  0.25073773
   0.00905481  0.00183932  0.49730883
   0.50045643  0.50860803  0.50285520
   0.74573200  0.51303834  0.75174613
   0.75195980  0.73770052  0.49668943
