 running on   24 total cores
 distrk:  each k-point on   24 cores,    1 groups
 distr:  one band on    1 cores,   24 groups
 using from now: INCAR     
 vasp.5.4.4.18Apr17-6-g9f103f2a35 (build Oct 18 2021 20:38:43) complex          
  
 POSCAR found type information on POSCAR  Ti Ta Hf N  C  Mo Nb
 POSCAR found :  7 types and      64 ions
 scaLAPACK will be used

 ----------------------------------------------------------------------------- 
|                                                                             |
|           W    W    AA    RRRRR   N    N  II  N    N   GGGG   !!!           |
|           W    W   A  A   R    R  NN   N  II  NN   N  G    G  !!!           |
|           W    W  A    A  R    R  N N  N  II  N N  N  G       !!!           |
|           W WW W  AAAAAA  RRRRR   N  N N  II  N  N N  G  GGG   !            |
|           WW  WW  A    A  R   R   N   NN  II  N   NN  G    G                |
|           W    W  A    A  R    R  N    N  II  N    N   GGGG   !!!           |
|                                                                             |
|      For optimal performance we recommend to set                            |
|        NCORE= 4 - approx SQRT( number of cores)                             |
|      NCORE specifies how many cores store one orbital (NPAR=cpu/NCORE).     |
|      This setting can  greatly improve the performance of VASP for DFT.     |
|      The default,   NCORE=1            might be grossly inefficient         |
|      on modern multi-core architectures or massively parallel machines.     |
|      Do your own testing !!!!                                               |
|      Unfortunately you need to use the default for GW and RPA calculations. |
|      (for HF NCORE is supported but not extensively tested yet)             |
|                                                                             |
 ----------------------------------------------------------------------------- 


 ----------------------------------------------------------------------------- 
|                                                                             |
|  ADVICE TO THIS USER RUNNING 'VASP/VAMP'   (HEAR YOUR MASTER'S VOICE ...):  |
|                                                                             |
|      You have a (more or less) 'large supercell' and for larger cells       |
|      it might be more efficient to use real space projection operators      |
|      So try LREAL= Auto  in the INCAR   file.                               |
|      Mind: If you want to do a very accurate calculations keep the          |
|      reciprocal projection scheme          (i.e. LREAL=.FALSE.)             |
|                                                                             |
 ----------------------------------------------------------------------------- 

 LDA part: xc-table for Pade appr. of Perdew
 POSCAR, INCAR and KPOINTS ok, starting setup
 FFT: planning ...
 WAVECAR not read
 entering main loop
       N       E                     dE             d eps       ncg     rms          rms(c)
DAV:   1     0.394360852077E+04    0.39436E+04   -0.20102E+05  8544   0.129E+03
DAV:   2     0.250044831434E+02   -0.39186E+04   -0.38336E+04  9936   0.504E+02
DAV:   3    -0.567732940048E+03   -0.59274E+03   -0.57849E+03 14016   0.156E+02
DAV:   4    -0.624578863955E+03   -0.56846E+02   -0.54734E+02 13128   0.483E+01
DAV:   5    -0.635646876221E+03   -0.11068E+02   -0.10738E+02 15960   0.190E+01    0.656E+01
RMM:   6    -0.537083316772E+03    0.98564E+02   -0.16513E+03 11811   0.563E+01    0.528E+01
RMM:   7    -0.491940075717E+03    0.45143E+02   -0.20259E+02 11815   0.375E+01    0.294E+01
RMM:   8    -0.481222973914E+03    0.10717E+02   -0.97877E+01 12355   0.102E+01    0.183E+01
RMM:   9    -0.479470734884E+03    0.17522E+01   -0.30455E+01 12298   0.798E+00    0.170E+01
RMM:  10    -0.478520279283E+03    0.95046E+00   -0.17115E+01 12280   0.498E+00    0.156E+01
RMM:  11    -0.478207029531E+03    0.31325E+00   -0.16587E+01 12269   0.558E+00    0.153E+01
RMM:  12    -0.477804046425E+03    0.40298E+00   -0.92703E+00 12519   0.492E+00    0.129E+01
RMM:  13    -0.476533415205E+03    0.12706E+01   -0.46632E+00 12288   0.313E+00    0.706E+00
RMM:  14    -0.476478467061E+03    0.54948E-01   -0.27471E+00 12069   0.291E+00    0.789E+00
RMM:  15    -0.476216975688E+03    0.26149E+00   -0.32299E+00 12477   0.202E+00    0.681E+00
RMM:  16    -0.476113232419E+03    0.10374E+00   -0.23508E+00 12399   0.178E+00    0.490E+00
RMM:  17    -0.476019652652E+03    0.93580E-01   -0.11076E+00 12330   0.140E+00    0.277E+00
RMM:  18    -0.476022918610E+03   -0.32660E-02   -0.69045E-01 12411   0.918E-01    0.202E+00
RMM:  19    -0.476072279283E+03   -0.49361E-01   -0.52203E-01 12610   0.810E-01    0.254E+00
RMM:  20    -0.476083186447E+03   -0.10907E-01   -0.44830E-01 12514   0.707E-01    0.153E+00
RMM:  21    -0.476097648893E+03   -0.14462E-01   -0.30494E-01 12720   0.604E-01    0.131E+00
RMM:  22    -0.476114179212E+03   -0.16530E-01   -0.27407E-01 12613   0.436E-01    0.118E+00
RMM:  23    -0.476120270196E+03   -0.60910E-02   -0.18666E-01 12730   0.352E-01    0.643E-01
RMM:  24    -0.476132137020E+03   -0.11867E-01   -0.19444E-01 12186   0.309E-01    0.482E-01
RMM:  25    -0.476142636961E+03   -0.10500E-01   -0.12824E-01 12170   0.272E-01    0.404E-01
RMM:  26    -0.476152891104E+03   -0.10254E-01   -0.11531E-01 12162   0.220E-01    0.231E-01
RMM:  27    -0.476161833311E+03   -0.89422E-02   -0.91083E-02 11920   0.198E-01    0.215E-01
RMM:  28    -0.476169121576E+03   -0.72883E-02   -0.77309E-02 11292   0.149E-01    0.188E-01
RMM:  29    -0.476174693735E+03   -0.55722E-02   -0.62979E-02 11075   0.118E-01    0.130E-01
RMM:  30    -0.476179899456E+03   -0.52057E-02   -0.57381E-02 11564   0.109E-01    0.837E-02
RMM:  31    -0.476184579954E+03   -0.46805E-02   -0.48298E-02 11365   0.107E-01    0.679E-02
RMM:  32    -0.476188690005E+03   -0.41101E-02   -0.41727E-02 10763   0.950E-02    0.474E-02
RMM:  33    -0.476192101647E+03   -0.34116E-02   -0.35036E-02 10339   0.707E-02    0.492E-02
RMM:  34    -0.476195091565E+03   -0.29899E-02   -0.30734E-02 10621   0.681E-02    0.335E-02
RMM:  35    -0.476197706706E+03   -0.26151E-02   -0.26412E-02 10656   0.666E-02    0.245E-02
RMM:  36    -0.476199990933E+03   -0.22842E-02   -0.23050E-02 10037   0.631E-02    0.258E-02
RMM:  37    -0.476201947913E+03   -0.19570E-02   -0.19886E-02  9053   0.468E-02    0.186E-02
RMM:  38    -0.476203672395E+03   -0.17245E-02   -0.17469E-02  9289   0.443E-02    0.127E-02
WARNING in EDDRMM: call to ZHEGV failed, returncode =   8  4     10
RMM:  39    -0.476205166589E+03   -0.14942E-02   -0.15098E-02  8936   0.406E-02    0.918E-03
WARNING in EDDRMM: call to ZHEGV failed, returncode =   6  3      7
RMM:  40    -0.476206506631E+03   -0.13400E-02   -0.13500E-02  7982   0.385E-02    0.104E-02
RMM:  41    -0.476207652692E+03   -0.11461E-02   -0.11565E-02  6540   0.335E-02    0.138E-02
RMM:  42    -0.476208669660E+03   -0.10170E-02   -0.10251E-02  6509   0.316E-02    0.183E-02
RMM:  43    -0.476209555743E+03   -0.88608E-03   -0.89134E-03  6075   0.295E-02    0.264E-02
WARNING in EDDRMM: call to ZHEGV failed, returncode =   8  4      7
RMM:  44    -0.476210338322E+03   -0.78258E-03   -0.79035E-03  5868   0.267E-02    0.300E-02
RMM:  45    -0.476211021788E+03   -0.68347E-03   -0.69005E-03  5411   0.257E-02    0.342E-02
RMM:  46    -0.476211630157E+03   -0.60837E-03   -0.61109E-03  5572   0.233E-02    0.399E-02
RMM:  47    -0.476212176055E+03   -0.54590E-03   -0.53753E-03  6324   0.233E-02    0.541E-02
RMM:  48    -0.476212656885E+03   -0.48083E-03   -0.47650E-03  6390   0.225E-02    0.617E-02
RMM:  49    -0.476213069723E+03   -0.41284E-03   -0.41617E-03  5695   0.222E-02    0.656E-02
RMM:  50    -0.476213434176E+03   -0.36445E-03   -0.37180E-03  5142   0.190E-02    0.678E-02
RMM:  51    -0.476213764436E+03   -0.33026E-03   -0.32598E-03  5313   0.186E-02    0.750E-02
RMM:  52    -0.476214049047E+03   -0.28461E-03   -0.28827E-03  5039   0.176E-02    0.776E-02
RMM:  53    -0.476214299523E+03   -0.25048E-03   -0.25335E-03  4915   0.161E-02    0.802E-02
RMM:  54    -0.476214518888E+03   -0.21936E-03   -0.22443E-03  4926   0.154E-02    0.816E-02
RMM:  55    -0.476214710889E+03   -0.19200E-03   -0.19790E-03  4881   0.138E-02    0.819E-02
RMM:  56    -0.476214876188E+03   -0.16530E-03   -0.17596E-03  5382   0.136E-02    0.784E-02
RMM:  57    -0.476215026084E+03   -0.14990E-03   -0.15480E-03  4994   0.122E-02    0.786E-02
RMM:  58    -0.476215161630E+03   -0.13555E-03   -0.13930E-03  4837   0.119E-02    0.790E-02
RMM:  59    -0.476215279378E+03   -0.11775E-03   -0.12160E-03  4731   0.110E-02    0.793E-02
RMM:  60    -0.476215384313E+03   -0.10494E-03   -0.10952E-03  4857   0.109E-02
   1 F= -.47621538E+03 E0= -.47597589E+03  d E =-.476215E+03
 curvature:   0.00 expect dE= 0.000E+00 dE for cont linesearch  0.000E+00
 trial: gam= 0.00000 g(F)=  0.754E+00 g(S)=  0.328E+03 ort = 0.000E+00 (trialstep = 0.100E+01)
 search vector abs. value=  0.328E+03
 bond charge predicted
       N       E                     dE             d eps       ncg     rms          rms(c)
DAV:   1    -0.309769258699E+04   -0.26215E+04   -0.96817E+04  9312   0.119E+03    0.324E+02
RMM:   2    -0.123416234413E+04    0.18635E+04   -0.59995E+03 12535   0.278E+02    0.169E+02
RMM:   3    -0.585316678386E+03    0.64885E+03   -0.23486E+03  9675   0.188E+02    0.483E+01
RMM:   4    -0.578199610441E+03    0.71171E+01   -0.66110E+02 11788   0.652E+01    0.287E+01
RMM:   5    -0.567353138640E+03    0.10846E+02   -0.11713E+02 11870   0.351E+01    0.135E+01
RMM:   6    -0.571278856525E+03   -0.39257E+01   -0.62796E+01 14291   0.144E+01    0.820E+00
RMM:   7    -0.574723474232E+03   -0.34446E+01   -0.21521E+01 14462   0.126E+01    0.638E+00
RMM:   8    -0.577834193302E+03   -0.31107E+01   -0.20479E+01 14111   0.767E+00    0.553E+00
RMM:   9    -0.579323700790E+03   -0.14895E+01   -0.10190E+01 14421   0.726E+00    0.407E+00
RMM:  10    -0.580563509082E+03   -0.12398E+01   -0.85225E+00 14361   0.526E+00    0.333E+00
RMM:  11    -0.581147523172E+03   -0.58401E+00   -0.51145E+00 14495   0.427E+00    0.141E+00
RMM:  12    -0.581404420255E+03   -0.25690E+00   -0.33568E+00 14567   0.366E+00    0.466E-01
RMM:  13    -0.581541947797E+03   -0.13753E+00   -0.17799E+00 14353   0.248E+00    0.677E-01
RMM:  14    -0.581617553097E+03   -0.75605E-01   -0.99479E-01 14191   0.200E+00    0.606E-01
RMM:  15    -0.581659610545E+03   -0.42057E-01   -0.54601E-01 14439   0.138E+00    0.331E-01
RMM:  16    -0.581684596085E+03   -0.24986E-01   -0.31403E-01 14545   0.111E+00    0.296E-01
RMM:  17    -0.581698164579E+03   -0.13568E-01   -0.17487E-01 14461   0.813E-01    0.797E-02
RMM:  18    -0.581706088639E+03   -0.79241E-02   -0.97389E-02 14479   0.673E-01    0.476E-02
RMM:  19    -0.581710957694E+03   -0.48691E-02   -0.58811E-02 14459   0.464E-01    0.893E-02
RMM:  20    -0.581713733144E+03   -0.27755E-02   -0.33348E-02 14310   0.397E-01    0.665E-02
RMM:  21    -0.581715449392E+03   -0.17162E-02   -0.20370E-02 14415   0.280E-01    0.297E-02
RMM:  22    -0.581716438302E+03   -0.98891E-03   -0.11753E-02 14181   0.247E-01    0.732E-02
RMM:  23    -0.581717080450E+03   -0.64215E-03   -0.75202E-03 14476   0.175E-01    0.555E-02
WARNING in EDDRMM: call to ZHEGV failed, returncode =   8  4      4
RMM:  24    -0.581717454982E+03   -0.37453E-03   -0.44653E-03 14074   0.162E-01    0.677E-02
RMM:  25    -0.581776920724E+03   -0.59466E-01   -0.59518E-01 14069   0.106E-01    0.324E-02
RMM:  26    -0.581714711002E+03    0.62210E-01   -0.42826E-01 13719   0.169E-01    0.414E-02
RMM:  27    -0.581714946746E+03   -0.23574E-03   -0.20211E-02 13838   0.740E-02    0.498E-02
RMM:  28    -0.581716099840E+03   -0.11531E-02   -0.86901E-03 13683   0.733E-02    0.121E-02
RMM:  29    -0.581717067520E+03   -0.96768E-03   -0.92813E-03 13225   0.530E-02    0.402E-02
RMM:  30    -0.581717429322E+03   -0.36180E-03   -0.33200E-03 11802   0.449E-02    0.160E-03
RMM:  31    -0.581717658171E+03   -0.22885E-03   -0.19392E-03 10473   0.342E-02    0.221E-03
RMM:  32    -0.581717808650E+03   -0.15048E-03   -0.14258E-03  9095   0.293E-02    0.105E-02
RMM:  33    -0.581717904003E+03   -0.95353E-04   -0.67365E-04  8501   0.257E-02    0.637E-03
RMM:  34    -0.581717973825E+03   -0.69822E-04   -0.74510E-04  7369   0.216E-02    0.840E-03
RMM:  35    -0.581718004026E+03   -0.30201E-04   -0.28370E-04  7138   0.204E-02    0.845E-03
WARNING in EDDRMM: call to ZHEGV failed, returncode =   6  3      8
RMM:  36    -0.581718032897E+03   -0.28871E-04   -0.30947E-04  6447   0.177E-02    0.187E-03
RMM:  37    -0.581718044136E+03   -0.11239E-04   -0.11348E-04  6138   0.173E-02    0.575E-03
RMM:  38    -0.581718054455E+03   -0.10319E-04   -0.11314E-04  5772   0.151E-02    0.333E-03
RMM:  39    -0.581718058804E+03   -0.43490E-05   -0.46869E-05  5556   0.145E-02
   2 F= -.58171806E+03 E0= -.58166632E+03  d E =-.105503E+03
 trial-energy change: -105.502674  1 .order   79.200308 -328.464471  486.865088
 step:   0.6924(harm=  0.4029)  dis= 0.02438  next Energy=  -651.228232 (dE=-0.175E+03)
 bond charge predicted
       N       E                     dE             d eps       ncg     rms          rms(c)
DAV:   1    -0.100182379174E+04   -0.42011E+03   -0.94211E+03 10104   0.361E+02    0.171E+02
RMM:   2    -0.114715352286E+04   -0.14533E+03   -0.24253E+03 10922   0.134E+02    0.857E+01
RMM:   3    -0.812045005242E+03    0.33511E+03   -0.63845E+02 12331   0.632E+01    0.532E+01
RMM:   4    -0.723029294375E+03    0.89016E+02   -0.13592E+02 12154   0.303E+01    0.421E+01
RMM:   5    -0.670758158649E+03    0.52271E+02   -0.11314E+02 12741   0.254E+01    0.248E+01
RMM:   6    -0.686347215269E+03   -0.15589E+02   -0.36282E+02 12755   0.369E+01    0.319E+01
RMM:   7    -0.666181424348E+03    0.20166E+02   -0.39999E+01 12259   0.191E+01    0.198E+01
RMM:   8    -0.659025895235E+03    0.71555E+01   -0.23239E+01 11587   0.124E+01    0.619E+00
RMM:   9    -0.658883801016E+03    0.14209E+00   -0.73525E+00 12939   0.599E+00    0.365E+00
RMM:  10    -0.659088205596E+03   -0.20440E+00   -0.33829E+00 13694   0.313E+00    0.328E+00
RMM:  11    -0.659132133122E+03   -0.43928E-01   -0.15269E+00 13979   0.237E+00    0.283E+00
RMM:  12    -0.659102018691E+03    0.30114E-01   -0.11195E+00 13238   0.207E+00    0.150E+00
RMM:  13    -0.659188283128E+03   -0.86264E-01   -0.90850E-01 13842   0.171E+00    0.136E+00
RMM:  14    -0.659321476104E+03   -0.13319E+00   -0.67624E-01 13575   0.168E+00    0.219E+00
RMM:  15    -0.659236661805E+03    0.84814E-01   -0.32953E-01 13099   0.125E+00    0.733E-01
RMM:  16    -0.659245802867E+03   -0.91411E-02   -0.20807E-01 13649   0.689E-01    0.558E-01
RMM:  17    -0.659248735574E+03   -0.29327E-02   -0.12485E-01 13857   0.615E-01    0.273E-01
RMM:  18    -0.659254916126E+03   -0.61806E-02   -0.70331E-02 13918   0.471E-01    0.362E-01
RMM:  19    -0.659256408359E+03   -0.14922E-02   -0.40270E-02 14053   0.284E-01    0.311E-01
RMM:  20    -0.659256670336E+03   -0.26198E-03   -0.27985E-02 13691   0.229E-01    0.139E-01
RMM:  21    -0.659257649405E+03   -0.97907E-03   -0.17199E-02 13634   0.205E-01    0.444E-02
RMM:  22    -0.659258517793E+03   -0.86839E-03   -0.10530E-02 13452   0.141E-01    0.333E-02
RMM:  23    -0.659259071543E+03   -0.55375E-03   -0.69287E-03 13311   0.113E-01    0.352E-02
RMM:  24    -0.659259439172E+03   -0.36763E-03   -0.46799E-03 13056   0.933E-02    0.178E-02
RMM:  25    -0.659259667283E+03   -0.22811E-03   -0.28668E-03 12864   0.705E-02    0.104E-02
RMM:  26    -0.659259841713E+03   -0.17443E-03   -0.20424E-03 12597   0.583E-02    0.145E-02
RMM:  27    -0.659259952949E+03   -0.11124E-03   -0.13863E-03 12283   0.469E-02    0.804E-03
RMM:  28    -0.659260032463E+03   -0.79515E-04   -0.96825E-04 11771   0.394E-02    0.445E-03
RMM:  29    -0.659260085709E+03   -0.53246E-04   -0.64929E-04 11138   0.328E-02    0.252E-03
RMM:  30    -0.659260122081E+03   -0.36372E-04   -0.44793E-04 10080   0.282E-02    0.121E-03
RMM:  31    -0.659260147285E+03   -0.25204E-04   -0.30793E-04  9334   0.250E-02    0.167E-03
RMM:  32    -0.659260164330E+03   -0.17045E-04   -0.21493E-04  8798   0.219E-02    0.932E-04
RMM:  33    -0.659260175648E+03   -0.11317E-04   -0.14833E-04  8330   0.199E-02    0.126E-03
RMM:  34    -0.659260184414E+03   -0.87667E-05   -0.10541E-04  8015   0.180E-02    0.299E-03
RMM:  35    -0.659260189651E+03   -0.52368E-05   -0.75977E-05  7801   0.168E-02
   3 F= -.65926019E+03 E0= -.65918375E+03  d E =-.183045E+03
 curvature:  -0.15 expect dE=-0.101E+01 dE for cont linesearch -0.828E+00
 ZBRENT: interpolating
 opt :   0.7168  next Energy=  -659.773396 (dE=-0.184E+03)
 bond charge predicted
       N       E                     dE             d eps       ncg     rms          rms(c)
DAV:   1    -0.661738820866E+03   -0.24786E+01   -0.55582E+01  9576   0.276E+01    0.831E+00
RMM:   2    -0.661493410523E+03    0.24541E+00   -0.94394E+00 11665   0.920E+00    0.772E+00
RMM:   3    -0.660533266038E+03    0.96014E+00   -0.18912E+00 12017   0.353E+00    0.426E+00
RMM:   4    -0.660259165582E+03    0.27410E+00   -0.88147E-01 11931   0.263E+00    0.256E+00
RMM:   5    -0.660144554856E+03    0.11461E+00   -0.38312E-01 11988   0.151E+00    0.109E+00
RMM:   6    -0.660129618618E+03    0.14936E-01   -0.10227E-01 10707   0.984E-01    0.638E-01
RMM:   7    -0.660125678212E+03    0.39404E-02   -0.34002E-02 13339   0.372E-01    0.342E-01
RMM:   8    -0.660125433140E+03    0.24507E-03   -0.82272E-03 12573   0.256E-01    0.218E-01
RMM:   9    -0.660126477521E+03   -0.10444E-02   -0.49758E-03 13323   0.128E-01    0.174E-01
RMM:  10    -0.660127215045E+03   -0.73752E-03   -0.25729E-03 13520   0.981E-02    0.146E-01
RMM:  11    -0.660128377368E+03   -0.11623E-02   -0.36731E-03 13181   0.976E-02    0.993E-02
RMM:  12    -0.660128686810E+03   -0.30944E-03   -0.21410E-03 12818   0.794E-02    0.633E-02
RMM:  13    -0.660128892555E+03   -0.20574E-03   -0.16292E-03 12298   0.630E-02    0.424E-02
RMM:  14    -0.660128980321E+03   -0.87766E-04   -0.10302E-03 11877   0.506E-02    0.298E-02
RMM:  15    -0.660129004660E+03   -0.24339E-04   -0.56538E-04 11235   0.403E-02    0.219E-02
RMM:  16    -0.660129022542E+03   -0.17882E-04   -0.33755E-04 10465   0.316E-02    0.183E-02
WARNING in EDDRMM: call to ZHEGV failed, returncode =   6  3      8
RMM:  17    -0.660129038732E+03   -0.16190E-04   -0.22198E-04 10022   0.261E-02    0.853E-03
RMM:  18    -0.660129048218E+03   -0.94854E-05   -0.12882E-04  8689   0.220E-02    0.604E-03
RMM:  19    -0.660129054554E+03   -0.63360E-05   -0.87203E-05  8369   0.198E-02
   4 F= -.66012905E+03 E0= -.66005548E+03  d E =-.183914E+03
 curvature:  -0.10 expect dE=-0.192E+00 dE for cont linesearch -0.626E-01
 ZBRENT: interpolating
 opt :   0.7295  next Energy=  -660.225151 (dE=-0.184E+03)
 bond charge predicted
       N       E                     dE             d eps       ncg     rms          rms(c)
DAV:   1    -0.660676529400E+03   -0.54748E+00   -0.15151E+01  9960   0.145E+01    0.437E+00
RMM:   2    -0.660631488827E+03    0.45041E-01   -0.26235E+00 11630   0.484E+00    0.403E+00
RMM:   3    -0.660343394930E+03    0.28809E+00   -0.51431E-01 11973   0.186E+00    0.214E+00
RMM:   4    -0.660278523349E+03    0.64872E-01   -0.23808E-01 11909   0.138E+00    0.137E+00
RMM:   5    -0.660244796763E+03    0.33727E-01   -0.10312E-01 12016   0.797E-01    0.505E-01
RMM:   6    -0.660242024213E+03    0.27726E-02   -0.27340E-02 11032   0.505E-01    0.315E-01
RMM:   7    -0.660241172245E+03    0.85197E-03   -0.86024E-03 13394   0.187E-01    0.179E-01
RMM:   8    -0.660241110748E+03    0.61497E-04   -0.22002E-03 12124   0.135E-01    0.111E-01
RMM:   9    -0.660241439495E+03   -0.32875E-03   -0.14392E-03 12607   0.679E-02    0.921E-02
RMM:  10    -0.660241659501E+03   -0.22001E-03   -0.68008E-04 12102   0.539E-02    0.767E-02
RMM:  11    -0.660242012089E+03   -0.35259E-03   -0.95851E-04 12327   0.520E-02    0.486E-02
RMM:  12    -0.660242123934E+03   -0.11184E-03   -0.60732E-04 11624   0.451E-02    0.313E-02
RMM:  13    -0.660242187988E+03   -0.64054E-04   -0.46200E-04 11214   0.368E-02    0.198E-02
WARNING in EDDRMM: call to ZHEGV failed, returncode =   6  3      5
RMM:  14    -0.660242208667E+03   -0.20679E-04   -0.26280E-04 10104   0.303E-02    0.153E-02
RMM:  15    -0.660242216522E+03   -0.78547E-05   -0.14744E-04  9235   0.248E-02    0.118E-02
RMM:  16    -0.660242221933E+03   -0.54117E-05   -0.87013E-05  7944   0.204E-02
   5 F= -.66024222E+03 E0= -.66017007E+03  d E =-.184027E+03
 curvature:  -0.15 expect dE=-0.211E+00 dE for cont linesearch -0.729E-04
 ZBRENT: interpolating
 opt :   0.7292  next Energy=  -660.242291 (dE=-0.184E+03)
 bond charge predicted
       N       E                     dE             d eps       ncg     rms          rms(c)
DAV:   1    -0.660242713290E+03   -0.49677E-03   -0.11279E-02 11088   0.391E-01    0.125E-01
RMM:   2    -0.660242723342E+03   -0.10052E-04   -0.22327E-03 12021   0.138E-01    0.114E-01
RMM:   3    -0.660242472352E+03    0.25099E-03   -0.52370E-04 11416   0.554E-02    0.594E-02
RMM:   4    -0.660242425020E+03    0.47332E-04   -0.20646E-04 11214   0.415E-02    0.416E-02
RMM:   5    -0.660242391348E+03    0.33672E-04   -0.89843E-05  9533   0.251E-02    0.155E-02
RMM:   6    -0.660242384769E+03    0.65786E-05   -0.20934E-05  5105   0.194E-02
   6 F= -.66024238E+03 E0= -.66017020E+03  d E =-.184027E+03
 curvature:  -0.14 expect dE=-0.199E+00 dE for cont linesearch -0.857E-06
 trial: gam= 0.00451 g(F)=  0.139E+01 g(S)=  0.438E-01 ort =-0.451E-01 (trialstep = 0.946E+00)
 search vector abs. value=  0.144E+01
 bond charge predicted
       N       E                     dE             d eps       ncg     rms          rms(c)
DAV:   1    -0.659867017358E+03    0.37537E+00   -0.20132E+02  8400   0.392E+01    0.281E+00
RMM:   2    -0.661296891077E+03   -0.14299E+01   -0.16200E+01 12962   0.115E+01    0.193E+00
RMM:   3    -0.661236415121E+03    0.60476E-01   -0.14463E+00 12386   0.384E+00    0.165E+00
RMM:   4    -0.661198909280E+03    0.37506E-01   -0.36049E-01 12903   0.207E+00    0.904E-01
RMM:   5    -0.661210515932E+03   -0.11607E-01   -0.30606E-01 12692   0.928E-01    0.753E-01
RMM:   6    -0.661205285738E+03    0.52302E-02   -0.90373E-02 12969   0.826E-01    0.333E-01
RMM:   7    -0.661209557382E+03   -0.42716E-02   -0.68812E-02 13709   0.322E-01    0.245E-01
RMM:   8    -0.661210381447E+03   -0.82406E-03   -0.28594E-02 13169   0.324E-01    0.186E-01
RMM:   9    -0.661211738704E+03   -0.13573E-02   -0.17612E-02 13292   0.219E-01    0.114E-01
RMM:  10    -0.661212072044E+03   -0.33334E-03   -0.76027E-03 13071   0.169E-01    0.754E-02
RMM:  11    -0.661212598596E+03   -0.52655E-03   -0.61432E-03 13029   0.117E-01    0.610E-02
RMM:  12    -0.661212803878E+03   -0.20528E-03   -0.28067E-03 12088   0.943E-02    0.345E-02
WARNING in EDDRMM: call to ZHEGV failed, returncode =   6  3      5
RMM:  13    -0.661212947746E+03   -0.14387E-03   -0.19181E-03 11523   0.651E-02    0.185E-02
RMM:  14    -0.661213038507E+03   -0.90761E-04   -0.11540E-03 11432   0.547E-02    0.108E-02
RMM:  15    -0.661213095702E+03   -0.57196E-04   -0.68512E-04 11014   0.425E-02    0.899E-03
RMM:  16    -0.661213128470E+03   -0.32768E-04   -0.41704E-04 10563   0.333E-02    0.433E-03
RMM:  17    -0.661213152346E+03   -0.23875E-04   -0.28544E-04 10290   0.281E-02    0.326E-03
WARNING in EDDRMM: call to ZHEGV failed, returncode =   6  3      5
RMM:  18    -0.661213166750E+03   -0.14404E-04   -0.17357E-04  9541   0.228E-02    0.294E-03
RMM:  19    -0.661213175298E+03   -0.85479E-05   -0.10771E-04  8920   0.194E-02    0.175E-03
RMM:  20    -0.661213180348E+03   -0.50503E-05   -0.67854E-05  8409   0.174E-02
   7 F= -.66121318E+03 E0= -.66114819E+03  d E =-.970796E+00
 trial-energy change:   -0.970796  1 .order   -0.957001   -1.359580   -0.554422
 step:   1.5055(harm=  1.5971)  dis= 0.07147  next Energy=  -661.380081 (dE=-0.114E+01)
 bond charge predicted
       N       E                     dE             d eps       ncg     rms          rms(c)
DAV:   1    -0.660915024866E+03    0.29815E+00   -0.70527E+01  8640   0.232E+01    0.164E+00
RMM:   2    -0.661406182342E+03   -0.49116E+00   -0.55917E+00 12863   0.671E+00    0.112E+00
RMM:   3    -0.661387189467E+03    0.18993E-01   -0.50061E-01 12304   0.230E+00    0.956E-01
RMM:   4    -0.661374513152E+03    0.12676E-01   -0.12337E-01 13154   0.120E+00    0.524E-01
RMM:   5    -0.661378236969E+03   -0.37238E-02   -0.11001E-01 12613   0.562E-01    0.390E-01
RMM:   6    -0.661377128352E+03    0.11086E-02   -0.29801E-02 13059   0.468E-01    0.191E-01
RMM:   7    -0.661378445818E+03   -0.13175E-02   -0.23130E-02 13359   0.188E-01    0.135E-01
RMM:   8    -0.661378916284E+03   -0.47047E-03   -0.10848E-02 13225   0.193E-01    0.101E-01
RMM:   9    -0.661379347467E+03   -0.43118E-03   -0.57272E-03 12450   0.136E-01    0.673E-02
RMM:  10    -0.661379477590E+03   -0.13012E-03   -0.29603E-03 12490   0.955E-02    0.444E-02
RMM:  11    -0.661379657835E+03   -0.18024E-03   -0.20034E-03 12034   0.751E-02    0.331E-02
RMM:  12    -0.661379729844E+03   -0.72009E-04   -0.99601E-04 11280   0.562E-02    0.170E-02
RMM:  13    -0.661379781151E+03   -0.51308E-04   -0.67300E-04 11028   0.408E-02    0.912E-03
WARNING in EDDRMM: call to ZHEGV failed, returncode =   6  3      5
RMM:  14    -0.661379815673E+03   -0.34521E-04   -0.41796E-04 10814   0.344E-02    0.653E-03
WARNING in EDDRMM: call to ZHEGV failed, returncode =   8  4      5
RMM:  15    -0.661379835285E+03   -0.19612E-04   -0.24169E-04 10114   0.271E-02    0.542E-03
RMM:  16    -0.661379847656E+03   -0.12372E-04   -0.15793E-04  9470   0.225E-02    0.306E-03
RMM:  17    -0.661379855047E+03   -0.73907E-05   -0.10065E-04  8911   0.200E-02    0.168E-03
RMM:  18    -0.661379859183E+03   -0.41357E-05   -0.57020E-05  8122   0.177E-02
   8 F= -.66137986E+03 E0= -.66131860E+03  d E =-.113747E+01
 curvature:  -0.79 expect dE=-0.413E+00 dE for cont linesearch -0.526E-05
 trial: gam= 0.34804 g(F)=  0.327E+00 g(S)=  0.198E+00 ort =-0.311E-02 (trialstep = 0.106E+01)
 search vector abs. value=  0.698E+00
 bond charge predicted
       N       E                     dE             d eps       ncg     rms          rms(c)
DAV:   1    -0.661032286336E+03    0.34757E+00   -0.11893E+02  8856   0.358E+01    0.540E+00
RMM:   2    -0.662228400796E+03   -0.11961E+01   -0.16896E+01 12144   0.127E+01    0.485E+00
RMM:   3    -0.661787678190E+03    0.44072E+00   -0.23352E+00 12994   0.449E+00    0.265E+00
RMM:   4    -0.661682974409E+03    0.10470E+00   -0.60100E-01 12908   0.199E+00    0.177E+00
RMM:   5    -0.661638661490E+03    0.44313E-01   -0.24438E-01 12699   0.134E+00    0.992E-01
RMM:   6    -0.661630656209E+03    0.80053E-02   -0.13530E-01 13023   0.927E-01    0.545E-01
RMM:   7    -0.661628952492E+03    0.17037E-02   -0.58938E-02 13409   0.527E-01    0.284E-01
RMM:   8    -0.661629670359E+03   -0.71787E-03   -0.26952E-02 14157   0.313E-01    0.172E-01
RMM:   9    -0.661630662487E+03   -0.99213E-03   -0.15492E-02 13751   0.220E-01    0.121E-01
RMM:  10    -0.661631375368E+03   -0.71288E-03   -0.87036E-03 13809   0.158E-01    0.946E-02
RMM:  11    -0.661631842174E+03   -0.46681E-03   -0.56181E-03 13453   0.124E-01    0.606E-02
RMM:  12    -0.661632163988E+03   -0.32181E-03   -0.35906E-03 13144   0.104E-01    0.435E-02
RMM:  13    -0.661632332881E+03   -0.16889E-03   -0.22867E-03 12751   0.776E-02    0.274E-02
RMM:  14    -0.661632439222E+03   -0.10634E-03   -0.13727E-03 12219   0.625E-02    0.204E-02
WARNING in EDDRMM: call to ZHEGV failed, returncode =   6  3      5
RMM:  15    -0.661632513310E+03   -0.74088E-04   -0.94387E-04 11940   0.481E-02    0.104E-02
RMM:  16    -0.661632559747E+03   -0.46436E-04   -0.57812E-04 11499   0.396E-02    0.505E-03
WARNING in EDDRMM: call to ZHEGV failed, returncode =   6  3     10
WARNING in EDDRMM: call to ZHEGV failed, returncode =   8  4      5
WARNING in EDDRMM: call to ZHEGV failed, returncode =   8  4      5
RMM:  17    -0.661632591126E+03   -0.31379E-04   -0.37248E-04 11161   0.314E-02    0.453E-03
RMM:  18    -0.661632609979E+03   -0.18853E-04   -0.22928E-04 10333   0.266E-02    0.407E-03
RMM:  19    -0.661632621474E+03   -0.11495E-04   -0.14707E-04  9811   0.219E-02    0.233E-03
RMM:  20    -0.661632627848E+03   -0.63747E-05   -0.85410E-05  8957   0.194E-02
   9 F= -.66163263E+03 E0= -.66157321E+03  d E =-.252769E+00
 trial-energy change:   -0.252769  1 .order   -0.248178   -0.554125    0.057770
 step:   0.9618(harm=  0.9579)  dis= 0.03965  next Energy=  -661.635244 (dE=-0.255E+00)
 bond charge predicted
       N       E                     dE             d eps       ncg     rms          rms(c)
DAV:   1    -0.661630885247E+03    0.17362E-02   -0.97843E-01  9288   0.325E+00    0.481E-01
RMM:   2    -0.661639630326E+03   -0.87451E-02   -0.13422E-01 12232   0.111E+00    0.421E-01
RMM:   3    -0.661636418246E+03    0.32121E-02   -0.17482E-02 12797   0.398E-01    0.253E-01
RMM:   4    -0.661635439612E+03    0.97863E-03   -0.47037E-03 12726   0.180E-01    0.155E-01
RMM:   5    -0.661635093685E+03    0.34593E-03   -0.18758E-03 12465   0.118E-01    0.839E-02
RMM:   6    -0.661635043804E+03    0.49880E-04   -0.91332E-04 12494   0.821E-02    0.474E-02
RMM:   7    -0.661635032062E+03    0.11743E-04   -0.38316E-04 11706   0.458E-02    0.230E-02
RMM:   8    -0.661635040147E+03   -0.80853E-05   -0.16972E-04 10572   0.297E-02    0.138E-02
WARNING in EDDRMM: call to ZHEGV failed, returncode =   6  3      7
RMM:   9    -0.661635050788E+03   -0.10642E-04   -0.10166E-04  9722   0.218E-02    0.919E-03
RMM:  10    -0.661635057987E+03   -0.71990E-05   -0.57843E-05  8773   0.179E-02
  10 F= -.66163506E+03 E0= -.66157539E+03  d E =-.255199E+00
 curvature:  -0.64 expect dE=-0.286E+00 dE for cont linesearch -0.475E-07
 trial: gam= 0.81298 g(F)=  0.220E+00 g(S)=  0.230E+00 ort = 0.228E-03 (trialstep = 0.795E+00)
 search vector abs. value=  0.911E+00
 bond charge predicted
       N       E                     dE             d eps       ncg     rms          rms(c)
DAV:   1    -0.661066518064E+03    0.56853E+00   -0.86894E+01  8712   0.286E+01    0.262E+00
RMM:   2    -0.661914150915E+03   -0.84763E+00   -0.98988E+00 12806   0.841E+00    0.201E+00
RMM:   3    -0.661835115794E+03    0.79035E-01   -0.97143E-01 12574   0.326E+00    0.139E+00
RMM:   4    -0.661819080404E+03    0.16035E-01   -0.29710E-01 13137   0.146E+00    0.747E-01
RMM:   5    -0.661820917096E+03   -0.18367E-02   -0.13203E-01 12625   0.870E-01    0.496E-01
RMM:   6    -0.661820982808E+03   -0.65713E-04   -0.66215E-02 13100   0.566E-01    0.210E-01
RMM:   7    -0.661823210808E+03   -0.22280E-02   -0.31966E-02 13745   0.310E-01    0.152E-01
RMM:   8    -0.661824590175E+03   -0.13794E-02   -0.17891E-02 13834   0.215E-01    0.980E-02
RMM:   9    -0.661825379314E+03   -0.78914E-03   -0.96562E-03 13272   0.157E-01    0.736E-02
RMM:  10    -0.661825952229E+03   -0.57292E-03   -0.60908E-03 12802   0.121E-01    0.536E-02
RMM:  11    -0.661826287509E+03   -0.33528E-03   -0.36254E-03 12521   0.925E-02    0.291E-02
RMM:  12    -0.661826498533E+03   -0.21102E-03   -0.23054E-03 11937   0.739E-02    0.183E-02
RMM:  13    -0.661826617018E+03   -0.11849E-03   -0.14078E-03 11529   0.575E-02    0.129E-02
RMM:  14    -0.661826696067E+03   -0.79048E-04   -0.91664E-04 11234   0.475E-02    0.819E-03
RMM:  15    -0.661826746646E+03   -0.50579E-04   -0.58382E-04 10938   0.368E-02    0.381E-03
RMM:  16    -0.661826778868E+03   -0.32222E-04   -0.37180E-04 10625   0.305E-02    0.297E-03
RMM:  17    -0.661826798859E+03   -0.19991E-04   -0.23106E-04  9822   0.243E-02    0.203E-03
RMM:  18    -0.661826810964E+03   -0.12106E-04   -0.14491E-04  9371   0.214E-02    0.129E-03
RMM:  19    -0.661826817310E+03   -0.63453E-05   -0.80714E-05  8452   0.180E-02
  11 F= -.66182682E+03 E0= -.66177085E+03  d E =-.191759E+00
 trial-energy change:   -0.191759  1 .order   -0.182702   -0.357805   -0.007600
 step:   0.8100(harm=  0.8124)  dis= 0.04193  next Energy=  -661.826889 (dE=-0.192E+00)
 bond charge predicted
       N       E                     dE             d eps       ncg     rms          rms(c)
DAV:   1    -0.661826598565E+03    0.21240E-03   -0.30414E-02  9720   0.535E-01    0.478E-02
RMM:   2    -0.661826936439E+03   -0.33787E-03   -0.38290E-03 12901   0.163E-01    0.387E-02
RMM:   3    -0.661826903474E+03    0.32965E-04   -0.44546E-04 11840   0.646E-02    0.253E-02
WARNING in EDDRMM: call to ZHEGV failed, returncode =   6  3      5
WARNING in EDDRMM: call to ZHEGV failed, returncode =   6  3      5
RMM:   4    -0.661826906086E+03   -0.26117E-05   -0.17042E-04 11201   0.342E-02    0.143E-02
RMM:   5    -0.661826911484E+03   -0.53986E-05   -0.90300E-05  9724   0.229E-02
  12 F= -.66182691E+03 E0= -.66177099E+03  d E =-.191853E+00
 curvature:  -0.81 expect dE=-0.183E+00 dE for cont linesearch -0.215E-08
 trial: gam= 0.35703 g(F)=  0.154E+00 g(S)=  0.729E-01 ort = 0.493E-04 (trialstep = 0.798E+00)
 search vector abs. value=  0.343E+00
 bond charge predicted
       N       E                     dE             d eps       ncg     rms          rms(c)
DAV:   1    -0.661793815941E+03    0.33090E-01   -0.33274E+01  8064   0.156E+01    0.182E+00
RMM:   2    -0.661964734130E+03   -0.17092E+00   -0.26378E+00 12840   0.463E+00    0.106E+00
RMM:   3    -0.661946964495E+03    0.17770E-01   -0.29261E-01 12828   0.169E+00    0.885E-01
RMM:   4    -0.661935813351E+03    0.11151E-01   -0.93051E-02 13340   0.892E-01    0.391E-01
RMM:   5    -0.661937669512E+03   -0.18562E-02   -0.52392E-02 13277   0.403E-01    0.284E-01
RMM:   6    -0.661937260237E+03    0.40927E-03   -0.20543E-02 13469   0.317E-01    0.106E-01
RMM:   7    -0.661938222459E+03   -0.96222E-03   -0.12405E-02 13136   0.169E-01    0.785E-02
RMM:   8    -0.661938672068E+03   -0.44961E-03   -0.63406E-03 12655   0.138E-01    0.498E-02
RMM:   9    -0.661938994085E+03   -0.32202E-03   -0.38811E-03 11949   0.974E-02    0.359E-02
RMM:  10    -0.661939186824E+03   -0.19274E-03   -0.23657E-03 11969   0.767E-02    0.226E-02
RMM:  11    -0.661939302402E+03   -0.11558E-03   -0.13859E-03 11431   0.616E-02    0.120E-02
RMM:  12    -0.661939381408E+03   -0.79006E-04   -0.92465E-04 11554   0.472E-02    0.865E-03
WARNING in EDDRMM: call to ZHEGV failed, returncode =   8  4      5
RMM:  13    -0.661939425722E+03   -0.44315E-04   -0.53440E-04 10768   0.386E-02    0.649E-03
RMM:  14    -0.661939459034E+03   -0.33311E-04   -0.38318E-04 10840   0.303E-02    0.392E-03
RMM:  15    -0.661939476545E+03   -0.17512E-04   -0.21651E-04  9764   0.259E-02    0.224E-03
RMM:  16    -0.661939487935E+03   -0.11390E-04   -0.13896E-04  9465   0.210E-02    0.175E-03
RMM:  17    -0.661939493863E+03   -0.59280E-05   -0.77077E-05  8392   0.177E-02
  13 F= -.66193949E+03 E0= -.66188409E+03  d E =-.112582E+00
 trial-energy change:   -0.112582  1 .order   -0.111850   -0.180972   -0.042728
 step:   1.0350(harm=  1.0448)  dis= 0.03873  next Energy=  -661.945855 (dE=-0.119E+00)
 bond charge predicted
       N       E                     dE             d eps       ncg     rms          rms(c)
DAV:   1    -0.661933293628E+03    0.61943E-02   -0.29295E+00  8064   0.465E+00    0.539E-01
RMM:   2    -0.661948339579E+03   -0.15046E-01   -0.23195E-01 12821   0.137E+00    0.311E-01
RMM:   3    -0.661946766088E+03    0.15735E-02   -0.26260E-02 12717   0.504E-01    0.258E-01
RMM:   4    -0.661945841791E+03    0.92430E-03   -0.84923E-03 13335   0.271E-01    0.118E-01
RMM:   5    -0.661946013808E+03   -0.17202E-03   -0.48240E-03 12966   0.121E-01    0.850E-02
RMM:   6    -0.661945988401E+03    0.25408E-04   -0.19647E-03 12384   0.981E-02    0.308E-02
RMM:   7    -0.661946075947E+03   -0.87546E-04   -0.11480E-03 11414   0.549E-02    0.227E-02
RMM:   8    -0.661946122536E+03   -0.46589E-04   -0.64311E-04 11413   0.447E-02    0.145E-02
RMM:   9    -0.661946150638E+03   -0.28102E-04   -0.36251E-04 10230   0.332E-02    0.103E-02
RMM:  10    -0.661946172503E+03   -0.21865E-04   -0.26527E-04 10431   0.271E-02    0.684E-03
RMM:  11    -0.661946181568E+03   -0.90646E-05   -0.13125E-04  9161   0.220E-02    0.358E-03
RMM:  12    -0.661946187740E+03   -0.61727E-05   -0.80441E-05  8767   0.187E-02
  14 F= -.66194619E+03 E0= -.66189074E+03  d E =-.119276E+00
 curvature:  -0.79 expect dE=-0.751E-01 dE for cont linesearch -0.515E-05
 trial: gam= 0.35351 g(F)=  0.690E-01 g(S)=  0.262E-01 ort = 0.150E-02 (trialstep = 0.845E+00)
 search vector abs. value=  0.139E+00
 bond charge predicted
       N       E                     dE             d eps       ncg     rms          rms(c)
DAV:   1    -0.661949687011E+03   -0.35054E-02   -0.15497E+01  8400   0.945E+00    0.879E-01
RMM:   2    -0.662013381647E+03   -0.63695E-01   -0.82138E-01 12609   0.275E+00    0.558E-01
RMM:   3    -0.662012191292E+03    0.11904E-02   -0.10097E-01 12447   0.924E-01    0.504E-01
RMM:   4    -0.662007824404E+03    0.43669E-02   -0.25457E-02 13271   0.496E-01    0.210E-01
RMM:   5    -0.662008682605E+03   -0.85820E-03   -0.16971E-02 12971   0.227E-01    0.168E-01
RMM:   6    -0.662008392021E+03    0.29058E-03   -0.50875E-03 12695   0.189E-01    0.609E-02
RMM:   7    -0.662008734896E+03   -0.34288E-03   -0.43702E-03 11717   0.779E-02    0.439E-02
RMM:   8    -0.662008804793E+03   -0.69897E-04   -0.15017E-03 11328   0.720E-02    0.259E-02
RMM:   9    -0.662008895666E+03   -0.90873E-04   -0.10823E-03 10948   0.473E-02    0.191E-02
RMM:  10    -0.662008926775E+03   -0.31109E-04   -0.47445E-04 10669   0.387E-02    0.117E-02
RMM:  11    -0.662008953056E+03   -0.26281E-04   -0.31925E-04 10098   0.279E-02    0.726E-03
RMM:  12    -0.662008967525E+03   -0.14469E-04   -0.18515E-04  9784   0.244E-02    0.425E-03
RMM:  13    -0.662008974174E+03   -0.66491E-05   -0.97369E-05  8647   0.198E-02
  15 F= -.66200897E+03 E0= -.66195302E+03  d E =-.627864E-01
 trial-energy change:   -0.062786  1 .order   -0.062078   -0.080922   -0.043234
 step:   1.6412(harm=  1.8154)  dis= 0.05384  next Energy=  -662.029909 (dE=-0.837E-01)
 bond charge predicted
       N       E                     dE             d eps       ncg     rms          rms(c)
DAV:   1    -0.661979539753E+03    0.29428E-01   -0.13726E+01  8400   0.889E+00    0.830E-01
RMM:   2    -0.662036257798E+03   -0.56718E-01   -0.72953E-01 12627   0.259E+00    0.538E-01
RMM:   3    -0.662034834937E+03    0.14229E-02   -0.90146E-02 12462   0.865E-01    0.470E-01
RMM:   4    -0.662030920812E+03    0.39141E-02   -0.22993E-02 13265   0.470E-01    0.196E-01
RMM:   5    -0.662031720495E+03   -0.79968E-03   -0.15499E-02 12962   0.217E-01    0.155E-01
RMM:   6    -0.662031499001E+03    0.22149E-03   -0.47658E-03 12743   0.179E-01    0.565E-02
RMM:   7    -0.662031821286E+03   -0.32228E-03   -0.40612E-03 11629   0.749E-02    0.407E-02
RMM:   8    -0.662031890836E+03   -0.69551E-04   -0.14206E-03 11253   0.685E-02    0.243E-02
RMM:   9    -0.662031973354E+03   -0.82518E-04   -0.98199E-04 10905   0.456E-02    0.184E-02
RMM:  10    -0.662032005278E+03   -0.31924E-04   -0.46438E-04 10569   0.372E-02    0.111E-02
RMM:  11    -0.662032030342E+03   -0.25064E-04   -0.30619E-04 10129   0.277E-02    0.680E-03
RMM:  12    -0.662032044940E+03   -0.14598E-04   -0.18379E-04  9683   0.239E-02    0.420E-03
RMM:  13    -0.662032051684E+03   -0.67446E-05   -0.98684E-05  8639   0.200E-02
  16 F= -.66203205E+03 E0= -.66197598E+03  d E =-.858639E-01
 curvature:  -1.28 expect dE=-0.720E-01 dE for cont linesearch -0.233E-03
 trial: gam= 0.47835 g(F)=  0.415E-01 g(S)=  0.149E-01 ort = 0.504E-02 (trialstep = 0.100E+01)
 search vector abs. value=  0.931E-01
 bond charge predicted
       N       E                     dE             d eps       ncg     rms          rms(c)
DAV:   1    -0.662003481639E+03    0.28563E-01   -0.14355E+01  8064   0.105E+01    0.134E+00
RMM:   2    -0.662085027402E+03   -0.81546E-01   -0.12303E+00 12239   0.355E+00    0.974E-01
RMM:   3    -0.662073734893E+03    0.11293E-01   -0.18635E-01 12891   0.124E+00    0.686E-01
RMM:   4    -0.662066261728E+03    0.74732E-02   -0.38756E-02 12823   0.557E-01    0.368E-01
RMM:   5    -0.662065481619E+03    0.78011E-03   -0.19268E-02 12719   0.348E-01    0.218E-01
RMM:   6    -0.662065127542E+03    0.35408E-03   -0.79649E-03 13050   0.239E-01    0.877E-02
RMM:   7    -0.662065371928E+03   -0.24439E-03   -0.44417E-03 13375   0.111E-01    0.500E-02
RMM:   8    -0.662065499303E+03   -0.12737E-03   -0.16798E-03 12535   0.846E-02    0.378E-02
RMM:   9    -0.662065609956E+03   -0.11065E-03   -0.11711E-03 12073   0.532E-02    0.281E-02
RMM:  10    -0.662065674383E+03   -0.64427E-04   -0.55605E-04 11566   0.474E-02    0.194E-02
RMM:  11    -0.662065719257E+03   -0.44874E-04   -0.40413E-04 11260   0.348E-02    0.135E-02
RMM:  12    -0.662065745247E+03   -0.25990E-04   -0.23511E-04 10399   0.328E-02    0.759E-03
RMM:  13    -0.662065758762E+03   -0.13515E-04   -0.14849E-04  9829   0.235E-02    0.562E-03
RMM:  14    -0.662065765755E+03   -0.69932E-05   -0.79680E-05  8680   0.210E-02
  17 F= -.66206577E+03 E0= -.66201061E+03  d E =-.337141E-01
 trial-energy change:   -0.033714  1 .order   -0.032978   -0.059103   -0.006854
 step:   1.1250(harm=  1.1364)  dis= 0.02375  next Energy=  -662.066178 (dE=-0.341E-01)
 bond charge predicted
       N       E                     dE             d eps       ncg     rms          rms(c)
DAV:   1    -0.662065252288E+03    0.50647E-03   -0.20637E-01  8736   0.126E+00    0.160E-01
RMM:   2    -0.662066468581E+03   -0.12163E-02   -0.17899E-02 12319   0.428E-01    0.120E-01
RMM:   3    -0.662066298013E+03    0.17057E-03   -0.28199E-03 12770   0.150E-01    0.791E-02
RMM:   4    -0.662066210858E+03    0.87156E-04   -0.64167E-04 12798   0.708E-02    0.431E-02
RMM:   5    -0.662066210380E+03    0.47724E-06   -0.33340E-04 11918   0.441E-02    0.260E-02
RMM:   6    -0.662066213207E+03   -0.28271E-05   -0.15519E-04 11347   0.340E-02    0.108E-02
RMM:   7    -0.662066219145E+03   -0.59371E-05   -0.75371E-05  9107   0.194E-02
  18 F= -.66206622E+03 E0= -.66201120E+03  d E =-.341675E-01
 curvature:  -0.89 expect dE=-0.501E-01 dE for cont linesearch -0.196E-06
 trial: gam= 0.97196 g(F)=  0.204E-01 g(S)=  0.358E-01 ort = 0.143E-03 (trialstep = 0.663E+00)
 search vector abs. value=  0.144E+00
 bond charge predicted
       N       E                     dE             d eps       ncg     rms          rms(c)
DAV:   1    -0.662026808200E+03    0.39405E-01   -0.96944E+00  8064   0.919E+00    0.107E+00
RMM:   2    -0.662102536086E+03   -0.75728E-01   -0.97982E-01 12474   0.310E+00    0.883E-01
RMM:   3    -0.662091183794E+03    0.11352E-01   -0.13808E-01 13088   0.107E+00    0.524E-01
RMM:   4    -0.662087496033E+03    0.36878E-02   -0.27454E-02 13123   0.461E-01    0.310E-01
RMM:   5    -0.662086992705E+03    0.50333E-03   -0.12621E-02 12925   0.266E-01    0.200E-01
RMM:   6    -0.662086600173E+03    0.39253E-03   -0.65908E-03 13131   0.201E-01    0.720E-02
RMM:   7    -0.662086756676E+03   -0.15650E-03   -0.30962E-03 13175   0.104E-01    0.455E-02
WARNING in EDDRMM: call to ZHEGV failed, returncode =   8  4      5
RMM:   8    -0.662086847468E+03   -0.90792E-04   -0.14809E-03 12319   0.762E-02    0.333E-02
RMM:   9    -0.662086908463E+03   -0.60995E-04   -0.83721E-04 11700   0.496E-02    0.271E-02
RMM:  10    -0.662086946116E+03   -0.37653E-04   -0.50374E-04 11362   0.436E-02    0.159E-02
RMM:  11    -0.662086968868E+03   -0.22752E-04   -0.33454E-04 11250   0.341E-02    0.103E-02
RMM:  12    -0.662086982509E+03   -0.13641E-04   -0.20679E-04 10151   0.322E-02    0.560E-03
RMM:  13    -0.662086992363E+03   -0.98538E-05   -0.12596E-04  9884   0.222E-02    0.484E-03
RMM:  14    -0.662086997041E+03   -0.46781E-05   -0.66862E-05  8515   0.203E-02
  19 F= -.66208700E+03 E0= -.66203245E+03  d E =-.207779E-01
 trial-energy change:   -0.020778  1 .order   -0.020350   -0.037341   -0.003360
 step:   0.7237(harm=  0.7287)  dis= 0.01371  next Energy=  -662.087151 (dE=-0.209E-01)
 bond charge predicted
       N       E                     dE             d eps       ncg     rms          rms(c)
DAV:   1    -0.662086690636E+03    0.30173E-03   -0.81055E-02  8736   0.840E-01    0.974E-02
RMM:   2    -0.662087326000E+03   -0.63536E-03   -0.82238E-03 12467   0.283E-01    0.797E-02
RMM:   3    -0.662087243395E+03    0.82605E-04   -0.12530E-03 12813   0.102E-01    0.465E-02
WARNING in EDDRMM: call to ZHEGV failed, returncode =   6  3      5
RMM:   4    -0.662087215851E+03    0.27544E-04   -0.28893E-04 12306   0.478E-02    0.270E-02
RMM:   5    -0.662087214319E+03    0.15319E-05   -0.15082E-04 11062   0.293E-02    0.179E-02
RMM:   6    -0.662087210773E+03    0.35461E-05   -0.86370E-05 10137   0.236E-02
  20 F= -.66208721E+03 E0= -.66203273E+03  d E =-.209916E-01
 curvature:  -0.93 expect dE=-0.168E-01 dE for cont linesearch -0.159E-05
 trial: gam= 0.24649 g(F)=  0.148E-01 g(S)=  0.328E-02 ort = 0.497E-03 (trialstep = 0.675E+00)
 search vector abs. value=  0.271E-01
 bond charge predicted
       N       E                     dE             d eps       ncg     rms          rms(c)
DAV:   1    -0.662082437344E+03    0.47770E-02   -0.19739E+00  8400   0.414E+00    0.330E-01
RMM:   2    -0.662097370739E+03   -0.14933E-01   -0.17844E-01 12995   0.118E+00    0.187E-01
RMM:   3    -0.662096943350E+03    0.42739E-03   -0.17053E-02 12615   0.429E-01    0.155E-01
RMM:   4    -0.662096819181E+03    0.12417E-03   -0.49039E-03 13152   0.222E-01    0.876E-02
RMM:   5    -0.662096943032E+03   -0.12385E-03   -0.29314E-03 12471   0.974E-02    0.622E-02
RMM:   6    -0.662096934224E+03    0.88072E-05   -0.11088E-03 12001   0.854E-02    0.177E-02
RMM:   7    -0.662096991531E+03   -0.57306E-04   -0.67369E-04 10949   0.410E-02    0.136E-02
WARNING in EDDRMM: call to ZHEGV failed, returncode =   6  3      5
RMM:   8    -0.662097017494E+03   -0.25964E-04   -0.33959E-04 10758   0.357E-02    0.851E-03
RMM:   9    -0.662097032663E+03   -0.15169E-04   -0.18300E-04  9835   0.251E-02    0.618E-03
WARNING in EDDRMM: call to ZHEGV failed, returncode =   6  3      7
RMM:  10    -0.662097044166E+03   -0.11503E-04   -0.13116E-04  9854   0.214E-02    0.356E-03
RMM:  11    -0.662097047882E+03   -0.37160E-05   -0.55448E-05  8523   0.172E-02
  21 F= -.66209705E+03 E0= -.66204294E+03  d E =-.983711E-02
 trial-energy change:   -0.009837  1 .order   -0.009762   -0.012279   -0.007244
 step:   1.4865(harm=  1.6469)  dis= 0.00916  next Energy=  -662.101530 (dE=-0.143E-01)
 bond charge predicted
       N       E                     dE             d eps       ncg     rms          rms(c)
DAV:   1    -0.662081005807E+03    0.16038E-01   -0.28474E+00  8400   0.497E+00    0.396E-01
RMM:   2    -0.662102607873E+03   -0.21602E-01   -0.25788E-01 12986   0.141E+00    0.224E-01
RMM:   3    -0.662101984964E+03    0.62291E-03   -0.24860E-02 12571   0.519E-01    0.186E-01
RMM:   4    -0.662101809876E+03    0.17509E-03   -0.71682E-03 13228   0.268E-01    0.105E-01
RMM:   5    -0.662102000971E+03   -0.19110E-03   -0.43383E-03 12587   0.117E-01    0.749E-02
RMM:   6    -0.662101992940E+03    0.80306E-05   -0.16595E-03 12253   0.103E-01    0.212E-02
RMM:   7    -0.662102077604E+03   -0.84664E-04   -0.99575E-04 11225   0.493E-02    0.164E-02
WARNING in EDDRMM: call to ZHEGV failed, returncode =   8  4     10
RMM:   8    -0.662102116332E+03   -0.38728E-04   -0.50276E-04 10932   0.426E-02    0.104E-02
RMM:   9    -0.662102140036E+03   -0.23704E-04   -0.27868E-04 10233   0.295E-02    0.755E-03
WARNING in EDDRMM: call to ZHEGV failed, returncode =   8  4      5
WARNING in EDDRMM: call to ZHEGV failed, returncode =   8  4      9
RMM:  10    -0.662102157441E+03   -0.17406E-04   -0.19618E-04 10247   0.251E-02    0.444E-03
RMM:  11    -0.662102164330E+03   -0.68887E-05   -0.91720E-05  9227   0.196E-02
  22 F= -.66210216E+03 E0= -.66204854E+03  d E =-.149536E-01
 curvature:  -1.19 expect dE=-0.108E-01 dE for cont linesearch -0.118E-03
 trial: gam= 0.41981 g(F)=  0.698E-02 g(S)=  0.210E-02 ort = 0.163E-02 (trialstep = 0.838E+00)
 search vector abs. value=  0.152E-01
 bond charge predicted
       N       E                     dE             d eps       ncg     rms          rms(c)
DAV:   1    -0.662097823446E+03    0.43340E-02   -0.16457E+00  8400   0.353E+00    0.309E-01
RMM:   2    -0.662108728096E+03   -0.10905E-01   -0.13281E-01 12981   0.103E+00    0.187E-01
RMM:   3    -0.662108294279E+03    0.43382E-03   -0.13303E-02 12668   0.351E-01    0.164E-01
RMM:   4    -0.662107943639E+03    0.35064E-03   -0.34832E-03 12953   0.196E-01    0.745E-02
RMM:   5    -0.662108043836E+03   -0.10020E-03   -0.23943E-03 12442   0.854E-02    0.473E-02
RMM:   6    -0.662108047120E+03   -0.32841E-05   -0.77342E-04 11625   0.697E-02    0.188E-02
RMM:   7    -0.662108091518E+03   -0.44397E-04   -0.53758E-04 10590   0.346E-02    0.140E-02
RMM:   8    -0.662108109461E+03   -0.17943E-04   -0.25004E-04 10598   0.303E-02    0.810E-03
RMM:   9    -0.662108120023E+03   -0.10562E-04   -0.13008E-04  9308   0.219E-02    0.578E-03
RMM:  10    -0.662108128792E+03   -0.87684E-05   -0.98223E-05  9302   0.190E-02
  23 F= -.66210813E+03 E0= -.66205501E+03  d E =-.596446E-02
 trial-energy change:   -0.005964  1 .order   -0.005886   -0.008177   -0.003596
 step:   1.3987(harm=  1.4949)  dis= 0.00748  next Energy=  -662.109357 (dE=-0.719E-02)
 bond charge predicted
       N       E                     dE             d eps       ncg     rms          rms(c)
DAV:   1    -0.662104870517E+03    0.32495E-02   -0.73844E-01  8448   0.237E+00    0.207E-01
RMM:   2    -0.662109814241E+03   -0.49437E-02   -0.60050E-02 12967   0.692E-01    0.126E-01
RMM:   3    -0.662109625749E+03    0.18849E-03   -0.61956E-03 12621   0.238E-01    0.109E-01
RMM:   4    -0.662109480185E+03    0.14556E-03   -0.16801E-03 12702   0.133E-01    0.501E-02
RMM:   5    -0.662109534950E+03   -0.54764E-04   -0.11574E-03 11978   0.606E-02    0.328E-02
RMM:   6    -0.662109540154E+03   -0.52047E-05   -0.40731E-04 11232   0.494E-02    0.129E-02
WARNING in EDDRMM: call to ZHEGV failed, returncode =   6  3      7
RMM:   7    -0.662109560914E+03   -0.20759E-04   -0.25446E-04 10013   0.263E-02    0.943E-03
WARNING in EDDRMM: call to ZHEGV failed, returncode =   8  4      6
RMM:   8    -0.662109572622E+03   -0.11708E-04   -0.14613E-04 10124   0.234E-02    0.558E-03
RMM:   9    -0.662109577702E+03   -0.50797E-05   -0.68382E-05  8619   0.180E-02
  24 F= -.66210958E+03 E0= -.66205680E+03  d E =-.741337E-02
 curvature:  -1.14 expect dE=-0.564E-02 dE for cont linesearch -0.290E-04
 trial: gam= 0.57093 g(F)=  0.259E-02 g(S)=  0.236E-02 ort = 0.622E-03 (trialstep = 0.950E+00)
 search vector abs. value=  0.106E-01
 bond charge predicted
       N       E                     dE             d eps       ncg     rms          rms(c)
DAV:   1    -0.662104383885E+03    0.51887E-02   -0.14581E+00  8328   0.343E+00    0.374E-01
RMM:   2    -0.662114495863E+03   -0.10112E-01   -0.13428E-01 12802   0.107E+00    0.272E-01
RMM:   3    -0.662113486308E+03    0.10096E-02   -0.15566E-02 12722   0.387E-01    0.202E-01
RMM:   4    -0.662112918669E+03    0.56764E-03   -0.41188E-03 13038   0.180E-01    0.104E-01
RMM:   5    -0.662112867666E+03    0.51004E-04   -0.19408E-03 12595   0.104E-01    0.645E-02
WARNING in EDDRMM: call to ZHEGV failed, returncode =   6  3      6
RMM:   6    -0.662112839683E+03    0.27983E-04   -0.93544E-04 12582   0.699E-02    0.255E-02
RMM:   7    -0.662112860625E+03   -0.20943E-04   -0.44717E-04 10939   0.412E-02    0.160E-02
RMM:   8    -0.662112874867E+03   -0.14242E-04   -0.24480E-04 10275   0.292E-02    0.102E-02
RMM:   9    -0.662112882806E+03   -0.79387E-05   -0.13545E-04  9576   0.228E-02    0.664E-03
RMM:  10    -0.662112888402E+03   -0.55960E-05   -0.94621E-05  9248   0.196E-02
  25 F= -.66211289E+03 E0= -.66206050E+03  d E =-.331070E-02
 trial-energy change:   -0.003311  1 .order   -0.003189   -0.005033   -0.001345
 step:   1.2254(harm=  1.2961)  dis= 0.00652  next Energy=  -662.113087 (dE=-0.351E-02)
 bond charge predicted
       N       E                     dE             d eps       ncg     rms          rms(c)
DAV:   1    -0.662112427171E+03    0.45563E-03   -0.12292E-01  9024   0.997E-01    0.107E-01
RMM:   2    -0.662113284555E+03   -0.85738E-03   -0.11312E-02 12828   0.309E-01    0.785E-02
RMM:   3    -0.662113200193E+03    0.84362E-04   -0.13764E-03 12429   0.113E-01    0.574E-02
RMM:   4    -0.662113157698E+03    0.42495E-04   -0.41343E-04 12213   0.559E-02    0.292E-02
RMM:   5    -0.662113157024E+03    0.67366E-06   -0.21511E-04 11097   0.362E-02    0.181E-02
RMM:   6    -0.662113155710E+03    0.13136E-05   -0.10751E-04 10159   0.248E-02    0.750E-03
WARNING in EDDRMM: call to ZHEGV failed, returncode =   6  3     10
RMM:   7    -0.662113156971E+03   -0.12606E-05   -0.47033E-05  8230   0.180E-02
  26 F= -.66211316E+03 E0= -.66206087E+03  d E =-.357927E-02
 curvature:  -1.24 expect dE=-0.538E-02 dE for cont linesearch -0.111E-04
 trial: gam= 0.87182 g(F)=  0.171E-02 g(S)=  0.262E-02 ort = 0.308E-03 (trialstep = 0.825E+00)
 search vector abs. value=  0.129E-01
 bond charge predicted
       N       E                     dE             d eps       ncg     rms          rms(c)
DAV:   1    -0.662106583334E+03    0.65724E-02   -0.13333E+00  8232   0.347E+00    0.440E-01
RMM:   2    -0.662117374488E+03   -0.10791E-01   -0.15079E-01 12603   0.117E+00    0.325E-01
RMM:   3    -0.662115829085E+03    0.15454E-02   -0.20678E-02 12984   0.425E-01    0.219E-01
RMM:   4    -0.662115107443E+03    0.72164E-03   -0.42846E-03 12841   0.189E-01    0.120E-01
RMM:   5    -0.662115059659E+03    0.47784E-04   -0.21608E-03 12780   0.114E-01    0.823E-02
RMM:   6    -0.662114999493E+03    0.60167E-04   -0.10436E-03 12716   0.836E-02    0.262E-02
RMM:   7    -0.662115036371E+03   -0.36878E-04   -0.50548E-04 11479   0.439E-02    0.175E-02
RMM:   8    -0.662115056958E+03   -0.20587E-04   -0.25412E-04 10542   0.328E-02    0.121E-02
RMM:   9    -0.662115072762E+03   -0.15804E-04   -0.15204E-04 10085   0.255E-02    0.865E-03
RMM:  10    -0.662115084800E+03   -0.12039E-04   -0.98924E-05  9412   0.214E-02    0.551E-03
RMM:  11    -0.662115090644E+03   -0.58432E-05   -0.56115E-05  8337   0.192E-02
  27 F= -.66211509E+03 E0= -.66206339E+03  d E =-.193367E-02
 trial-energy change:   -0.001934  1 .order   -0.001896   -0.003790   -0.000003
 step:   0.8255(harm=  0.8255)  dis= 0.00497  next Energy=  -662.115053 (dE=-0.190E-02)
 bond charge predicted
       N       E                     dE             d eps       ncg     rms          rms(c)
DAV:   1    -0.662115103323E+03   -0.18523E-04   -0.12907E-04 10032   0.162E-02    0.717E-03
RMM:   2    -0.662115104261E+03   -0.93775E-06   -0.37916E-06  4451   0.727E-03
  28 F= -.66211510E+03 E0= -.66206341E+03  d E =-.194729E-02
 curvature:  -1.16 expect dE=-0.335E-02 dE for cont linesearch -0.181E-05
 trial: gam= 0.67819 g(F)=  0.149E-02 g(S)=  0.140E-02 ort = 0.142E-03 (trialstep = 0.825E+00)
 search vector abs. value=  0.902E-02
 bond charge predicted
       N       E                     dE             d eps       ncg     rms          rms(c)
DAV:   1    -0.662109851497E+03    0.52518E-02   -0.93593E-01  8616   0.275E+00    0.201E-01
RMM:   2    -0.662117047469E+03   -0.71960E-02   -0.80514E-02 12978   0.804E-01    0.126E-01
RMM:   3    -0.662116843024E+03    0.20445E-03   -0.74640E-03 12631   0.263E-01    0.104E-01
RMM:   4    -0.662116769742E+03    0.73282E-04   -0.19069E-03 12083   0.147E-01    0.601E-02
RMM:   5    -0.662116816500E+03   -0.46758E-04   -0.12711E-03 11801   0.650E-02    0.385E-02
RMM:   6    -0.662116818364E+03   -0.18638E-05   -0.47064E-04 11604   0.566E-02    0.157E-02
RMM:   7    -0.662116837779E+03   -0.19415E-04   -0.27266E-04 10205   0.272E-02    0.108E-02
RMM:   8    -0.662116846771E+03   -0.89923E-05   -0.14758E-04 10204   0.248E-02    0.607E-03
RMM:   9    -0.662116851984E+03   -0.52133E-05   -0.78504E-05  8987   0.183E-02
  29 F= -.66211685E+03 E0= -.66206556E+03  d E =-.174772E-02
 trial-energy change:   -0.001748  1 .order   -0.001705   -0.002458   -0.000951
 step:   1.2396(harm=  1.3458)  dis= 0.00630  next Energy=  -662.117096 (dE=-0.199E-02)
 bond charge predicted
       N       E                     dE             d eps       ncg     rms          rms(c)
DAV:   1    -0.662115395816E+03    0.14510E-02   -0.23638E-01  8472   0.138E+00    0.101E-01
RMM:   2    -0.662117253577E+03   -0.18578E-02   -0.20683E-02 12987   0.405E-01    0.647E-02
RMM:   3    -0.662117198721E+03    0.54856E-04   -0.20558E-03 12314   0.135E-01    0.519E-02
RMM:   4    -0.662117186018E+03    0.12703E-04   -0.55827E-04 11766   0.776E-02    0.302E-02
RMM:   5    -0.662117201554E+03   -0.15535E-04   -0.36486E-04 10711   0.362E-02    0.193E-02
RMM:   6    -0.662117206381E+03   -0.48271E-05   -0.17004E-04 10722   0.322E-02    0.805E-03
RMM:   7    -0.662117211279E+03   -0.48983E-05   -0.77350E-05  8784   0.187E-02
  30 F= -.66211721E+03 E0= -.66206612E+03  d E =-.210702E-02
 curvature:  -1.95 expect dE=-0.237E-02 dE for cont linesearch -0.233E-04
 ZBRENT: extrapolating
 opt :   1.4045  next Energy=  -662.117238 (dE=-0.213E-02)
 bond charge predicted
       N       E                     dE             d eps       ncg     rms          rms(c)
DAV:   1    -0.662116955161E+03    0.25122E-03   -0.37528E-02  8856   0.551E-01    0.405E-02
RMM:   2    -0.662117263141E+03   -0.30798E-03   -0.34104E-03 12952   0.162E-01    0.268E-02
RMM:   3    -0.662117256125E+03    0.70164E-05   -0.39078E-04 11354   0.568E-02    0.209E-02
RMM:   4    -0.662117255673E+03    0.45165E-06   -0.11639E-04 10802   0.347E-02    0.121E-02
RMM:   5    -0.662117258116E+03   -0.24433E-05   -0.63502E-05  8735   0.191E-02
  31 F= -.66211726E+03 E0= -.66206625E+03  d E =-.215386E-02
 curvature:  -2.27 expect dE=-0.312E-02 dE for cont linesearch -0.411E-07
 trial: gam= 0.33909 g(F)=  0.117E-02 g(S)=  0.202E-03 ort =-0.128E-04 (trialstep = 0.941E+00)
 search vector abs. value=  0.240E-02
 bond charge predicted
       N       E                     dE             d eps       ncg     rms          rms(c)
DAV:   1    -0.662116041846E+03    0.12138E-02   -0.31735E-01  8400   0.164E+00    0.154E-01
RMM:   2    -0.662118380311E+03   -0.23385E-02   -0.28695E-02 12849   0.485E-01    0.114E-01
RMM:   3    -0.662118211864E+03    0.16845E-03   -0.31998E-03 12671   0.177E-01    0.838E-02
RMM:   4    -0.662118134254E+03    0.77610E-04   -0.90435E-04 12609   0.829E-02    0.436E-02
RMM:   5    -0.662118135354E+03   -0.11004E-05   -0.43343E-04 11584   0.500E-02    0.274E-02
RMM:   6    -0.662118131016E+03    0.43382E-05   -0.20727E-04 10923   0.357E-02    0.107E-02
RMM:   7    -0.662118135680E+03   -0.46636E-05   -0.98852E-05  9678   0.229E-02
  32 F= -.66211814E+03 E0= -.66206727E+03  d E =-.877563E-03
 trial-energy change:   -0.000878  1 .order   -0.000831   -0.001291   -0.000371
 step:   1.2133(harm=  1.3205)  dis= 0.00225  next Energy=  -662.118190 (dE=-0.932E-03)
 bond charge predicted
       N       E                     dE             d eps       ncg     rms          rms(c)
DAV:   1    -0.662118033068E+03    0.97949E-04   -0.26629E-02  8928   0.475E-01    0.445E-02
RMM:   2    -0.662118242569E+03   -0.20950E-03   -0.25306E-03 12812   0.141E-01    0.336E-02
RMM:   3    -0.662118230511E+03    0.12058E-04   -0.33737E-04 11582   0.540E-02    0.234E-02
RMM:   4    -0.662118226412E+03    0.40987E-05   -0.11220E-04 10783   0.292E-02    0.121E-02
WARNING in EDDRMM: call to ZHEGV failed, returncode =   6  3     10
RMM:   5    -0.662118227545E+03   -0.11325E-05   -0.62110E-05  8888   0.194E-02
  33 F= -.66211823E+03 E0= -.66206740E+03  d E =-.969429E-03
 curvature:  -1.07 expect dE=-0.102E-02 dE for cont linesearch -0.684E-05
 trial: gam= 0.59894 g(F)=  0.393E-03 g(S)=  0.566E-03 ort = 0.124E-03 (trialstep = 0.995E+00)
 search vector abs. value=  0.197E-02
 bond charge predicted
       N       E                     dE             d eps       ncg     rms          rms(c)
DAV:   1    -0.662117445021E+03    0.78139E-03   -0.28529E-01  8112   0.172E+00    0.255E-01
RMM:   2    -0.662119876435E+03   -0.24314E-02   -0.37535E-02 11751   0.609E-01    0.214E-01
RMM:   3    -0.662118885983E+03    0.99045E-03   -0.52643E-03 13069   0.210E-01    0.124E-01
RMM:   4    -0.662118653003E+03    0.23298E-03   -0.12995E-03 12584   0.957E-02    0.729E-02
RMM:   5    -0.662118601795E+03    0.51208E-04   -0.56549E-04 12411   0.652E-02    0.401E-02
WARNING in EDDRMM: call to ZHEGV failed, returncode =   6  3      6
RMM:   6    -0.662118596265E+03    0.55301E-05   -0.26262E-04 12246   0.429E-02    0.148E-02
RMM:   7    -0.662118603800E+03   -0.75351E-05   -0.10797E-04  9836   0.244E-02    0.868E-03
RMM:   8    -0.662118610866E+03   -0.70658E-05   -0.61591E-05  8592   0.197E-02
  34 F= -.66211861E+03 E0= -.66206792E+03  d E =-.383321E-03
 trial-energy change:   -0.000383  1 .order   -0.000362   -0.001029    0.000304
 step:   0.7683(harm=  0.7683)  dis= 0.00139  next Energy=  -662.118624 (dE=-0.397E-03)
 bond charge predicted
       N       E                     dE             d eps       ncg     rms          rms(c)
DAV:   1    -0.662118612886E+03   -0.90860E-05   -0.14901E-02  8736   0.393E-01    0.596E-02
RMM:   2    -0.662118742479E+03   -0.12959E-03   -0.19913E-03 11183   0.139E-01    0.500E-02
RMM:   3    -0.662118684433E+03    0.58046E-04   -0.26472E-04 11710   0.491E-02    0.301E-02
RMM:   4    -0.662118669265E+03    0.15168E-04   -0.61110E-05  8587   0.228E-02    0.180E-02
RMM:   5    -0.662118663902E+03    0.53631E-05   -0.20570E-05  5018   0.184E-02
  35 F= -.66211866E+03 E0= -.66206794E+03  d E =-.436357E-03
 curvature:  -0.73 expect dE=-0.531E-03 dE for cont linesearch -0.514E-06
 trial: gam= 0.89922 g(F)=  0.324E-03 g(S)=  0.400E-03 ort = 0.372E-04 (trialstep = 0.785E+00)
 search vector abs. value=  0.238E-02
 bond charge predicted
       N       E                     dE             d eps       ncg     rms          rms(c)
DAV:   1    -0.662117316945E+03    0.13523E-02   -0.21423E-01  8400   0.135E+00    0.884E-02
RMM:   2    -0.662119141313E+03   -0.18244E-02   -0.19997E-02 13042   0.364E-01    0.549E-02
RMM:   3    -0.662119021945E+03    0.11937E-03   -0.17044E-03 12345   0.122E-01    0.435E-02
RMM:   4    -0.662119012644E+03    0.93017E-05   -0.42404E-04 11104   0.686E-02    0.255E-02
RMM:   5    -0.662119025529E+03   -0.12885E-04   -0.28933E-04 10681   0.341E-02    0.185E-02
RMM:   6    -0.662119026844E+03   -0.13150E-05   -0.12034E-04 10460   0.299E-02    0.652E-03
RMM:   7    -0.662119030081E+03   -0.32368E-05   -0.52750E-05  8091   0.162E-02
  36 F= -.66211903E+03 E0= -.66206831E+03  d E =-.366179E-03
 trial-energy change:   -0.000366  1 .order   -0.000380   -0.000595   -0.000165
 step:   1.0865(harm=  1.0865)  dis= 0.00254  next Energy=  -662.119075 (dE=-0.412E-03)
 bond charge predicted
       N       E                     dE             d eps       ncg     rms          rms(c)
DAV:   1    -0.662118807610E+03    0.21923E-03   -0.31706E-02  8688   0.520E-01    0.344E-02
RMM:   2    -0.662119095549E+03   -0.28794E-03   -0.31185E-03 13043   0.142E-01    0.229E-02
RMM:   3    -0.662119080155E+03    0.15395E-04   -0.33680E-04 10953   0.512E-02    0.169E-02
WARNING in EDDRMM: call to ZHEGV failed, returncode =   8  4      5
RMM:   4    -0.662119081313E+03   -0.11582E-05   -0.10097E-04 10599   0.327E-02    0.101E-02
RMM:   5    -0.662119083977E+03   -0.26644E-05   -0.56427E-05  8697   0.182E-02
  37 F= -.66211908E+03 E0= -.66206837E+03  d E =-.420076E-03
 curvature:  -1.71 expect dE=-0.485E-03 dE for cont linesearch -0.739E-06
 trial: gam= 0.07599 g(F)=  0.199E-03 g(S)=  0.846E-04 ort = 0.321E-04 (trialstep = 0.845E+00)
 search vector abs. value=  0.302E-03
 bond charge predicted
       N       E                     dE             d eps       ncg     rms          rms(c)
DAV:   1    -0.662119191370E+03   -0.11006E-03   -0.33493E-02  9240   0.595E-01    0.104E-01
RMM:   2    -0.662119387424E+03   -0.19605E-03   -0.44344E-03 11593   0.220E-01    0.812E-02
RMM:   3    -0.662119264946E+03    0.12248E-03   -0.74326E-04 12734   0.784E-02    0.521E-02
RMM:   4    -0.662119217134E+03    0.47812E-04   -0.20107E-04 11884   0.397E-02    0.287E-02
RMM:   5    -0.662119203618E+03    0.13516E-04   -0.80587E-05 10341   0.273E-02    0.151E-02
RMM:   6    -0.662119198489E+03    0.51287E-05   -0.35769E-05  6550   0.196E-02
  38 F= -.66211920E+03 E0= -.66206846E+03  d E =-.114512E-03
 trial-energy change:   -0.000115  1 .order   -0.000098   -0.000242    0.000046
 step:   0.7094(harm=  0.7094)  dis= 0.00063  next Energy=  -662.119185 (dE=-0.101E-03)
 bond charge predicted
       N       E                     dE             d eps       ncg     rms          rms(c)
DAV:   1    -0.662119199100E+03    0.45176E-05   -0.92190E-04 10224   0.990E-02    0.177E-02
RMM:   2    -0.662119202668E+03   -0.35674E-05   -0.12812E-04  9689   0.364E-02    0.136E-02
RMM:   3    -0.662119197689E+03    0.49789E-05   -0.17418E-05  4942   0.171E-02
  39 F= -.66211920E+03 E0= -.66206846E+03  d E =-.113711E-03
 curvature:  -0.37 expect dE=-0.149E-03 dE for cont linesearch -0.347E-06
 trial: gam= 1.48159 g(F)=  0.116E-03 g(S)=  0.280E-03 ort =-0.167E-04 (trialstep = 0.245E+00)
 search vector abs. value=  0.101E-02
 bond charge predicted
       N       E                     dE             d eps       ncg     rms          rms(c)
DAV:   1    -0.662119176333E+03    0.26334E-04   -0.93708E-03  8784   0.284E-01    0.218E-02
RMM:   2    -0.662119259290E+03   -0.82956E-04   -0.91207E-04 12442   0.854E-02    0.156E-02
WARNING in EDDRMM: call to ZHEGV failed, returncode =   6  3      7
RMM:   3    -0.662119252561E+03    0.67289E-05   -0.89370E-05  9701   0.317E-02
  40 F= -.66211925E+03 E0= -.66206850E+03  d E =-.548721E-04
 trial-energy change:   -0.000055  1 .order   -0.000056   -0.000091   -0.000020
 step:   0.3138(harm=  0.3138)  dis= 0.00056  next Energy=  -662.119256 (dE=-0.583E-04)
 bond charge predicted
       N       E                     dE             d eps       ncg     rms          rms(c)
DAV:   1    -0.662119255800E+03    0.34895E-05   -0.81707E-04  9072   0.819E-02    0.971E-03
RMM:   2    -0.662119265386E+03   -0.95858E-05   -0.10763E-04 10118   0.275E-02    0.686E-03
RMM:   3    -0.662119264356E+03    0.10297E-05   -0.15244E-05  5081   0.159E-02
  41 F= -.66211926E+03 E0= -.66206852E+03  d E =-.666677E-04
 curvature:  -0.43 expect dE=-0.722E-04 dE for cont linesearch -0.471E-05
 ZBRENT: increasing intervall
 opt :   0.4520  next Energy=  -662.119282 (dE=-0.845E-04)
 bond charge predicted
       N       E                     dE             d eps       ncg     rms          rms(c)
DAV:   1    -0.662119252792E+03    0.12594E-04   -0.30414E-03  8976   0.160E-01    0.116E-02
RMM:   2    -0.662119283330E+03   -0.30537E-04   -0.32095E-04 11787   0.496E-02    0.945E-03
RMM:   3    -0.662119281104E+03    0.22254E-05   -0.38717E-05  6767   0.208E-02
  42 F= -.66211928E+03 E0= -.66206853E+03  d E =-.834153E-04
 curvature:  -1.62 expect dE=-0.276E-03 dE for cont linesearch -0.150E-06
 trial: gam=-0.01754 g(F)=  0.774E-04 g(S)=  0.930E-04 ort = 0.969E-05 (trialstep = 0.286E+00)
 search vector abs. value=  0.170E-03
 bond charge predicted
       N       E                     dE             d eps       ncg     rms          rms(c)
DAV:   1    -0.662119330956E+03   -0.47627E-04   -0.23192E-03 10440   0.165E-01    0.389E-02
RMM:   2    -0.662119332346E+03   -0.13902E-05   -0.33092E-04 11569   0.591E-02    0.302E-02
RMM:   3    -0.662119311066E+03    0.21280E-04   -0.51744E-05  7871   0.234E-02    0.179E-02
RMM:   4    -0.662119307015E+03    0.40508E-05   -0.19977E-05  4797   0.190E-02
  43 F= -.66211931E+03 E0= -.66206856E+03  d E =-.259109E-04
 trial-energy change:   -0.000026  1 .order   -0.000037   -0.000049   -0.000026
 step:   0.6079(harm=  0.6079)  dis= 0.00030  next Energy=  -662.119333 (dE=-0.517E-04)
 bond charge predicted
       N       E                     dE             d eps       ncg     rms          rms(c)
DAV:   1    -0.662119326507E+03   -0.15442E-04   -0.27788E-03 10440   0.182E-01    0.426E-02
RMM:   2    -0.662119335804E+03   -0.92965E-05   -0.40981E-04 11811   0.662E-02    0.363E-02
RMM:   3    -0.662119306960E+03    0.28844E-04   -0.69120E-05  9260   0.253E-02    0.191E-02
RMM:   4    -0.662119302356E+03    0.46043E-05   -0.20707E-05  4798   0.186E-02
  44 F= -.66211930E+03 E0= -.66206856E+03  d E =-.212515E-04
 curvature:  -0.30 expect dE=-0.155E-04 dE for cont linesearch -0.400E-06
 ZBRENT: interpolating
 opt :   0.5621  next Energy=  -662.119303 (dE=-0.216E-04)
 bond charge predicted
       N       E                     dE             d eps       ncg     rms          rms(c)
DAV:   1    -0.662119308139E+03   -0.11788E-05   -0.10737E-04 11040   0.343E-02    0.766E-03
RMM:   2    -0.662119310014E+03   -0.18758E-05   -0.11973E-05  4702   0.129E-02
  45 F= -.66211931E+03 E0= -.66206856E+03  d E =-.289104E-04
 curvature:  -0.26 expect dE=-0.278E-04 dE for cont linesearch -0.287E-05
 ZBRENT: bisectioning
 opt :   0.4241  next Energy=  -662.119322 (dE=-0.408E-04)
 bond charge predicted
       N       E                     dE             d eps       ncg     rms          rms(c)
DAV:   1    -0.662119323395E+03   -0.15256E-04   -0.55160E-04 10656   0.835E-02    0.196E-02
RMM:   2    -0.662119323235E+03    0.15942E-06   -0.82550E-05  9121   0.292E-02
  46 F= -.66211932E+03 E0= -.66206858E+03  d E =-.421312E-04
 curvature:  -1.08 expect dE=-0.136E-03 dE for cont linesearch -0.125E-05
 trial: gam= 0.81620 g(F)=  0.721E-04 g(S)=  0.545E-04 ort =-0.141E-04 (trialstep = 0.246E+00)
 search vector abs. value=  0.217E-03
 bond charge predicted
       N       E                     dE             d eps       ncg     rms          rms(c)
DAV:   1    -0.662119317203E+03    0.61920E-05   -0.21006E-03  8976   0.130E-01    0.113E-02
RMM:   2    -0.662119335311E+03   -0.18108E-04   -0.20393E-04 10515   0.404E-02    0.949E-03
RMM:   3    -0.662119331579E+03    0.37311E-05   -0.14541E-05  4824   0.190E-02
  47 F= -.66211933E+03 E0= -.66206857E+03  d E =-.834408E-05
 trial-energy change:   -0.000008  1 .order   -0.000015   -0.000028   -0.000001
 step:   0.2535(harm=  0.2535)  dis= 0.00016  next Energy=  -662.119338 (dE=-0.146E-04)
 bond charge predicted
       N       E                     dE             d eps       ncg     rms          rms(c)
DAV:   1    -0.662119331638E+03    0.36729E-05   -0.12326E-05  6744   0.136E-02    0.285E-03
RMM:   2    -0.662119331559E+03    0.78733E-07   -0.35357E-06  4171   0.104E-02
  48 F= -.66211933E+03 E0= -.66206858E+03  d E =-.832356E-05
 curvature:  -0.24 expect dE=-0.122E-04 dE for cont linesearch -0.536E-06
 ZBRENT: increasing intervall
 opt :   0.2681  next Energy=  -662.119332 (dE=-0.892E-05)
 bond charge predicted
       N       E                     dE             d eps       ncg     rms          rms(c)
DAV:   1    -0.662119331815E+03   -0.17771E-06   -0.95557E-06  5328   0.108E-02    0.167E-03
RMM:   2    -0.662119331994E+03   -0.17881E-06   -0.32624E-06  4022   0.103E-02
  49 F= -.66211933E+03 E0= -.66206858E+03  d E =-.875881E-05
 curvature:  -0.27 expect dE=-0.135E-04 dE for cont linesearch -0.797E-07
 trial: gam= 0.05174 g(F)=  0.358E-04 g(S)=  0.149E-04 ort = 0.807E-05 (trialstep = 0.251E+00)
 search vector abs. value=  0.521E-04
 bond charge predicted
       N       E                     dE             d eps       ncg     rms          rms(c)
DAV:   1    -0.662119344721E+03   -0.12905E-04   -0.52733E-04  9696   0.759E-02    0.128E-02
RMM:   2    -0.662119347772E+03   -0.30519E-05   -0.69865E-05  7085   0.272E-02
  50 F= -.66211935E+03 E0= -.66206859E+03  d E =-.157784E-04
 trial-energy change:   -0.000016  1 .order   -0.000009   -0.000013   -0.000006
 step:   0.4772(harm=  0.4772)  dis= 0.00016  next Energy=  -662.119344 (dE=-0.122E-04)
 bond charge predicted
       N       E                     dE             d eps       ncg     rms          rms(c)
DAV:   1    -0.662119356494E+03   -0.11773E-04   -0.47502E-04 10152   0.731E-02    0.175E-02
RMM:   2    -0.662119360163E+03   -0.36699E-05   -0.86101E-05  8188   0.310E-02
  51 F= -.66211936E+03 E0= -.66206860E+03  d E =-.281694E-04
 curvature:  -0.24 expect dE=-0.623E-05 dE for cont linesearch -0.121E-05
 ZBRENT: increasing intervall
 opt :   0.9304  next Energy=  -662.119364 (dE=-0.318E-04)
 bond charge predicted
       N       E                     dE             d eps       ncg     rms          rms(c)
DAV:   1    -0.662119365860E+03   -0.93669E-05   -0.17552E-03  9624   0.140E-01    0.295E-02
RMM:   2    -0.662119379799E+03   -0.13939E-04   -0.29836E-04 10763   0.570E-02    0.256E-02
RMM:   3    -0.662119364383E+03    0.15416E-04   -0.36192E-05  6130   0.225E-02    0.137E-02
RMM:   4    -0.662119358927E+03    0.54559E-05   -0.16584E-05  4653   0.181E-02
  52 F= -.66211936E+03 E0= -.66206858E+03  d E =-.269333E-04
 curvature:  -0.72 expect dE=-0.270E-04 dE for cont linesearch -0.936E-08
 trial: gam= 0.82743 g(F)=  0.290E-04 g(S)=  0.844E-05 ort =-0.822E-06 (trialstep = 0.281E+00)
 search vector abs. value=  0.717E-04
 reached required accuracy - stopping structural energy minimisation
