<?xml version="1.0" encoding="ISO-8859-1"?>
<modeling>
 <generator>
  <i name="program" type="string">vasp </i>
  <i name="version" type="string">5.4.4.18Apr17-6-g9f103f2a35  </i>
  <i name="subversion" type="string">(build Oct 18 2021 20:38:43) complex            parallel </i>
  <i name="platform" type="string">LinuxIFC </i>
  <i name="date" type="string">2024 05 30 </i>
  <i name="time" type="string">10:50:59 </i>
 </generator>
 <incar>
  <i type="string" name="SYSTEM">HECN</i>
  <i type="int" name="ISTART">     0</i>
  <i type="string" name="PREC">normal</i>
  <i type="string" name="ALGO">Fast</i>
  <i type="int" name="ICHARG">     2</i>
  <i type="int" name="NELM">    60</i>
  <i type="int" name="IBRION">     2</i>
  <i name="EDIFF">      0.00001000</i>
  <i name="EDIFFG">     -0.01000000</i>
  <i type="int" name="NSW">   100</i>
  <i type="int" name="ISIF">     3</i>
  <i name="ENCUT">    400.00000000</i>
  <i name="POTIM">      0.50000000</i>
  <i type="logical" name="LREAL"> F  </i>
  <i type="int" name="ISMEAR">     0</i>
  <i name="SIGMA">      0.10000000</i>
  <i type="logical" name="LWAVE"> F  </i>
  <i type="logical" name="LCHARG"> F  </i>
  <v type="int" name="KPOINT_BSE">    -1     0     0     0</v>
  <i type="int" name="NELM">    60</i>
 </incar>
 <structure name="primitive_cell" >
  <crystal>
   <varray name="basis" >
    <v>      11.23999977       0.00000000       0.00000000 </v>
    <v>       0.00000000      11.23999977       0.00000000 </v>
    <v>       0.00000000       0.00000000      11.23999977 </v>
   </varray>
   <i name="volume">   1420.03453724 </i>
   <varray name="rec_basis" >
    <v>       0.08896797       0.00000000       0.00000000 </v>
    <v>       0.00000000       0.08896797       0.00000000 </v>
    <v>       0.00000000       0.00000000       0.08896797 </v>
   </varray>
  </crystal>
  <varray name="positions" >
   <v>       0.00000000       0.00000000       0.00000000 </v>
   <v>      -0.24999996       0.00000000       0.00000000 </v>
   <v>       0.00000000       0.00000000      -0.24999996 </v>
   <v>       0.00000000      -0.24999996       0.00000000 </v>
   <v>       0.25000000       0.00000000       0.00000000 </v>
   <v>       0.00000000       0.25000000       0.00000000 </v>
   <v>       0.00000000       0.00000000       0.25000000 </v>
   <v>      -0.24999996      -0.24999996       0.00000000 </v>
   <v>       0.00000000      -0.24999996      -0.24999996 </v>
   <v>      -0.24999996       0.00000000      -0.24999996 </v>
   <v>       0.00000000       0.25000000      -0.24999996 </v>
   <v>      -0.24999996       0.00000000       0.25000000 </v>
   <v>      -0.24999996       0.25000000       0.00000000 </v>
   <v>       0.25000000      -0.24999996       0.00000000 </v>
   <v>       0.25000000       0.00000000      -0.24999996 </v>
   <v>       0.00000000      -0.24999996       0.25000000 </v>
   <v>       0.25000000       0.00000000       0.25000000 </v>
   <v>       0.00000000       0.25000000       0.25000000 </v>
   <v>       0.25000000       0.25000000       0.00000000 </v>
   <v>      -0.24999996      -0.24999996      -0.24999996 </v>
   <v>      -0.24999996       0.25000000      -0.24999996 </v>
   <v>       0.25000000      -0.24999996      -0.24999996 </v>
   <v>      -0.24999996      -0.24999996       0.25000000 </v>
   <v>      -0.24999996       0.25000000       0.25000000 </v>
   <v>       0.25000000      -0.24999996       0.25000000 </v>
   <v>       0.25000000       0.25000000      -0.24999996 </v>
   <v>       0.25000000       0.25000000       0.25000000 </v>
   <v>      -0.50000000       0.00000000       0.00000000 </v>
   <v>       0.00000000      -0.50000000       0.00000000 </v>
   <v>       0.00000000       0.00000000      -0.50000000 </v>
   <v>      -0.50000000      -0.24999996       0.00000000 </v>
   <v>      -0.24999996       0.00000000      -0.50000000 </v>
   <v>      -0.50000000       0.00000000      -0.24999996 </v>
   <v>      -0.24999996      -0.50000000       0.00000000 </v>
   <v>       0.00000000      -0.24999996      -0.50000000 </v>
   <v>       0.00000000      -0.50000000      -0.24999996 </v>
   <v>      -0.50000000       0.00000000       0.25000000 </v>
   <v>       0.00000000      -0.50000000       0.25000000 </v>
   <v>      -0.50000000       0.25000000       0.00000000 </v>
   <v>       0.25000000      -0.50000000       0.00000000 </v>
   <v>       0.25000000       0.00000000      -0.50000000 </v>
   <v>       0.00000000       0.25000000      -0.50000000 </v>
   <v>      -0.24999996      -0.24999996      -0.50000000 </v>
   <v>      -0.50000000      -0.24999996      -0.24999996 </v>
   <v>      -0.24999996      -0.50000000      -0.24999996 </v>
   <v>      -0.50000000       0.25000000      -0.24999996 </v>
   <v>      -0.24999996       0.25000000      -0.50000000 </v>
   <v>       0.25000000      -0.50000000      -0.24999996 </v>
   <v>       0.25000000      -0.24999996      -0.50000000 </v>
   <v>      -0.50000000      -0.24999996       0.25000000 </v>
   <v>      -0.24999996      -0.50000000       0.25000000 </v>
   <v>       0.25000000      -0.50000000       0.25000000 </v>
   <v>      -0.50000000       0.25000000       0.25000000 </v>
   <v>       0.25000000       0.25000000      -0.50000000 </v>
   <v>      -0.50000000      -0.50000000       0.00000000 </v>
   <v>       0.00000000      -0.50000000      -0.50000000 </v>
   <v>      -0.50000000       0.00000000      -0.50000000 </v>
   <v>      -0.24999996      -0.50000000      -0.50000000 </v>
   <v>      -0.50000000      -0.24999996      -0.50000000 </v>
   <v>      -0.50000000      -0.50000000      -0.24999996 </v>
   <v>      -0.50000000       0.25000000      -0.50000000 </v>
   <v>      -0.50000000      -0.50000000       0.25000000 </v>
   <v>       0.25000000      -0.50000000      -0.50000000 </v>
   <v>      -0.50000000      -0.50000000      -0.50000000 </v>
  </varray>
 </structure>
 <varray name="primitive_index" >
  <v type="int" >        1 </v>
  <v type="int" >       25 </v>
  <v type="int" >       29 </v>
  <v type="int" >       38 </v>
  <v type="int" >       22 </v>
  <v type="int" >       23 </v>
  <v type="int" >       34 </v>
  <v type="int" >        9 </v>
  <v type="int" >       12 </v>
  <v type="int" >       58 </v>
  <v type="int" >       10 </v>
  <v type="int" >       16 </v>
  <v type="int" >       17 </v>
  <v type="int" >       18 </v>
  <v type="int" >       56 </v>
  <v type="int" >       59 </v>
  <v type="int" >        2 </v>
  <v type="int" >        8 </v>
  <v type="int" >       14 </v>
  <v type="int" >       49 </v>
  <v type="int" >       30 </v>
  <v type="int" >       45 </v>
  <v type="int" >       39 </v>
  <v type="int" >       24 </v>
  <v type="int" >       36 </v>
  <v type="int" >       42 </v>
  <v type="int" >       21 </v>
  <v type="int" >       53 </v>
  <v type="int" >       54 </v>
  <v type="int" >       61 </v>
  <v type="int" >       28 </v>
  <v type="int" >       31 </v>
  <v type="int" >       33 </v>
  <v type="int" >       40 </v>
  <v type="int" >       47 </v>
  <v type="int" >       48 </v>
  <v type="int" >       26 </v>
  <v type="int" >       27 </v>
  <v type="int" >       35 </v>
  <v type="int" >       37 </v>
  <v type="int" >       43 </v>
  <v type="int" >       44 </v>
  <v type="int" >       64 </v>
  <v type="int" >        7 </v>
  <v type="int" >       63 </v>
  <v type="int" >        5 </v>
  <v type="int" >       11 </v>
  <v type="int" >       13 </v>
  <v type="int" >       20 </v>
  <v type="int" >       55 </v>
  <v type="int" >       60 </v>
  <v type="int" >        3 </v>
  <v type="int" >       15 </v>
  <v type="int" >       19 </v>
  <v type="int" >        4 </v>
  <v type="int" >        6 </v>
  <v type="int" >       57 </v>
  <v type="int" >       50 </v>
  <v type="int" >       51 </v>
  <v type="int" >       52 </v>
  <v type="int" >       32 </v>
  <v type="int" >       41 </v>
  <v type="int" >       46 </v>
  <v type="int" >       62 </v>
 </varray>
 <kpoints>
  <generation param="Gamma">
   <v type="int" name="divisions">       3        3        3 </v>
   <v name="usershift">      0.00000000       0.00000000       0.00000000 </v>
   <v name="genvec1">      0.33333333       0.00000000       0.00000000 </v>
   <v name="genvec2">      0.00000000       0.33333333       0.00000000 </v>
   <v name="genvec3">      0.00000000       0.00000000       0.33333333 </v>
   <v name="shift">      0.00000000       0.00000000       0.00000000 </v>
  </generation>
  <varray name="kpointlist" >
   <v>       0.00000000       0.00000000       0.00000000 </v>
   <v>       0.33333333       0.00000000       0.00000000 </v>
   <v>       0.00000000       0.33333333       0.00000000 </v>
   <v>       0.33333333       0.33333333       0.00000000 </v>
   <v>      -0.33333333       0.33333333       0.00000000 </v>
   <v>       0.00000000       0.00000000       0.33333333 </v>
   <v>       0.33333333       0.00000000       0.33333333 </v>
   <v>      -0.33333333       0.00000000       0.33333333 </v>
   <v>       0.00000000       0.33333333       0.33333333 </v>
   <v>       0.33333333       0.33333333       0.33333333 </v>
   <v>      -0.33333333       0.33333333       0.33333333 </v>
   <v>       0.00000000      -0.33333333       0.33333333 </v>
   <v>       0.33333333      -0.33333333       0.33333333 </v>
   <v>      -0.33333333      -0.33333333       0.33333333 </v>
  </varray>
  <varray name="weights" >
   <v>       0.03703704 </v>
   <v>       0.07407407 </v>
   <v>       0.07407407 </v>
   <v>       0.07407407 </v>
   <v>       0.07407407 </v>
   <v>       0.07407407 </v>
   <v>       0.07407407 </v>
   <v>       0.07407407 </v>
   <v>       0.07407407 </v>
   <v>       0.07407407 </v>
   <v>       0.07407407 </v>
   <v>       0.07407407 </v>
   <v>       0.07407407 </v>
   <v>       0.07407407 </v>
  </varray>
 </kpoints>
 <parameters>
  <separator name="general" >
   <i type="string" name="SYSTEM">HECN</i>
   <i type="logical" name="LCOMPAT"> F  </i>
  </separator>
  <separator name="electronic" >
   <i type="string" name="PREC">normal</i>
   <i name="ENMAX">    400.00000000</i>
   <i name="ENAUG">    644.87300000</i>
   <i name="EDIFF">      0.00001000</i>
   <i type="int" name="IALGO">    68</i>
   <i type="int" name="IWAVPR">    11</i>
   <i type="int" name="NBANDS">   288</i>
   <i name="NELECT">    475.00000000</i>
   <i type="int" name="TURBO">     0</i>
   <i type="int" name="IRESTART">     0</i>
   <i type="int" name="NREBOOT">     0</i>
   <i type="int" name="NMIN">     0</i>
   <i name="EREF">      0.00000000</i>
   <separator name="electronic smearing" >
    <i type="int" name="ISMEAR">     0</i>
    <i name="SIGMA">      0.10000000</i>
    <i name="KSPACING">      0.50000000</i>
    <i type="logical" name="KGAMMA"> T  </i>
   </separator>
   <separator name="electronic projectors" >
    <i type="logical" name="LREAL"> F  </i>
    <v name="ROPT">      0.00000000      0.00000000      0.00000000      0.00000000      0.00000000      0.00000000      0.00000000</v>
    <i type="int" name="LMAXPAW">  -100</i>
    <i type="int" name="LMAXMIX">     2</i>
    <i type="logical" name="NLSPLINE"> F  </i>
   </separator>
   <separator name="electronic startup" >
    <i type="int" name="ISTART">     0</i>
    <i type="int" name="ICHARG">     2</i>
    <i type="int" name="INIWAV">     1</i>
   </separator>
   <separator name="electronic spin" >
    <i type="int" name="ISPIN">     1</i>
    <i type="logical" name="LNONCOLLINEAR"> F  </i>
    <v name="MAGMOM">      1.00000000      1.00000000      1.00000000      1.00000000      1.00000000      1.00000000      1.00000000      1.00000000      1.00000000      1.00000000      1.00000000      1.00000000      1.00000000      1.00000000      1.00000000      1.00000000      1.00000000      1.00000000      1.00000000      1.00000000
      1.00000000      1.00000000      1.00000000      1.00000000      1.00000000      1.00000000      1.00000000      1.00000000      1.00000000      1.00000000      1.00000000      1.00000000      1.00000000      1.00000000      1.00000000      1.00000000      1.00000000      1.00000000      1.00000000      1.00000000
      1.00000000      1.00000000      1.00000000      1.00000000      1.00000000      1.00000000      1.00000000      1.00000000      1.00000000      1.00000000      1.00000000      1.00000000      1.00000000      1.00000000      1.00000000      1.00000000      1.00000000      1.00000000      1.00000000      1.00000000
      1.00000000      1.00000000      1.00000000      1.00000000</v>
    <i name="NUPDOWN">     -1.00000000</i>
    <i type="logical" name="LSORBIT"> F  </i>
    <v name="SAXIS">      0.00000000      0.00000000      1.00000000</v>
    <i type="logical" name="LSPIRAL"> F  </i>
    <v name="QSPIRAL">      0.00000000      0.00000000      0.00000000</v>
    <i type="logical" name="LZEROZ"> F  </i>
   </separator>
   <separator name="electronic exchange-correlation" >
    <i type="logical" name="LASPH"> F  </i>
    <i type="logical" name="LMETAGGA"> F  </i>
   </separator>
   <separator name="electronic convergence" >
    <i type="int" name="NELM">    60</i>
    <i type="int" name="NELMDL">    -5</i>
    <i type="int" name="NELMIN">     2</i>
    <i name="ENINI">    400.00000000</i>
    <separator name="electronic convergence detail" >
     <i type="logical" name="LDIAG"> T  </i>
     <i type="logical" name="LSUBROT"> F  </i>
     <i name="WEIMIN">      0.00100000</i>
     <i name="EBREAK">      0.00000001</i>
     <i name="DEPER">      0.30000000</i>
     <i type="int" name="NRMM">     4</i>
     <i name="TIME">      0.40000000</i>
    </separator>
   </separator>
   <separator name="electronic mixer" >
    <i name="AMIX">      0.40000000</i>
    <i name="BMIX">      1.00000000</i>
    <i name="AMIN">      0.10000000</i>
    <i name="AMIX_MAG">      1.60000000</i>
    <i name="BMIX_MAG">      1.00000000</i>
    <separator name="electronic mixer details" >
     <i type="int" name="IMIX">     4</i>
     <i type="logical" name="MIXFIRST"> F  </i>
     <i type="int" name="MAXMIX">   -45</i>
     <i name="WC">    100.00000000</i>
     <i type="int" name="INIMIX">     1</i>
     <i type="int" name="MIXPRE">     1</i>
     <i type="int" name="MREMOVE">     5</i>
    </separator>
   </separator>
   <separator name="electronic dipolcorrection" >
    <i type="logical" name="LDIPOL"> F  </i>
    <i type="logical" name="LMONO"> F  </i>
    <i type="int" name="IDIPOL">     0</i>
    <i name="EPSILON">      1.00000000</i>
    <v name="DIPOL">   -100.00000000   -100.00000000   -100.00000000</v>
    <i name="EFIELD">      0.00000000</i>
   </separator>
  </separator>
  <separator name="grids" >
   <i type="int" name="NGX">    56</i>
   <i type="int" name="NGY">    56</i>
   <i type="int" name="NGZ">    56</i>
   <i type="int" name="NGXF">   112</i>
   <i type="int" name="NGYF">   112</i>
   <i type="int" name="NGZF">   112</i>
   <i type="logical" name="ADDGRID"> F  </i>
  </separator>
  <separator name="ionic" >
   <i type="int" name="NSW">   100</i>
   <i type="int" name="IBRION">     2</i>
   <i type="int" name="MDALGO">     0</i>
   <i type="int" name="ISIF">     3</i>
   <i name="PSTRESS">      0.00000000</i>
   <i name="EDIFFG">     -0.01000000</i>
   <i type="int" name="NFREE">     1</i>
   <i name="POTIM">      0.50000000</i>
   <i name="SMASS">     -3.00000000</i>
   <i name="SCALEE">      1.00000000</i>
  </separator>
  <separator name="ionic md" >
   <i name="TEBEG">      0.00010000</i>
   <i name="TEEND">      0.00010000</i>
   <i type="int" name="NBLOCK">     1</i>
   <i type="int" name="KBLOCK">   100</i>
   <i type="int" name="NPACO">   256</i>
   <i name="APACO">     16.00000000</i>
  </separator>
  <separator name="symmetry" >
   <i type="int" name="ISYM">     2</i>
   <i name="SYMPREC">      0.00001000</i>
  </separator>
  <separator name="dos" >
   <i type="int" name="LORBIT">     0</i>
   <v name="RWIGS">     -1.00000000     -1.00000000     -1.00000000     -1.00000000     -1.00000000     -1.00000000     -1.00000000</v>
   <i type="int" name="NEDOS">   301</i>
   <i name="EMIN">     10.00000000</i>
   <i name="EMAX">    -10.00000000</i>
   <i name="EFERMI">      0.00000000</i>
  </separator>
  <separator name="writing" >
   <i type="int" name="NWRITE">     2</i>
   <i type="logical" name="LWAVE"> F  </i>
   <i type="logical" name="LDOWNSAMPLE"> F  </i>
   <i type="logical" name="LCHARG"> F  </i>
   <i type="logical" name="LPARD"> F  </i>
   <i type="logical" name="LVTOT"> F  </i>
   <i type="logical" name="LVHAR"> F  </i>
   <i type="logical" name="LELF"> F  </i>
   <i type="logical" name="LOPTICS"> F  </i>
   <v name="STM">      0.00000000      0.00000000      0.00000000      0.00000000      0.00000000      0.00000000      0.00000000</v>
  </separator>
  <separator name="performance" >
   <i type="int" name="NPAR">    24</i>
   <i type="int" name="NSIM">     4</i>
   <i type="int" name="NBLK">    -1</i>
   <i type="logical" name="LPLANE"> T  </i>
   <i type="logical" name="LSCALAPACK"> T  </i>
   <i type="logical" name="LSCAAWARE"> F  </i>
   <i type="logical" name="LSCALU"> F  </i>
   <i type="logical" name="LASYNC"> F  </i>
   <i type="logical" name="LORBITALREAL"> F  </i>
  </separator>
  <separator name="miscellaneous" >
   <i type="int" name="IDIOT">     3</i>
   <i type="int" name="ISPECIAL">     0</i>
   <i type="logical" name="LMUSIC"> F  </i>
   <v name="POMASS">     47.88000000    180.94800000    178.49000000     14.00100000     12.01100000     95.94000000     92.91000000</v>
   <v name="DARWINR">      0.00000000      0.00000000      0.00000000      0.00000000      0.00000000      0.00000000      0.00000000</v>
   <v name="DARWINV">      1.00000000      1.00000000      1.00000000      1.00000000      1.00000000      1.00000000      1.00000000</v>
   <i type="logical" name="LCORR"> T  </i>
  </separator>
  <i type="logical" name="GGA_COMPAT"> T  </i>
  <i type="logical" name="LBERRY"> F  </i>
  <i type="int" name="ICORELEVEL">     0</i>
  <i type="logical" name="LDAU"> F  </i>
  <i type="int" name="I_CONSTRAINED_M">     0</i>
  <separator name="electronic exchange-correlation" >
   <i type="string" name="GGA">--</i>
   <i type="int" name="VOSKOWN">     0</i>
   <i type="logical" name="LHFCALC"> F  </i>
   <i type="string" name="PRECFOCK"></i>
   <i type="logical" name="LSYMGRAD"> F  </i>
   <i type="logical" name="LHFONE"> F  </i>
   <i type="logical" name="LRHFCALC"> F  </i>
   <i type="logical" name="LTHOMAS"> F  </i>
   <i type="logical" name="LMODELHF"> F  </i>
   <i name="ENCUT4O">     -1.00000000</i>
   <i type="int" name="EXXOEP">     0</i>
   <i type="int" name="FOURORBIT">     0</i>
   <i name="AEXX">      0.00000000</i>
   <i name="HFALPHA">      0.00000000</i>
   <i name="MCALPHA">      0.00000000</i>
   <i name="ALDAX">      1.00000000</i>
   <i name="AGGAX">      1.00000000</i>
   <i name="ALDAC">      1.00000000</i>
   <i name="AGGAC">      1.00000000</i>
   <i type="int" name="NKREDX">     1</i>
   <i type="int" name="NKREDY">     1</i>
   <i type="int" name="NKREDZ">     1</i>
   <i type="logical" name="SHIFTRED"> F  </i>
   <i type="logical" name="ODDONLY"> F  </i>
   <i type="logical" name="EVENONLY"> F  </i>
   <i type="int" name="LMAXFOCK">     0</i>
   <i type="int" name="NMAXFOCKAE">     0</i>
   <i type="logical" name="LFOCKAEDFT"> F  </i>
   <i name="HFSCREEN">      0.00000000</i>
   <i name="HFSCREENC">      0.00000000</i>
   <i type="int" name="NBANDSGWLOW">     0</i>
  </separator>
  <separator name="vdW DFT" >
   <i type="logical" name="LUSE_VDW"> F  </i>
   <i name="Zab_VDW">     -0.84910000</i>
   <i name="PARAM1">      0.12340000</i>
   <i name="PARAM2">      1.00000000</i>
   <i name="PARAM3">      0.00000000</i>
  </separator>
  <separator name="model GW" >
   <i type="int" name="MODEL_GW">     0</i>
   <i name="MODEL_EPS0">     13.31282379</i>
   <i name="MODEL_ALPHA">      1.00000000</i>
  </separator>
  <separator name="linear response parameters" >
   <i type="logical" name="LEPSILON"> F  </i>
   <i type="logical" name="LRPA"> F  </i>
   <i type="logical" name="LNABLA"> F  </i>
   <i type="logical" name="LVEL"> F  </i>
   <i type="int" name="KINTER">     0</i>
   <i name="CSHIFT">      0.10000000</i>
   <i name="OMEGAMAX">     -1.00000000</i>
   <i name="DEG_THRESHOLD">      0.00200000</i>
   <i name="RTIME">     -0.10000000</i>
   <i name="WPLASMAI">      0.00000000</i>
   <v name="DFIELD">      0.00000000      0.00000000      0.00000000</v>
   <v name="WPLASMA">      0.00000000      0.00000000      0.00000000      0.00000000      0.00000000      0.00000000      0.00000000      0.00000000      0.00000000</v>
  </separator>
  <separator name="orbital magnetization" >
   <i type="logical" name="NUCIND"> F  </i>
   <v name="MAGPOS">      0.00000000      0.00000000      0.00000000</v>
   <i type="logical" name="LNICSALL"> T  </i>
   <i type="logical" name="ORBITALMAG"> F  </i>
   <i type="logical" name="LMAGBLOCH"> F  </i>
   <i type="logical" name="LCHIMAG"> F  </i>
   <i type="logical" name="LGAUGE"> T  </i>
   <i type="int" name="MAGATOM">     0</i>
   <v name="MAGDIPOL">      0.00000000      0.00000000      0.00000000</v>
   <v name="AVECCONST">      0.00000000      0.00000000      0.00000000</v>
  </separator>
  <separator name="response functions" >
   <i type="logical" name="LADDER"> F  </i>
   <i type="logical" name="LRPAFORCE"> F  </i>
   <i type="logical" name="LFXC"> F  </i>
   <i type="logical" name="LHARTREE"> T  </i>
   <i type="int" name="IBSE">     0</i>
   <v type="int" name="KPOINT">    -1     0     0     0</v>
   <i type="logical" name="LTCTE"> F  </i>
   <i type="logical" name="LTETE"> F  </i>
   <i type="logical" name="LTRIPLET"> F  </i>
   <i type="logical" name="LFXCEPS"> F  </i>
   <i type="logical" name="LFXHEG"> F  </i>
   <i type="int" name="NATURALO">     2</i>
   <i type="logical" name="L2ORDER"> F  </i>
   <i type="logical" name="LMP2LT"> F  </i>
   <i type="logical" name="LUSEW"> F  </i>
   <i name="ENCUTGW">     -2.00000000</i>
   <i name="ENCUTGWSOFT">     -2.00000000</i>
   <i name="ENCUTLF">     -1.00000000</i>
   <i type="int" name="LMAXMP2">    -1</i>
   <i name="SCISSOR">      0.00000000</i>
   <i type="int" name="NOMEGA">     0</i>
   <i type="int" name="NOMEGAR">     0</i>
   <i type="int" name="NBANDSGW">    -1</i>
   <i type="int" name="NBANDSO">    -1</i>
   <i type="int" name="NBANDSV">    -1</i>
   <i type="int" name="NELM">    60</i>
   <i type="int" name="NELMHF">     1</i>
   <i type="int" name="DIM">     3</i>
   <i type="int" name="ANTIRES">     0</i>
   <i name="OMEGAMAX">    -30.00000000</i>
   <i name="OMEGAMIN">    -30.00000000</i>
   <i name="OMEGATL">   -200.00000000</i>
   <i type="int" name="OMEGAGRID">   140</i>
   <i name="CSHIFT">     -0.10000000</i>
   <i type="logical" name="SELFENERGY"> F  </i>
   <i type="logical" name="LSPECTRAL"> F  </i>
   <i type="logical" name="LSPECTRALGW"> F  </i>
   <i type="logical" name="LSINGLES"> F  </i>
   <i type="logical" name="LFERMIGW"> F  </i>
   <i type="logical" name="ODDONLYGW"> F  </i>
   <i type="logical" name="EVENONLYGW"> F  </i>
   <i type="int" name="NKREDLFX">     1</i>
   <i type="int" name="NKREDLFY">     1</i>
   <i type="int" name="NKREDLFZ">     1</i>
   <i type="int" name="MAXMEM">  2800</i>
   <i type="int" name="TELESCOPE">     0</i>
   <i type="int" name="TAUPAR">     1</i>
   <i type="int" name="OMEGAPAR">    -1</i>
   <i name="LAMBDA">      1.00000000</i>
  </separator>
  <separator name="External order field" >
   <i name="OFIELD_KAPPA">      0.00000000</i>
   <v name="OFIELD_K">      0.00000000      0.00000000      0.00000000</v>
   <i name="OFIELD_Q6_NEAR">      0.00000000</i>
   <i name="OFIELD_Q6_FAR">      0.00000000</i>
   <i name="OFIELD_A">      0.00000000</i>
  </separator>
 </parameters>
 <atominfo>
  <atoms>      64 </atoms>
  <types>       7 </types>
  <array name="atoms" >
   <dimension dim="1">ion</dimension>
   <field type="string">element</field>
   <field type="int">atomtype</field>
   <set>
    <rc><c>Ti</c><c>   1</c></rc>
    <rc><c>Ti</c><c>   1</c></rc>
    <rc><c>Ti</c><c>   1</c></rc>
    <rc><c>Ti</c><c>   1</c></rc>
    <rc><c>Ti</c><c>   1</c></rc>
    <rc><c>Ti</c><c>   1</c></rc>
    <rc><c>Ti</c><c>   1</c></rc>
    <rc><c>Ta</c><c>   2</c></rc>
    <rc><c>Ta</c><c>   2</c></rc>
    <rc><c>Ta</c><c>   2</c></rc>
    <rc><c>Ta</c><c>   2</c></rc>
    <rc><c>Ta</c><c>   2</c></rc>
    <rc><c>Ta</c><c>   2</c></rc>
    <rc><c>Hf</c><c>   3</c></rc>
    <rc><c>Hf</c><c>   3</c></rc>
    <rc><c>Hf</c><c>   3</c></rc>
    <rc><c>Hf</c><c>   3</c></rc>
    <rc><c>Hf</c><c>   3</c></rc>
    <rc><c>Hf</c><c>   3</c></rc>
    <rc><c>Hf</c><c>   3</c></rc>
    <rc><c>N </c><c>   4</c></rc>
    <rc><c>N </c><c>   4</c></rc>
    <rc><c>N </c><c>   4</c></rc>
    <rc><c>N </c><c>   4</c></rc>
    <rc><c>N </c><c>   4</c></rc>
    <rc><c>N </c><c>   4</c></rc>
    <rc><c>N </c><c>   4</c></rc>
    <rc><c>N </c><c>   4</c></rc>
    <rc><c>N </c><c>   4</c></rc>
    <rc><c>N </c><c>   4</c></rc>
    <rc><c>N </c><c>   4</c></rc>
    <rc><c>N </c><c>   4</c></rc>
    <rc><c>N </c><c>   4</c></rc>
    <rc><c>C </c><c>   5</c></rc>
    <rc><c>C </c><c>   5</c></rc>
    <rc><c>C </c><c>   5</c></rc>
    <rc><c>C </c><c>   5</c></rc>
    <rc><c>C </c><c>   5</c></rc>
    <rc><c>C </c><c>   5</c></rc>
    <rc><c>C </c><c>   5</c></rc>
    <rc><c>C </c><c>   5</c></rc>
    <rc><c>C </c><c>   5</c></rc>
    <rc><c>C </c><c>   5</c></rc>
    <rc><c>C </c><c>   5</c></rc>
    <rc><c>C </c><c>   5</c></rc>
    <rc><c>C </c><c>   5</c></rc>
    <rc><c>C </c><c>   5</c></rc>
    <rc><c>C </c><c>   5</c></rc>
    <rc><c>C </c><c>   5</c></rc>
    <rc><c>C </c><c>   5</c></rc>
    <rc><c>C </c><c>   5</c></rc>
    <rc><c>C </c><c>   5</c></rc>
    <rc><c>Mo</c><c>   6</c></rc>
    <rc><c>Mo</c><c>   6</c></rc>
    <rc><c>Mo</c><c>   6</c></rc>
    <rc><c>Mo</c><c>   6</c></rc>
    <rc><c>Mo</c><c>   6</c></rc>
    <rc><c>Mo</c><c>   6</c></rc>
    <rc><c>Nb</c><c>   7</c></rc>
    <rc><c>Nb</c><c>   7</c></rc>
    <rc><c>Nb</c><c>   7</c></rc>
    <rc><c>Nb</c><c>   7</c></rc>
    <rc><c>Nb</c><c>   7</c></rc>
    <rc><c>Nb</c><c>   7</c></rc>
   </set>
  </array>
  <array name="atomtypes" >
   <dimension dim="1">type</dimension>
   <field type="int">atomspertype</field>
   <field type="string">element</field>
   <field>mass</field>
   <field>valence</field>
   <field type="string">pseudopotential</field>
   <set>
    <rc><c>   7</c><c>Ti</c><c>     47.88000000</c><c>     12.00000000</c><c> PAW_PBE Ti_sv 07Sep2000                </c></rc>
    <rc><c>   6</c><c>Ta</c><c>    180.94800000</c><c>     11.00000000</c><c> PAW_PBE Ta_pv 07Sep2000                </c></rc>
    <rc><c>   7</c><c>Hf</c><c>    178.49000000</c><c>     10.00000000</c><c> PAW_PBE Hf_pv 06Sep2000                </c></rc>
    <rc><c>  13</c><c>N </c><c>     14.00100000</c><c>      5.00000000</c><c> PAW_PBE N 08Apr2002                    </c></rc>
    <rc><c>  19</c><c>C </c><c>     12.01100000</c><c>      4.00000000</c><c> PAW_PBE C 08Apr2002                    </c></rc>
    <rc><c>   6</c><c>Mo</c><c>     95.94000000</c><c>      6.00000000</c><c> PAW_PBE Mo 08Apr2002                   </c></rc>
    <rc><c>   6</c><c>Nb</c><c>     92.91000000</c><c>     13.00000000</c><c> PAW_PBE Nb_sv 17Jan2003                </c></rc>
   </set>
  </array>
 </atominfo>
 <structure name="initialpos" >
  <crystal>
   <varray name="basis" >
    <v>      11.23999977       0.00000000       0.00000000 </v>
    <v>       0.00000000      11.23999977       0.00000000 </v>
    <v>       0.00000000       0.00000000      11.23999977 </v>
   </varray>
   <i name="volume">   1420.03453724 </i>
   <varray name="rec_basis" >
    <v>       0.08896797       0.00000000       0.00000000 </v>
    <v>       0.00000000       0.08896797       0.00000000 </v>
    <v>       0.00000000       0.00000000       0.08896797 </v>
   </varray>
  </crystal>
  <varray name="positions" >
   <v>       0.00000000       0.00000000       0.00000000 </v>
   <v>       0.25000000       0.00000000       0.25000000 </v>
   <v>       0.25000000       0.50000000       0.25000000 </v>
   <v>       0.50000000       0.50000000       0.00000000 </v>
   <v>       0.50000000       0.25000000       0.75000004 </v>
   <v>       0.00000000       0.50000000       0.50000000 </v>
   <v>       0.50000000       0.75000004       0.75000004 </v>
   <v>       0.00000000       0.25000000       0.25000000 </v>
   <v>       0.75000004       0.75000004       0.00000000 </v>
   <v>       0.00000000       0.25000000       0.75000004 </v>
   <v>       0.75000004       0.25000000       0.50000000 </v>
   <v>       0.00000000       0.75000004       0.75000004 </v>
   <v>       0.25000000       0.50000000       0.75000004 </v>
   <v>       0.25000000       0.25000000       0.00000000 </v>
   <v>       0.50000000       0.25000000       0.25000000 </v>
   <v>       0.75000004       0.00000000       0.25000000 </v>
   <v>       0.75000004       0.25000000       0.00000000 </v>
   <v>       0.25000000       0.75000004       0.00000000 </v>
   <v>       0.25000000       0.25000000       0.50000000 </v>
   <v>       0.25000000       0.75000004       0.50000000 </v>
   <v>       0.25000000       0.25000000       0.25000000 </v>
   <v>       0.25000000       0.00000000       0.00000000 </v>
   <v>       0.00000000       0.25000000       0.00000000 </v>
   <v>       0.75000004       0.25000000       0.25000000 </v>
   <v>       0.75000004       0.00000000       0.00000000 </v>
   <v>       0.50000000       0.00000000       0.25000000 </v>
   <v>       0.00000000       0.50000000       0.25000000 </v>
   <v>       0.50000000       0.75000004       0.00000000 </v>
   <v>       0.00000000       0.00000000       0.75000004 </v>
   <v>       0.75000004       0.25000000       0.75000004 </v>
   <v>       0.75000004       0.00000000       0.50000000 </v>
   <v>       0.50000000       0.25000000       0.50000000 </v>
   <v>       0.50000000       0.00000000       0.75000004 </v>
   <v>       0.00000000       0.00000000       0.25000000 </v>
   <v>       0.50000000       0.25000000       0.00000000 </v>
   <v>       0.25000000       0.75000004       0.25000000 </v>
   <v>       0.25000000       0.50000000       0.00000000 </v>
   <v>       0.00000000       0.75000004       0.00000000 </v>
   <v>       0.75000004       0.75000004       0.25000000 </v>
   <v>       0.75000004       0.50000000       0.00000000 </v>
   <v>       0.50000000       0.50000000       0.25000000 </v>
   <v>       0.25000000       0.25000000       0.75000004 </v>
   <v>       0.25000000       0.00000000       0.50000000 </v>
   <v>       0.00000000       0.25000000       0.50000000 </v>
   <v>       0.25000000       0.75000004       0.75000004 </v>
   <v>       0.25000000       0.50000000       0.50000000 </v>
   <v>       0.00000000       0.75000004       0.50000000 </v>
   <v>       0.00000000       0.50000000       0.75000004 </v>
   <v>       0.75000004       0.75000004       0.75000004 </v>
   <v>       0.75000004       0.50000000       0.50000000 </v>
   <v>       0.50000000       0.75000004       0.50000000 </v>
   <v>       0.50000000       0.50000000       0.75000004 </v>
   <v>       0.50000000       0.00000000       0.00000000 </v>
   <v>       0.00000000       0.50000000       0.00000000 </v>
   <v>       0.50000000       0.75000004       0.25000000 </v>
   <v>       0.25000000       0.00000000       0.75000004 </v>
   <v>       0.50000000       0.00000000       0.50000000 </v>
   <v>       0.75000004       0.00000000       0.75000004 </v>
   <v>       0.00000000       0.75000004       0.25000000 </v>
   <v>       0.75000004       0.50000000       0.25000000 </v>
   <v>       0.00000000       0.00000000       0.50000000 </v>
   <v>       0.50000000       0.50000000       0.50000000 </v>
   <v>       0.75000004       0.50000000       0.75000004 </v>
   <v>       0.75000004       0.75000004       0.50000000 </v>
  </varray>
 </structure>
 <calculation>
  <scstep>
   <time name="dav">   81.29   81.59</time>
   <time name="total">   81.35   81.66</time>
   <energy>
    <i name="alphaZ">   1834.30655455 </i>
    <i name="ewald"> -28583.54933356 </i>
    <i name="hartreedc">  -9865.81745019 </i>
    <i name="XCdc">   1118.15364934 </i>
    <i name="pawpsdc">  24710.87805960 </i>
    <i name="pawaedc"> -23882.80423313 </i>
    <i name="eentropy">     -0.08333355 </i>
    <i name="bandstr">  -1661.73050987 </i>
    <i name="atom">  40274.25511758 </i>
    <i name="e_fr_energy">   3943.60852077 </i>
    <i name="e_wo_entrp">   3943.69185432 </i>
    <i name="e_0_energy">   3943.65018755 </i>
   </energy>
  </scstep>
  <scstep>
   <time name="dav">   91.61   91.92</time>
   <time name="total">   91.61   91.92</time>
   <energy>
    <i name="e_fr_energy">     25.00448314 </i>
    <i name="e_wo_entrp">     25.18755925 </i>
    <i name="e_0_energy">     25.09602120 </i>
   </energy>
  </scstep>
  <scstep>
   <time name="dav">  122.48  122.70</time>
   <time name="total">  122.48  122.70</time>
   <energy>
    <i name="e_fr_energy">   -567.73294005 </i>
    <i name="e_wo_entrp">   -567.54266292 </i>
    <i name="e_0_energy">   -567.63780148 </i>
   </energy>
  </scstep>
  <scstep>
   <time name="dav">  115.60  116.00</time>
   <time name="total">  115.60  116.00</time>
   <energy>
    <i name="e_fr_energy">   -624.57886395 </i>
    <i name="e_wo_entrp">   -624.35080934 </i>
    <i name="e_0_energy">   -624.46483665 </i>
   </energy>
  </scstep>
  <scstep>
   <time name="dav">  137.10  137.58</time>
   <time name="total">  137.72  138.21</time>
   <energy>
    <i name="e_fr_energy">   -635.64687622 </i>
    <i name="e_wo_entrp">   -635.39357194 </i>
    <i name="e_0_energy">   -635.52022408 </i>
   </energy>
  </scstep>
  <scstep>
   <time name="diag">    4.68    5.16</time>
   <time name="diis">   85.12   85.87</time>
   <time name="orth">    0.61    0.61</time>
   <time name="total">   91.10   92.35</time>
   <energy>
    <i name="e_fr_energy">   -537.08331677 </i>
    <i name="e_wo_entrp">   -536.75452627 </i>
    <i name="e_0_energy">   -536.91892152 </i>
   </energy>
  </scstep>
  <scstep>
   <time name="diag">    2.72    2.75</time>
   <time name="diis">   83.69   83.97</time>
   <time name="orth">    0.62    0.62</time>
   <time name="total">   87.71   88.03</time>
   <energy>
    <i name="e_fr_energy">   -491.94007572 </i>
    <i name="e_wo_entrp">   -491.66955663 </i>
    <i name="e_0_energy">   -491.80481617 </i>
   </energy>
  </scstep>
  <scstep>
   <time name="diag">    2.71    2.72</time>
   <time name="diis">   89.21   89.46</time>
   <time name="orth">    0.62    0.62</time>
   <time name="total">   93.27   93.52</time>
   <energy>
    <i name="e_fr_energy">   -481.22297391 </i>
    <i name="e_wo_entrp">   -480.90439375 </i>
    <i name="e_0_energy">   -481.06368383 </i>
   </energy>
  </scstep>
  <scstep>
   <time name="diag">    2.73    2.74</time>
   <time name="diis">   87.48   87.84</time>
   <time name="orth">    0.61    0.61</time>
   <time name="total">   91.53   91.91</time>
   <energy>
    <i name="e_fr_energy">   -479.47073488 </i>
    <i name="e_wo_entrp">   -479.05870337 </i>
    <i name="e_0_energy">   -479.26471913 </i>
   </energy>
  </scstep>
  <scstep>
   <time name="diag">    2.69    2.70</time>
   <time name="diis">   87.78   88.24</time>
   <time name="orth">    0.61    0.61</time>
   <time name="total">   91.83   92.30</time>
   <energy>
    <i name="e_fr_energy">   -478.52027928 </i>
    <i name="e_wo_entrp">   -478.08547647 </i>
    <i name="e_0_energy">   -478.30287788 </i>
   </energy>
  </scstep>
  <scstep>
   <time name="diag">    2.75    2.78</time>
   <time name="diis">   87.40   87.81</time>
   <time name="orth">    0.61    0.61</time>
   <time name="total">   91.47   91.91</time>
   <energy>
    <i name="e_fr_energy">   -478.20702953 </i>
    <i name="e_wo_entrp">   -477.91230389 </i>
    <i name="e_0_energy">   -478.05966671 </i>
   </energy>
  </scstep>
  <scstep>
   <time name="diag">    2.70    2.71</time>
   <time name="diis">   89.29   89.72</time>
   <time name="orth">    0.61    0.61</time>
   <time name="total">   93.29   93.75</time>
   <energy>
    <i name="e_fr_energy">   -477.80404643 </i>
    <i name="e_wo_entrp">   -477.43360392 </i>
    <i name="e_0_energy">   -477.61882517 </i>
   </energy>
  </scstep>
  <scstep>
   <time name="diag">    2.70    2.70</time>
   <time name="diis">   88.57   89.13</time>
   <time name="orth">    0.61    0.61</time>
   <time name="total">   92.60   93.17</time>
   <energy>
    <i name="e_fr_energy">   -476.53341520 </i>
    <i name="e_wo_entrp">   -476.09154819 </i>
    <i name="e_0_energy">   -476.31248170 </i>
   </energy>
  </scstep>
  <scstep>
   <time name="diag">    2.70    2.70</time>
   <time name="diis">   87.01   87.21</time>
   <time name="orth">    0.61    0.61</time>
   <time name="total">   91.04   91.25</time>
   <energy>
    <i name="e_fr_energy">   -476.47846706 </i>
    <i name="e_wo_entrp">   -476.05192166 </i>
    <i name="e_0_energy">   -476.26519436 </i>
   </energy>
  </scstep>
  <scstep>
   <time name="diag">    2.70    2.70</time>
   <time name="diis">   89.84   90.02</time>
   <time name="orth">    0.61    0.61</time>
   <time name="total">   93.87   94.07</time>
   <energy>
    <i name="e_fr_energy">   -476.21697569 </i>
    <i name="e_wo_entrp">   -475.75462594 </i>
    <i name="e_0_energy">   -475.98580081 </i>
   </energy>
  </scstep>
  <scstep>
   <time name="diag">    2.70    2.70</time>
   <time name="diis">   88.04   88.40</time>
   <time name="orth">    0.61    0.61</time>
   <time name="total">   92.08   92.44</time>
   <energy>
    <i name="e_fr_energy">   -476.11323242 </i>
    <i name="e_wo_entrp">   -475.64352972 </i>
    <i name="e_0_energy">   -475.87838107 </i>
   </energy>
  </scstep>
  <scstep>
   <time name="diag">    2.68    2.69</time>
   <time name="diis">   87.95   88.26</time>
   <time name="orth">    0.61    0.61</time>
   <time name="total">   92.00   92.31</time>
   <energy>
    <i name="e_fr_energy">   -476.01965265 </i>
    <i name="e_wo_entrp">   -475.56704715 </i>
    <i name="e_0_energy">   -475.79334990 </i>
   </energy>
  </scstep>
  <scstep>
   <time name="diag">    2.73    2.77</time>
   <time name="diis">   89.08   89.27</time>
   <time name="orth">    0.62    0.62</time>
   <time name="total">   93.16   93.39</time>
   <energy>
    <i name="e_fr_energy">   -476.02291861 </i>
    <i name="e_wo_entrp">   -475.56894309 </i>
    <i name="e_0_energy">   -475.79593085 </i>
   </energy>
  </scstep>
  <scstep>
   <time name="diag">    2.78    2.80</time>
   <time name="diis">   89.69   89.86</time>
   <time name="orth">    0.61    0.61</time>
   <time name="total">   93.81   93.99</time>
   <energy>
    <i name="e_fr_energy">   -476.07227928 </i>
    <i name="e_wo_entrp">   -475.60805603 </i>
    <i name="e_0_energy">   -475.84016766 </i>
   </energy>
  </scstep>
  <scstep>
   <time name="diag">    2.74    2.76</time>
   <time name="diis">   89.83   90.04</time>
   <time name="orth">    0.61    0.61</time>
   <time name="total">   93.93   94.16</time>
   <energy>
    <i name="e_fr_energy">   -476.08318645 </i>
    <i name="e_wo_entrp">   -475.62162228 </i>
    <i name="e_0_energy">   -475.85240436 </i>
   </energy>
  </scstep>
  <scstep>
   <time name="diag">    2.70    2.71</time>
   <time name="diis">   90.60   91.06</time>
   <time name="orth">    0.61    0.61</time>
   <time name="total">   94.62   95.11</time>
   <energy>
    <i name="e_fr_energy">   -476.09764889 </i>
    <i name="e_wo_entrp">   -475.63804815 </i>
    <i name="e_0_energy">   -475.86784852 </i>
   </energy>
  </scstep>
  <scstep>
   <time name="diag">    2.71    2.71</time>
   <time name="diis">   89.90   90.23</time>
   <time name="orth">    0.60    0.60</time>
   <time name="total">   93.94   94.27</time>
   <energy>
    <i name="e_fr_energy">   -476.11417921 </i>
    <i name="e_wo_entrp">   -475.64618762 </i>
    <i name="e_0_energy">   -475.88018341 </i>
   </energy>
  </scstep>
  <scstep>
   <time name="diag">    2.70    2.70</time>
   <time name="diis">   90.89   91.17</time>
   <time name="orth">    0.61    0.61</time>
   <time name="total">   94.95   95.23</time>
   <energy>
    <i name="e_fr_energy">   -476.12027020 </i>
    <i name="e_wo_entrp">   -475.65614726 </i>
    <i name="e_0_energy">   -475.88820873 </i>
   </energy>
  </scstep>
  <scstep>
   <time name="diag">    2.70    2.70</time>
   <time name="diis">   88.05   88.26</time>
   <time name="orth">    0.61    0.61</time>
   <time name="total">   92.09   92.31</time>
   <energy>
    <i name="e_fr_energy">   -476.13213702 </i>
    <i name="e_wo_entrp">   -475.66381337 </i>
    <i name="e_0_energy">   -475.89797520 </i>
   </energy>
  </scstep>
  <scstep>
   <time name="diag">    2.71    2.71</time>
   <time name="diis">   88.86   89.26</time>
   <time name="orth">    0.61    0.61</time>
   <time name="total">   92.88   93.34</time>
   <energy>
    <i name="e_fr_energy">   -476.14263696 </i>
    <i name="e_wo_entrp">   -475.67416877 </i>
    <i name="e_0_energy">   -475.90840287 </i>
   </energy>
  </scstep>
  <scstep>
   <time name="diag">    2.73    2.74</time>
   <time name="diis">   87.94   88.29</time>
   <time name="orth">    0.61    0.62</time>
   <time name="total">   92.02   92.38</time>
   <energy>
    <i name="e_fr_energy">   -476.15289110 </i>
    <i name="e_wo_entrp">   -475.68460069 </i>
    <i name="e_0_energy">   -475.91874590 </i>
   </energy>
  </scstep>
  <scstep>
   <time name="diag">    2.78    2.78</time>
   <time name="diis">   86.78   86.97</time>
   <time name="orth">    0.61    0.61</time>
   <time name="total">   90.90   91.10</time>
   <energy>
    <i name="e_fr_energy">   -476.16183331 </i>
    <i name="e_wo_entrp">   -475.69365091 </i>
    <i name="e_0_energy">   -475.92774211 </i>
   </energy>
  </scstep>
  <scstep>
   <time name="diag">    2.73    2.73</time>
   <time name="diis">   80.90   81.20</time>
   <time name="orth">    0.60    0.61</time>
   <time name="total">   84.96   85.27</time>
   <energy>
    <i name="e_fr_energy">   -476.16912158 </i>
    <i name="e_wo_entrp">   -475.70006766 </i>
    <i name="e_0_energy">   -475.93459462 </i>
   </energy>
  </scstep>
  <scstep>
   <time name="diag">    2.73    2.75</time>
   <time name="diis">   79.48   79.73</time>
   <time name="orth">    0.61    0.61</time>
   <time name="total">   83.55   83.83</time>
   <energy>
    <i name="e_fr_energy">   -476.17469373 </i>
    <i name="e_wo_entrp">   -475.70459995 </i>
    <i name="e_0_energy">   -475.93964684 </i>
   </energy>
  </scstep>
  <scstep>
   <time name="diag">    2.71    2.71</time>
   <time name="diis">   82.91   83.21</time>
   <time name="orth">    0.61    0.61</time>
   <time name="total">   86.96   87.27</time>
   <energy>
    <i name="e_fr_energy">   -476.17989946 </i>
    <i name="e_wo_entrp">   -475.70888632 </i>
    <i name="e_0_energy">   -475.94439289 </i>
   </energy>
  </scstep>
  <scstep>
   <time name="diag">    2.73    2.73</time>
   <time name="diis">   81.59   81.84</time>
   <time name="orth">    0.61    0.61</time>
   <time name="total">   85.66   85.93</time>
   <energy>
    <i name="e_fr_energy">   -476.18457995 </i>
    <i name="e_wo_entrp">   -475.71288828 </i>
    <i name="e_0_energy">   -475.94873412 </i>
   </energy>
  </scstep>
  <scstep>
   <time name="diag">    2.72    2.72</time>
   <time name="diis">   78.77   79.03</time>
   <time name="orth">    0.60    0.61</time>
   <time name="total">   82.83   83.10</time>
   <energy>
    <i name="e_fr_energy">   -476.18869000 </i>
    <i name="e_wo_entrp">   -475.71662914 </i>
    <i name="e_0_energy">   -475.95265957 </i>
   </energy>
  </scstep>
  <scstep>
   <time name="diag">    2.71    2.72</time>
   <time name="diis">   76.33   76.52</time>
   <time name="orth">    0.61    0.61</time>
   <time name="total">   80.40   80.59</time>
   <energy>
    <i name="e_fr_energy">   -476.19210165 </i>
    <i name="e_wo_entrp">   -475.71937436 </i>
    <i name="e_0_energy">   -475.95573800 </i>
   </energy>
  </scstep>
  <scstep>
   <time name="diag">    2.74    2.74</time>
   <time name="diis">   78.05   78.32</time>
   <time name="orth">    0.61    0.61</time>
   <time name="total">   82.13   82.41</time>
   <energy>
    <i name="e_fr_energy">   -476.19509157 </i>
    <i name="e_wo_entrp">   -475.72185679 </i>
    <i name="e_0_energy">   -475.95847418 </i>
   </energy>
  </scstep>
  <scstep>
   <time name="diag">    2.70    2.71</time>
   <time name="diis">   77.96   78.23</time>
   <time name="orth">    0.61    0.61</time>
   <time name="total">   82.01   82.29</time>
   <energy>
    <i name="e_fr_energy">   -476.19770671 </i>
    <i name="e_wo_entrp">   -475.72411765 </i>
    <i name="e_0_energy">   -475.96091218 </i>
   </energy>
  </scstep>
  <scstep>
   <time name="diag">    2.73    2.75</time>
   <time name="diis">   74.47   74.80</time>
   <time name="orth">    0.61    0.62</time>
   <time name="total">   78.55   78.90</time>
   <energy>
    <i name="e_fr_energy">   -476.19999093 </i>
    <i name="e_wo_entrp">   -475.72595295 </i>
    <i name="e_0_energy">   -475.96297194 </i>
   </energy>
  </scstep>
  <scstep>
   <time name="diag">    2.71    2.71</time>
   <time name="diis">   67.10   67.32</time>
   <time name="orth">    0.61    0.61</time>
   <time name="total">   71.19   71.44</time>
   <energy>
    <i name="e_fr_energy">   -476.20194791 </i>
    <i name="e_wo_entrp">   -475.72742304 </i>
    <i name="e_0_energy">   -475.96468548 </i>
   </energy>
  </scstep>
  <scstep>
   <time name="diag">    2.75    2.75</time>
   <time name="diis">   68.64   68.92</time>
   <time name="orth">    0.61    0.61</time>
   <time name="total">   72.74   73.03</time>
   <energy>
    <i name="e_fr_energy">   -476.20367239 </i>
    <i name="e_wo_entrp">   -475.72876153 </i>
    <i name="e_0_energy">   -475.96621696 </i>
   </energy>
  </scstep>
  <scstep>
   <time name="diag">    2.73    2.75</time>
   <time name="diis">   65.56   65.76</time>
   <time name="orth">    0.61    0.61</time>
   <time name="total">   69.66   69.88</time>
   <energy>
    <i name="e_fr_energy">   -476.20516659 </i>
    <i name="e_wo_entrp">   -475.73001455 </i>
    <i name="e_0_energy">   -475.96759057 </i>
   </energy>
  </scstep>
  <scstep>
   <time name="diag">    2.70    2.70</time>
   <time name="diis">   57.88   58.10</time>
   <time name="orth">    0.61    0.61</time>
   <time name="total">   61.95   62.17</time>
   <energy>
    <i name="e_fr_energy">   -476.20650663 </i>
    <i name="e_wo_entrp">   -475.73089913 </i>
    <i name="e_0_energy">   -475.96870288 </i>
   </energy>
  </scstep>
  <scstep>
   <time name="diag">    2.71    2.72</time>
   <time name="diis">   49.37   49.60</time>
   <time name="orth">    0.61    0.61</time>
   <time name="total">   53.43   53.66</time>
   <energy>
    <i name="e_fr_energy">   -476.20765269 </i>
    <i name="e_wo_entrp">   -475.73171889 </i>
    <i name="e_0_energy">   -475.96968579 </i>
   </energy>
  </scstep>
  <scstep>
   <time name="diag">    2.74    2.75</time>
   <time name="diis">   50.59   50.73</time>
   <time name="orth">    0.61    0.61</time>
   <time name="total">   54.68   54.82</time>
   <energy>
    <i name="e_fr_energy">   -476.20866966 </i>
    <i name="e_wo_entrp">   -475.73243271 </i>
    <i name="e_0_energy">   -475.97055119 </i>
   </energy>
  </scstep>
  <scstep>
   <time name="diag">    2.71    2.75</time>
   <time name="diis">   48.22   48.42</time>
   <time name="orth">    0.61    0.61</time>
   <time name="total">   52.28   52.52</time>
   <energy>
    <i name="e_fr_energy">   -476.20955574 </i>
    <i name="e_wo_entrp">   -475.73300866 </i>
    <i name="e_0_energy">   -475.97128220 </i>
   </energy>
  </scstep>
  <scstep>
   <time name="diag">    2.71    2.71</time>
   <time name="diis">   48.43   48.65</time>
   <time name="orth">    0.62    0.62</time>
   <time name="total">   52.49   52.73</time>
   <energy>
    <i name="e_fr_energy">   -476.21033832 </i>
    <i name="e_wo_entrp">   -475.73354687 </i>
    <i name="e_0_energy">   -475.97194260 </i>
   </energy>
  </scstep>
  <scstep>
   <time name="diag">    2.70    2.74</time>
   <time name="diis">   48.23   48.34</time>
   <time name="orth">    0.62    0.63</time>
   <time name="total">   52.35   52.52</time>
   <energy>
    <i name="e_fr_energy">   -476.21102179 </i>
    <i name="e_wo_entrp">   -475.73399520 </i>
    <i name="e_0_energy">   -475.97250849 </i>
   </energy>
  </scstep>
  <scstep>
   <time name="diag">    2.76    2.80</time>
   <time name="diis">   48.43   48.49</time>
   <time name="orth">    0.61    0.61</time>
   <time name="total">   52.54   52.66</time>
   <energy>
    <i name="e_fr_energy">   -476.21163016 </i>
    <i name="e_wo_entrp">   -475.73436711 </i>
    <i name="e_0_energy">   -475.97299864 </i>
   </energy>
  </scstep>
  <scstep>
   <time name="diag">    2.75    2.75</time>
   <time name="diis">   49.22   49.43</time>
   <time name="orth">    0.61    0.61</time>
   <time name="total">   53.33   53.53</time>
   <energy>
    <i name="e_fr_energy">   -476.21217606 </i>
    <i name="e_wo_entrp">   -475.73462699 </i>
    <i name="e_0_energy">   -475.97340152 </i>
   </energy>
  </scstep>
  <scstep>
   <time name="diag">    2.72    2.72</time>
   <time name="diis">   49.40   49.52</time>
   <time name="orth">    0.62    0.63</time>
   <time name="total">   53.48   53.61</time>
   <energy>
    <i name="e_fr_energy">   -476.21265689 </i>
    <i name="e_wo_entrp">   -475.73489717 </i>
    <i name="e_0_energy">   -475.97377703 </i>
   </energy>
  </scstep>
  <scstep>
   <time name="diag">    2.72    2.72</time>
   <time name="diis">   48.03   48.15</time>
   <time name="orth">    0.60    0.60</time>
   <time name="total">   52.10   52.22</time>
   <energy>
    <i name="e_fr_energy">   -476.21306972 </i>
    <i name="e_wo_entrp">   -475.73513953 </i>
    <i name="e_0_energy">   -475.97410463 </i>
   </energy>
  </scstep>
  <scstep>
   <time name="diag">    2.72    2.72</time>
   <time name="diis">   46.47   47.81</time>
   <time name="orth">    0.61    0.61</time>
   <time name="total">   50.55   51.89</time>
   <energy>
    <i name="e_fr_energy">   -476.21343418 </i>
    <i name="e_wo_entrp">   -475.73535727 </i>
    <i name="e_0_energy">   -475.97439572 </i>
   </energy>
  </scstep>
  <scstep>
   <time name="diag">    2.73    2.74</time>
   <time name="diis">   48.10   48.23</time>
   <time name="orth">    0.61    0.61</time>
   <time name="total">   52.18   52.32</time>
   <energy>
    <i name="e_fr_energy">   -476.21376444 </i>
    <i name="e_wo_entrp">   -475.73551073 </i>
    <i name="e_0_energy">   -475.97463758 </i>
   </energy>
  </scstep>
  <scstep>
   <time name="diag">    2.72    2.72</time>
   <time name="diis">   47.18   47.25</time>
   <time name="orth">    0.61    0.61</time>
   <time name="total">   51.27   51.34</time>
   <energy>
    <i name="e_fr_energy">   -476.21404905 </i>
    <i name="e_wo_entrp">   -475.73566684 </i>
    <i name="e_0_energy">   -475.97485794 </i>
   </energy>
  </scstep>
  <scstep>
   <time name="diag">    2.72    2.74</time>
   <time name="diis">   47.98   48.12</time>
   <time name="orth">    0.62    0.64</time>
   <time name="total">   52.10   52.28</time>
   <energy>
    <i name="e_fr_energy">   -476.21429952 </i>
    <i name="e_wo_entrp">   -475.73579738 </i>
    <i name="e_0_energy">   -475.97504845 </i>
   </energy>
  </scstep>
  <scstep>
   <time name="diag">    2.75    2.75</time>
   <time name="diis">   47.53   47.63</time>
   <time name="orth">    0.61    0.61</time>
   <time name="total">   51.63   51.74</time>
   <energy>
    <i name="e_fr_energy">   -476.21451889 </i>
    <i name="e_wo_entrp">   -475.73591198 </i>
    <i name="e_0_energy">   -475.97521544 </i>
   </energy>
  </scstep>
  <scstep>
   <time name="diag">    2.70    2.74</time>
   <time name="diis">   47.33   47.53</time>
   <time name="orth">    0.61    0.61</time>
   <time name="total">   51.38   51.62</time>
   <energy>
    <i name="e_fr_energy">   -476.21471089 </i>
    <i name="e_wo_entrp">   -475.73601944 </i>
    <i name="e_0_energy">   -475.97536516 </i>
   </energy>
  </scstep>
  <scstep>
   <time name="diag">    2.72    2.72</time>
   <time name="diis">   48.28   48.48</time>
   <time name="orth">    0.61    0.61</time>
   <time name="total">   52.35   52.55</time>
   <energy>
    <i name="e_fr_energy">   -476.21487619 </i>
    <i name="e_wo_entrp">   -475.73613944 </i>
    <i name="e_0_energy">   -475.97550781 </i>
   </energy>
  </scstep>
  <scstep>
   <time name="diag">    2.71    2.72</time>
   <time name="diis">   47.71   47.98</time>
   <time name="orth">    0.60    0.60</time>
   <time name="total">   51.77   52.05</time>
   <energy>
    <i name="e_fr_energy">   -476.21502608 </i>
    <i name="e_wo_entrp">   -475.73621719 </i>
    <i name="e_0_energy">   -475.97562164 </i>
   </energy>
  </scstep>
  <scstep>
   <time name="diag">    2.73    2.74</time>
   <time name="diis">   46.96   47.15</time>
   <time name="orth">    0.61    0.61</time>
   <time name="total">   51.07   51.27</time>
   <energy>
    <i name="e_fr_energy">   -476.21516163 </i>
    <i name="e_wo_entrp">   -475.73628396 </i>
    <i name="e_0_energy">   -475.97572279 </i>
   </energy>
  </scstep>
  <scstep>
   <time name="diag">    2.73    2.73</time>
   <time name="diis">   46.38   46.66</time>
   <time name="orth">    0.65    0.67</time>
   <time name="total">   50.52   50.84</time>
   <energy>
    <i name="e_fr_energy">   -476.21527938 </i>
    <i name="e_wo_entrp">   -475.73633880 </i>
    <i name="e_0_energy">   -475.97580909 </i>
   </energy>
  </scstep>
  <scstep>
   <time name="diag">    2.75    2.80</time>
   <time name="diis">   47.13   47.30</time>
   <time name="orth">    0.61    0.61</time>
   <time name="total">   50.54   50.77</time>
   <energy>
    <i name="alphaZ">   1834.30655455 </i>
    <i name="ewald"> -28583.54933356 </i>
    <i name="hartreedc">  -9162.54504225 </i>
    <i name="XCdc">   1097.86828087 </i>
    <i name="pawpsdc">  22928.37340740 </i>
    <i name="pawaedc"> -22156.03470250 </i>
    <i name="eentropy">     -0.47899776 </i>
    <i name="bandstr">  -6708.41066865 </i>
    <i name="atom">  40274.25511758 </i>
    <i name="e_fr_energy">   -476.21538431 </i>
    <i name="e_wo_entrp">   -475.73638655 </i>
    <i name="e_0_energy">   -475.97588543 </i>
   </energy>
  </scstep>
  <structure>
   <crystal>
    <varray name="basis" >
     <v>      11.23999977       0.00000000       0.00000000 </v>
     <v>       0.00000000      11.23999977       0.00000000 </v>
     <v>       0.00000000       0.00000000      11.23999977 </v>
    </varray>
    <i name="volume">   1420.03453724 </i>
    <varray name="rec_basis" >
     <v>       0.08896797       0.00000000       0.00000000 </v>
     <v>       0.00000000       0.08896797       0.00000000 </v>
     <v>       0.00000000       0.00000000       0.08896797 </v>
    </varray>
   </crystal>
   <varray name="positions" >
    <v>       0.00000000       0.00000000       0.00000000 </v>
    <v>       0.25000000       0.00000000       0.25000000 </v>
    <v>       0.25000000       0.50000000       0.25000000 </v>
    <v>       0.50000000       0.50000000       0.00000000 </v>
    <v>       0.50000000       0.25000000       0.75000004 </v>
    <v>       0.00000000       0.50000000       0.50000000 </v>
    <v>       0.50000000       0.75000004       0.75000004 </v>
    <v>       0.00000000       0.25000000       0.25000000 </v>
    <v>       0.75000004       0.75000004       0.00000000 </v>
    <v>       0.00000000       0.25000000       0.75000004 </v>
    <v>       0.75000004       0.25000000       0.50000000 </v>
    <v>       0.00000000       0.75000004       0.75000004 </v>
    <v>       0.25000000       0.50000000       0.75000004 </v>
    <v>       0.25000000       0.25000000       0.00000000 </v>
    <v>       0.50000000       0.25000000       0.25000000 </v>
    <v>       0.75000004       0.00000000       0.25000000 </v>
    <v>       0.75000004       0.25000000       0.00000000 </v>
    <v>       0.25000000       0.75000004       0.00000000 </v>
    <v>       0.25000000       0.25000000       0.50000000 </v>
    <v>       0.25000000       0.75000004       0.50000000 </v>
    <v>       0.25000000       0.25000000       0.25000000 </v>
    <v>       0.25000000       0.00000000       0.00000000 </v>
    <v>       0.00000000       0.25000000       0.00000000 </v>
    <v>       0.75000004       0.25000000       0.25000000 </v>
    <v>       0.75000004       0.00000000       0.00000000 </v>
    <v>       0.50000000       0.00000000       0.25000000 </v>
    <v>       0.00000000       0.50000000       0.25000000 </v>
    <v>       0.50000000       0.75000004       0.00000000 </v>
    <v>       0.00000000       0.00000000       0.75000004 </v>
    <v>       0.75000004       0.25000000       0.75000004 </v>
    <v>       0.75000004       0.00000000       0.50000000 </v>
    <v>       0.50000000       0.25000000       0.50000000 </v>
    <v>       0.50000000       0.00000000       0.75000004 </v>
    <v>       0.00000000       0.00000000       0.25000000 </v>
    <v>       0.50000000       0.25000000       0.00000000 </v>
    <v>       0.25000000       0.75000004       0.25000000 </v>
    <v>       0.25000000       0.50000000       0.00000000 </v>
    <v>       0.00000000       0.75000004       0.00000000 </v>
    <v>       0.75000004       0.75000004       0.25000000 </v>
    <v>       0.75000004       0.50000000       0.00000000 </v>
    <v>       0.50000000       0.50000000       0.25000000 </v>
    <v>       0.25000000       0.25000000       0.75000004 </v>
    <v>       0.25000000       0.00000000       0.50000000 </v>
    <v>       0.00000000       0.25000000       0.50000000 </v>
    <v>       0.25000000       0.75000004       0.75000004 </v>
    <v>       0.25000000       0.50000000       0.50000000 </v>
    <v>       0.00000000       0.75000004       0.50000000 </v>
    <v>       0.00000000       0.50000000       0.75000004 </v>
    <v>       0.75000004       0.75000004       0.75000004 </v>
    <v>       0.75000004       0.50000000       0.50000000 </v>
    <v>       0.50000000       0.75000004       0.50000000 </v>
    <v>       0.50000000       0.50000000       0.75000004 </v>
    <v>       0.50000000       0.00000000       0.00000000 </v>
    <v>       0.00000000       0.50000000       0.00000000 </v>
    <v>       0.50000000       0.75000004       0.25000000 </v>
    <v>       0.25000000       0.00000000       0.75000004 </v>
    <v>       0.50000000       0.00000000       0.50000000 </v>
    <v>       0.75000004       0.00000000       0.75000004 </v>
    <v>       0.00000000       0.75000004       0.25000000 </v>
    <v>       0.75000004       0.50000000       0.25000000 </v>
    <v>       0.00000000       0.00000000       0.50000000 </v>
    <v>       0.50000000       0.50000000       0.50000000 </v>
    <v>       0.75000004       0.50000000       0.75000004 </v>
    <v>       0.75000004       0.75000004       0.50000000 </v>
   </varray>
  </structure>
  <varray name="forces" >
   <v>       0.03261078      -0.40948350       0.18268427 </v>
   <v>      -0.14682418      -0.49716096       0.31292064 </v>
   <v>       0.26640078       0.48798531      -0.06478114 </v>
   <v>       0.01452975      -0.21110551       0.02180287 </v>
   <v>      -0.26133590      -0.04132347       0.24463291 </v>
   <v>      -0.08402804       0.06792954       0.26880646 </v>
   <v>       0.04885288      -0.02681272      -0.28972078 </v>
   <v>      -0.13969512      -0.46043036       0.61762052 </v>
   <v>       0.38199925      -0.49391166       0.00060573 </v>
   <v>       0.36077167       0.35343030      -0.63471142 </v>
   <v>       0.59478710       0.51120622       0.26495215 </v>
   <v>      -0.08954657      -0.32865649      -0.05129706 </v>
   <v>       0.05400102       0.04270876       0.08966818 </v>
   <v>       0.21610864       0.13122861      -0.48286514 </v>
   <v>       0.02085675       0.17742161      -0.23143627 </v>
   <v>       0.03102900      -0.56311321       0.04923638 </v>
   <v>      -0.26971526       0.28737197      -0.26951842 </v>
   <v>      -0.12975458      -0.11158501       0.00136618 </v>
   <v>      -0.29960688      -0.14977291       0.46974395 </v>
   <v>       0.07629407       0.14276959      -0.00215979 </v>
   <v>       0.08591803      -0.01059066      -0.06568160 </v>
   <v>       0.01773121       0.03788266       0.06254616 </v>
   <v>       0.01517348      -0.09420190       0.00214927 </v>
   <v>      -0.11491861      -0.39110783      -0.08449499 </v>
   <v>      -0.02667564       0.08271185       0.50011048 </v>
   <v>       0.57559973       0.63080202      -0.03180443 </v>
   <v>      -0.25664949      -0.37976383       0.00270207 </v>
   <v>       0.01765383       0.04867844      -0.07344652 </v>
   <v>      -0.07117330       0.06436940      -0.18175889 </v>
   <v>       0.39314747       0.14250636       0.06769607 </v>
   <v>       0.23266789       0.33908966      -0.51185787 </v>
   <v>      -0.00032282       0.23221505      -0.50756027 </v>
   <v>       0.07166521       0.03290907       0.02480105 </v>
   <v>      -0.46166226       0.38759391       0.23690787 </v>
   <v>       0.05536214      -0.24409994       0.45738149 </v>
   <v>      -0.17041838       0.01080400      -0.07502646 </v>
   <v>      -0.14500140      -0.01864607      -0.41802678 </v>
   <v>      -0.22041060      -0.06835728      -0.29941776 </v>
   <v>       0.13042498       0.18410426      -0.27838866 </v>
   <v>       0.12697145       0.13979830       0.04895993 </v>
   <v>       0.34925998      -0.28056692       0.32071183 </v>
   <v>      -0.53073926       0.36100747       0.06792548 </v>
   <v>      -0.12590655       0.06861966       0.15449240 </v>
   <v>      -0.20645757      -0.25734161       0.01917025 </v>
   <v>      -0.50085933      -0.39440587       0.07400795 </v>
   <v>       0.28554338      -0.08119353       0.42121265 </v>
   <v>       0.04081324       0.25944126       0.32702905 </v>
   <v>       0.16661832      -0.04924422       0.17794293 </v>
   <v>       0.48801348      -0.07842297       0.27670822 </v>
   <v>      -0.26348114      -0.30318632      -0.03458716 </v>
   <v>      -0.01384815      -0.12065528      -0.14212207 </v>
   <v>      -0.18279465      -0.01330141      -0.34351909 </v>
   <v>       0.04633022       0.41271405      -0.16140608 </v>
   <v>      -0.10026101       0.47526355      -0.48223928 </v>
   <v>       0.10473516      -0.50553367       0.50922206 </v>
   <v>       0.10569758      -0.02537305      -0.50292926 </v>
   <v>      -0.53947075      -0.61451484       0.18073303 </v>
   <v>      -0.12978569      -0.57063313      -0.04457106 </v>
   <v>      -0.02528326       0.40015019       0.02499557 </v>
   <v>      -0.37146463       0.73000270       0.01864518 </v>
   <v>       0.47308218      -0.06903132      -0.19865792 </v>
   <v>       0.13261899       0.60312389       0.00761891 </v>
   <v>      -0.05535440       0.52772644      -0.00531956 </v>
   <v>      -0.07982423      -0.51003869      -0.03840443 </v>
  </varray>
  <varray name="stress" >
   <v>    -429.40019403       0.18314815       0.07574100 </v>
   <v>       0.18314744    -429.78540163      -0.02740273 </v>
   <v>       0.07574149      -0.02740239    -429.33636106 </v>
  </varray>
  <energy>
   <i name="e_fr_energy">   -476.21538431 </i>
   <i name="e_wo_entrp">   -475.97588543 </i>
   <i name="e_0_energy">     -0.47899776 </i>
  </energy>
  <time name="totalsc"> 4792.29 4811.13</time>
 </calculation>
 <calculation>
  <scstep>
   <time name="dav">   87.19   87.54</time>
   <time name="total">   87.85   88.23</time>
   <energy>
    <i name="alphaZ">   5059.60591064 </i>
    <i name="ewald"> -40078.18546055 </i>
    <i name="hartreedc"> -12854.67134618 </i>
    <i name="XCdc">   1751.00058917 </i>
    <i name="pawpsdc">  22928.36921250 </i>
    <i name="pawaedc"> -22156.02985724 </i>
    <i name="eentropy">     -0.08426973 </i>
    <i name="bandstr">   1978.04751681 </i>
    <i name="atom">  40274.25511758 </i>
    <i name="e_fr_energy">  -3097.69258699 </i>
    <i name="e_wo_entrp">  -3097.60831726 </i>
    <i name="e_0_energy">  -3097.65045213 </i>
   </energy>
  </scstep>
  <scstep>
   <time name="diag">    2.71    2.71</time>
   <time name="diis">   89.66   90.00</time>
   <time name="orth">    0.61    0.61</time>
   <time name="total">   93.65   94.00</time>
   <energy>
    <i name="e_fr_energy">  -1234.16234413 </i>
    <i name="e_wo_entrp">  -1234.01522736 </i>
    <i name="e_0_energy">  -1234.08878574 </i>
   </energy>
  </scstep>
  <scstep>
   <time name="diag">    2.72    2.72</time>
   <time name="diis">   67.26   67.46</time>
   <time name="orth">    0.61    0.64</time>
   <time name="total">   71.27   71.49</time>
   <energy>
    <i name="e_fr_energy">   -585.31667839 </i>
    <i name="e_wo_entrp">   -585.24365267 </i>
    <i name="e_0_energy">   -585.28016553 </i>
   </energy>
  </scstep>
  <scstep>
   <time name="diag">    2.71    2.71</time>
   <time name="diis">   82.50   82.85</time>
   <time name="orth">    0.61    0.61</time>
   <time name="total">   86.50   86.85</time>
   <energy>
    <i name="e_fr_energy">   -578.19961044 </i>
    <i name="e_wo_entrp">   -578.11297096 </i>
    <i name="e_0_energy">   -578.15629070 </i>
   </energy>
  </scstep>
  <scstep>
   <time name="diag">    2.71    2.73</time>
   <time name="diis">   83.64   83.93</time>
   <time name="orth">    0.61    0.61</time>
   <time name="total">   87.64   87.94</time>
   <energy>
    <i name="e_fr_energy">   -567.35313864 </i>
    <i name="e_wo_entrp">   -567.25489276 </i>
    <i name="e_0_energy">   -567.30401570 </i>
   </energy>
  </scstep>
  <scstep>
   <time name="diag">    2.69    2.69</time>
   <time name="diis">  102.18  102.85</time>
   <time name="orth">    0.61    0.61</time>
   <time name="total">  106.16  106.83</time>
   <energy>
    <i name="e_fr_energy">   -571.27885652 </i>
    <i name="e_wo_entrp">   -571.17661860 </i>
    <i name="e_0_energy">   -571.22773756 </i>
   </energy>
  </scstep>
  <scstep>
   <time name="diag">    2.72    2.73</time>
   <time name="diis">  104.34  104.66</time>
   <time name="orth">    0.61    0.61</time>
   <time name="total">  108.35  108.68</time>
   <energy>
    <i name="e_fr_energy">   -574.72347423 </i>
    <i name="e_wo_entrp">   -574.61814904 </i>
    <i name="e_0_energy">   -574.67081163 </i>
   </energy>
  </scstep>
  <scstep>
   <time name="diag">    2.70    2.70</time>
   <time name="diis">  101.09  101.41</time>
   <time name="orth">    0.62    0.62</time>
   <time name="total">  105.08  105.40</time>
   <energy>
    <i name="e_fr_energy">   -577.83419330 </i>
    <i name="e_wo_entrp">   -577.73239374 </i>
    <i name="e_0_energy">   -577.78329352 </i>
   </energy>
  </scstep>
  <scstep>
   <time name="diag">    2.70    2.70</time>
   <time name="diis">  104.39  104.88</time>
   <time name="orth">    0.61    0.61</time>
   <time name="total">  108.38  108.87</time>
   <energy>
    <i name="e_fr_energy">   -579.32370079 </i>
    <i name="e_wo_entrp">   -579.21973034 </i>
    <i name="e_0_energy">   -579.27171556 </i>
   </energy>
  </scstep>
  <scstep>
   <time name="diag">    2.71    2.71</time>
   <time name="diis">  103.52  103.82</time>
   <time name="orth">    0.63    0.63</time>
   <time name="total">  107.54  107.84</time>
   <energy>
    <i name="e_fr_energy">   -580.56350908 </i>
    <i name="e_wo_entrp">   -580.46025625 </i>
    <i name="e_0_energy">   -580.51188266 </i>
   </energy>
  </scstep>
  <scstep>
   <time name="diag">    2.70    2.71</time>
   <time name="diis">  105.09  105.34</time>
   <time name="orth">    0.61    0.61</time>
   <time name="total">  109.08  109.33</time>
   <energy>
    <i name="e_fr_energy">   -581.14752317 </i>
    <i name="e_wo_entrp">   -581.04385414 </i>
    <i name="e_0_energy">   -581.09568865 </i>
   </energy>
  </scstep>
  <scstep>
   <time name="diag">    2.70    2.73</time>
   <time name="diis">  105.26  105.61</time>
   <time name="orth">    0.61    0.61</time>
   <time name="total">  109.24  109.63</time>
   <energy>
    <i name="e_fr_energy">   -581.40442025 </i>
    <i name="e_wo_entrp">   -581.30055190 </i>
    <i name="e_0_energy">   -581.35248608 </i>
   </energy>
  </scstep>
  <scstep>
   <time name="diag">    2.70    2.70</time>
   <time name="diis">  103.80  104.18</time>
   <time name="orth">    0.63    0.63</time>
   <time name="total">  107.85  108.23</time>
   <energy>
    <i name="e_fr_energy">   -581.54194780 </i>
    <i name="e_wo_entrp">   -581.43841141 </i>
    <i name="e_0_energy">   -581.49017960 </i>
   </energy>
  </scstep>
  <scstep>
   <time name="diag">    2.71    2.72</time>
   <time name="diis">  102.50  102.95</time>
   <time name="orth">    0.61    0.61</time>
   <time name="total">  106.50  106.96</time>
   <energy>
    <i name="e_fr_energy">   -581.61755310 </i>
    <i name="e_wo_entrp">   -581.51385590 </i>
    <i name="e_0_energy">   -581.56570450 </i>
   </energy>
  </scstep>
  <scstep>
   <time name="diag">    2.71    2.71</time>
   <time name="diis">  106.11  106.56</time>
   <time name="orth">    0.61    0.61</time>
   <time name="total">  110.10  110.56</time>
   <energy>
    <i name="e_fr_energy">   -581.65961054 </i>
    <i name="e_wo_entrp">   -581.55597128 </i>
    <i name="e_0_energy">   -581.60779091 </i>
   </energy>
  </scstep>
  <scstep>
   <time name="diag">    2.73    2.73</time>
   <time name="diis">  106.23  106.46</time>
   <time name="orth">    0.60    0.60</time>
   <time name="total">  110.24  110.48</time>
   <energy>
    <i name="e_fr_energy">   -581.68459609 </i>
    <i name="e_wo_entrp">   -581.58107309 </i>
    <i name="e_0_energy">   -581.63283459 </i>
   </energy>
  </scstep>
  <scstep>
   <time name="diag">    2.70    2.70</time>
   <time name="diis">  104.44  104.80</time>
   <time name="orth">    0.61    0.61</time>
   <time name="total">  108.43  108.80</time>
   <energy>
    <i name="e_fr_energy">   -581.69816458 </i>
    <i name="e_wo_entrp">   -581.59459198 </i>
    <i name="e_0_energy">   -581.64637828 </i>
   </energy>
  </scstep>
  <scstep>
   <time name="diag">    2.70    2.70</time>
   <time name="diis">  104.46  104.71</time>
   <time name="orth">    0.61    0.62</time>
   <time name="total">  108.45  108.71</time>
   <energy>
    <i name="e_fr_energy">   -581.70608864 </i>
    <i name="e_wo_entrp">   -581.60254477 </i>
    <i name="e_0_energy">   -581.65431670 </i>
   </energy>
  </scstep>
  <scstep>
   <time name="diag">    2.70    2.71</time>
   <time name="diis">  104.89  105.33</time>
   <time name="orth">    0.61    0.61</time>
   <time name="total">  108.87  109.33</time>
   <energy>
    <i name="e_fr_energy">   -581.71095769 </i>
    <i name="e_wo_entrp">   -581.60743405 </i>
    <i name="e_0_energy">   -581.65919587 </i>
   </energy>
  </scstep>
  <scstep>
   <time name="diag">    2.71    2.72</time>
   <time name="diis">  102.86  103.32</time>
   <time name="orth">    0.61    0.61</time>
   <time name="total">  106.86  107.33</time>
   <energy>
    <i name="e_fr_energy">   -581.71373314 </i>
    <i name="e_wo_entrp">   -581.61022838 </i>
    <i name="e_0_energy">   -581.66198076 </i>
   </energy>
  </scstep>
  <scstep>
   <time name="diag">    2.70    2.70</time>
   <time name="diis">  104.41  104.63</time>
   <time name="orth">    0.61    0.61</time>
   <time name="total">  108.40  108.63</time>
   <energy>
    <i name="e_fr_energy">   -581.71544939 </i>
    <i name="e_wo_entrp">   -581.61195140 </i>
    <i name="e_0_energy">   -581.66370040 </i>
   </energy>
  </scstep>
  <scstep>
   <time name="diag">    2.72    2.73</time>
   <time name="diis">  102.58  102.82</time>
   <time name="orth">    0.61    0.61</time>
   <time name="total">  106.59  106.84</time>
   <energy>
    <i name="e_fr_energy">   -581.71643830 </i>
    <i name="e_wo_entrp">   -581.61293227 </i>
    <i name="e_0_energy">   -581.66468528 </i>
   </energy>
  </scstep>
  <scstep>
   <time name="diag">    2.70    2.70</time>
   <time name="diis">  104.69  105.07</time>
   <time name="orth">    0.61    0.61</time>
   <time name="total">  108.67  109.06</time>
   <energy>
    <i name="e_fr_energy">   -581.71708045 </i>
    <i name="e_wo_entrp">   -581.61359850 </i>
    <i name="e_0_energy">   -581.66533947 </i>
   </energy>
  </scstep>
  <scstep>
   <time name="diag">    2.71    2.73</time>
   <time name="diis">  101.40  101.68</time>
   <time name="orth">    0.61    0.61</time>
   <time name="total">  105.40  105.71</time>
   <energy>
    <i name="e_fr_energy">   -581.71745498 </i>
    <i name="e_wo_entrp">   -581.61395544 </i>
    <i name="e_0_energy">   -581.66570521 </i>
   </energy>
  </scstep>
  <scstep>
   <time name="diag">    2.74    2.75</time>
   <time name="diis">  102.47  102.82</time>
   <time name="orth">    0.61    0.61</time>
   <time name="total">  106.50  106.86</time>
   <energy>
    <i name="e_fr_energy">   -581.77692072 </i>
    <i name="e_wo_entrp">   -581.67343021 </i>
    <i name="e_0_energy">   -581.72517547 </i>
   </energy>
  </scstep>
  <scstep>
   <time name="diag">    2.71    2.71</time>
   <time name="diis">   98.74   99.07</time>
   <time name="orth">    0.61    0.61</time>
   <time name="total">  102.75  103.09</time>
   <energy>
    <i name="e_fr_energy">   -581.71471100 </i>
    <i name="e_wo_entrp">   -581.61122052 </i>
    <i name="e_0_energy">   -581.66296576 </i>
   </energy>
  </scstep>
  <scstep>
   <time name="diag">    2.75    2.76</time>
   <time name="diis">   99.42   99.69</time>
   <time name="orth">    0.61    0.61</time>
   <time name="total">  103.47  103.75</time>
   <energy>
    <i name="e_fr_energy">   -581.71494675 </i>
    <i name="e_wo_entrp">   -581.61145626 </i>
    <i name="e_0_energy">   -581.66320150 </i>
   </energy>
  </scstep>
  <scstep>
   <time name="diag">    2.75    2.75</time>
   <time name="diis">   98.44   98.73</time>
   <time name="orth">    0.61    0.61</time>
   <time name="total">  102.49  102.78</time>
   <energy>
    <i name="e_fr_energy">   -581.71609984 </i>
    <i name="e_wo_entrp">   -581.61262042 </i>
    <i name="e_0_energy">   -581.66436013 </i>
   </energy>
  </scstep>
  <scstep>
   <time name="diag">    2.72    2.72</time>
   <time name="diis">   93.90   95.16</time>
   <time name="orth">    0.61    0.61</time>
   <time name="total">   97.91   99.19</time>
   <energy>
    <i name="e_fr_energy">   -581.71706752 </i>
    <i name="e_wo_entrp">   -581.61358129 </i>
    <i name="e_0_energy">   -581.66532441 </i>
   </energy>
  </scstep>
  <scstep>
   <time name="diag">    2.71    2.73</time>
   <time name="diis">   84.47   84.71</time>
   <time name="orth">    0.62    0.62</time>
   <time name="total">   88.48   88.74</time>
   <energy>
    <i name="e_fr_energy">   -581.71742932 </i>
    <i name="e_wo_entrp">   -581.61394927 </i>
    <i name="e_0_energy">   -581.66568930 </i>
   </energy>
  </scstep>
  <scstep>
   <time name="diag">    2.76    2.77</time>
   <time name="diis">   77.32   77.55</time>
   <time name="orth">    0.61    0.61</time>
   <time name="total">   81.38   81.62</time>
   <energy>
    <i name="e_fr_energy">   -581.71765817 </i>
    <i name="e_wo_entrp">   -581.61417815 </i>
    <i name="e_0_energy">   -581.66591816 </i>
   </energy>
  </scstep>
  <scstep>
   <time name="diag">    2.72    2.72</time>
   <time name="diis">   66.19   66.31</time>
   <time name="orth">    0.61    0.61</time>
   <time name="total">   70.22   70.34</time>
   <energy>
    <i name="e_fr_energy">   -581.71780865 </i>
    <i name="e_wo_entrp">   -581.61432752 </i>
    <i name="e_0_energy">   -581.66606808 </i>
   </energy>
  </scstep>
  <scstep>
   <time name="diag">    2.73    2.74</time>
   <time name="diis">   61.49   61.83</time>
   <time name="orth">    0.61    0.61</time>
   <time name="total">   65.52   65.86</time>
   <energy>
    <i name="e_fr_energy">   -581.71790400 </i>
    <i name="e_wo_entrp">   -581.61442363 </i>
    <i name="e_0_energy">   -581.66616382 </i>
   </energy>
  </scstep>
  <scstep>
   <time name="diag">    2.73    2.73</time>
   <time name="diis">   53.34   53.53</time>
   <time name="orth">    0.61    0.62</time>
   <time name="total">   57.38   57.56</time>
   <energy>
    <i name="e_fr_energy">   -581.71797382 </i>
    <i name="e_wo_entrp">   -581.61449343 </i>
    <i name="e_0_energy">   -581.66623363 </i>
   </energy>
  </scstep>
  <scstep>
   <time name="diag">    2.73    2.75</time>
   <time name="diis">   52.84   52.97</time>
   <time name="orth">    0.61    0.61</time>
   <time name="total">   56.85   57.01</time>
   <energy>
    <i name="e_fr_energy">   -581.71800403 </i>
    <i name="e_wo_entrp">   -581.61452380 </i>
    <i name="e_0_energy">   -581.66626391 </i>
   </energy>
  </scstep>
  <scstep>
   <time name="diag">    2.70    2.70</time>
   <time name="diis">   47.65   47.78</time>
   <time name="orth">    0.61    0.61</time>
   <time name="total">   51.64   51.77</time>
   <energy>
    <i name="e_fr_energy">   -581.71803290 </i>
    <i name="e_wo_entrp">   -581.61455367 </i>
    <i name="e_0_energy">   -581.66629328 </i>
   </energy>
  </scstep>
  <scstep>
   <time name="diag">    2.70    2.70</time>
   <time name="diis">   44.85   44.99</time>
   <time name="orth">    0.63    0.63</time>
   <time name="total">   48.85   48.99</time>
   <energy>
    <i name="e_fr_energy">   -581.71804414 </i>
    <i name="e_wo_entrp">   -581.61456442 </i>
    <i name="e_0_energy">   -581.66630428 </i>
   </energy>
  </scstep>
  <scstep>
   <time name="diag">    2.69    2.70</time>
   <time name="diis">   43.55   43.70</time>
   <time name="orth">    0.61    0.61</time>
   <time name="total">   47.53   47.69</time>
   <energy>
    <i name="e_fr_energy">   -581.71805445 </i>
    <i name="e_wo_entrp">   -581.61457508 </i>
    <i name="e_0_energy">   -581.66631477 </i>
   </energy>
  </scstep>
  <scstep>
   <time name="diag">    2.74    2.75</time>
   <time name="diis">   41.90   42.02</time>
   <time name="orth">    0.61    0.61</time>
   <time name="total">   45.30   45.43</time>
   <energy>
    <i name="alphaZ">   5059.60591064 </i>
    <i name="ewald"> -40078.18546055 </i>
    <i name="hartreedc">  -5414.79051365 </i>
    <i name="XCdc">   1323.60551935 </i>
    <i name="pawpsdc">  30519.70365212 </i>
    <i name="pawaedc"> -29699.58004091 </i>
    <i name="eentropy">     -0.10347942 </i>
    <i name="bandstr">  -2566.22876395 </i>
    <i name="atom">  40274.25511758 </i>
    <i name="e_fr_energy">   -581.71805880 </i>
    <i name="e_wo_entrp">   -581.61457938 </i>
    <i name="e_0_energy">   -581.66631909 </i>
   </energy>
  </scstep>
  <structure>
   <crystal>
    <varray name="basis" >
     <v>       8.01545744       0.00137533       0.00056877 </v>
     <v>       0.00137533       8.01256476      -0.00020578 </v>
     <v>       0.00056877      -0.00020578       8.01593679 </v>
    </varray>
    <i name="volume">    514.81848692 </i>
    <varray name="rec_basis" >
     <v>       0.12475895      -0.00002141      -0.00000885 </v>
     <v>      -0.00002141       0.12480399       0.00000321 </v>
     <v>      -0.00000885       0.00000321       0.12475148 </v>
    </varray>
   </crystal>
   <varray name="positions" >
    <v>       0.00013997      -0.00175752       0.00078409 </v>
    <v>       0.24936982      -0.00213384       0.25134307 </v>
    <v>       0.25114341       0.50209446       0.24972196 </v>
[...]
      </set>
     </set>
    </set>
   </array>
  </eigenvalues>
  <separator name="orbital magnetization" >
   <v name="MAGDIPOLOUT">      0.00000000      0.00000000      0.00000000</v>
  </separator>
  <dos>
   <i name="efermi">      8.88779553 </i>
   <total>
    <array>
     <dimension dim="1">gridpoints</dimension>
     <dimension dim="2">spin</dimension>
     <field>energy</field>
     <field>total</field>
     <field>integrated</field>
     <set>
      <set comment="spin 1">
       <r>   -51.8437     0.0000     0.0000 </r>
       <r>   -51.6226     0.0000     0.0000 </r>
       <r>   -51.4016     0.0000     0.0000 </r>
       <r>   -51.1805     0.0000     0.0000 </r>
       <r>   -50.9594     0.0000     0.0000 </r>
       <r>   -50.7383     0.0000     0.0000 </r>
       <r>   -50.5172     0.0000     0.0000 </r>
       <r>   -50.2961     0.0000     0.0000 </r>
       <r>   -50.0751     0.0000     0.0000 </r>
       <r>   -49.8540     0.0000     0.0000 </r>
       <r>   -49.6329     0.0000     0.0000 </r>
       <r>   -49.4118     0.0000     0.0000 </r>
       <r>   -49.1907     0.0000     0.0000 </r>
       <r>   -48.9697     0.2111     0.0467 </r>
       <r>   -48.7486    10.0799     2.2752 </r>
       <r>   -48.5275    29.9587     8.8985 </r>
       <r>   -48.3064    18.7965    13.0541 </r>
       <r>   -48.0853     4.2726    13.9987 </r>
       <r>   -47.8642     0.0061    14.0000 </r>
       <r>   -47.6432     0.0000    14.0000 </r>
       <r>   -47.4221     0.0000    14.0000 </r>
       <r>   -47.2010     0.0002    14.0000 </r>
       <r>   -46.9799     2.4445    14.5405 </r>
       <r>   -46.7588    40.0287    23.3901 </r>
       <r>   -46.5377    11.7400    25.9856 </r>
       <r>   -46.3167     0.0650    26.0000 </r>
       <r>   -46.0956     0.0000    26.0000 </r>
       <r>   -45.8745     0.0000    26.0000 </r>
       <r>   -45.6534     0.0000    26.0000 </r>
       <r>   -45.4323     0.0000    26.0000 </r>
       <r>   -45.2113     0.0000    26.0000 </r>
       <r>   -44.9902     0.0000    26.0000 </r>
       <r>   -44.7691     0.0000    26.0000 </r>
       <r>   -44.5480     0.0000    26.0000 </r>
       <r>   -44.3269     0.0000    26.0000 </r>
       <r>   -44.1058     0.0000    26.0000 </r>
       <r>   -43.8848     0.0000    26.0000 </r>
       <r>   -43.6637     0.0000    26.0000 </r>
       <r>   -43.4426     0.0000    26.0000 </r>
       <r>   -43.2215     0.0000    26.0000 </r>
       <r>   -43.0004     0.0000    26.0000 </r>
       <r>   -42.7794     0.0000    26.0000 </r>
       <r>   -42.5583     0.0000    26.0000 </r>
       <r>   -42.3372     0.0000    26.0000 </r>
       <r>   -42.1161     0.0000    26.0000 </r>
       <r>   -41.8950     0.0000    26.0000 </r>
       <r>   -41.6739     0.0000    26.0000 </r>
       <r>   -41.4529     0.0000    26.0000 </r>
       <r>   -41.2318     0.0000    26.0000 </r>
       <r>   -41.0107     0.0000    26.0000 </r>
       <r>   -40.7896     0.0000    26.0000 </r>
       <r>   -40.5685     0.0000    26.0000 </r>
       <r>   -40.3474     0.0000    26.0000 </r>
       <r>   -40.1264     0.0000    26.0000 </r>
       <r>   -39.9053     0.0000    26.0000 </r>
       <r>   -39.6842     0.0000    26.0000 </r>
       <r>   -39.4631     0.0000    26.0000 </r>
       <r>   -39.2420     0.0000    26.0000 </r>
       <r>   -39.0210     0.0000    26.0000 </r>
       <r>   -38.7999     0.0000    26.0000 </r>
       <r>   -38.5788     0.0000    26.0000 </r>
       <r>   -38.3577     0.0000    26.0000 </r>
       <r>   -38.1366     0.0000    26.0000 </r>
       <r>   -37.9155     0.0000    26.0000 </r>
       <r>   -37.6945     0.0000    26.0000 </r>
       <r>   -37.4734     0.0000    26.0000 </r>
       <r>   -37.2523     0.0000    26.0000 </r>
       <r>   -37.0312     0.0000    26.0000 </r>
       <r>   -36.8101     0.0000    26.0000 </r>
       <r>   -36.5891     0.0000    26.0000 </r>
       <r>   -36.3680     0.0000    26.0000 </r>
       <r>   -36.1469     0.0000    26.0000 </r>
       <r>   -35.9258     0.0000    26.0000 </r>
       <r>   -35.7047     0.0000    26.0000 </r>
       <r>   -35.4836     0.0000    26.0000 </r>
       <r>   -35.2626     0.0000    26.0000 </r>
       <r>   -35.0415     0.0000    26.0000 </r>
       <r>   -34.8204     0.0000    26.0000 </r>
       <r>   -34.5993     0.0000    26.0000 </r>
       <r>   -34.3782     0.0000    26.0000 </r>
       <r>   -34.1571     0.0000    26.0000 </r>
       <r>   -33.9361     0.0000    26.0000 </r>
       <r>   -33.7150     0.0000    26.0000 </r>
       <r>   -33.4939     0.0000    26.0000 </r>
       <r>   -33.2728     0.0000    26.0000 </r>
       <r>   -33.0517     0.0000    26.0000 </r>
       <r>   -32.8307     0.0000    26.0000 </r>
       <r>   -32.6096     0.0000    26.0000 </r>
       <r>   -32.3885     0.0000    26.0000 </r>
       <r>   -32.1674     0.0000    26.0000 </r>
       <r>   -31.9463     0.0000    26.0000 </r>
       <r>   -31.7252     0.0000    26.0000 </r>
       <r>   -31.5042     0.0000    26.0000 </r>
       <r>   -31.2831     0.0000    26.0000 </r>
       <r>   -31.0620     0.0000    26.0000 </r>
       <r>   -30.8409     0.0000    26.0000 </r>
       <r>   -30.6198     0.0000    26.0000 </r>
       <r>   -30.3987     0.0000    26.0000 </r>
       <r>   -30.1777     0.0000    26.0000 </r>
       <r>   -29.9566     0.0000    26.0000 </r>
       <r>   -29.7355     0.0000    26.0000 </r>
       <r>   -29.5144     0.0000    26.0000 </r>
       <r>   -29.2933     0.0000    26.0000 </r>
       <r>   -29.0723     0.0000    26.0000 </r>
       <r>   -28.8512     0.0000    26.0000 </r>
       <r>   -28.6301     0.0000    26.0000 </r>
       <r>   -28.4090     0.0000    26.0000 </r>
       <r>   -28.1879     0.0000    26.0000 </r>
       <r>   -27.9668     0.0000    26.0000 </r>
       <r>   -27.7458     0.0000    26.0000 </r>
       <r>   -27.5247     0.0000    26.0000 </r>
       <r>   -27.3036     0.0000    26.0000 </r>
       <r>   -27.0825     0.0000    26.0000 </r>
       <r>   -26.8614     0.5247    26.1160 </r>
       <r>   -26.6404    21.4668    30.8619 </r>
       <r>   -26.4193    66.5213    45.5686 </r>
       <r>   -26.1982    46.9385    55.9459 </r>
       <r>   -25.9771    24.7564    61.4191 </r>
       <r>   -25.7560     2.6273    61.9999 </r>
       <r>   -25.5349     0.0012    62.0002 </r>
       <r>   -25.3139     2.9946    62.6622 </r>
       <r>   -25.0928    37.0143    70.8454 </r>
       <r>   -24.8717    89.7702    90.6920 </r>
       <r>   -24.6506    48.9839   101.5215 </r>
       <r>   -24.4295    11.1901   103.9954 </r>
       <r>   -24.2084     0.0207   104.0000 </r>
       <r>   -23.9874     0.0000   104.0000 </r>
       <r>   -23.7663     0.0000   104.0000 </r>
       <r>   -23.5452     0.0001   104.0000 </r>
       <r>   -23.3241     1.6478   104.3643 </r>
       <r>   -23.1030    41.1428   113.4603 </r>
       <r>   -22.8820    75.4810   130.1478 </r>
       <r>   -22.6609    42.3105   139.5019 </r>
       <r>   -22.4398     6.1791   140.8680 </r>
       <r>   -22.2187    33.9072   148.3642 </r>
       <r>   -21.9976    39.4512   157.0862 </r>
       <r>   -21.7765    15.2361   160.4546 </r>
       <r>   -21.5555    59.3858   173.5838 </r>
       <r>   -21.3344    11.9511   176.2260 </r>
       <r>   -21.1133    23.1194   181.3373 </r>
       <r>   -20.8922     2.9974   181.9999 </r>
       <r>   -20.6711     0.0003   182.0000 </r>
       <r>   -20.4501     0.0000   182.0000 </r>
       <r>   -20.2290     0.0000   182.0000 </r>
       <r>   -20.0079     0.0000   182.0000 </r>
       <r>   -19.7868     0.0000   182.0000 </r>
       <r>   -19.5657     0.0000   182.0000 </r>
       <r>   -19.3446     0.0000   182.0000 </r>
       <r>   -19.1236     0.0000   182.0000 </r>
       <r>   -18.9025     0.0000   182.0000 </r>
       <r>   -18.6814     0.0000   182.0000 </r>
       <r>   -18.4603     0.0000   182.0000 </r>
       <r>   -18.2392     0.0000   182.0000 </r>
       <r>   -18.0181     0.0000   182.0000 </r>
       <r>   -17.7971     0.0000   182.0000 </r>
       <r>   -17.5760     0.0000   182.0000 </r>
       <r>   -17.3549     0.0000   182.0000 </r>
       <r>   -17.1338     0.0000   182.0000 </r>
       <r>   -16.9127     0.0000   182.0000 </r>
       <r>   -16.6917     0.0000   182.0000 </r>
       <r>   -16.4706     0.0000   182.0000 </r>
       <r>   -16.2495     0.0000   182.0000 </r>
       <r>   -16.0284     0.0000   182.0000 </r>
       <r>   -15.8073     0.0000   182.0000 </r>
       <r>   -15.5862     0.0000   182.0000 </r>
       <r>   -15.3652     0.0000   182.0000 </r>
       <r>   -15.1441     0.0000   182.0000 </r>
       <r>   -14.9230     0.0000   182.0000 </r>
       <r>   -14.7019     0.0000   182.0000 </r>
       <r>   -14.4808     0.0000   182.0000 </r>
       <r>   -14.2598     0.0000   182.0000 </r>
       <r>   -14.0387     0.0000   182.0000 </r>
       <r>   -13.8176     0.0000   182.0000 </r>
       <r>   -13.5965     0.0000   182.0000 </r>
       <r>   -13.3754     0.0000   182.0000 </r>
       <r>   -13.1543     0.0000   182.0000 </r>
       <r>   -12.9333     0.0000   182.0000 </r>
       <r>   -12.7122     0.0000   182.0000 </r>
       <r>   -12.4911     0.0000   182.0000 </r>
       <r>   -12.2700     0.0000   182.0000 </r>
       <r>   -12.0489     0.0000   182.0000 </r>
       <r>   -11.8278     0.0000   182.0000 </r>
       <r>   -11.6068     0.0000   182.0000 </r>
       <r>   -11.3857     0.0000   182.0000 </r>
       <r>   -11.1646     0.0000   182.0000 </r>
       <r>   -10.9435     0.0000   182.0000 </r>
       <r>   -10.7224     0.0000   182.0000 </r>
       <r>   -10.5014     0.0000   182.0000 </r>
       <r>   -10.2803     0.0000   182.0000 </r>
       <r>   -10.0592     0.0000   182.0000 </r>
       <r>    -9.8381     0.0000   182.0000 </r>
       <r>    -9.6170     0.0000   182.0000 </r>
       <r>    -9.3959     0.0000   182.0000 </r>
       <r>    -9.1749     0.0000   182.0000 </r>
       <r>    -8.9538     0.0000   182.0000 </r>
       <r>    -8.7327     0.0000   182.0000 </r>
       <r>    -8.5116     0.0000   182.0000 </r>
       <r>    -8.2905     0.0000   182.0000 </r>
       <r>    -8.0694     0.0000   182.0000 </r>
       <r>    -7.8484     0.0000   182.0000 </r>
       <r>    -7.6273     0.1158   182.0256 </r>
       <r>    -7.4062     3.7064   182.8450 </r>
       <r>    -7.1851     5.9338   184.1569 </r>
       <r>    -6.9640    12.1448   186.8419 </r>
       <r>    -6.7430    11.5446   189.3942 </r>
       <r>    -6.5219    14.0673   192.5042 </r>
       <r>    -6.3008    21.3288   197.2196 </r>
       <r>    -6.0797    27.6707   203.3371 </r>
       <r>    -5.8586    19.8107   207.7169 </r>
       <r>    -5.6375     1.2802   208.0000 </r>
       <r>    -5.4165     0.0002   208.0000 </r>
       <r>    -5.1954     0.0000   208.0000 </r>
       <r>    -4.9743     0.0000   208.0000 </r>
       <r>    -4.7532     0.0000   208.0000 </r>
       <r>    -4.5321     0.0000   208.0000 </r>
       <r>    -4.3111     0.0000   208.0000 </r>
       <r>    -4.0900     0.0007   208.0001 </r>
       <r>    -3.8689     0.6580   208.1456 </r>
       <r>    -3.6478     6.1293   209.5007 </r>
       <r>    -3.4267     2.8468   210.1301 </r>
       <r>    -3.2056     8.4321   211.9942 </r>
       <r>    -2.9846    10.7648   214.3741 </r>
       <r>    -2.7635    18.9933   218.5732 </r>
       <r>    -2.5424    23.9026   223.8577 </r>
       <r>    -2.3213    23.4331   229.0383 </r>
       <r>    -2.1002    24.7451   234.5090 </r>
       <r>    -1.8791    19.0017   238.7099 </r>
       <r>    -1.6581    16.7810   242.4199 </r>
       <r>    -1.4370    12.5072   245.1850 </r>
       <r>    -1.2159     3.5556   245.9711 </r>
       <r>    -0.9948     0.1305   246.0000 </r>
       <r>    -0.7737     0.0000   246.0000 </r>
       <r>    -0.5527     0.0000   246.0000 </r>
       <r>    -0.3316     0.0000   246.0000 </r>
       <r>    -0.1105     0.0000   246.0000 </r>
       <r>     0.1106     0.0000   246.0000 </r>
       <r>     0.3317     0.0000   246.0000 </r>
       <r>     0.5528     0.0003   246.0001 </r>
       <r>     0.7738     0.2856   246.0632 </r>
       <r>     0.9949     0.9808   246.2800 </r>
       <r>     1.2160     5.7632   247.5542 </r>
       <r>     1.4371    10.1018   249.7875 </r>
       <r>     1.6582    13.3776   252.7450 </r>
       <r>     1.8792    15.7391   256.2247 </r>
       <r>     2.1003    22.2635   261.1467 </r>
       <r>     2.3214    27.7080   267.2725 </r>
       <r>     2.5425    27.8267   273.4245 </r>
       <r>     2.7636    27.1444   279.4256 </r>
       <r>     2.9847    34.7048   287.0982 </r>
       <r>     3.2057    33.6232   294.5317 </r>
       <r>     3.4268    36.5846   302.6199 </r>
       <r>     3.6479    45.1276   312.5968 </r>
       <r>     3.8690    51.9057   324.0722 </r>
       <r>     4.0901    61.8003   337.7352 </r>
       <r>     4.3112    66.4068   352.4166 </r>
       <r>     4.5322    65.0275   366.7930 </r>
       <r>     4.7533    59.2088   379.8830 </r>
       <r>     4.9744    55.8811   392.2373 </r>
       <r>     5.1955    46.1866   402.4484 </r>
       <r>     5.4166    37.1661   410.6651 </r>
       <r>     5.6376    29.4285   417.1712 </r>
       <r>     5.8587    28.9373   423.5687 </r>
       <r>     6.0798    23.6290   428.7927 </r>
       <r>     6.3009    15.0874   432.1282 </r>
       <r>     6.5220    18.0812   436.1257 </r>
       <r>     6.7431     7.8228   437.8552 </r>
       <r>     6.9641    12.5775   440.6358 </r>
       <r>     7.1852    13.1500   443.5430 </r>
       <r>     7.4063    15.8435   447.0458 </r>
       <r>     7.6274    16.6386   450.7242 </r>
       <r>     7.8485    19.9738   455.1401 </r>
       <r>     8.0696    17.6001   459.0312 </r>
       <r>     8.2906    15.8562   462.5367 </r>
       <r>     8.5117    19.5221   466.8527 </r>
       <r>     8.7328    22.4340   471.8124 </r>
       <r>     8.9539    20.7179   476.3928 </r>
       <r>     9.1750    23.7464   481.6427 </r>
       <r>     9.3960    28.4294   487.9279 </r>
       <r>     9.6171    29.4168   494.4315 </r>
       <r>     9.8382    38.1199   502.8591 </r>
       <r>    10.0593    40.9054   511.9025 </r>
       <r>    10.2804    44.4459   521.7287 </r>
       <r>    10.5015    47.4645   532.2223 </r>
       <r>    10.7225    54.8379   544.3460 </r>
       <r>    10.9436    52.1284   555.8706 </r>
       <r>    11.1647    50.2918   566.9893 </r>
       <r>    11.3858    33.3978   574.3729 </r>
       <r>    11.6069     7.2981   575.9864 </r>
       <r>    11.8279     0.0614   576.0000 </r>
       <r>    12.0490     0.0000   576.0000 </r>
       <r>    12.2701     0.0000   576.0000 </r>
       <r>    12.4912     0.0000   576.0000 </r>
       <r>    12.7123     0.0000   576.0000 </r>
       <r>    12.9334     0.0000   576.0000 </r>
       <r>    13.1544     0.0000   576.0000 </r>
       <r>    13.3755     0.0000   576.0000 </r>
       <r>    13.5966     0.0000   576.0000 </r>
       <r>    13.8177     0.0000   576.0000 </r>
       <r>    14.0388     0.0000   576.0000 </r>
       <r>    14.2599     0.0000   576.0000 </r>
       <r>    14.4809     0.0000   576.0000 </r>
      </set>
     </set>
    </array>
   </total>
  </dos>
 </calculation>
 <structure name="finalpos" >
  <crystal>
   <varray name="basis" >
    <v>       8.87236508       0.00656507       0.01449471 </v>
    <v>       0.00661311       8.93271854      -0.01796255 </v>
    <v>       0.01451890      -0.01788091       8.90366119 </v>
   </varray>
   <i name="volume">    705.64867255 </i>
   <varray name="rec_basis" >
    <v>       0.11270988      -0.00008381      -0.00018396 </v>
    <v>      -0.00008320       0.11194852       0.00022496 </v>
    <v>      -0.00018365       0.00022599       0.11231410 </v>
   </varray>
  </crystal>
  <varray name="positions" >
   <v>       0.00437731      -0.01426336       0.00371659 </v>
   <v>       0.25137364      -0.00950074       0.25415736 </v>
   <v>       0.25439759       0.50962744       0.24655292 </v>
   <v>       0.49831347       0.48796378      -0.00380233 </v>
   <v>       0.49071164       0.24300163       0.75517796 </v>
   <v>      -0.00007118       0.49764220       0.50699492 </v>
   <v>       0.50301769       0.75337203       0.74421875 </v>
   <v>       0.00025298       0.24509971       0.26089630 </v>
   <v>       0.74653168       0.74962731       0.00133534 </v>
   <v>       0.00706493       0.24618456       0.74004971 </v>
   <v>       0.75370064       0.25968452       0.50633585 </v>
   <v>      -0.00140711       0.75081794       0.75250007 </v>
   <v>       0.25204675       0.49924780       0.75418853 </v>
   <v>       0.24487827       0.24596181       0.00006919 </v>
   <v>       0.49794335       0.25078511       0.24660548 </v>
   <v>       0.74676127      -0.00655813       0.25393000 </v>
   <v>       0.75393468       0.24990909      -0.00801966 </v>
   <v>       0.26169998       0.75599005      -0.00080887 </v>
   <v>       0.25214177       0.25001666       0.49936160 </v>
   <v>       0.24719924       0.74840498       0.50195303 </v>
   <v>       0.24848288       0.24883751       0.24877527 </v>
   <v>       0.25270386       0.00150308       0.00396898 </v>
   <v>       0.00011108       0.24531573      -0.00014674 </v>
   <v>       0.75104659       0.24683742       0.25058066 </v>
   <v>       0.75597703      -0.00095307       0.00733845 </v>
   <v>       0.49650863       0.00010405       0.23967692 </v>
   <v>       0.00220157       0.49116285       0.25024247 </v>
   <v>       0.50660710       0.75445660      -0.00461260 </v>
   <v>      -0.00728777       0.00192972       0.75427072 </v>
   <v>       0.74990999       0.24748918       0.74662514 </v>
   <v>       0.74595552       0.00530397       0.50166922 </v>
   <v>       0.50527035       0.24693287       0.50084665 </v>
   <v>       0.50172944       0.00404841       0.73273579 </v>
   <v>       0.00277203       0.00067351       0.24718374 </v>
   <v>       0.50045234       0.25688099      -0.00502529 </v>
   <v>       0.25138465       0.74847693       0.24993988 </v>
   <v>       0.25147487       0.50276691       0.00408886 </v>
   <v>       0.00164326       0.75657140      -0.00198975 </v>
   <v>       0.74997799       0.74767273       0.24892256 </v>
   <v>       0.74832891       0.50351233       0.00145674 </v>
   <v>       0.49705132       0.50319337       0.24875579 </v>
   <v>       0.25385462       0.25355740       0.75032407 </v>
   <v>       0.24640390      -0.00187996       0.49549809 </v>
   <v>      -0.00019216       0.25347023       0.50092285 </v>
   <v>       0.25125841       0.75064694       0.75123734 </v>
   <v>       0.24857171       0.49919174       0.49703249 </v>
   <v>      -0.00361092       0.74749583       0.50318680 </v>
   <v>       0.00053037       0.49971949       0.74978786 </v>
   <v>       0.74692828       0.75102218       0.75203111 </v>
   <v>       0.75393706       0.49826753       0.50008709 </v>
   <v>       0.49995505       0.74870047       0.50821508 </v>
   <v>       0.49959807       0.50125601       0.75109006 </v>
   <v>       0.50900301       0.01728177      -0.01707792 </v>
   <v>       0.00296284       0.52021852      -0.00700227 </v>
   <v>       0.50131918       0.74801383       0.26677507 </v>
   <v>       0.24820086       0.00484709       0.74470641 </v>
   <v>       0.47892021      -0.01659784       0.49278830 </v>
   <v>       0.73344893      -0.01694204       0.77077793 </v>
   <v>       0.00162046       0.75053657       0.24742229 </v>
   <v>       0.74325149       0.50691555       0.25001085 </v>
   <v>       0.00808507       0.00256580       0.49867775 </v>
   <v>       0.50025183       0.50668969       0.50367152 </v>
   <v>       0.74749588       0.51149150       0.75228793 </v>
   <v>       0.75103631       0.73780149       0.49683378 </v>
  </varray>
 </structure>
</modeling>
