HECN                                    
           1
    11.240000    0.000000    0.000000
     0.000000   11.240000    0.000000
     0.000000    0.000000   11.240000
   Ti   Ta   Hf   N    C    Mo   Nb
   7   6   7  13  19   6   6
Direct configuration=     1
   0.00000000  0.00000000  0.00000000
   0.25000000  0.00000000  0.25000000
   0.25000000  0.50000000  0.25000000
   0.50000000  0.50000000  0.00000000
   0.50000000  0.25000000  0.75000004
   0.00000000  0.50000000  0.50000000
   0.50000000  0.75000004  0.75000004
   0.00000000  0.25000000  0.25000000
   0.75000004  0.75000004  0.00000000
   0.00000000  0.25000000  0.75000004
   0.75000004  0.25000000  0.50000000
   0.00000000  0.75000004  0.75000004
   0.25000000  0.50000000  0.75000004
   0.25000000  0.25000000  0.00000000
   0.50000000  0.25000000  0.25000000
   0.75000004  0.00000000  0.25000000
   0.75000004  0.25000000  0.00000000
   0.25000000  0.75000004  0.00000000
   0.25000000  0.25000000  0.50000000
   0.25000000  0.75000004  0.50000000
   0.25000000  0.25000000  0.25000000
   0.25000000  0.00000000  0.00000000
   0.00000000  0.25000000  0.00000000
   0.75000004  0.25000000  0.25000000
   0.75000004  0.00000000  0.00000000
   0.50000000  0.00000000  0.25000000
   0.00000000  0.50000000  0.25000000
   0.50000000  0.75000004  0.00000000
   0.00000000  0.00000000  0.75000004
   0.75000004  0.25000000  0.75000004
   0.75000004  0.00000000  0.50000000
   0.50000000  0.25000000  0.50000000
   0.50000000  0.00000000  0.75000004
   0.00000000  0.00000000  0.25000000
   0.50000000  0.25000000  0.00000000
   0.25000000  0.75000004  0.25000000
   0.25000000  0.50000000  0.00000000
   0.00000000  0.75000004  0.00000000
   0.75000004  0.75000004  0.25000000
   0.75000004  0.50000000  0.00000000
   0.50000000  0.50000000  0.25000000
   0.25000000  0.25000000  0.75000004
   0.25000000  0.00000000  0.50000000
   0.00000000  0.25000000  0.50000000
   0.25000000  0.75000004  0.75000004
   0.25000000  0.50000000  0.50000000
   0.00000000  0.75000004  0.50000000
   0.00000000  0.50000000  0.75000004
   0.75000004  0.75000004  0.75000004
   0.75000004  0.50000000  0.50000000
   0.50000000  0.75000004  0.50000000
   0.50000000  0.50000000  0.75000004
   0.50000000  0.00000000  0.00000000
   0.00000000  0.50000000  0.00000000
   0.50000000  0.75000004  0.25000000
   0.25000000  0.00000000  0.75000004
   0.50000000  0.00000000  0.50000000
   0.75000004  0.00000000  0.75000004
   0.00000000  0.75000004  0.25000000
   0.75000004  0.50000000  0.25000000
   0.00000000  0.00000000  0.50000000
   0.50000000  0.50000000  0.50000000
   0.75000004  0.50000000  0.75000004
   0.75000004  0.75000004  0.50000000
HECN                                    
           1
     8.015457    0.001375    0.000569
     0.001375    8.012565   -0.000206
     0.000569   -0.000206    8.015937
   Ti   Ta   Hf   N    C    Mo   Nb
   7   6   7  13  19   6   6
Direct configuration=     2
   0.00013997 -0.00175752  0.00078409
   0.24936982 -0.00213384  0.25134307
   0.25114341  0.50209446  0.24972196
   0.50006236  0.49909392  0.00009358
   0.49887833  0.24982264  0.75105002
  -0.00036065  0.50029156  0.50115373
   0.50020968  0.74988496  0.74875655
  -0.00059958  0.24802381  0.25265086
   0.75163960  0.74788015  0.00000260
   0.00154845  0.25151694  0.74727583
   0.75255290  0.25219412  0.50113719
  -0.00038434  0.74858943  0.74977987
   0.25023178  0.50018331  0.75038490
   0.25092755  0.25056324 -0.00207248
   0.50008952  0.25076150  0.24900666
   0.75013322 -0.00241691  0.25021133
   0.74884241  0.25123342 -0.00115679
   0.24944309  0.74952111  0.00000586
   0.24871407  0.24935717  0.50201617
   0.25032746  0.75061282  0.49999073
   0.25036876  0.24995454  0.24971809
   0.25007610  0.00016259  0.00026845
   0.00006513  0.24959568  0.00000922
   0.74950681  0.24832135  0.24963734
   0.74988555  0.00035500  0.00214650
   0.50247050  0.00270743  0.24986349
  -0.00110155  0.49837003  0.25001160
   0.50007577  0.75020897 -0.00031524
  -0.00030548  0.00027628  0.74921992
   0.75168745  0.25061164  0.75029060
   0.75099866  0.00145539  0.49780308
   0.49999861  0.25099668  0.49782153
   0.50030759  0.00014125  0.75010649
  -0.00198148  0.00166357  0.25101682
   0.50023762  0.24895231  0.00196310
   0.24926856  0.75004641  0.24967798
   0.24937765  0.49991997 -0.00179419
  -0.00094601  0.74970665 -0.00128512
   0.75055983  0.75079023  0.24880514
   0.75054501  0.50060002  0.00021014
   0.50149904  0.49879579  0.25137651
   0.24772204  0.25154946  0.75029158
   0.24945960  0.00029452  0.50066309
  -0.00088613  0.24889548  0.50008228
   0.24785029  0.74830723  0.75031769
   0.25122557  0.49965151  0.50180787
   0.00017517  0.75111358  0.50140363
   0.00071513  0.49978864  0.75076378
   0.75209462  0.74966345  0.75118769
   0.74886917  0.49869871  0.49985155
   0.49994056  0.74948218  0.49939000
   0.49921544  0.49994291  0.74852564
   0.50019885  0.00177139 -0.00069276
  -0.00043033  0.50203986 -0.00206980
   0.50044953  0.74783027  0.25218561
   0.25045366 -0.00010890  0.74784144
   0.49768456 -0.00263753  0.50077572
   0.74944300 -0.00244919  0.74980874
  -0.00010852  0.75171751  0.25010728
   0.74840570  0.50313321  0.25008003
   0.00203049 -0.00029629  0.49914735
   0.50056921  0.50258864  0.50003270
   0.74976246  0.50226503  0.74997721
   0.74965743  0.74781093  0.49983517
HECN                                    
           1
     9.007428    0.000952    0.000394
     0.000952    9.005425   -0.000142
     0.000394   -0.000142    9.007760
   Ti   Ta   Hf   N    C    Mo   Nb
   7   6   7  13  19   6   6
Direct configuration=     3
   0.00007948 -0.00099907  0.00044589
   0.24964156 -0.00121306  0.25076372
   0.25065030  0.50119069  0.24984191
   0.50003540  0.49948494  0.00005322
   0.49936223  0.24989908  0.75059707
  -0.00020501  0.50016570  0.50065604
   0.50011918  0.74993465  0.74929295
  -0.00034099  0.24887655  0.25150738
   0.75093216  0.74879510  0.00000155
   0.00088050  0.25086246  0.74845098
   0.75145182  0.25124744  0.50064670
  -0.00021865  0.74919815  0.74987485
   0.25013182  0.50010422  0.75021889
   0.25052739  0.25032027 -0.00117847
   0.50005093  0.25043290  0.24943515
   0.75007560 -0.00137390  0.25012020
   0.74934186  0.25070107 -0.00065784
   0.24968330  0.74972775  0.00000332
   0.24926882  0.24963446  0.50114643
   0.25018624  0.75034840  0.49999473
   0.25020967  0.24997419  0.24983971
   0.25004329  0.00009243  0.00015265
   0.00003700  0.24977017  0.00000525
   0.74971945  0.24904573  0.24979378
   0.74993503  0.00020177  0.00122057
   0.50140495  0.00153924  0.24992242
  -0.00062648  0.49907336  0.25000658
   0.50004309  0.75011882 -0.00017926
  -0.00017370  0.00015704  0.74955643
   0.75095958  0.25034781  0.75016531
   0.75056791  0.00082742  0.49875076
   0.49999922  0.25056659  0.49876123
   0.50017491  0.00008031  0.75006058
  -0.00112654  0.00094551  0.25057812
   0.50013509  0.24940443  0.00111631
   0.24958409  0.75002635  0.24981687
   0.24964606  0.49995448 -0.00102026
  -0.00053798  0.74983321 -0.00073079
   0.75031837  0.75044928  0.24932057
   0.75030997  0.50034112  0.00011950
   0.50085233  0.49931556  0.25078279
   0.24870485  0.25088063  0.75016574
   0.24969277  0.00016737  0.50037704
  -0.00050394  0.24937206  0.50004677
   0.24877753  0.74903759  0.75018062
   0.25069690  0.49980197  0.50102806
   0.00009973  0.75063303  0.50079815
   0.00040664  0.49987990  0.75043436
   0.75119105  0.74980884  0.75067545
   0.74935691  0.49926019  0.49991557
   0.49996615  0.74970566  0.49965314
   0.49955384  0.49996750  0.74916162
   0.50011318  0.00100698 -0.00039394
  -0.00024460  0.50115956 -0.00117700
   0.50025551  0.74876663  0.25124286
   0.25025788 -0.00006185  0.74877260
   0.49868325 -0.00149950  0.50044106
   0.74968311 -0.00139229  0.74989127
  -0.00006157  0.75097634  0.25006098
   0.74909371  0.50178097  0.25004542
   0.00115451 -0.00016827  0.49951522
   0.50032385  0.50147157  0.50001858
   0.74986512  0.50128755  0.74998703
   0.74980506  0.74875561  0.49990628
HECN                                    
           1
     8.928638    0.000986    0.000408
     0.000986    8.926565   -0.000148
     0.000408   -0.000148    8.928982
   Ti   Ta   Hf   N    C    Mo   Nb
   7   6   7  13  19   6   6
Direct configuration=     4
   0.00008375 -0.00105267  0.00046979
   0.24962235 -0.00127813  0.25080467
   0.25068516  0.50125457  0.24983343
   0.50003730  0.49945731  0.00005608
   0.49932803  0.24989368  0.75062908
  -0.00021601  0.50017459  0.50069122
   0.50012557  0.74993114  0.74925504
  -0.00035927  0.24881628  0.25158820
   0.75098216  0.74873044  0.00000163
   0.00092771  0.25090872  0.74836792
   0.75152965  0.25131435  0.50068137
  -0.00023036  0.74915513  0.74986814
   0.25013888  0.50010981  0.75023063
   0.25055568  0.25033744 -0.00124166
   0.50005366  0.25045612  0.24940486
   0.75007966 -0.00144761  0.25012664
   0.74930656  0.25073869 -0.00069311
   0.24966632  0.74971315  0.00000350
   0.24922961  0.24961486  0.50120791
   0.25019622  0.75036709  0.49999445
   0.25022092  0.24997280  0.24983111
   0.25004561  0.00009739  0.00016084
   0.00003899  0.24975784  0.00000553
   0.74970441  0.24899453  0.24978273
   0.74993154  0.00021260  0.00128602
   0.50148027  0.00162180  0.24991826
  -0.00066006  0.49902365  0.25000693
   0.50004540  0.75012519 -0.00018887
  -0.00018302  0.00016546  0.74953264
   0.75101102  0.25036646  0.75017416
   0.75059836  0.00087180  0.49868378
   0.49999918  0.25059699  0.49869481
   0.50018429  0.00008462  0.75006382
  -0.00118696  0.00099625  0.25060913
   0.50014234  0.24937248  0.00117617
   0.24956178  0.75002777  0.24980705
   0.24962709  0.49995204 -0.00107497
  -0.00056682  0.74982426 -0.00076997
   0.75033543  0.75047338  0.24928414
   0.75032658  0.50035942  0.00012591
   0.50089803  0.49927883  0.25082476
   0.24863539  0.25092789  0.75017463
   0.24967629  0.00017636  0.50039726
  -0.00053096  0.24933838  0.50004928
   0.24871199  0.74898597  0.75019031
   0.25073427  0.49979134  0.50108318
   0.00010507  0.75066699  0.50084094
   0.00042845  0.49987345  0.75045764
   0.75125492  0.74979857  0.75071166
   0.74932244  0.49922051  0.49991104
   0.49996434  0.74968987  0.49963454
   0.49952992  0.49996577  0.74911667
   0.50011924  0.00106100 -0.00041507
  -0.00025772  0.50122177 -0.00124010
   0.50026922  0.74870046  0.25130949
   0.25027172 -0.00006517  0.74870678
   0.49861265 -0.00157993  0.50046471
   0.74966614 -0.00146699  0.74988544
  -0.00006489  0.75102871  0.25006425
   0.74904509  0.50187653  0.25004787
   0.00121643 -0.00017731  0.49948922
   0.50034120  0.50155051  0.50001958
   0.74985786  0.50135663  0.74998633
   0.74979462  0.74868884  0.49990126
HECN                                    
           1
     8.887594    0.001003    0.000415
     0.001003    8.885483   -0.000150
     0.000415   -0.000150    8.887943
   Ti   Ta   Hf   N    C    Mo   Nb
   7   6   7  13  19   6   6
Direct configuration=     5
   0.00008600 -0.00108084  0.00048236
   0.24961225 -0.00131233  0.25082619
   0.25070348  0.50128813  0.24982897
   0.50003830  0.49944278  0.00005758
   0.49931005  0.24989084  0.75064591
  -0.00022179  0.50017927  0.50070970
   0.50012894  0.74992930  0.74923511
  -0.00036888  0.24878461  0.25163068
   0.75100843  0.74869646  0.00000167
   0.00095252  0.25093302  0.74832427
   0.75157055  0.25134951  0.50069959
  -0.00023652  0.74913252  0.74986461
   0.25014259  0.50011274  0.75023679
   0.25057054  0.25034647 -0.00127487
   0.50005509  0.25046833  0.24938894
   0.75008180 -0.00148635  0.25013003
   0.74928800  0.25075846 -0.00071164
   0.24965740  0.74970547  0.00000360
   0.24920901  0.24960456  0.50124021
   0.25020147  0.75037691  0.49999430
   0.25022683  0.24997207  0.24982659
   0.25004683  0.00009999  0.00016514
   0.00004003  0.24975136  0.00000568
   0.74969651  0.24896763  0.24977691
   0.74992970  0.00021829  0.00132041
   0.50151985  0.00166519  0.24991607
  -0.00067771  0.49899753  0.25000712
   0.50004661  0.75012854 -0.00019392
  -0.00018791  0.00016989  0.74952014
   0.75103806  0.25037626  0.75017882
   0.75061436  0.00089513  0.49864858
   0.49999915  0.25061296  0.49865990
   0.50018922  0.00008688  0.75006553
  -0.00121871  0.00102292  0.25062542
   0.50014615  0.24935569  0.00120762
   0.24955006  0.75002851  0.24980189
   0.24961712  0.49995076 -0.00110371
  -0.00058197  0.74981956 -0.00079056
   0.75034440  0.75048604  0.24926499
   0.75033531  0.50036904  0.00012928
   0.50092206  0.49925952  0.25084682
   0.24859888  0.25095273  0.75017930
   0.24966763  0.00018108  0.50040788
  -0.00054515  0.24932068  0.50005060
   0.24867755  0.74895884  0.75019540
   0.25075391  0.49978575  0.50111215
   0.00010787  0.75068484  0.50086343
   0.00043990  0.49987006  0.75046988
   0.75128848  0.74979317  0.75073069
   0.74930432  0.49919965  0.49990866
   0.49996339  0.74968157  0.49962477
   0.49951735  0.49996485  0.74909304
   0.50012242  0.00108939 -0.00042617
  -0.00026462  0.50125446 -0.00127327
   0.50027643  0.74866568  0.25134451
   0.25027899 -0.00006692  0.74867219
   0.49857556 -0.00162220  0.50047714
   0.74965721 -0.00150624  0.74988237
  -0.00006663  0.75105624  0.25006597
   0.74901954  0.50192675  0.25004915
   0.00124896 -0.00018206  0.49947555
   0.50035031  0.50159200  0.50002011
   0.74985405  0.50139293  0.74998597
   0.74978914  0.74865376  0.49989862
HECN                                    
           1
     8.888694    0.001003    0.000415
     0.001003    8.886585   -0.000150
     0.000415   -0.000150    8.889044
   Ti   Ta   Hf   N    C    Mo   Nb
   7   6   7  13  19   6   6
Direct configuration=     6
   0.00008594 -0.00108008  0.00048202
   0.24961252 -0.00131141  0.25082561
   0.25070298  0.50128723  0.24982909
   0.50003827  0.49944318  0.00005754
   0.49931054  0.24989091  0.75064545
  -0.00022164  0.50017914  0.50070921
   0.50012885  0.74992935  0.74923565
  -0.00036862  0.24878547  0.25162954
   0.75100772  0.74869738  0.00000167
   0.00095185  0.25093237  0.74832545
   0.75156945  0.25134856  0.50069910
  -0.00023635  0.74913313  0.74986470
   0.25014249  0.50011266  0.75023663
   0.25057014  0.25034622 -0.00127397
   0.50005505  0.25046800  0.24938937
   0.75008174 -0.00148530  0.25012993
   0.74928850  0.25075793 -0.00071114
   0.24965764  0.74970568  0.00000359
   0.24920956  0.24960484  0.50123934
   0.25020133  0.75037664  0.49999430
   0.25022667  0.24997209  0.24982672
   0.25004680  0.00009992  0.00016502
   0.00004000  0.24975153  0.00000568
   0.74969673  0.24896835  0.24977707
   0.74992975  0.00021814  0.00131949
   0.50151879  0.00166402  0.24991613
  -0.00067723  0.49899823  0.25000711
   0.50004658  0.75012845 -0.00019378
  -0.00018778  0.00016977  0.74952048
   0.75103733  0.25037600  0.75017869
   0.75061393  0.00089450  0.49864953
   0.49999915  0.25061253  0.49866084
   0.50018909  0.00008682  0.75006548
  -0.00121786  0.00102220  0.25062498
   0.50014605  0.24935614  0.00120677
   0.24955038  0.75002849  0.24980203
   0.24961739  0.49995079 -0.00110294
  -0.00058157  0.74981969 -0.00079001
   0.75034416  0.75048570  0.24926551
   0.75033508  0.50036878  0.00012919
   0.50092141  0.49926004  0.25084622
   0.24859987  0.25095206  0.75017918
   0.24966786  0.00018095  0.50040759
  -0.00054477  0.24932115  0.50005056
   0.24867848  0.74895958  0.75019526
   0.25075338  0.49978590  0.50111137
   0.00010779  0.75068436  0.50086283
   0.00043960  0.49987015  0.75046955
   0.75128758  0.74979332  0.75073017
   0.74930481  0.49920022  0.49990873
   0.49996341  0.74968179  0.49962503
   0.49951769  0.49996488  0.74909368
   0.50012234  0.00108863 -0.00042587
  -0.00026444  0.50125358 -0.00127237
   0.50027624  0.74866662  0.25134357
   0.25027879 -0.00006687  0.74867313
   0.49857655 -0.00162106  0.50047681
   0.74965745 -0.00150518  0.74988246
  -0.00006658  0.75105550  0.25006593
   0.74902023  0.50192540  0.25004912
   0.00124809 -0.00018193  0.49947592
   0.50035007  0.50159088  0.50002009
   0.74985416  0.50139196  0.74998598
   0.74978929  0.74865470  0.49989869
HECN                                    
           1
     8.863757    0.003214    0.000472
     0.003207    8.916973    0.001858
     0.000472    0.001858    8.857776
   Ti   Ta   Hf   N    C    Mo   Nb
   7   6   7  13  19   6   6
Direct configuration=     7
   0.00085008 -0.00442919  0.00210163
   0.24976523 -0.00373865  0.25203581
   0.25244472  0.50412530  0.24882323
   0.49956340  0.49700186 -0.00012022
   0.49819849  0.24732712  0.75176776
  -0.00089270  0.49994780  0.50300452
   0.50079339  0.75096943  0.74762765
   0.00000483  0.24576204  0.25503486
   0.75037581  0.74768096 -0.00051187
   0.00136792  0.25173612  0.74522543
   0.75382161  0.25425218  0.50331463
  -0.00123301  0.74813764  0.75016817
   0.25153508  0.49978895  0.75171579
   0.25018103  0.24674963 -0.00110220
   0.49800209  0.25085660  0.24901467
   0.74843787 -0.00412021  0.24934599
   0.74908168  0.24974296 -0.00382291
   0.25276206  0.75269462  0.00069561
   0.24974510  0.24822302  0.50102318
   0.25196700  0.75179073  0.49927865
   0.24924236  0.25028299  0.24900322
   0.24792969 -0.00012064  0.00309915
   0.00067436  0.24606293 -0.00020517
   0.75000623  0.24844154  0.25043487
   0.75259425 -0.00126530  0.00060969
   0.49826183  0.00168233  0.24965556
   0.00169053  0.49706525  0.25310125
   0.50168284  0.74786316 -0.00345068
  -0.00013384  0.00046352  0.75233382
   0.74847427  0.25064699  0.74915416
   0.75061534  0.00193875  0.49918521
   0.50160283  0.25118639  0.50212138
   0.50016095  0.00019058  0.74998941
   0.00301485  0.00216213  0.24768363
   0.50026077  0.25101376 -0.00330978
   0.24993790  0.74961159  0.24943301
   0.25155684  0.50063447  0.00243040
  -0.00304490  0.75288297 -0.00200624
   0.75006902  0.74866807  0.24855381
   0.74763772  0.50340775  0.00063282
   0.49842550  0.50231855  0.24883208
   0.25110860  0.25118464  0.75084545
   0.25111469 -0.00015329  0.49862228
  -0.00234051  0.25237628  0.50055149
   0.25054570  0.74903325  0.75067627
   0.24875057  0.49991403  0.49783002
  -0.00188541  0.74805017  0.50253189
   0.00016860  0.49982400  0.74773975
   0.74872680  0.75064071  0.75135324
   0.75207219  0.49888092  0.49975594
   0.50172350  0.75084330  0.50198574
   0.49986061  0.50029172  0.75056332
   0.49961936  0.00614123 -0.00183162
  -0.00071163  0.50490708 -0.00557719
   0.50074616  0.74489066  0.25476409
   0.25122187  0.00037580  0.74599114
   0.49360855 -0.00596712  0.50226793
   0.74836838 -0.00576659  0.75121519
   0.00089741  0.75357422  0.24978682
   0.74699068  0.50617236  0.24929999
   0.00465244  0.00003146  0.49833083
   0.50034214  0.50508044  0.50074196
   0.74846861  0.50436363  0.75110182
   0.74852038  0.74567506  0.49955235
HECN                                    
           1
     8.849000    0.004523    0.000506
     0.004512    8.934956    0.003047
     0.000506    0.003046    8.839274
   Ti   Ta   Hf   N    C    Mo   Nb
   7   6   7  13  19   6   6
Direct configuration=     8
   0.00130402 -0.00640463  0.00306388
   0.24985620 -0.00517029  0.25275481
   0.25347790  0.50579891  0.24822551
   0.49928196  0.49556221 -0.00022545
   0.49753894  0.24581516  0.75243459
  -0.00129090  0.49981116  0.50436763
   0.50118759  0.75158293  0.74667260
   0.00022687  0.24397849  0.25705751
   0.75000097  0.74708169 -0.00081670
   0.00161472  0.25221048  0.74338439
   0.75515766  0.25596388  0.50486745
  -0.00182430  0.74755066  0.75034853
   0.25236151  0.49959764  0.75259423
   0.24995064  0.24462859 -0.00099971
   0.49678376  0.25108614  0.24879210
   0.74746274 -0.00567378  0.24888081
   0.74895911  0.24914484 -0.00567068
   0.25460387  0.75445678  0.00110615
   0.25006310  0.24740805  0.50089500
   0.25301459  0.75262451  0.49885347
   0.24865821  0.25046659  0.24851415
   0.24667337 -0.00025080  0.00484162
   0.00105134  0.24388755 -0.00032989
   0.75018997  0.24813073  0.25082557
   0.75417565 -0.00214044  0.00018837
   0.49632907  0.00169363  0.24950082
   0.00309589  0.49592453  0.25493895
   0.50265418  0.74652742 -0.00538449
  -0.00010189  0.00063638  0.75400448
   0.74695325  0.25080733  0.74854572
   0.75061603  0.00255452  0.49950318
   0.50255439  0.25152412  0.50417633
   0.50014424  0.00025179  0.74994422
   0.00552649  0.00283417  0.24593675
   0.50032862  0.25199191 -0.00599215
   0.25016792  0.74936572  0.24921392
   0.25270765  0.50103690  0.00452857
  -0.00450715  0.75469005 -0.00272890
   0.74990601  0.74759627  0.24813141
   0.74603660  0.50520029  0.00093150
   0.49694392  0.50412291  0.24763559
   0.25259731  0.25132135  0.75124108
   0.25197333 -0.00035039  0.49756211
  -0.00340660  0.25417821  0.50084857
   0.25165375  0.74907636  0.75096189
   0.24756205  0.49999033  0.49588139
  -0.00306785  0.74649675  0.50352342
   0.00000779  0.49979719  0.74611868
   0.74720704  0.75114074  0.75172314
   0.75371447  0.49869224  0.49966523
   0.50276780  0.75152772  0.50338748
   0.50006406  0.50048422  0.75143602
   0.49932015  0.00912122 -0.00266710
  -0.00097752  0.50706235 -0.00813408
   0.50102556  0.74266329  0.25679586
   0.25178145  0.00063708  0.74439838
   0.49066104 -0.00852968  0.50333219
   0.74760402 -0.00827972  0.75200721
   0.00146909  0.75505951  0.24962074
   0.74578568  0.50867737  0.24885456
   0.00667263  0.00015697  0.49765078
   0.50033692  0.50713829  0.50117017
   0.74764595  0.50611621  0.75176407
   0.74776782  0.74391807  0.49934708
HECN                                    
           1
     8.902250    0.003446    0.003950
     0.003449    8.943540   -0.003495
     0.003947   -0.003453    8.921924
   Ti   Ta   Hf   N    C    Mo   Nb
   7   6   7  13  19   6   6
Direct configuration=     9
   0.00183974 -0.01012491  0.00371617
   0.25065503 -0.00680382  0.25359669
   0.25326335  0.50836817  0.24765634
   0.49847818  0.49171098 -0.00136652
   0.49452304  0.24308748  0.75339731
  -0.00027475  0.50041529  0.50595548
   0.50117264  0.75313591  0.74540011
   0.00017778  0.24260770  0.25875686
   0.74812817  0.74724652 -0.00034987
   0.00381479  0.25242400  0.74264696
   0.75418715  0.25893880  0.50560284
  -0.00144974  0.74661710  0.75075929
   0.25295430  0.49909917  0.75348777
   0.24800370  0.24351137 -0.00072140
   0.49726557  0.25281726  0.24837097
   0.74640986 -0.00717444  0.24925721
   0.75077093  0.24923056 -0.00665183
   0.25676608  0.75535008 -0.00024520
   0.25032237  0.24932251  0.50116274
   0.25172589  0.75097856  0.50040263
   0.24820074  0.25044618  0.24861307
   0.24592559 -0.00030216  0.00635828
   0.00033968  0.24267235 -0.00044778
   0.75052583  0.24734371  0.25100232
   0.75522894 -0.00217140  0.00055189
   0.49498075  0.00187892  0.24927685
   0.00348156  0.49368515  0.25496188
   0.50388886  0.74751018 -0.00689095
  -0.00018293  0.00143206  0.75513651
   0.74615387  0.25041055  0.74742636
   0.74977089  0.00388983  0.49980067
   0.50433438  0.25098969  0.50505358
   0.50033241  0.00029683  0.74894977
   0.00533852  0.00224695  0.24533913
   0.50032723  0.25448237 -0.00668254
   0.25101786  0.74915927  0.24938764
   0.25220279  0.50143898  0.00514409
  -0.00292992  0.75559632 -0.00286323
   0.75031281  0.74812392  0.24794440
   0.74521059  0.50414259  0.00134740
   0.49609386  0.50351393  0.24722233
   0.25379831  0.25214928  0.75062011
   0.25168378 -0.00077586  0.49564917
  -0.00127022  0.25419135  0.50068836
   0.25218473  0.74899130  0.75081680
   0.24782969  0.50007724  0.49534773
  -0.00322308  0.74678431  0.50344400
   0.00040851  0.49965130  0.74533498
   0.74606559  0.75086914  0.75117696
   0.75384852  0.49853857  0.49932167
   0.50240951  0.75178283  0.50562426
   0.49945625  0.50090613  0.75170705
   0.50044780  0.01400228 -0.00491712
  -0.00109952  0.51182548 -0.01077954
   0.50098549  0.73986815  0.26021688
   0.25189345  0.00207939  0.74254756
   0.48678006 -0.01248102  0.50477058
   0.74659715 -0.01227985  0.75402693
   0.00209972  0.75658678  0.24983074
   0.74486250  0.50915568  0.24832177
   0.00855864 -0.00012019  0.49730864
   0.49993524  0.50966934  0.50103205
   0.74718482  0.50966518  0.75264935
   0.74927532  0.74131934  0.49779551
HECN                                    
           1
     8.897421    0.003544    0.003638
     0.003545    8.942762   -0.002902
     0.003635   -0.002863    8.914428
   Ti   Ta   Hf   N    C    Mo   Nb
   7   6   7  13  19   6   6
Direct configuration=    10
   0.00179151 -0.00978786  0.00365782
   0.25058306 -0.00665587  0.25352118
   0.25328265  0.50813540  0.24770731
   0.49855065  0.49206003 -0.00126375
   0.49479501  0.24333461  0.75331088
  -0.00036631  0.50036043  0.50581279
   0.50117393  0.75299527  0.74551435
   0.00018228  0.24273180  0.25860425
   0.74829703  0.74723158 -0.00039190
   0.00361642  0.25240467  0.74271329
   0.75427464  0.25866919  0.50553653
  -0.00148349  0.74670166  0.75072246
   0.25290089  0.49914427  0.75340753
   0.24817925  0.24361261 -0.00074641
   0.49722210  0.25266042  0.24840872
   0.74650481 -0.00703848  0.24922345
   0.75060755  0.24922284 -0.00656361
   0.25657108  0.75526920 -0.00012376
   0.25029898  0.24914902  0.50113857
   0.25184215  0.75112762  0.50026348
   0.24824198  0.25044803  0.24860417
   0.24599306 -0.00029759  0.00622197
   0.00040385  0.24278248 -0.00043713
   0.75049557  0.24741501  0.25098650
   0.75513399 -0.00216863  0.00051926
   0.49510230  0.00186216  0.24929692
   0.00344682  0.49388806  0.25495998
   0.50377748  0.74742121 -0.00675560
  -0.00017559  0.00135989  0.75503473
   0.74622590  0.25044659  0.74752694
   0.74984708  0.00376882  0.49977382
   0.50417394  0.25103804  0.50497485
   0.50031541  0.00029282  0.74903913
   0.00535545  0.00230020  0.24539286
   0.50032731  0.25425675 -0.00662067
   0.25094124  0.74917796  0.24937207
   0.25224832  0.50140252  0.00508873
  -0.00307213  0.75551420 -0.00285116
   0.75027612  0.74807612  0.24796118
   0.74528508  0.50423841  0.00131007
   0.49617049  0.50356915  0.24725948
   0.25369000  0.25207429  0.75067590
   0.25170982 -0.00073718  0.49582108
  -0.00146283  0.25419015  0.50070283
   0.25213686  0.74899901  0.75082986
   0.24780554  0.50006940  0.49539569
  -0.00320909  0.74675826  0.50345112
   0.00037236  0.49966457  0.74540543
   0.74616848  0.75089379  0.75122602
   0.75383643  0.49855252  0.49935256
   0.50244189  0.75175957  0.50542324
   0.49951105  0.50086789  0.75168265
   0.50034600  0.01356014 -0.00471522
  -0.00108867  0.51139406 -0.01054214
   0.50098925  0.74012120  0.25990965
   0.25188327  0.00194882  0.74271378
   0.48713005 -0.01212303  0.50464146
   0.74668804 -0.01191751  0.75384567
   0.00204286  0.75644837  0.24981179
   0.74494571  0.50911238  0.24836958
   0.00838860 -0.00009508  0.49733947
   0.49997142  0.50944001  0.50104428
   0.74722638  0.50934355  0.75256954
   0.74913938  0.74155490  0.49793516
HECN                                    
           1
     8.869315    0.002649    0.008844
     0.002649    8.911923   -0.009812
     0.008847   -0.009748    8.904791
   Ti   Ta   Hf   N    C    Mo   Nb
   7   6   7  13  19   6   6
Direct configuration=    11
   0.00184238 -0.01307746  0.00375288
   0.25171288 -0.00780539  0.25423509
   0.25232309  0.50986876  0.24709609
   0.49780274  0.48831618 -0.00277061
   0.49134996  0.24111839  0.75430059
   0.00079977  0.50095620  0.50690086
   0.50117300  0.75453051  0.74453996
   0.00026255  0.24235467  0.25990085
   0.74669285  0.74787261  0.00040413
   0.00632323  0.25200142  0.74207413
   0.75354587  0.26108971  0.50566810
  -0.00121995  0.74620629  0.75121551
   0.25324503  0.49846779  0.75420608
   0.24619537  0.24382233 -0.00025505
   0.49797105  0.25385838  0.24800547
   0.74527220 -0.00717792  0.25002284
   0.75241042  0.24928199 -0.00716578
   0.25849440  0.75526468 -0.00133353
   0.25115097  0.25118372  0.50092077
   0.24974825  0.74926228  0.50169983
   0.24805964  0.25019836  0.24892053
   0.24629544 -0.00014816  0.00680012
  -0.00053969  0.24270323 -0.00063339
   0.75086644  0.24670445  0.25097684
   0.75524676 -0.00174677  0.00142397
   0.49492494  0.00199915  0.24894381
   0.00291636  0.49188855  0.25369985
   0.50479578  0.74968182 -0.00720951
  -0.00050531  0.00227557  0.75513465
   0.74673867  0.24971338  0.74660464
   0.74876844  0.00509571  0.50015600
   0.50565325  0.25008567  0.50449391
   0.50073063  0.00029156  0.74745107
   0.00372756  0.00138969  0.24610469
   0.50016121  0.25660244 -0.00562179
   0.25187743  0.74909699  0.24955554
   0.25076327  0.50173113  0.00436648
  -0.00096848  0.75519583 -0.00267824
   0.75060732  0.74857806  0.24774761
   0.74551500  0.50262676  0.00140436
   0.49614063  0.50227624  0.24749113
   0.25391255  0.25289328  0.75023720
   0.25072498 -0.00097325  0.49464249
   0.00017515  0.25335484  0.50072182
   0.25190039  0.74912219  0.75072232
   0.24875251  0.50018269  0.49602236
  -0.00280499  0.74771715  0.50312341
   0.00075905  0.49965829  0.74576533
   0.74609713  0.75037981  0.75070868
   0.75329416  0.49855793  0.49918626
   0.50156224  0.75157205  0.50681751
   0.49897159  0.50126136  0.75127503
   0.50275808  0.01732415 -0.00734865
  -0.00084558  0.51599595 -0.01238478
   0.50088683  0.73901619  0.26324178
   0.25164894  0.00404103  0.74066859
   0.48357527 -0.01507035  0.50560781
   0.74525248 -0.01614479  0.75698069
   0.00264357  0.75675615  0.25002717
   0.74474759  0.50810979  0.24792001
   0.00943119 -0.00044823  0.49711749
   0.49967356  0.51078459  0.50105949
   0.74689806  0.51262774  0.75319506
   0.75111458  0.73964732  0.49614312
HECN                                    
           1
     8.868788    0.002632    0.008941
     0.002632    8.911346   -0.009942
     0.008945   -0.009877    8.904610
   Ti   Ta   Hf   N    C    Mo   Nb
   7   6   7  13  19   6   6
Direct configuration=    12
   0.00184333 -0.01313932  0.00375461
   0.25173411 -0.00782699  0.25424845
   0.25230506  0.50990134  0.24708466