HECN                                    
           1
     8.932500    0.000000    0.000000
     0.005753    9.055598    0.000000
     0.032102   -0.015743    8.937128
   Zr   Ta   V    N    C    W    Mo
     7     6     7    13    19     6     6
Direct configuration=     1
   0.99688001  0.99204997  0.99924002
   0.25398003  0.99714995  0.24912000
   0.24803003  0.50165000  0.24955001
   0.50501006  0.49745998  0.99834003
   0.50479003  0.24631001  0.74710002
   0.99427992  0.50449999  0.49779000
   0.49950005  0.75481999  0.74817004
   0.99437004  0.23617001  0.26379999
   0.75718000  0.74102998  0.01100000
   0.00201000  0.25541000  0.73894001
   0.75307001  0.26163001  0.50533002
   0.99514004  0.74492004  0.74511997
   0.25679999  0.49462002  0.74545002
   0.24788999  0.24839000  0.99657997
   0.50833000  0.25676999  0.25376001
   0.74879004  0.98787999  0.26967001
   0.75719000  0.25603001  0.99591997
   0.24762001  0.74973999  0.99974006
   0.25272001  0.24823001  0.50015003
   0.24457999  0.75048999  0.49983999
   0.24982001  0.24942998  0.24825000
   0.26146999  0.99984002  0.99295996
   0.00281000  0.25024000  0.00130000
   0.75313998  0.24617000  0.25492002
   0.74767001  0.99748000  0.01202000
   0.50714994  0.99977000  0.24673000
   0.99051999  0.48088002  0.24100998
   0.50519005  0.76130999  0.00855000
   0.98896989  0.00202000  0.73708999
   0.75744996  0.24437997  0.74896999
   0.73632001  0.00417000  0.51063000
   0.50563996  0.23264999  0.49544997
   0.50008998  0.00061000  0.73471998
   0.99720000  0.99771992  0.25899999
   0.50427997  0.24673000  0.00262000
   0.25133999  0.74958002  0.24910999
   0.24328000  0.50072997  0.99510994
   0.99837005  0.74313996  0.00460000
   0.75633000  0.73891003  0.25767000
   0.75839004  0.50315998  0.00288000
   0.50700002  0.50333002  0.25878999
   0.24900999  0.25315000  0.74854000
   0.24446000  0.99823996  0.50287998
   0.99804009  0.24229999  0.50128003
   0.24177002  0.75340997  0.75018002
   0.25841001  0.50062002  0.50129001
   0.99000004  0.76215003  0.49746000
   0.99203996  0.50055999  0.75138002
   0.75036005  0.74888000  0.74756004
   0.74036002  0.50197000  0.50067003
   0.50575006  0.74958002  0.49720000
   0.50501003  0.50217998  0.73912003
   0.51588997  0.01358000  0.98075008
   0.99841994  0.50976998  0.98613004
   0.50379003  0.73926997  0.25905001
   0.23780002  0.01082000  0.74607998
   0.47957999  0.98308000  0.49717999
   0.74279003  0.97869994  0.76450995
   0.99864998  0.77573999  0.26102000
   0.73551001  0.51468004  0.26666001
   0.02362000  0.99783001  0.49557002
   0.50539000  0.52833005  0.49917999
   0.73876003  0.52828003  0.73814999
   0.75400003  0.72937999  0.49116997
HECN                                    
           1
     8.604468    0.013505    0.009470
     0.019233    8.724257   -0.006351
     0.040374   -0.021393    8.657399
   Zr   Ta   V    N    C    W    Mo
     7     6     7    13    19     6     6
Direct configuration=     2
   0.99769314  0.99622747  0.99924036
   0.25824145  0.00025232  0.24541524
   0.24938046  0.49848149  0.24814157
   0.50264840  0.49370176  0.00063041
   0.50254226  0.24576803  0.74820375
   0.00019276  0.50315104  0.49938442
   0.49329287  0.75738323  0.75154246
   0.99336689  0.23498961  0.25993442
   0.75678025  0.74366257  0.01192655
   0.00505838  0.25492711  0.74409749
   0.74868393  0.25716200  0.50061957
   0.00244866  0.74538716  0.74744234
   0.25499215  0.49531396  0.74636231
   0.25102014  0.25196670  0.99324266
   0.51079369  0.25779141  0.25089076
   0.74836935  0.98664513  0.27184690
   0.75330474  0.25860474  0.99604237
   0.24115328  0.74553360  0.99988568
   0.24981474  0.25005610  0.50240935
   0.24383635  0.74892945  0.49964262
   0.24941870  0.24877379  0.24834895
   0.26219089  0.99963253  0.99054373
   0.00237153  0.25032051  0.00099591
   0.75132907  0.24394149  0.25429336
   0.74574457  0.99874751  0.01353319
   0.51078963  0.99953110  0.24716952
   0.99316609  0.48032677  0.24176846
   0.50401342  0.76129184  0.00911711
   0.98858960  0.00253281  0.74100649
   0.75822126  0.24330518  0.74979968
   0.73548394  0.00648126  0.50833901
   0.50481306  0.23170595  0.49207354
   0.49875018  0.00097140  0.73602518
   0.99269198  0.00232685  0.25562570
   0.50481491  0.24436810  0.00680979
   0.25303684  0.74952834  0.24867930
   0.24249517  0.50050770  0.99355982
   0.00268248  0.74197545  0.00318346
   0.75529649  0.74721313  0.25200931
   0.75885898  0.49766254  0.00275028
   0.50102493  0.49825801  0.25618041
   0.24784662  0.25159255  0.74855738
   0.25243239  0.99690037  0.50396362
   0.00007670  0.24439184  0.50081878
   0.24121969  0.75413612  0.75032679
   0.25718479  0.50068511  0.50230256
   0.99706379  0.76084417  0.50055503
   0.99529189  0.50012080  0.75067720
   0.75033026  0.75546597  0.74987192
   0.74500646  0.49562513  0.50206696
   0.50024009  0.75653131  0.49673145
   0.49916310  0.50083481  0.74318505
   0.51829148  0.01766377  0.98287397
   0.00119487  0.50795321  0.98669499
   0.50205261  0.74172033  0.25789611
   0.23868572  0.01219073  0.74809990
   0.48047957  0.98605846  0.49294752
   0.74191134  0.97835245  0.76627844
   0.99999363  0.77547466  0.26073466
   0.73452984  0.50807387  0.26045528
   0.02111078  0.99930881  0.49480663
   0.50123077  0.52303229  0.49673731
   0.74224305  0.52172070  0.74511399
   0.75302335  0.73598514  0.48959117
HECN                                    
           1
     8.770196    0.006682    0.004686
     0.012423    8.891657   -0.003143
     0.036195   -0.018539    8.798724
   Zr   Ta   V    N    C    W    Mo
     7     6     7    13    19     6     6
Direct configuration=     3
   0.99727016  0.99403741  0.99923903
   0.25600691  0.99863024  0.24734868
   0.24866874  0.50014471  0.24887813
   0.50388520  0.49566984  0.99943597
   0.50372135  0.24605002  0.74762702
   0.99709134  0.50386267  0.49855678
   0.49655248  0.75603275  0.74977904
   0.99388986  0.23560923  0.26195036
   0.75699263  0.74228135  0.01144207
   0.00346205  0.25518092  0.74140958
   0.75097797  0.25950323  0.50307548
   0.99861710  0.74514729  0.74623514
   0.25594143  0.49494825  0.74588520
   0.24937954  0.25009482  0.99498363
   0.50950076  0.25725883  0.25238822
   0.74859019  0.98729156  0.27071179
   0.75534472  0.25725132  0.99597531
   0.24454154  0.74773416  0.99980764
   0.25134130  0.24909529  0.50122865
   0.24422496  0.74974728  0.49974573
   0.24962869  0.24911754  0.24829736
   0.26181125  0.99974281  0.99180440
   0.00260140  0.25027804  0.00115422
   0.75227665  0.24510890  0.25462001
   0.74675635  0.99808069  0.01274240
   0.50888071  0.99965918  0.24694248
   0.99177822  0.48061878  0.24137461
   0.50463085  0.76130019  0.00882067
   0.98879169  0.00226214  0.73896345
   0.75781629  0.24386913  0.74936782
   0.73592309  0.00526938  0.50953249
   0.50524406  0.23220158  0.49383438
   0.49945392  0.00078031  0.73534355
   0.99505832  0.99990851  0.25738118
   0.50453472  0.24560559  0.00462585
   0.25214658  0.74955698  0.24890492
   0.24290575  0.50062419  0.99436791
   0.00041890  0.74259016  0.00392517
   0.75584230  0.74286015  0.25495781
   0.75860836  0.50054588  0.00282033
   0.50415306  0.50091392  0.25753994
   0.24845549  0.25240834  0.74854825
   0.24825049  0.99760895  0.50340355
   0.99901002  0.24329668  0.50105970
   0.24150902  0.75375482  0.75024965
   0.25782802  0.50064961  0.50177374
   0.99335961  0.76153358  0.49894540
   0.99358554  0.50035402  0.75104579
   0.75035270  0.75201135  0.74866362
   0.74256495  0.49895570  0.50134351
   0.50313553  0.75288168  0.49696997
   0.50223089  0.50153398  0.74106212
   0.51703654  0.01552337  0.98176607
   0.99973826  0.50890799  0.98640264
   0.50296526  0.74043435  0.25849598
   0.23822347  0.01147188  0.74704640
   0.48000786  0.98449882  0.49515431
   0.74237290  0.97853331  0.76535573
   0.99928852  0.77561500  0.26088435
   0.73503491  0.51153969  0.26369331
   0.02242763  0.99853156  0.49520276
   0.50340641  0.52580800  0.49801093
   0.74041470  0.52516074  0.74148649
   0.75354024  0.73252112  0.49041147
HECN                                    
           1
     8.799158    0.015756    0.013519
     0.021669    8.883209   -0.007634
     0.045136   -0.022924    8.844729
   Zr   Ta   V    N    C    W    Mo
     7     6     7    13    19     6     6
Direct configuration=     4
   0.99861956  0.99855188  0.99907813
   0.25923300  0.00222984  0.24320600
   0.24935695  0.49658285  0.24772451
   0.50127344  0.49263095  0.00155857
   0.50165036  0.24619344  0.74871572
   0.00298995  0.50227719  0.49981751
   0.49059344  0.75694412  0.75344151
   0.99355742  0.23599275  0.25679351
   0.75678849  0.74502512  0.01113542
   0.00554271  0.25454890  0.74737602
   0.74726316  0.25412218  0.49826098
   0.00507454  0.74592955  0.74912194
   0.25317204  0.49611627  0.74711853
   0.25328878  0.25431893  0.99107185
   0.51269163  0.25836523  0.24887100
   0.74819522  0.98633980  0.27303071
   0.75066036  0.25967795  0.99667851
   0.23742261  0.74278872  0.00028386
   0.24769162  0.25074709  0.50364956
   0.24377214  0.74785208  0.49928702
   0.24984552  0.24835860  0.24834359
   0.26259834  0.99934111  0.98954556
   0.00205982  0.25086085  0.00106943
   0.74878286  0.24264208  0.25231187
   0.74619155  0.00008968  0.01577043
   0.51353386  0.99960694  0.24634365
   0.99421772  0.48163326  0.24170105
   0.50250471  0.76124583  0.00947790
   0.98825196  0.00287707  0.74268054
   0.75811881  0.24330651  0.75091420
   0.73660137  0.00713254  0.50750975
   0.50328924  0.23290736  0.49020449
   0.49736699  0.00161538  0.73671283
   0.99088638  0.00356858  0.25378193
   0.50450029  0.24498074  0.00963145
   0.25381531  0.74944102  0.24822343
   0.24302601  0.50015169  0.99337298
   0.00534063  0.74267227  0.00333709
   0.75444915  0.75066219  0.24999703
   0.75841683  0.49393436  0.00289853
   0.49783266  0.49514013  0.25493946
   0.24825119  0.25127028  0.74859492
   0.25389458  0.99666113  0.50368921
   0.00175612  0.24569147  0.50091227
   0.24164753  0.75442787  0.75053592
   0.25673040  0.50046328  0.50199765
   0.00108864  0.75969311  0.50194044
   0.99751345  0.49988829  0.74968189
   0.75007378  0.75566674  0.75033258
   0.74672339  0.49455416  0.50244388
   0.49700313  0.75725617  0.49759251
   0.49720060  0.50059007  0.74472777
   0.51759921  0.01754852  0.98461997
   0.00231435  0.50517581  0.98790697
   0.50052383  0.74303870  0.25666691
   0.23970928  0.01180191  0.75001692
   0.48333814  0.98904385  0.48965751
   0.74177110  0.98126883  0.76720384
   0.00157330  0.77373338  0.25943186
   0.73513101  0.50422897  0.25666800
   0.01944175  0.00102810  0.49481623
   0.49982263  0.52038698  0.49567295
   0.74466711  0.51839678  0.75051000
   0.75175843  0.73878230  0.48939187
HECN                                    
           1
     8.798792    0.015642    0.013407
     0.021552    8.883316   -0.007577
     0.045023   -0.022868    8.844149
   Zr   Ta   V    N    C    W    Mo
     7     6     7    13    19     6     6
Direct configuration=     5
   0.99860264  0.99849486  0.99908014
   0.25919241  0.00218442  0.24325805
   0.24934823  0.49662788  0.24773902
   0.50130629  0.49266931  0.00153190
   0.50167643  0.24619159  0.74870202
   0.00291573  0.50229729  0.49980176
   0.49066848  0.75693250  0.75339543
   0.99356155  0.23598793  0.25685826
   0.75679109  0.74499045  0.01113926
   0.00551660  0.25455688  0.74730112
   0.74730977  0.25419016  0.49832143
   0.00499334  0.74591973  0.74908576
   0.25320692  0.49610147  0.74710300
   0.25323960  0.25426563  0.99112100
   0.51265145  0.25835131  0.24891520
   0.74820020  0.98635180  0.27300159
   0.75071934  0.25964723  0.99666961
   0.23751212  0.74285111  0.00027782
   0.24773760  0.25072616  0.50361910
   0.24377781  0.74787603  0.49929279
   0.24984278  0.24836819  0.24834302
   0.26258841  0.99934621  0.98957394
   0.00206664  0.25085348  0.00107049
   0.74882676  0.24267322  0.25234083
   0.74619872  0.00006427  0.01573238
   0.51347530  0.99960766  0.24635123
   0.99418705  0.48162047  0.24169697
   0.50253147  0.76124648  0.00946962
   0.98825881  0.00286927  0.74263384
   0.75811501  0.24331361  0.75089479
   0.73659283  0.00710901  0.50753515
   0.50331380  0.23289843  0.49025005
   0.49739327  0.00160479  0.73669560
   0.99093888  0.00352230  0.25382706
   0.50450078  0.24498861  0.00956859
   0.25379431  0.74944251  0.24823201
   0.24302447  0.50015767  0.99338548
   0.00527870  0.74267130  0.00334453
   0.75446672  0.75056362  0.25005927
   0.75841915  0.49401790  0.00289759
   0.49791207  0.49521302  0.25497208
   0.24825374  0.25128466  0.74859434
   0.25382355  0.99667317  0.50368570
   0.00172159  0.24566125  0.50091414
   0.24164580  0.75441936  0.75053232
   0.25674422  0.50046562  0.50199483
   0.00099140  0.75971645  0.50190294
   0.99746401  0.49989424  0.74969907
   0.75007736  0.75562054  0.75031159
   0.74667102  0.49460982  0.50243014
   0.49708035  0.75720082  0.49758458
   0.49726392  0.50060191  0.74468168
   0.51759220  0.01752292  0.98458412
   0.00228190  0.50522300  0.98788814
   0.50055456  0.74300577  0.25668983
   0.23969063  0.01179774  0.74997963
   0.48329623  0.98898650  0.48972655
   0.74177873  0.98123425  0.76718061
   0.00154451  0.77375720  0.25945014
   0.73512962  0.50432139  0.25675628
   0.01947935  0.00099652  0.49482103
   0.49986763  0.52045544  0.49570230
   0.74461363  0.51848224  0.75039678
   0.75178092  0.73870316  0.48940461
HECN                                    
           1
     8.829567    0.013772    0.012627
     0.019735    8.882516   -0.002694
     0.044387   -0.018010    8.847284
   Zr   Ta   V    N    C    W    Mo
     7     6     7    13    19     6     6
Direct configuration=     6
   0.99896741  0.99970409  0.99891964
   0.25857898  0.00302895  0.24218167
   0.24828544  0.49551590  0.24840581
   0.50102960  0.49328467  0.00168184
   0.50176323  0.24680807  0.74940376
   0.00207869  0.50168134  0.50021008
   0.49133137  0.75582149  0.75413466
   0.99255700  0.23811198  0.25558505
   0.75917657  0.74426545  0.00881350
   0.00480007  0.25509978  0.74867763
   0.74873579  0.25305056  0.49598073
   0.00376604  0.74570352  0.75010556
   0.25201315  0.49622821  0.74711005
   0.25584351  0.25675397  0.98782595
   0.51694400  0.25939582  0.24678027
   0.74831736  0.98611967  0.27541792
   0.74713834  0.25986147  0.99785360
   0.23373988  0.73890436  0.00140293
   0.24452936  0.25039814  0.50579349
   0.24432128  0.74701493  0.49830823
   0.24929173  0.24777051  0.24847073
   0.26289283  0.99916976  0.98903681
   0.00149118  0.25194853  0.00150016
   0.74693865  0.24148890  0.24989250
   0.74690436  0.00109180  0.01703812
   0.51582748  0.99898733  0.24472430
   0.99492257  0.48376306  0.24167513
   0.50187551  0.76107061  0.00996401
   0.98820013  0.00314713  0.74307368
   0.75790436  0.24330347  0.75119197
   0.73845903  0.00732954  0.50806601
   0.50197242  0.23553002  0.48948138
   0.49641233  0.00213633  0.73728242
   0.99140306  0.00157821  0.25374111
   0.50320385  0.24606181  0.01087238
   0.25474764  0.74960939  0.24766579
   0.24365029  0.49964944  0.99374909
   0.00482835  0.74353596  0.00432356
   0.75331668  0.75044794  0.25051316
   0.75796283  0.49235011  0.00350145
   0.49853262  0.49462599  0.25538326
   0.24873566  0.25169507  0.74817765
   0.25217959  0.99738725  0.50342320
   0.00213811  0.24637210  0.50091754
   0.24219440  0.75451916  0.75084041
   0.25756906  0.50000896  0.50164658
   0.00297169  0.75884746  0.50215819
   0.99975689  0.50023566  0.75012266
   0.75008859  0.75368833  0.75017542
   0.74644896  0.49649990  0.50211071
   0.49483178  0.75433895  0.49798785
   0.49769200  0.50153664  0.74470648
   0.51815820  0.01629149  0.98494957
   0.00137936  0.50321896  0.98689848
   0.49898669  0.74139615  0.25796843
   0.23976689  0.01079312  0.75111351
   0.48603749  0.99031459  0.48563598
   0.73999714  0.98295617  0.77005114
   0.00319166  0.77527286  0.25887610
   0.73287044  0.50276497  0.25563271
   0.02163937  0.00210583  0.49373790
   0.50119525  0.52189993  0.49391596
   0.74658746  0.51838415  0.75529762
   0.75092876  0.73812386  0.48791667
HECN                                    
           1
     8.847207    0.012700    0.012180
     0.018693    8.882058    0.000105
     0.044023   -0.015225    8.849081
   Zr   Ta   V    N    C    W    Mo
     7     6     7    13    19     6     6
Direct configuration=     7
   0.99917590  0.00039738  0.99882731
   0.25822865  0.00351334  0.24156463
   0.24767827  0.49487813  0.24878817
   0.50087163  0.49363734  0.00176754
   0.50181291  0.24716125  0.74980566
   0.00160052  0.50132801  0.50044420
   0.49170990  0.75518446  0.75455862
   0.99198340  0.23932985  0.25485478
   0.76053897  0.74385087  0.00748122
   0.00439091  0.25541047  0.74946614
   0.74955008  0.25239820  0.49463997
   0.00306504  0.74557911  0.75068990
   0.25133128  0.49630071  0.74711399
   0.25733100  0.25818176  0.98593727
   0.51939591  0.25999578  0.24555687
   0.74838436  0.98598586  0.27680252
   0.74509296  0.25998347  0.99853176
   0.23158477  0.73664108  0.00204865
   0.24269689  0.25020902  0.50703932
   0.24463156  0.74652168  0.49774439
   0.24897690  0.24742778  0.24854407
   0.26306667  0.99906882  0.98872911
   0.00116264  0.25257606  0.00174598
   0.74585992  0.24081054  0.24848990
   0.74730759  0.00168050  0.01778601
   0.51717089  0.99863253  0.24379240
   0.99534296  0.48499138  0.24166197
   0.50150084  0.76096955  0.01024731
   0.98816667  0.00330627  0.74332560
   0.75778405  0.24329753  0.75136224
   0.73952504  0.00745602  0.50837022
   0.50120651  0.23703864  0.48904003
   0.49585211  0.00244072  0.73761844
   0.99166796  0.00046385  0.25369250
   0.50246323  0.24667644  0.01161903
   0.25529217  0.74970534  0.24734134
   0.24400771  0.49935806  0.99395763
   0.00457126  0.74403127  0.00488423
   0.75265978  0.75038134  0.25077321
   0.75770200  0.49139381  0.00384796
   0.49888701  0.49428943  0.25561908
   0.24901095  0.25193052  0.74793879
   0.25124065  0.99779646  0.50327247
   0.00237611  0.24677965  0.50091929
   0.24250778  0.75457633  0.75101695
   0.25804013  0.49974739  0.50144723
   0.00410273  0.75834948  0.50230483
   0.00106663  0.50043154  0.75036539
   0.75009477  0.75258074  0.75009801
   0.74632234  0.49758344  0.50192707
   0.49354708  0.75269800  0.49821971
   0.49793662  0.50207251  0.74472041
   0.51848137  0.01558553  0.98515939
   0.00086355  0.50207036  0.98633201
   0.49809099  0.74047284  0.25870148
   0.23981039  0.01021689  0.75176353
   0.48760327  0.99107753  0.48329184
   0.73897984  0.98394213  0.77169529
   0.00413266  0.77614209  0.25854679
   0.73157978  0.50187283  0.25498929
   0.02287325  0.00274235  0.49311705
   0.50195367  0.52272869  0.49289202
   0.74771510  0.51832662  0.75810589
   0.75044188  0.73779214  0.48706424
HECN                                    
           1
     8.808734    0.011548    0.012224
     0.017505    8.841708    0.005946
     0.043890   -0.009342    8.833883
   Zr   Ta   V    N    C    W    Mo
     7     6     7    13    19     6     6
Direct configuration=     8
   0.99932136  0.00219840  0.99874135
   0.25838674  0.00418640  0.24099667
   0.24773969  0.49373327  0.24997091
   0.50071114  0.49633649  0.00203495
   0.50307358  0.24794358  0.74949690
   0.99925035  0.50149369  0.50090847
   0.49367750  0.75574118  0.75455759
   0.99021558  0.23915914  0.25414438
   0.76305959  0.74329895  0.00633701
   0.00348153  0.25634028  0.74978037
   0.75159097  0.25308159  0.49274755
   0.00159971  0.74592932  0.75051030
   0.25212064  0.49702328  0.74612110
   0.26005947  0.26073868  0.98194689
   0.52560621  0.26102824  0.24392038
   0.74837915  0.98524124  0.27954120
   0.74019060  0.25802313  0.00073004
   0.22777928  0.73197198  0.00353647
   0.23898063  0.24889870  0.51056975
   0.24605641  0.74629627  0.49591300
   0.24689520  0.24734154  0.24869322
   0.26339212  0.99919270  0.98874588
   0.00016086  0.25386183  0.00222174
   0.74531769  0.23948907  0.24530332
   0.74832242  0.00233024  0.01870046
   0.51863365  0.99774170  0.24111622
   0.99552812  0.48702449  0.24179538
   0.50156730  0.76091804  0.01055216
   0.98804976  0.00328007  0.74255856
   0.75757033  0.24261469  0.75124574
   0.74085251  0.00739339  0.51031372
   0.50059349  0.23918630  0.48831088
   0.49489143  0.00219327  0.73740191
   0.99304260  0.00316034  0.25393387
   0.49988641  0.24698905  0.01139205
   0.25586478  0.74941451  0.24636312
   0.24411177  0.49855609  0.99455287
   0.00302086  0.74399470  0.00609044
   0.75229167  0.74850881  0.25018150
   0.75739267  0.49150922  0.00543908
   0.49773069  0.49436598  0.25535512
   0.24876497  0.25190975  0.74726435
   0.25390853  0.99869439  0.50294915
   0.00172482  0.24699930  0.50088844
   0.24187467  0.75470970  0.75178573
   0.25853157  0.49901392  0.50181256
   0.00427238  0.75859114  0.50183480
   0.00202754  0.50105253  0.74997337
   0.75020518  0.75271922  0.74979654
   0.74549716  0.49877194  0.50224087
   0.49216188  0.75299837  0.49880775
   0.49976102  0.50295092  0.74372605
   0.52010242  0.01417420  0.98619057
   0.99953678  0.50084890  0.98538937
   0.49643024  0.73910909  0.25970477
   0.23882900  0.00918285  0.75199334
   0.48897019  0.99027201  0.48006573
   0.73676587  0.98344190  0.77408386
   0.00524514  0.77445475  0.25881172
   0.73105838  0.50136325  0.25592567
   0.02391168  0.00304831  0.49312015
   0.50442461  0.52269615  0.49219137
   0.75043731  0.51784970  0.76183024
   0.74916261  0.73741762  0.48684120
HECN                                    
           1
     8.810899    0.011613    0.012221
     0.017572    8.843979    0.005617
     0.043898   -0.009673    8.834739
   Zr   Ta   V    N    C    W    Mo
     7     6     7    13    19     6     6
Direct configuration=     9
   0.99931313  0.00209656  0.99874627
   0.25837780  0.00414832  0.24102872
   0.24773623  0.49379805  0.24990418
   0.50072020  0.49618388  0.00201997
   0.50300231  0.24789932  0.74951434
   0.99938321  0.50148435  0.50088230
   0.49356627  0.75570969  0.75455767
   0.99031552  0.23916878  0.25418443
   0.76291710  0.74333010  0.00640151
   0.00353293  0.25628772  0.74976268
   0.75147559  0.25304287  0.49285427
   0.00168254  0.74590952  0.75052044
   0.25207601  0.49698238  0.74617711
   0.25990521  0.26059394  0.98217198
   0.52525513  0.26096975  0.24401269
   0.74837945  0.98528345  0.27938675
   0.74046775  0.25813409  0.00060602
   0.22799444  0.73223607  0.00345240
   0.23919073  0.24897294  0.51037064
   0.24597586  0.74630894  0.49601625
   0.24701288  0.24734644  0.24868480
   0.26337372  0.99918570  0.98874494
   0.00021748  0.25378915  0.00219496
   0.74534835  0.23956368  0.24548294
   0.74826505  0.00229353  0.01864893
   0.51855096  0.99779196  0.24126708
   0.99551764  0.48690954  0.24178793
   0.50156355  0.76092097  0.01053497
   0.98805637  0.00328152  0.74260181
   0.75758242  0.24265330  0.75125228
   0.74077747  0.00739699  0.51020414
   0.50062813  0.23906484  0.48835208
   0.49494574  0.00220726  0.73741411
   0.99296487  0.00300787  0.25392036
   0.50003208  0.24697138  0.01140486
   0.25583241  0.74943092  0.24641826
   0.24410589  0.49860145  0.99451928
   0.00310851  0.74399683  0.00602243
   0.75231249  0.74861467  0.25021479
   0.75741016  0.49150276  0.00534937
   0.49779606  0.49436165  0.25537000
   0.24877887  0.25191090  0.74730237
   0.25375770  0.99864359  0.50296741
   0.00176163  0.24698688  0.50089019
   0.24191046  0.75470220  0.75174239
   0.25850379  0.49905540  0.50179194
   0.00426278  0.75857746  0.50186131
   0.00197322  0.50101739  0.74999550
   0.75019894  0.75271137  0.74981354
   0.74554380  0.49870475  0.50222322
   0.49224018  0.75298141  0.49877461
   0.49965788  0.50290120  0.74378215
   0.52001078  0.01425403  0.98613238
   0.99961179  0.50091794  0.98544247
   0.49652413  0.73918625  0.25964815
   0.23888449  0.00924133  0.75198034
   0.48889292  0.99031742  0.48024760
   0.73689103  0.98347029  0.77394917
   0.00518226  0.77455016  0.25879672
   0.73108786  0.50139210  0.25587285
   0.02385298  0.00303101  0.49311998
   0.50428492  0.52269795  0.49223087
   0.75028342  0.51787678  0.76162023
   0.74923493  0.73743880  0.48685376
HECN                                    
           1
     8.843607    0.013495    0.011187
     0.019499    8.861520    0.007891
     0.042960   -0.007436    8.876940
   Zr   Ta   V    N    C    W    Mo
     7     6     7    13    19     6     6
Direct configuration=    10
   0.99972364  0.00386826  0.99882260
   0.25937293  0.00493812  0.24058455
   0.24770041  0.49213809  0.25146331
   0.50077705  0.49932135  0.00201237
   0.50489627  0.24831673  0.74776611
   0.99745206  0.50246365  0.50084336
   0.49470215  0.75703218  0.75427508
   0.98896989  0.23915633  0.25376561
   0.76354948  0.74367744  0.00682548
   0.00198000  0.25723200  0.74962928
   0.75227014  0.25407862  0.49203749
   0.00081121  0.74691534  0.74925771
   0.25394981  0.49853761  0.74471157
   0.26152069  0.26247183  0.97912212
   0.52945882  0.26146531  0.24364876
   0.74855457  0.98395916  0.28152286
   0.73595394  0.25458649  0.00294291
   0.22572195  0.72870071  0.00482631
   0.23650673  0.24695840  0.51413651
   0.24781669  0.74702656  0.49376726
   0.24377419  0.24762988  0.24874173
   0.26353238  0.99968294  0.98907121
   0.99892628  0.25475942  0.00247480
   0.74702748  0.23794837  0.24255771
   0.75009051  0.00263360  0.01934043
   0.51921270  0.99706048  0.23833406
   0.99478414  0.48912756  0.24210242
   0.50192518  0.76095994  0.01059548
   0.98771013  0.00296624  0.74122006
   0.75755337  0.24168880  0.75084945
   0.74183749  0.00692841  0.51327912
   0.50079913  0.24049808  0.48719441
   0.49415807  0.00208386  0.73650424
   0.99420045  0.00550759  0.25414740
   0.49679570  0.24741748  0.01027208
   0.25563525  0.74869469  0.24508930
   0.24390490  0.49743557  0.99480600
   0.00210921  0.74340673  0.00662839
   0.75269741  0.74646191  0.24903178
   0.75719476  0.49256726  0.00777350
   0.49599853  0.49441617  0.25450403
   0.24842038  0.25164621  0.74671255
   0.25866682  0.99938426  0.50294787
   0.00060560  0.24704176  0.50089295
   0.24113892  0.75492176  0.75288476
   0.25823067  0.49822448  0.50280204
   0.00309013  0.75944642  0.50149964
   0.00198162  0.50174138  0.74891285
   0.75061724  0.75401442  0.74937401
   0.74506873  0.49826758  0.50392158
   0.49200788  0.75539671  0.49945131
   0.50214627  0.50336543  0.74267575
   0.52064942  0.01265314  0.98748531
   0.99871582  0.50004545  0.98516422
   0.49514187  0.73925748  0.25991564
   0.23728112  0.00789709  0.75124019
   0.49065701  0.98903717  0.47842986
   0.73561870  0.98295132  0.77438685
   0.00568774  0.77239621  0.25951082
   0.73316516  0.50111009  0.25760676
   0.02320869  0.00257768  0.49434427
   0.50608707  0.52075949  0.49219454
   0.75289752  0.51645098  0.76322723
   0.74736031  0.73869405  0.48794024
HECN                                    
           1
     8.837226    0.013128    0.011389
     0.019123    8.858098    0.007448
     0.043143   -0.007873    8.868708
   Zr   Ta   V    N    C    W    Mo
     7     6     7    13    19     6     6
Direct configuration=    11
   0.99964392  0.00352334  0.99880786
   0.25917956  0.00478436  0.24067081
   0.24770726  0.49246135  0.25116052
   0.50076613  0.49871050  0.00201400
   0.50452822  0.24823545  0.74810551
   0.99782744  0.50227291  0.50085102
   0.49448144  0.75677473  0.75432998
   0.98923144  0.23915868  0.25384695
   0.76342657  0.74360986  0.00674317
   0.00228187  0.25704808  0.74965526
   0.75211578  0.25387695  0.49219610
   0.00098063  0.74671941  0.74950295
   0.25358572  0.49823482  0.74499615
   0.26120686  0.26210613  0.97971432
   0.52864182  0.26136898  0.24371935
   0.74852042  0.98421711  0.28110805
   0.73683104  0.25527712  0.00248912
   0.22616345  0.72938900  0.00455944
   0.23702822  0.24735070  0.51340532
   0.24745899  0.74688681  0.49420390
   0.24440367  0.24757457  0.24873077
   0.26350156  0.99958615  0.98900788
   0.99917727  0.25457048  0.00242055
   0.74670113  0.23826278  0.24312554
   0.74973571  0.00256749  0.01920615
   0.51908413  0.99720278  0.23890347
   0.99492678  0.48869571  0.24204149
   0.50185489  0.76095237  0.01058373
   0.98777745  0.00302754  0.74148833
   0.75755899  0.24187656  0.75092762
   0.74163136  0.00701984  0.51268205
   0.50076599  0.24021898  0.48741925
   0.49431118  0.00210781  0.73668091
   0.99396040  0.00502097  0.25410341
   0.49742477  0.24733044  0.01049211
   0.25567357  0.74883796  0.24534729
   0.24394391  0.49766257  0.99475028
   0.00230339  0.74352161  0.00651074
   0.75262254  0.74688100  0.24926135
   0.75723661  0.49236012  0.00730291
   0.49634792  0.49440544  0.25467221
   0.24849006  0.25169770  0.74682706
   0.25771272  0.99924025  0.50295159
   0.00083029  0.24703103  0.50089244
   0.24128886  0.75487904  0.75266299
   0.25828370  0.49838630  0.50260589
   0.00331809  0.75927717  0.50156993
   0.00198004  0.50160037  0.74912309
   0.75053600  0.75376072  0.74945940
   0.74516101  0.49835276  0.50359182
   0.49205311  0.75492649  0.49932005
   0.50166268  0.50327509  0.74289052
   0.52052519  0.01296492  0.98722254
   0.99888994  0.50021527  0.98521822
   0.49541052  0.73924357  0.25986375
   0.23759271  0.00815870  0.75138386
   0.49031413  0.98928641  0.47878268
   0.73586596  0.98305233  0.77430188
   0.00558939  0.77281563  0.25937206
   0.73276136  0.50116517  0.25727005
   0.02333386  0.00266597  0.49410657
   0.50573673  0.52113697  0.49220146
   0.75238934  0.51672877  0.76291509
   0.74772468  0.73844963  0.48772940
HECN                                    
           1
     8.846064    0.016075    0.008043
     0.022120    8.842520    0.004807
     0.039850   -0.010468    8.853206
   Zr   Ta   V    N    C    W    Mo