  64  64   0   0
  0.1129557E+02  0.8932500E-09  0.9055600E-09  0.8937200E-09  0.5000000E-15
  1.000000000000000E-004
  CAR 
 HECN                                    
     13.95844126    -60.77725046  301      7.63294574      1.00000000
    -60.777  0.0000E+00  0.0000E+00
    -60.528  0.0000E+00  0.0000E+00
    -60.279  0.0000E+00  0.0000E+00
    -60.030  0.0000E+00  0.0000E+00
    -59.781  0.0000E+00  0.0000E+00
    -59.532  0.0000E+00  0.0000E+00
    -59.283  0.0000E+00  0.0000E+00
    -59.033  0.0000E+00  0.0000E+00
    -58.784  0.0000E+00  0.0000E+00
    -58.535  0.0000E+00  0.0000E+00
    -58.286  0.0000E+00  0.0000E+00
    -58.037  0.0000E+00  0.0000E+00
    -57.788  0.3274E-09  0.8155E-10
    -57.539  0.1008E-02  0.2510E-03
    -57.290  0.1336E+00  0.3353E-01
    -57.040  0.4039E+00  0.1341E+00
    -56.791  0.2348E-01  0.1400E+00
    -56.542  0.3135E-06  0.1400E+00
    -56.293  0.0000E+00  0.1400E+00
    -56.044  0.0000E+00  0.1400E+00
    -55.795  0.0000E+00  0.1400E+00
    -55.546  0.0000E+00  0.1400E+00
    -55.297  0.0000E+00  0.1400E+00
    -55.048  0.0000E+00  0.1400E+00
    -54.798  0.0000E+00  0.1400E+00
    -54.549  0.0000E+00  0.1400E+00
    -54.300  0.0000E+00  0.1400E+00
    -54.051  0.0000E+00  0.1400E+00
    -53.802  0.0000E+00  0.1400E+00
    -53.553  0.0000E+00  0.1400E+00
    -53.304  0.0000E+00  0.1400E+00
    -53.055  0.0000E+00  0.1400E+00
    -52.805  0.0000E+00  0.1400E+00
    -52.556  0.0000E+00  0.1400E+00
    -52.307  0.0000E+00  0.1400E+00
    -52.058  0.0000E+00  0.1400E+00
    -51.809  0.0000E+00  0.1400E+00
    -51.560  0.0000E+00  0.1400E+00
    -51.311  0.0000E+00  0.1400E+00
    -51.062  0.0000E+00  0.1400E+00
    -50.812  0.0000E+00  0.1400E+00
    -50.563  0.0000E+00  0.1400E+00
    -50.314  0.0000E+00  0.1400E+00
    -50.065  0.0000E+00  0.1400E+00
    -49.816  0.0000E+00  0.1400E+00
    -49.567  0.0000E+00  0.1400E+00
    -49.318  0.0000E+00  0.1400E+00
    -49.069  0.0000E+00  0.1400E+00
    -48.820  0.0000E+00  0.1400E+00
    -48.570  0.0000E+00  0.1400E+00
    -48.321  0.0000E+00  0.1400E+00
    -48.072  0.0000E+00  0.1400E+00
    -47.823  0.0000E+00  0.1400E+00
    -47.574  0.0000E+00  0.1400E+00
    -47.325  0.0000E+00  0.1400E+00
    -47.076  0.0000E+00  0.1400E+00
    -46.827  0.0000E+00  0.1400E+00
    -46.577  0.0000E+00  0.1400E+00
    -46.328  0.0000E+00  0.1400E+00
    -46.079  0.0000E+00  0.1400E+00
    -45.830  0.0000E+00  0.1400E+00
    -45.581  0.0000E+00  0.1400E+00
    -45.332  0.0000E+00  0.1400E+00
    -45.083  0.0000E+00  0.1400E+00
    -44.834  0.0000E+00  0.1400E+00
    -44.585  0.0000E+00  0.1400E+00
    -44.335  0.0000E+00  0.1400E+00
    -44.086  0.0000E+00  0.1400E+00
    -43.837  0.0000E+00  0.1400E+00
    -43.588  0.0000E+00  0.1400E+00
    -43.339  0.0000E+00  0.1400E+00
    -43.090  0.0000E+00  0.1400E+00
    -42.841  0.0000E+00  0.1400E+00
    -42.592  0.0000E+00  0.1400E+00
    -42.342  0.0000E+00  0.1400E+00
    -42.093  0.3507E-14  0.1400E+00
    -41.844  0.3374E-05  0.1400E+00
    -41.595  0.3435E-01  0.1486E+00
    -41.346  0.1487E+00  0.1856E+00
    -41.097  0.5883E-01  0.2003E+00
    -40.848  0.1344E+00  0.2337E+00
    -40.599  0.1065E+00  0.2603E+00
    -40.349  0.7283E-01  0.2784E+00
    -40.100  0.6413E-02  0.2800E+00
    -39.851  0.3319E-07  0.2800E+00
    -39.602  0.0000E+00  0.2800E+00
    -39.353  0.0000E+00  0.2800E+00
    -39.104  0.0000E+00  0.2800E+00
    -38.855  0.0000E+00  0.2800E+00
    -38.606  0.0000E+00  0.2800E+00
    -38.357  0.0000E+00  0.2800E+00
    -38.107  0.0000E+00  0.2800E+00
    -37.858  0.0000E+00  0.2800E+00
    -37.609  0.0000E+00  0.2800E+00
    -37.360  0.0000E+00  0.2800E+00
    -37.111  0.0000E+00  0.2800E+00
    -36.862  0.0000E+00  0.2800E+00
    -36.613  0.2522E-11  0.2800E+00
    -36.364  0.1165E-03  0.2800E+00
    -36.114  0.1256E+00  0.3113E+00
    -35.865  0.9553E+00  0.5493E+00
    -35.616  0.3609E+00  0.6392E+00
    -35.367  0.3123E-02  0.6400E+00
    -35.118  0.3717E-08  0.6400E+00
    -34.869  0.0000E+00  0.6400E+00
    -34.620  0.0000E+00  0.6400E+00
    -34.371  0.0000E+00  0.6400E+00
    -34.122  0.0000E+00  0.6400E+00
    -33.872  0.0000E+00  0.6400E+00
    -33.623  0.0000E+00  0.6400E+00
    -33.374  0.0000E+00  0.6400E+00
    -33.125  0.0000E+00  0.6400E+00
    -32.876  0.0000E+00  0.6400E+00
    -32.627  0.0000E+00  0.6400E+00
    -32.378  0.0000E+00  0.6400E+00
    -32.129  0.0000E+00  0.6400E+00
    -31.879  0.2793E-12  0.6400E+00
    -31.630  0.3947E-04  0.6400E+00
    -31.381  0.9651E-01  0.6641E+00
    -31.132  0.9641E+00  0.9042E+00
    -30.883  0.6120E+00  0.1057E+01
    -30.634  0.1333E-01  0.1060E+01
    -30.385  0.6930E-07  0.1060E+01
    -30.136  0.0000E+00  0.1060E+01
    -29.886  0.0000E+00  0.1060E+01
    -29.637  0.0000E+00  0.1060E+01
    -29.388  0.0000E+00  0.1060E+01
    -29.139  0.0000E+00  0.1060E+01
    -28.890  0.0000E+00  0.1060E+01
    -28.641  0.4105E-15  0.1060E+01
    -28.392  0.1129E-05  0.1060E+01
    -28.143  0.3535E-01  0.1069E+01
    -27.894  0.3815E+00  0.1164E+01
    -27.644  0.4517E+00  0.1276E+01
    -27.395  0.3841E+00  0.1372E+01
    -27.146  0.1897E+00  0.1419E+01
    -26.897  0.2826E-02  0.1420E+01
    -26.648  0.3163E-08  0.1420E+01
    -26.399  0.0000E+00  0.1420E+01
    -26.150  0.0000E+00  0.1420E+01
    -25.901  0.0000E+00  0.1420E+01
    -25.651  0.0000E+00  0.1420E+01
    -25.402  0.0000E+00  0.1420E+01
    -25.153  0.0000E+00  0.1420E+01
    -24.904  0.0000E+00  0.1420E+01
    -24.655  0.0000E+00  0.1420E+01
    -24.406  0.0000E+00  0.1420E+01
    -24.157  0.0000E+00  0.1420E+01
    -23.908  0.0000E+00  0.1420E+01
    -23.659  0.0000E+00  0.1420E+01
    -23.409  0.0000E+00  0.1420E+01
    -23.160  0.0000E+00  0.1420E+01
    -22.911  0.0000E+00  0.1420E+01
    -22.662  0.0000E+00  0.1420E+01
    -22.413  0.0000E+00  0.1420E+01
    -22.164  0.0000E+00  0.1420E+01
    -21.915  0.0000E+00  0.1420E+01
    -21.666  0.0000E+00  0.1420E+01
    -21.416  0.0000E+00  0.1420E+01
    -21.167  0.0000E+00  0.1420E+01
    -20.918  0.0000E+00  0.1420E+01
    -20.669  0.1048E-12  0.1420E+01
    -20.420  0.2055E-04  0.1420E+01
    -20.171  0.4198E-01  0.1430E+01
    -19.922  0.1753E+00  0.1474E+01
    -19.673  0.2967E+00  0.1548E+01
    -19.424  0.2408E+00  0.1608E+01
    -19.174  0.5214E+00  0.1738E+01
    -18.925  0.2557E+00  0.1802E+01
    -18.676  0.1537E+00  0.1840E+01
    -18.427  0.2111E-03  0.1840E+01
    -18.178  0.4231E-11  0.1840E+01
    -17.929  0.0000E+00  0.1840E+01
    -17.680  0.0000E+00  0.1840E+01
    -17.431  0.0000E+00  0.1840E+01
    -17.181  0.0000E+00  0.1840E+01
    -16.932  0.0000E+00  0.1840E+01
    -16.683  0.0000E+00  0.1840E+01
    -16.434  0.0000E+00  0.1840E+01
    -16.185  0.0000E+00  0.1840E+01
    -15.936  0.0000E+00  0.1840E+01
    -15.687  0.0000E+00  0.1840E+01
    -15.438  0.0000E+00  0.1840E+01
    -15.188  0.0000E+00  0.1840E+01
    -14.939  0.0000E+00  0.1840E+01
    -14.690  0.0000E+00  0.1840E+01
    -14.441  0.0000E+00  0.1840E+01
    -14.192  0.0000E+00  0.1840E+01
    -13.943  0.0000E+00  0.1840E+01
    -13.694  0.0000E+00  0.1840E+01
    -13.445  0.0000E+00  0.1840E+01
    -13.196  0.0000E+00  0.1840E+01
    -12.946  0.0000E+00  0.1840E+01
    -12.697  0.0000E+00  0.1840E+01
    -12.448  0.0000E+00  0.1840E+01
    -12.199  0.0000E+00  0.1840E+01
    -11.950  0.0000E+00  0.1840E+01
    -11.701  0.0000E+00  0.1840E+01
    -11.452  0.0000E+00  0.1840E+01
    -11.203  0.0000E+00  0.1840E+01
    -10.953  0.0000E+00  0.1840E+01
    -10.704  0.0000E+00  0.1840E+01
    -10.455  0.0000E+00  0.1840E+01
    -10.206  0.0000E+00  0.1840E+01
     -9.957  0.0000E+00  0.1840E+01
     -9.708  0.0000E+00  0.1840E+01
     -9.459  0.0000E+00  0.1840E+01
     -9.210  0.4292E-17  0.1840E+01
     -8.961  0.2152E-07  0.1840E+01
     -8.711  0.1684E-02  0.1840E+01
     -8.462  0.6381E-01  0.1856E+01
     -8.213  0.4170E-01  0.1867E+01
     -7.964  0.1093E+00  0.1894E+01
     -7.715  0.8703E-01  0.1916E+01
     -7.466  0.1606E+00  0.1956E+01
     -7.217  0.1507E+00  0.1993E+01
     -6.968  0.1881E+00  0.2040E+01
     -6.718  0.1625E+00  0.2080E+01
     -6.469  0.7735E-01  0.2100E+01
     -6.220  0.9845E-03  0.2100E+01
     -5.971  0.3275E-09  0.2100E+01
     -5.722  0.2038E-14  0.2100E+01
     -5.473  0.7687E-06  0.2100E+01
     -5.224  0.5146E-02  0.2101E+01
     -4.975  0.5911E-01  0.2116E+01
     -4.725  0.2968E-01  0.2123E+01
     -4.476  0.9241E-01  0.2146E+01
     -4.227  0.1521E+00  0.2184E+01
     -3.978  0.1996E+00  0.2234E+01
     -3.729  0.2743E+00  0.2302E+01
     -3.480  0.2354E+00  0.2361E+01
     -3.231  0.2108E+00  0.2414E+01
     -2.982  0.1308E+00  0.2446E+01
     -2.733  0.8154E-01  0.2466E+01
     -2.483  0.5217E-01  0.2479E+01
     -2.234  0.2313E-02  0.2480E+01
     -1.985  0.4356E-06  0.2480E+01
     -1.736  0.1318E-14  0.2480E+01
     -1.487  0.0000E+00  0.2480E+01
     -1.238  0.0000E+00  0.2480E+01
     -0.989  0.0000E+00  0.2480E+01
     -0.740  0.2052E-09  0.2480E+01
     -0.490  0.1216E-03  0.2480E+01
     -0.241  0.5450E-02  0.2481E+01
      0.008  0.2692E-01  0.2488E+01
      0.257  0.8593E-01  0.2510E+01
      0.506  0.1218E+00  0.2540E+01
      0.755  0.1740E+00  0.2583E+01
      1.004  0.2670E+00  0.2650E+01
      1.253  0.2706E+00  0.2717E+01
      1.502  0.2609E+00  0.2782E+01
      1.752  0.3401E+00  0.2867E+01
      2.001  0.3318E+00  0.2950E+01
      2.250  0.4026E+00  0.3050E+01
      2.499  0.4911E+00  0.3172E+01
      2.748  0.5784E+00  0.3316E+01
      2.997  0.6276E+00  0.3473E+01
      3.246  0.6327E+00  0.3630E+01
      3.495  0.6082E+00  0.3782E+01
      3.745  0.5558E+00  0.3920E+01
      3.994  0.4647E+00  0.4036E+01
      4.243  0.3662E+00  0.4127E+01
      4.492  0.3440E+00  0.4213E+01
      4.741  0.2968E+00  0.4287E+01
      4.990  0.2206E+00  0.4342E+01
      5.239  0.1515E+00  0.4379E+01
      5.488  0.9600E-01  0.4403E+01
      5.738  0.1294E+00  0.4436E+01
      5.987  0.2164E+00  0.4489E+01
      6.236  0.2033E+00  0.4540E+01
      6.485  0.1937E+00  0.4588E+01
      6.734  0.2197E+00  0.4643E+01
      6.983  0.2616E+00  0.4708E+01
      7.232  0.3077E+00  0.4785E+01
      7.481  0.2818E+00  0.4855E+01
      7.730  0.2991E+00  0.4930E+01
      7.980  0.3572E+00  0.5019E+01
      8.229  0.4906E+00  0.5141E+01
      8.478  0.5832E+00  0.5286E+01
      8.727  0.5300E+00  0.5418E+01
      8.976  0.5206E+00  0.5548E+01
      9.225  0.4832E+00  0.5668E+01
      9.474  0.4709E+00  0.5786E+01
      9.723  0.4272E+00  0.5892E+01
      9.973  0.4406E+00  0.6002E+01
     10.222  0.4356E+00  0.6110E+01
     10.471  0.4278E+00  0.6217E+01
     10.720  0.9287E-01  0.6240E+01
     10.969  0.2035E-03  0.6240E+01
     11.218  0.3438E-10  0.6240E+01
     11.467  0.0000E+00  0.6240E+01
     11.716  0.0000E+00  0.6240E+01
     11.965  0.0000E+00  0.6240E+01
     12.215  0.0000E+00  0.6240E+01
     12.464  0.0000E+00  0.6240E+01
     12.713  0.0000E+00  0.6240E+01
     12.962  0.0000E+00  0.6240E+01
     13.211  0.0000E+00  0.6240E+01
     13.460  0.0000E+00  0.6240E+01
     13.709  0.0000E+00  0.6240E+01
     13.958  0.0000E+00  0.6240E+01
