HECN                                    
           1
     8.932500    0.000000    0.000000
     0.005753    9.055598    0.000000
     0.032102   -0.015743    8.937128
   V    Ta   Zr   N    C    Cr   Mo
   7   6   7  13  19   6   6
Direct configuration=     1
   0.99688001  0.99204997  0.99924002
   0.25398003  0.99714995  0.24912000
   0.24803003  0.50165000  0.24955001
   0.50501006  0.49745998  0.99834003
   0.50479003  0.24631001  0.74710002
   0.99427992  0.50449999  0.49779000
   0.49950005  0.75481999  0.74817004
   0.99437004  0.23617001  0.26379999
   0.75718000  0.74102998  0.01100000
   0.00201000  0.25541000  0.73894001
   0.75307001  0.26163001  0.50533002
   0.99514004  0.74492004  0.74511997
   0.25679999  0.49462002  0.74545002
   0.24788999  0.24839000  0.99657997
   0.50833000  0.25676999  0.25376001
   0.74879004  0.98787999  0.26967001
   0.75719000  0.25603001  0.99591997
   0.24762001  0.74973999  0.99974006
   0.25272001  0.24823001  0.50015003
   0.24457999  0.75048999  0.49983999
   0.24982001  0.24942998  0.24825000
   0.26146999  0.99984002  0.99295996
   0.00281000  0.25024000  0.00130000
   0.75313998  0.24617000  0.25492002
   0.74767001  0.99748000  0.01202000
   0.50714994  0.99977000  0.24673000
   0.99051999  0.48088002  0.24100998
   0.50519005  0.76130999  0.00855000
   0.98896989  0.00202000  0.73708999
   0.75744996  0.24437997  0.74896999
   0.73632001  0.00417000  0.51063000
   0.50563996  0.23264999  0.49544997
   0.50008998  0.00061000  0.73471998
   0.99720000  0.99771992  0.25899999
   0.50427997  0.24673000  0.00262000
   0.25133999  0.74958002  0.24910999
   0.24328000  0.50072997  0.99510994
   0.99837005  0.74313996  0.00460000
   0.75633000  0.73891003  0.25767000
   0.75839004  0.50315998  0.00288000
   0.50700002  0.50333002  0.25878999
   0.24900999  0.25315000  0.74854000
   0.24446000  0.99823996  0.50287998
   0.99804009  0.24229999  0.50128003
   0.24177002  0.75340997  0.75018002
   0.25841001  0.50062002  0.50129001
   0.99000004  0.76215003  0.49746000
   0.99203996  0.50055999  0.75138002
   0.75036005  0.74888000  0.74756004
   0.74036002  0.50197000  0.50067003
   0.50575006  0.74958002  0.49720000
   0.50501003  0.50217998  0.73912003
   0.51588997  0.01358000  0.98075008
   0.99841994  0.50976998  0.98613004
   0.50379003  0.73926997  0.25905001
   0.23780002  0.01082000  0.74607998
   0.47957999  0.98308000  0.49717999
   0.74279003  0.97869994  0.76450995
   0.99864998  0.77573999  0.26102000
   0.73551001  0.51468004  0.26666001
   0.02362000  0.99783001  0.49557002
   0.50539000  0.52833005  0.49917999
   0.73876003  0.52828003  0.73814999
   0.75400003  0.72937999  0.49116997
HECN                                    
           1
     8.459898    0.003945   -0.006959
     0.009448    8.532184    0.003555
     0.023434   -0.011306    8.485841
   V    Ta   Zr   N    C    Cr   Mo
   7   6   7  13  19   6   6
Direct configuration=     2
   0.99705022  0.98852416  0.99907608
   0.25210792  0.99223984  0.24932069
   0.25140568  0.50610585  0.24877804
   0.50432291  0.49380673  0.99749887
   0.50131744  0.24354972  0.75120770
   0.99448056  0.50260693  0.50119886
   0.50023002  0.75753023  0.74710377
   0.99990632  0.23946795  0.26022696
   0.75181997  0.74497514  0.00939882
   0.00231297  0.25300405  0.74078687
   0.74957842  0.25760571  0.51019836
   0.99859291  0.74806752  0.74720632
   0.25792648  0.49716239  0.74909584
   0.25008042  0.24529489  0.99957795
   0.50210687  0.25203829  0.25141429
   0.74103243  0.98989385  0.26666681
   0.75508703  0.25341011  0.99230610
   0.25478709  0.75389639  0.00127393
   0.25724166  0.24881589  0.49748866
   0.24897852  0.74925264  0.49798497
   0.24711161  0.25010385  0.24900306
   0.25919390  0.00043512  0.99445768
   0.00211796  0.24769017  0.00169781
   0.75640000  0.24697629  0.25721048
   0.74894233  0.99408641  0.00476219
   0.49825967  0.99768558  0.24867673
   0.99504742  0.47960463  0.24484994
   0.50846565  0.75854074  0.00545981
   0.98839114  0.00255927  0.74351924
   0.75362451  0.24401343  0.74558765
   0.73657027  0.00541352  0.51263143
   0.50814954  0.23247890  0.50276611
   0.50354494  0.00000236  0.73792212
   0.00492555  0.00137765  0.25015150
   0.50429581  0.24832971 -0.00581736
   0.25263499  0.74865553  0.24995434
   0.24611985  0.50008215  0.99914605
   0.99549202  0.74521122  0.00333386
   0.75215406  0.74072989  0.25209006
   0.75515545  0.50613607  0.00283707
   0.49767980  0.50964547  0.25074477
   0.25224821  0.25051396  0.74831516
   0.25380786  0.99778909  0.50239956
   0.99563676  0.24867681  0.50058787
   0.24549870  0.75301329  0.75002355
   0.25322005  0.50044754  0.49623061
   0.99191372  0.75501742  0.50101828
   0.99442126  0.50081715  0.74949736
   0.74395510  0.75788360  0.75040305
   0.75068328  0.49722706  0.50248474
   0.50415142  0.75698466  0.49848502
   0.50176290  0.50116161  0.74702266
   0.51648572  0.01685311  0.97574250
   0.99991201  0.51396787  0.98267283
   0.50368930  0.73603782  0.25823992
   0.23736472  0.01087737  0.74814117
   0.47654733  0.98190568  0.49983618
   0.73799667  0.97416426  0.76694182
   0.00357738  0.77490327  0.25664969
   0.73702256  0.51232949  0.26067593
   0.02294012  0.99954405  0.49886849
   0.50000940  0.52691812  0.49919776
   0.73762058  0.52234730  0.74412048
   0.75489303  0.73361300  0.49365108
HECN                                    
           1
     8.695904    0.001975   -0.003484
     0.007603    8.793564    0.001780
     0.027763   -0.013522    8.711203
   V    Ta   Zr   N    C    Cr   Mo
   7   6   7  13  19   6   6
Direct configuration=     3
   0.99695966  0.99039288  0.99916144
   0.25309371  0.99484184  0.24921486
   0.24962725  0.50374485  0.24918357
   0.50468467  0.49574263  0.99794075
   0.50314595  0.24501278  0.74904822
   0.99437280  0.50361109  0.49940552
   0.49984628  0.75609371  0.74766485
   0.99698959  0.23772055  0.26210447
   0.75464785  0.74288250  0.01024413
   0.00215181  0.25427972  0.73981488
   0.75141629  0.25973888  0.50763855
   0.99677219  0.74640063  0.74610824
   0.25733156  0.49581600  0.74717846
   0.24892337  0.24693654  0.99799958
   0.50538799  0.25454410  0.25264962
   0.74512462  0.98882392  0.26825010
   0.75619679  0.25479736  0.99420708
   0.25100846  0.75169554  0.00046504
   0.25485883  0.24850587  0.49888654
   0.24665980  0.74990910  0.49895841
   0.24853952  0.24974620  0.24860832
   0.26039351  0.00011949  0.99367110
   0.00248204  0.24904153  0.00148832
   0.75468028  0.24655025  0.25600462
   0.74827380  0.99588372  0.00857801
   0.50294588  0.99878862  0.24765626
   0.99265823  0.48028256  0.24282814
   0.50673918  0.76000857  0.00708301
   0.98869361  0.00227475  0.74013825
   0.75564295  0.24420601  0.74736811
   0.73643775  0.00475495  0.51157898
   0.50682306  0.23257183  0.49891718
   0.50172168  0.00032598  0.73623638
   0.00085689 -0.00056109  0.25480269
   0.50429156  0.24747996 -0.00137952
   0.25195157  0.74914602  0.24950950
   0.24462055  0.50042710  0.99702195
   0.99701060  0.74411245  0.00400147
   0.75435882  0.73976308  0.25502694
   0.75686173  0.50455791  0.00286171
   0.50259920  0.50629414  0.25498145
   0.25054022  0.25191183  0.74843143
   0.24887910  0.99803022  0.50264808
   0.99690588  0.24529629  0.50095436
   0.24353264  0.75322440  0.75010414
   0.25595874  0.50053656  0.49889372
   0.99090133  0.75879904  0.49914445
   0.99316656  0.50068101  0.75048654
   0.74733327  0.75311068  0.74891258
   0.74523813  0.49974379  0.50152480
   0.50499563  0.75306003  0.49781152
   0.50347130  0.50170235  0.74286758
   0.51617461  0.01511735  0.97837662
   0.99912786  0.51174253  0.98449138
   0.50374195  0.73775068  0.25866530
   0.23759335  0.01084732  0.74705732
   0.47814491  0.98252794  0.49844026
   0.74052186  0.97656760  0.76566388
   0.00098101  0.77534696  0.25894586
   0.73622706  0.51357433  0.26382198
   0.02329758  0.99863617  0.49713439
   0.50284607  0.52766515  0.49919043
   0.73821727  0.52549277  0.74097957
   0.75442216  0.73137024  0.49234674
HECN                                    
           1
     8.713044    0.002080   -0.007219
     0.007731    8.763676    0.003962
     0.024085   -0.011316    8.736894
   V    Ta   Zr   N    C    Cr   Mo
   7   6   7  13  19   6   6
Direct configuration=     4
   0.99820070  0.98671334  0.99830689
   0.25102123  0.98934156  0.24925576
   0.25402380  0.50903767  0.24765534
   0.50321892  0.49164772  0.99699013
   0.49839653  0.24174685  0.75399652
   0.99610327  0.50099332  0.50356892
   0.50033179  0.75971243  0.74656514
   0.00355187  0.24221841  0.25622315
   0.74714115  0.74908400  0.00707868
   0.00411415  0.25051259  0.74413101
   0.74708992  0.25431630  0.51170638
   0.99959855  0.75117340  0.74970291
   0.25700622  0.49879044  0.75147839
   0.25086879  0.24394267  0.00047543
   0.49896014  0.25062791  0.24953720
   0.73972652  0.99174529  0.26363634
   0.75410446  0.25162398  0.99151365
   0.25915673  0.75597036  0.00176992
   0.25896828  0.24951697  0.49711840
   0.25025107  0.74891054  0.49765778
   0.24604363  0.25066072  0.24900654
   0.25831730  0.00038756  0.99536673
   0.00185767  0.24656669  0.00209564
   0.75638816  0.24790051  0.25731703
   0.74981627  0.99280473  0.00029287
   0.49152252  0.99548448  0.24887542
   0.99807737  0.48211700  0.24661398
   0.50934218  0.75732662  0.00336314
   0.98787308  0.00273325  0.74842599
   0.75005340  0.24402213  0.74481246
   0.73750378  0.00482667  0.51556140
   0.50899980  0.23310678  0.50716679
   0.50518788 -0.00028065  0.74044927
   0.00816758  0.00299049  0.24472152
   0.50371826  0.24987584 -0.01042235
   0.25468367  0.74801447  0.24980118
   0.24765541  0.49996597  0.00273552
   0.99679445  0.74669040  0.00321588
   0.74938348  0.74306220  0.25024058
   0.75344244  0.50544043  0.00298997
   0.49091451  0.51249844  0.24540566
   0.25545980  0.24780389  0.74863941
   0.25957769  0.99769610  0.50260124
   0.99597437  0.25298556  0.50018605
   0.24936608  0.75428077  0.75030833
   0.24954688  0.50011331  0.49285010
   0.99398446  0.75036557  0.50206302
   0.99603854  0.50095779  0.74848080
   0.74035892  0.76225282  0.75104737
   0.75543938  0.49572080  0.50285065
   0.50373008  0.76273677  0.49928507
   0.50011164  0.50030647  0.75190295
   0.51579192  0.01792989  0.97222131
   0.00099293  0.51599784  0.98078498
   0.50288885  0.73492387  0.25722756
   0.23718557  0.00987878  0.74980879
   0.47638881  0.98222849  0.50140040
   0.73431306  0.97382270  0.76888307
   0.00609274  0.77029806  0.25262126
   0.73825188  0.50758364  0.25530273
   0.01990194  0.00159045  0.50020037
   0.49832318  0.52163512  0.49847558
   0.73854096  0.51744906  0.75020186
   0.75416378  0.73762152  0.49625408
HECN                                    
           1
     8.714603    0.002090   -0.007558
     0.007743    8.760958    0.004160
     0.023751   -0.011115    8.739230
   V    Ta   Zr   N    C    Cr   Mo
   7   6   7  13  19   6   6
Direct configuration=     5
   0.99831330  0.98637761  0.99822954
   0.25083315  0.98883969  0.24925951
   0.25442275  0.50952065  0.24751682
   0.50308587  0.49127410  0.99690398
   0.49796569  0.24144874  0.75444506
   0.99626049  0.50075437  0.50394653
   0.50037581  0.76004265  0.74646537
   0.00414720  0.24262895  0.25569005
   0.74645973  0.74964994  0.00679124
   0.00429242  0.25016876  0.74452251
   0.74669744  0.25382142  0.51207515
   0.99985519  0.75160880  0.75002883
   0.25697686  0.49906174  0.75186818
   0.25104545  0.24366943  0.00070005
   0.49837665  0.25027065  0.24925484
   0.73923642  0.99201196  0.26321774
   0.75391447  0.25133449  0.99126943
   0.25989628  0.75636038  0.00188845
   0.25934117  0.24960927  0.49695822
   0.25057695  0.74881945  0.49754001
   0.24581713  0.25074416  0.24904252
   0.25812893  0.00041198  0.99552038
   0.00180103  0.24634086  0.00215074
   0.75654321  0.24802368  0.25743605
   0.74995594  0.99252398 -0.00045820
   0.49048583  0.99518297  0.24898559
   0.99856933  0.48228429  0.24695740
   0.50957828  0.75708199  0.00302603
   0.98779893  0.00277489  0.74917737
   0.74954601  0.24400542  0.74458054
   0.73760069  0.00483312  0.51592251
   0.50919767  0.23315540  0.50791484
   0.50550262 -0.00033611  0.74083140
   0.00883067  0.00331479  0.24380768
   0.50366588  0.25009467 -0.01124232
   0.25493164  0.74791122  0.24982776
   0.24793107  0.49992376  0.00325369
   0.99677480  0.74692564  0.00314459
   0.74893175  0.74336335  0.24980635
   0.75313212  0.50552096  0.00300145
   0.48985367  0.51306479  0.24453685
   0.25590630  0.24742905  0.74865855
   0.26054865  0.99766560  0.50259742
   0.99588978  0.25368719  0.50011617
   0.24989551  0.75437715  0.75032705
   0.24896473  0.50007484  0.49230190
   0.99426440  0.74959599  0.50232795
   0.99629911  0.50098309  0.74829905
   0.73972602  0.76308695  0.75124044
   0.75636527  0.49535368  0.50297135
   0.50361527  0.76361969  0.49941841
   0.49980708  0.50017890  0.75272207
   0.51575694  0.01818666  0.97166314
   0.00116205  0.51638620  0.98044891
   0.50281137  0.73466597  0.25709724
   0.23714867  0.00979034  0.75005827
   0.47622955  0.98220110  0.50166873
   0.73374970  0.97357217  0.76917476
   0.00655642  0.76983751  0.25204814
   0.73843532  0.50703722  0.25453052
   0.01959388  0.00185994  0.50047815
   0.49791268  0.52108493  0.49841073
   0.73857072  0.51671489  0.75103823
   0.75414048  0.73819183  0.49660820
HECN                                    
           1
     8.768102   -0.004379   -0.009545
     0.001274    8.824830    0.007321
     0.021943   -0.008076    8.774771
   V    Ta   Zr   N    C    Cr   Mo
   7   6   7  13  19   6   6
Direct configuration=     6
   0.00075763  0.98367200  0.99771286
   0.24925466  0.98502293  0.25099319
   0.25799114  0.51401654  0.24575078
   0.50226343  0.48787003  0.99588302
   0.49329726  0.23957668  0.75660440
   0.99934713  0.49908190  0.50828722
   0.50089726  0.76190205  0.74335057
   0.00409088  0.24547644  0.25497006
   0.74427182  0.74896674  0.00540324
   0.00849113  0.24772127  0.74530791
   0.74658156  0.25196714  0.51162444
   0.99926339  0.75313533  0.75149863
   0.25547635  0.49901168  0.75300264
   0.24961616  0.24366229 -0.00098441
   0.49864977  0.25138829  0.24768153
   0.74016909  0.99289756  0.26135535
   0.75403375  0.25039692  0.99217087
   0.26231748  0.75623551  0.00126781
   0.25738628  0.25002621  0.49947467
   0.24827923  0.74919558  0.49871523
   0.24569723  0.25093714  0.24912287
   0.25737409  0.00037519  0.99631796
   0.00142713  0.24556185  0.00196108
   0.75504592  0.24810887  0.25695359
   0.74997972  0.99372056 -0.00381208
   0.48797690  0.99402439  0.24944885
   0.00019673  0.48630271  0.24877401
   0.50925659  0.75624050  0.00052173
   0.98838071  0.00302610  0.75261374
   0.74856942  0.24546730  0.74559584
   0.74098595  0.00394457  0.51562241
   0.50909711  0.23636014  0.50861745
   0.50703830 -0.00047140  0.74427565
   0.00868785  0.00029569  0.24251246
   0.50285441  0.25121993 -0.01186821
   0.25705798  0.74779947  0.24930148
   0.24802777  0.50090561  0.00496691
   0.99873038  0.74759939  0.00308399
   0.74739337  0.74242219  0.25197439
   0.75274300  0.50471671  0.00346822
   0.48953608  0.51283479  0.24249382
   0.25690352  0.24626098  0.74939853
   0.25883398  0.99843833  0.50386187
   0.99717094  0.25554879  0.50018134
   0.25250146  0.75601302  0.75076233
   0.24682859  0.49984716  0.49224162
   0.99530604  0.74745388  0.50093808
   0.99772882  0.50133469  0.74896670
   0.74040815  0.75866780  0.74962484
   0.75623508  0.49845708  0.50208879
   0.50585665  0.76243898  0.49830615
   0.50065997  0.50010692  0.75386158
   0.51560257  0.01939592  0.96724583
   0.00187785  0.52072187  0.97674068
   0.50162294  0.73194937  0.25893130
   0.23534237  0.00762830  0.75053192
   0.47787501  0.98380110  0.50440394
   0.72791978  0.97639038  0.77136998
   0.00572660  0.76918014  0.25034836
   0.73362854  0.50741501  0.25075508
   0.02037831  0.00298968  0.49831767
   0.50114757  0.51974865  0.49679110
   0.73882927  0.51778200  0.75517292
   0.75312435  0.73581489  0.49714341
HECN                                    
           1
     8.776676   -0.005416   -0.009863
     0.000237    8.835067    0.007828
     0.021653   -0.007589    8.780467
   V    Ta   Zr   N    C    Cr   Mo
   7   6   7  13  19   6   6
Direct configuration=     7
   0.00114664  0.98324184  0.99763062
   0.24900283  0.98441538  0.25127008
   0.25856001  0.51473239  0.24546876
   0.50213199  0.48732838  0.99572022
   0.49255348  0.23927816  0.75694901
   0.99983876  0.49881592  0.50898027
   0.50098043  0.76219813  0.74285331
   0.00408222  0.24592953  0.25485497
   0.74392318  0.74885786  0.00518165
   0.00915967  0.24733231  0.74543356
   0.74656287  0.25167212  0.51155260
   0.99916935  0.75337806  0.75173312
   0.25523737  0.49900347  0.75318367
   0.24938843  0.24366108 -0.00125333
   0.49869336  0.25156624  0.24743034
   0.74031769  0.99303868  0.26105806
   0.75405268  0.25024772  0.99231481
   0.26270311  0.75621596  0.00116884
   0.25707502  0.25009218  0.49987624
   0.24791331  0.74925509  0.49890271
   0.24567816  0.25096782  0.24913568
   0.25725388  0.00036921  0.99644524
   0.00136748  0.24543788  0.00193084
   0.75480741  0.24812227  0.25687652
   0.74998354  0.99391113 -0.00434748
   0.48757713  0.99383973  0.24952277
   0.00045649  0.48694216  0.24906380
   0.50920516  0.75610671  0.00012203
   0.98847352  0.00306595  0.75316225
   0.74841407  0.24569972  0.74575779
   0.74152506  0.00380361  0.51557467
   0.50908149  0.23686998  0.50872942
   0.50728302 -0.00049294  0.74482547
   0.00866469 -0.00018461  0.24230588
   0.50272526  0.25139891 -0.01196820
   0.25739665  0.74778196  0.24921755
   0.24804334  0.50106174  0.00524032
   0.99904196  0.74770682  0.00307435
   0.74714829  0.74227214  0.25232044
   0.75268094  0.50458867  0.00354275
   0.48948539  0.51279827  0.24216772
   0.25706225  0.24607521  0.74951675
   0.25856098  0.99856100  0.50406360
   0.99737523  0.25584513  0.50019168
   0.25291677  0.75627358  0.75083181
   0.24648830  0.49981069  0.49223193
   0.99547166  0.74711325  0.50071639
   0.99795662  0.50139077  0.74907330
   0.74051623  0.75796485  0.74936723
   0.75621468  0.49895089  0.50194774
   0.50621349  0.76225144  0.49812876
   0.50079586  0.50009551  0.75404350
   0.51557798  0.01958855  0.96654067
   0.00199225  0.52141199  0.97614856
   0.50143338  0.73151689  0.25922416
   0.23505441  0.00728406  0.75060758
   0.47813739  0.98405571  0.50484050
   0.72699155  0.97683797  0.77172001
   0.00559428  0.76907555  0.25007706
   0.73286278  0.50747477  0.25015226
   0.02050332  0.00316965  0.49797279
   0.50166264  0.51953651  0.49653276
   0.73887073  0.51795158  0.75583284
   0.75296223  0.73543656  0.49722893
HECN                                    
           1
     8.723759   -0.009343   -0.010107
    -0.003744    8.792292    0.008739
     0.021226   -0.006611    8.730002
   V    Ta   Zr   N    C    Cr   Mo
   7   6   7  13  19   6   6
Direct configuration=     8
   0.00453743  0.98058743  0.99751647
   0.24775631  0.98041815  0.25337439
   0.26243727  0.51878222  0.24406357
   0.50135208  0.48390652  0.99401691
   0.48739333  0.23807787  0.75789310
   0.00255809  0.49725452  0.51443062
   0.50276432  0.76356980  0.73852933
   0.00388904  0.24877044  0.25493508
   0.74223798  0.74820512  0.00426127
   0.01196580  0.24450709  0.74563330
   0.74722070  0.25156138  0.51209540
   0.99831094  0.75491567  0.75173989
   0.25494254  0.49992980  0.75357841
   0.24774690  0.24360264 -0.00088056
   0.49790662  0.25179610  0.24702449
   0.74092096  0.99229096  0.25963098
   0.75463748  0.24981801  0.99278902
   0.26479758  0.75633638  0.00032426
   0.25602732  0.25042778  0.50051238
   0.24764163  0.74940804  0.49980735
   0.24546582  0.25108731  0.24937015
   0.25622148  0.00018582  0.99735159
   0.00086256  0.24460609  0.00162550
   0.75338495  0.24793527  0.25644031
   0.74959280  0.99450128 -0.00648964
   0.48702693  0.99365791  0.25064868
   0.00156076  0.48963501  0.25085500
   0.50961440  0.75542822 -0.00253192
   0.99014996  0.00316077  0.75564350
   0.74854886  0.24683626  0.74597930
   0.74527084  0.00431027  0.51405865
   0.50905392  0.24070783  0.50854047
   0.50825260 -0.00071723  0.74698037
   0.00743510 -0.00080526  0.24260244
   0.50182516  0.25154349 -0.01142075
   0.25918912  0.74809284  0.24948336
   0.24758739  0.50202330  0.00580983
   0.00025155  0.74801236  0.00269108
   0.74590683  0.74139089  0.25337310
   0.75307513  0.50414411  0.00405403
   0.49030156  0.51124576  0.24105687
   0.25761057  0.24548375  0.75031446
   0.25704374  0.99909092  0.50531120
   0.99805029  0.25617406  0.50053052
   0.25457074  0.75761909  0.75089661
   0.24556444  0.50031150  0.49322074
   0.99519558  0.74646045  0.49944510
   0.99883727  0.50146908  0.75012477
   0.74198357  0.75583229  0.74826025
   0.75548170  0.50017961  0.50095730
   0.50718464  0.76087438  0.49634936
   0.50172450  0.50003522  0.75383498
   0.51552885  0.02168671  0.96370915
   0.00248386  0.52645490  0.97240978
   0.50055299  0.72969216  0.26284844
   0.23241384  0.00479880  0.75085495
   0.47828002  0.98557062  0.50811029
   0.72155327  0.97701319  0.77269787
   0.00421144  0.76761588  0.24958774
   0.72711006  0.50852325  0.24712292
   0.02065444  0.00414547  0.49477259
   0.50439663  0.51833496  0.49504952
   0.73908515  0.51920009  0.75842508
   0.75286076  0.73228513  0.49776896
HECN                                    
           1
     8.730787   -0.008821   -0.010075
    -0.003215    8.797973    0.008618
     0.021283   -0.006741    8.736705
   V    Ta   Zr   N    C    Cr   Mo
   7   6   7  13  19   6   6
Direct configuration=     9
   0.00408448  0.98094151  0.99753167
   0.24792312  0.98095177  0.25309322
   0.26191890  0.51824143  0.24425133
   0.50145652  0.48436326  0.99424441
   0.48808296  0.23823840  0.75776698
   0.00219477  0.49746284  0.51370245
   0.50252587  0.76338655  0.73910700
   0.00391468  0.24839127  0.25492442
   0.74246322  0.74829233  0.00438422
   0.01159098  0.24488401  0.74560656
   0.74713279  0.25157613  0.51202288
   0.99842556  0.75471049  0.75173901
   0.25498188  0.49980618  0.75352569
   0.24796626  0.24361055 -0.00093035
   0.49801174  0.25176546  0.24707871
   0.74084040  0.99239070  0.25982161
   0.75455936  0.24987533  0.99272566
   0.26451769  0.75632017  0.00043708
   0.25616731  0.25038306  0.50042740
   0.24767792  0.74938766  0.49968650
   0.24549418  0.25107138  0.24933883
   0.25635944  0.00021037  0.99723051
   0.00093008  0.24471714  0.00166628
   0.75357505  0.24796031  0.25649859
   0.74964499  0.99442251 -0.00620345
   0.48710046  0.99368223  0.25049826
   0.00141302  0.48927555  0.25061574
   0.50955977  0.75551871 -0.00217738
   0.98992592  0.00314805  0.75531201
   0.74853078  0.24668456  0.74594972
   0.74477027  0.00424240  0.51426117
   0.50905737  0.24019558  0.50856577
   0.50812304 -0.00068732  0.74669249
   0.00759945 -0.00072234  0.24256282
   0.50194543  0.25152425 -0.01149388
   0.25894957  0.74805124  0.24944785
   0.24764826  0.50189500  0.00573377
   0.00008990  0.74797151  0.00274228
   0.74607278  0.74150860  0.25323246
   0.75302247  0.50420343  0.00398572
   0.49019259  0.51145291  0.24120525
   0.25753733  0.24556267  0.75020788
   0.25724645  0.99902030  0.50514454
   0.99796006  0.25613012  0.50048525
   0.25434964  0.75743940  0.75088797
   0.24568786  0.50024473  0.49308866
   0.99523252  0.74654758  0.49961493
   0.99871958  0.50145859  0.74998430
   0.74178763  0.75611682  0.74840810
   0.75557958  0.50001564  0.50108964
   0.50705495  0.76105810  0.49658705
   0.50160041  0.50004321  0.75386283
   0.51553530  0.02140663  0.96408746
   0.00241787  0.52578173  0.97290932
   0.50067073  0.72993581  0.26236424
   0.23276686  0.00513068  0.75082188
   0.47826086  0.98536846  0.50767349
   0.72227998  0.97699015  0.77256726
   0.00439632  0.76781078  0.24965309
   0.72787875  0.50838361  0.24752766
   0.02063420  0.00401517  0.49520013
   0.50403136  0.51849515  0.49524764
   0.73905641  0.51903347  0.75807879
   0.75287451  0.73270577  0.49769677
HECN                                    
           1
     8.733625   -0.008702   -0.007815
    -0.003098    8.796286    0.006553
     0.023562   -0.008802    8.748720
   V    Ta   Zr   N    C    Cr   Mo
   7   6   7  13  19   6   6
Direct configuration=    10
   0.00714788  0.97989513  0.99818214
   0.24742723  0.97901778  0.25451408
   0.26388135  0.51923116  0.24405393
   0.50081279  0.48248858  0.99245017
   0.48496294  0.23856235  0.75681743
   0.00315781  0.49671272  0.51765617
   0.50463259  0.76338598  0.73535942
   0.00367450  0.25114946  0.25515513
   0.74187502  0.74857463  0.00401867
   0.01140672  0.24283358  0.74594787
   0.74794941  0.25276871  0.51300001
   0.99807541  0.75606363  0.75024060
   0.25579312  0.50155355  0.75318658
   0.24687323  0.24368046  0.00139473
   0.49640905  0.25010042  0.24804308
   0.74052124  0.99113849  0.25928178
   0.75512938  0.24981469  0.99247027
   0.26594774  0.75672909 -0.00000486
   0.25667790  0.25079786  0.49899922
   0.24898393  0.74929609  0.49985785
   0.24516589  0.25124108  0.24969855
   0.25533805 -0.00003880  0.99810116
   0.00052649  0.24399766  0.00146579
   0.75290023  0.24786614  0.25631267
   0.74918384  0.99401194 -0.00644931
   0.48772968  0.99386812  0.25180900
   0.00197606  0.49019946  0.25157396
   0.51024894  0.75516044 -0.00409338
   0.99169964  0.00279700  0.75614503
   0.74921129  0.24688605  0.74560461
   0.74736858  0.00561592  0.51279592
   0.50901825  0.24297313  0.50846985
   0.50710031 -0.00074239  0.74569424
   0.00642999  0.00115720  0.24337724
   0.50132231  0.25068578 -0.01071938
   0.26011550  0.74867537  0.25012399
   0.24697517  0.50239012  0.00537543
   0.00031176  0.74812949  0.00203781
   0.74527910  0.74122204  0.25234853
   0.75401066  0.50417475  0.00421430
   0.49022085  0.50966665  0.24051344
   0.25768854  0.24534516  0.75062257
   0.25733977  0.99907320  0.50584225
   0.99786873  0.25538725  0.50095185
   0.25487303  0.75823061  0.75040415
   0.24594707  0.50101454  0.49412587
   0.99448966  0.74702775  0.49922359
   0.99871061  0.50122448  0.75053609
   0.74280930  0.75773657  0.74810708
   0.75580465  0.49819458  0.50039198
   0.50657461  0.76126344  0.49501842
   0.50201933  0.49987281  0.75292931
   0.51491338  0.02327088  0.96533233
   0.00244072  0.52860328  0.97170400
   0.50064135  0.73073010  0.26647238
   0.23090428  0.00305106  0.75096986
   0.47729363  0.98675458  0.51027384
   0.72111990  0.97553173  0.77145352
   0.00329079  0.76488163  0.25060253
   0.72570857  0.50838139  0.24632594
   0.01893527  0.00447094  0.49252188
   0.50409719  0.51632797  0.49489040
   0.73969145  0.51837301  0.75811772
   0.75336672  0.73152129  0.49815885
HECN                                    
           1
     8.736217   -0.008594   -0.005751
    -0.002991    8.794744    0.004666
     0.025645   -0.010684    8.759693
   V    Ta   Zr   N    C    Cr   Mo
   7   6   7  13  19   6   6
Direct configuration=    11
   0.00994497  0.97893927  0.99877452
   0.24697411  0.97725122  0.25580983
   0.26567332  0.52013529  0.24387361
   0.50022544  0.48077552  0.99081330
   0.48211424  0.23885814  0.75595210
   0.00403625  0.49602826  0.52126218
   0.50655714  0.76338463  0.73194056
   0.00345510  0.25366934  0.25536622
   0.74133802  0.74883246  0.00368543
   0.01123841  0.24096043  0.74625879
   0.74869482  0.25385842  0.51389137
   0.99775602  0.75729952  0.74887419
   0.25653393  0.50314984  0.75287745
   0.24587461  0.24374484  0.00351583
   0.49494541  0.24857949  0.24892274
   0.74022995  0.98999438  0.25878918
   0.75564994  0.24975922  0.99223716
   0.26725363  0.75710256 -0.00040822
   0.25714447  0.25117650  0.49769647
   0.25017643  0.74921245  0.50001382
   0.24486604  0.25139620  0.25002678
   0.25440520 -0.00026623  0.99889551
   0.00015802  0.24334032  0.00128285
   0.75228408  0.24778008  0.25614322
   0.74876283  0.99363680 -0.00667355
   0.48830392  0.99403822  0.25300448
   0.00248994  0.49104372  0.25244807
   0.51087868  0.75483272 -0.00584130
   0.99331906  0.00247644  0.75690438
   0.74983274  0.24707005  0.74528970
   0.74974146  0.00687041  0.51145908
   0.50898252  0.24551063  0.50838297
   0.50616669 -0.00079289  0.74478392
   0.00536192  0.00287452  0.24412079
   0.50075316  0.24991993 -0.01001295
   0.26117995  0.74924570  0.25074060
   0.24636064  0.50284239  0.00504883
   0.00051450  0.74827366  0.00139520
   0.74455460  0.74096006  0.25154238
   0.75491293  0.50414858  0.00442257
   0.49024684  0.50803460  0.23988202
   0.25782653  0.24514653  0.75100074
   0.25742481  0.99912168  0.50647866
   0.99778523  0.25470868  0.50137733
   0.25535104  0.75895333  0.74996289
   0.24618351  0.50171804  0.49507207
   0.99381144  0.74746636  0.49886690
   0.99870230  0.50101072  0.75103935
   0.74374225  0.75921626  0.74783262
   0.75601035  0.49653073  0.49975516
   0.50613636  0.76145072  0.49358775
   0.50240208  0.49971693  0.75207767
   0.51434518  0.02497430  0.96646839
   0.00246182  0.53118075  0.97060516
   0.50061354  0.73145662  0.27021981
   0.22920353  0.00115122  0.75110483
   0.47640981  0.98802147  0.51264629
   0.72006089  0.97419913  0.77043758
   0.00228113  0.76220582  0.25146820
   0.72372723  0.50837914  0.24523031
   0.01738458  0.00488677  0.49007941
   0.50415741  0.51434799  0.49456406
   0.74027131  0.51776963  0.75815293
   0.75381607  0.73043926  0.49857996
HECN                                    
           1
     8.771307   -0.008598   -0.004512
    -0.002988    8.814185    0.003147
     0.027002   -0.012230    8.779397
   V    Ta   Zr   N    C    Cr   Mo
   7   6   7  13  19   6   6
Direct configuration=    12
   0.01178841  0.97891069  0.00124829
   0.24572153  0.97736540  0.25670536
   0.26598042  0.51924213  0.24441101