  64  64   0   0
  0.1129557E+02  0.8932500E-09  0.9055600E-09  0.8937200E-09  0.5000000E-15
  1.000000000000000E-004
  CAR 
 HECN                                    
     14.54099939    -52.04964860  301      8.63797992      1.00000000
    -52.050  0.0000E+00  0.0000E+00
    -51.828  0.0000E+00  0.0000E+00
    -51.606  0.0000E+00  0.0000E+00
    -51.384  0.0000E+00  0.0000E+00
    -51.162  0.0000E+00  0.0000E+00
    -50.940  0.0000E+00  0.0000E+00
    -50.718  0.0000E+00  0.0000E+00
    -50.496  0.0000E+00  0.0000E+00
    -50.274  0.0000E+00  0.0000E+00
    -50.052  0.0000E+00  0.0000E+00
    -49.830  0.0000E+00  0.0000E+00
    -49.608  0.5002E-17  0.1110E-17
    -49.386  0.1263E-07  0.2803E-08
    -49.164  0.2205E-02  0.4894E-03
    -48.942  0.1503E+00  0.3384E-01
    -48.720  0.2890E+00  0.9798E-01
    -48.498  0.1536E+00  0.1321E+00
    -48.276  0.3566E-01  0.1400E+00
    -48.054  0.2967E-04  0.1400E+00
    -47.832  0.1862E-09  0.1400E+00
    -47.610  0.3029E-03  0.1401E+00
    -47.388  0.9448E-01  0.1610E+00
    -47.166  0.1515E+00  0.1947E+00
    -46.944  0.1749E+00  0.2335E+00
    -46.722  0.1129E+00  0.2585E+00
    -46.500  0.6561E-02  0.2600E+00
    -46.278  0.1945E-06  0.2600E+00
    -46.056  0.4602E-15  0.2600E+00
    -45.835  0.0000E+00  0.2600E+00
    -45.613  0.0000E+00  0.2600E+00
    -45.391  0.0000E+00  0.2600E+00
    -45.169  0.0000E+00  0.2600E+00
    -44.947  0.0000E+00  0.2600E+00
    -44.725  0.0000E+00  0.2600E+00
    -44.503  0.0000E+00  0.2600E+00
    -44.281  0.0000E+00  0.2600E+00
    -44.059  0.0000E+00  0.2600E+00
    -43.837  0.0000E+00  0.2600E+00
    -43.615  0.0000E+00  0.2600E+00
    -43.393  0.0000E+00  0.2600E+00
    -43.171  0.0000E+00  0.2600E+00
    -42.949  0.0000E+00  0.2600E+00
    -42.727  0.0000E+00  0.2600E+00
    -42.505  0.0000E+00  0.2600E+00
    -42.283  0.0000E+00  0.2600E+00
    -42.061  0.0000E+00  0.2600E+00
    -41.839  0.0000E+00  0.2600E+00
    -41.617  0.0000E+00  0.2600E+00
    -41.395  0.0000E+00  0.2600E+00
    -41.173  0.0000E+00  0.2600E+00
    -40.951  0.6025E-12  0.2600E+00
    -40.729  0.1300E-04  0.2600E+00
    -40.507  0.2822E-01  0.2663E+00
    -40.285  0.7629E-01  0.2832E+00
    -40.063  0.1211E+00  0.3101E+00
    -39.841  0.3167E+00  0.3804E+00
    -39.619  0.8818E-01  0.4000E+00
    -39.397  0.2178E-03  0.4000E+00
    -39.175  0.1094E-09  0.4000E+00
    -38.953  0.0000E+00  0.4000E+00
    -38.732  0.0000E+00  0.4000E+00
    -38.510  0.0000E+00  0.4000E+00
    -38.288  0.0000E+00  0.4000E+00
    -38.066  0.0000E+00  0.4000E+00
    -37.844  0.0000E+00  0.4000E+00
    -37.622  0.0000E+00  0.4000E+00
    -37.400  0.0000E+00  0.4000E+00
    -37.178  0.0000E+00  0.4000E+00
    -36.956  0.0000E+00  0.4000E+00
    -36.734  0.0000E+00  0.4000E+00
    -36.512  0.0000E+00  0.4000E+00
    -36.290  0.0000E+00  0.4000E+00
    -36.068  0.0000E+00  0.4000E+00
    -35.846  0.0000E+00  0.4000E+00
    -35.624  0.2707E-08  0.4000E+00
    -35.402  0.1021E-02  0.4002E+00
    -35.180  0.8714E-01  0.4196E+00
    -34.958  0.4973E+00  0.5300E+00
    -34.736  0.9574E+00  0.7425E+00
    -34.514  0.7894E-01  0.7600E+00
    -34.292  0.2490E-04  0.7600E+00
    -34.070  0.1552E-11  0.7600E+00
    -33.848  0.0000E+00  0.7600E+00
    -33.626  0.0000E+00  0.7600E+00
    -33.404  0.0000E+00  0.7600E+00
    -33.182  0.0000E+00  0.7600E+00
    -32.960  0.0000E+00  0.7600E+00
    -32.738  0.0000E+00  0.7600E+00
    -32.516  0.0000E+00  0.7600E+00
    -32.294  0.0000E+00  0.7600E+00
    -32.072  0.0000E+00  0.7600E+00
    -31.850  0.0000E+00  0.7600E+00
    -31.629  0.0000E+00  0.7600E+00
    -31.407  0.0000E+00  0.7600E+00
    -31.185  0.0000E+00  0.7600E+00
    -30.963  0.0000E+00  0.7600E+00
    -30.741  0.0000E+00  0.7600E+00
    -30.519  0.0000E+00  0.7600E+00
    -30.297  0.0000E+00  0.7600E+00
    -30.075  0.0000E+00  0.7600E+00
    -29.853  0.0000E+00  0.7600E+00
    -29.631  0.0000E+00  0.7600E+00
    -29.409  0.0000E+00  0.7600E+00
    -29.187  0.0000E+00  0.7600E+00
    -28.965  0.0000E+00  0.7600E+00
    -28.743  0.0000E+00  0.7600E+00
    -28.521  0.0000E+00  0.7600E+00
    -28.299  0.0000E+00  0.7600E+00
    -28.077  0.0000E+00  0.7600E+00
    -27.855  0.0000E+00  0.7600E+00
    -27.633  0.0000E+00  0.7600E+00
    -27.411  0.0000E+00  0.7600E+00
    -27.189  0.0000E+00  0.7600E+00
    -26.967  0.0000E+00  0.7600E+00
    -26.745  0.0000E+00  0.7600E+00
    -26.523  0.0000E+00  0.7600E+00
    -26.301  0.0000E+00  0.7600E+00
    -26.079  0.0000E+00  0.7600E+00
    -25.857  0.2314E-08  0.7600E+00
    -25.635  0.1199E-02  0.7603E+00
    -25.413  0.2094E+00  0.8068E+00
    -25.191  0.6625E+00  0.9538E+00
    -24.969  0.7655E+00  0.1124E+01
    -24.747  0.2483E+00  0.1179E+01
    -24.526  0.5187E-02  0.1180E+01
    -24.304  0.5096E-07  0.1180E+01
    -24.082  0.2308E-07  0.1180E+01
    -23.860  0.2720E-02  0.1181E+01
    -23.638  0.1388E+00  0.1211E+01
    -23.416  0.3795E+00  0.1296E+01
    -23.194  0.5746E+00  0.1423E+01
    -22.972  0.3598E+00  0.1503E+01
    -22.750  0.1653E+00  0.1540E+01
    -22.528  0.1188E-02  0.1540E+01
    -22.306  0.2579E-08  0.1540E+01
    -22.084  0.0000E+00  0.1540E+01
    -21.862  0.0000E+00  0.1540E+01
    -21.640  0.0000E+00  0.1540E+01
    -21.418  0.0000E+00  0.1540E+01
    -21.196  0.0000E+00  0.1540E+01
    -20.974  0.0000E+00  0.1540E+01
    -20.752  0.0000E+00  0.1540E+01
    -20.530  0.0000E+00  0.1540E+01
    -20.308  0.0000E+00  0.1540E+01
    -20.086  0.0000E+00  0.1540E+01
    -19.864  0.0000E+00  0.1540E+01
    -19.642  0.0000E+00  0.1540E+01
    -19.420  0.1975E-14  0.1540E+01
    -19.198  0.4672E-06  0.1540E+01
    -18.976  0.1002E-01  0.1542E+01
    -18.754  0.1971E+00  0.1586E+01
    -18.532  0.2911E+00  0.1651E+01
    -18.310  0.6979E+00  0.1806E+01
    -18.088  0.5260E+00  0.1922E+01
    -17.866  0.1536E+00  0.1956E+01
    -17.644  0.1635E-01  0.1960E+01
    -17.423  0.2285E-05  0.1960E+01
    -17.201  0.2894E-13  0.1960E+01
    -16.979  0.0000E+00  0.1960E+01
    -16.757  0.0000E+00  0.1960E+01
    -16.535  0.0000E+00  0.1960E+01
    -16.313  0.0000E+00  0.1960E+01
    -16.091  0.0000E+00  0.1960E+01
    -15.869  0.0000E+00  0.1960E+01
    -15.647  0.0000E+00  0.1960E+01
    -15.425  0.0000E+00  0.1960E+01
    -15.203  0.0000E+00  0.1960E+01
    -14.981  0.0000E+00  0.1960E+01
    -14.759  0.0000E+00  0.1960E+01
    -14.537  0.0000E+00  0.1960E+01
    -14.315  0.0000E+00  0.1960E+01
    -14.093  0.0000E+00  0.1960E+01
    -13.871  0.0000E+00  0.1960E+01
    -13.649  0.0000E+00  0.1960E+01
    -13.427  0.0000E+00  0.1960E+01
    -13.205  0.0000E+00  0.1960E+01
    -12.983  0.0000E+00  0.1960E+01
    -12.761  0.0000E+00  0.1960E+01
    -12.539  0.0000E+00  0.1960E+01
    -12.317  0.0000E+00  0.1960E+01
    -12.095  0.0000E+00  0.1960E+01
    -11.873  0.0000E+00  0.1960E+01
    -11.651  0.0000E+00  0.1960E+01
    -11.429  0.0000E+00  0.1960E+01
    -11.207  0.0000E+00  0.1960E+01
    -10.985  0.0000E+00  0.1960E+01
    -10.763  0.0000E+00  0.1960E+01
    -10.541  0.0000E+00  0.1960E+01
    -10.320  0.0000E+00  0.1960E+01
    -10.098  0.0000E+00  0.1960E+01
     -9.876  0.0000E+00  0.1960E+01
     -9.654  0.0000E+00  0.1960E+01
     -9.432  0.0000E+00  0.1960E+01
     -9.210  0.0000E+00  0.1960E+01
     -8.988  0.0000E+00  0.1960E+01
     -8.766  0.0000E+00  0.1960E+01
     -8.544  0.0000E+00  0.1960E+01
     -8.322  0.0000E+00  0.1960E+01
     -8.100  0.0000E+00  0.1960E+01
     -7.878  0.1818E-13  0.1960E+01
     -7.656  0.5623E-06  0.1960E+01
     -7.434  0.3582E-02  0.1961E+01
     -7.212  0.6684E-01  0.1976E+01
     -6.990  0.8295E-01  0.1994E+01
     -6.768  0.1123E+00  0.2019E+01
     -6.546  0.9482E-01  0.2040E+01
     -6.324  0.1315E+00  0.2069E+01
     -6.102  0.1854E+00  0.2110E+01
     -5.880  0.2698E+00  0.2170E+01
     -5.658  0.1601E+00  0.2206E+01
     -5.436  0.6362E-01  0.2220E+01
     -5.214  0.4170E-03  0.2220E+01
     -4.992  0.4312E-09  0.2220E+01
     -4.770  0.0000E+00  0.2220E+01
     -4.548  0.0000E+00  0.2220E+01
     -4.326  0.2909E-12  0.2220E+01
     -4.104  0.2767E-05  0.2220E+01
     -3.882  0.4224E-02  0.2221E+01
     -3.660  0.4974E-01  0.2232E+01
     -3.438  0.4413E-01  0.2242E+01
     -3.217  0.1016E+00  0.2264E+01
     -2.995  0.1456E+00  0.2297E+01
     -2.773  0.2145E+00  0.2344E+01
     -2.551  0.2259E+00  0.2394E+01
     -2.329  0.2628E+00  0.2453E+01
     -2.107  0.2230E+00  0.2502E+01
     -1.885  0.1826E+00  0.2543E+01
     -1.663  0.1404E+00  0.2574E+01
     -1.441  0.8070E-01  0.2592E+01
     -1.219  0.3122E-01  0.2599E+01
     -0.997  0.5539E-02  0.2600E+01
     -0.775  0.1147E-04  0.2600E+01
     -0.553  0.6687E-11  0.2600E+01
     -0.331  0.0000E+00  0.2600E+01
     -0.109  0.0000E+00  0.2600E+01
      0.113  0.0000E+00  0.2600E+01
      0.335  0.0000E+00  0.2600E+01
      0.557  0.1927E-12  0.2600E+01
      0.779  0.1584E-05  0.2600E+01
      1.001  0.1726E-02  0.2600E+01
      1.223  0.1550E-01  0.2604E+01
      1.445  0.6949E-01  0.2619E+01
      1.667  0.1087E+00  0.2643E+01
      1.889  0.1515E+00  0.2677E+01
      2.111  0.2000E+00  0.2721E+01
      2.333  0.2714E+00  0.2782E+01
      2.555  0.3200E+00  0.2853E+01
      2.777  0.2736E+00  0.2913E+01
      2.999  0.3606E+00  0.2993E+01
      3.221  0.3972E+00  0.3082E+01
      3.443  0.4308E+00  0.3177E+01
      3.665  0.4704E+00  0.3282E+01
      3.886  0.5829E+00  0.3411E+01
      4.108  0.6440E+00  0.3554E+01
      4.330  0.6435E+00  0.3697E+01
      4.552  0.6303E+00  0.3837E+01
      4.774  0.5764E+00  0.3965E+01
      4.996  0.5114E+00  0.4078E+01
      5.218  0.4531E+00  0.4179E+01
      5.440  0.3735E+00  0.4262E+01
      5.662  0.3110E+00  0.4331E+01
      5.884  0.2809E+00  0.4393E+01
      6.106  0.2274E+00  0.4444E+01
      6.328  0.1735E+00  0.4482E+01
      6.550  0.1307E+00  0.4511E+01
      6.772  0.8285E-01  0.4529E+01
      6.994  0.1478E+00  0.4562E+01
      7.216  0.1825E+00  0.4603E+01
      7.438  0.1917E+00  0.4645E+01
      7.660  0.2569E+00  0.4702E+01
      7.882  0.2079E+00  0.4748E+01
      8.104  0.2287E+00  0.4799E+01
      8.326  0.2975E+00  0.4865E+01
      8.548  0.2874E+00  0.4929E+01
      8.770  0.2419E+00  0.4983E+01
      8.992  0.3077E+00  0.5051E+01
      9.214  0.4123E+00  0.5143E+01
      9.436  0.4490E+00  0.5242E+01
      9.658  0.5052E+00  0.5354E+01
      9.880  0.5201E+00  0.5470E+01
     10.102  0.5474E+00  0.5591E+01
     10.324  0.5399E+00  0.5711E+01
     10.546  0.5178E+00  0.5826E+01
     10.768  0.5198E+00  0.5942E+01
     10.989  0.5128E+00  0.6055E+01
     11.211  0.5051E+00  0.6167E+01
     11.433  0.2887E+00  0.6232E+01
     11.655  0.3780E-01  0.6240E+01
     11.877  0.2952E-03  0.6240E+01
     12.099  0.1309E-08  0.6240E+01
     12.321  0.0000E+00  0.6240E+01
     12.543  0.0000E+00  0.6240E+01
     12.765  0.0000E+00  0.6240E+01
     12.987  0.0000E+00  0.6240E+01
     13.209  0.0000E+00  0.6240E+01
     13.431  0.0000E+00  0.6240E+01
     13.653  0.0000E+00  0.6240E+01
     13.875  0.0000E+00  0.6240E+01
     14.097  0.0000E+00  0.6240E+01
     14.319  0.0000E+00  0.6240E+01
     14.541  0.0000E+00  0.6240E+01
