       N       E                     dE             d eps       ncg     rms          rms(c)
DAV:   1     0.655856044083E+04    0.65586E+04   -0.19641E+05  8880   0.149E+03
DAV:   2     0.492596494775E+03   -0.60660E+04   -0.58739E+04  8736   0.624E+02
DAV:   3    -0.608574744004E+03   -0.11012E+04   -0.10295E+04 14256   0.224E+02
DAV:   4    -0.755709233629E+03   -0.14713E+03   -0.14341E+03 15720   0.990E+01
DAV:   5    -0.775139337561E+03   -0.19430E+02   -0.19125E+02 17448   0.343E+01    0.787E+01
RMM:   6    -0.936948525734E+03   -0.16181E+03   -0.25940E+03 12260   0.140E+02    0.127E+02
RMM:   7    -0.634845553998E+03    0.30210E+03   -0.28280E+02 14470   0.386E+01    0.477E+01
RMM:   8    -0.627391091304E+03    0.74545E+01   -0.60415E+01 14091   0.208E+01    0.318E+01
RMM:   9    -0.622594862161E+03    0.47962E+01   -0.31202E+01 14022   0.106E+01    0.223E+01
RMM:  10    -0.621196628462E+03    0.13982E+01   -0.95970E+00 13252   0.105E+01    0.156E+01
RMM:  11    -0.623101023078E+03   -0.19044E+01   -0.80773E+00 13828   0.667E+00    0.262E+01
RMM:  12    -0.621217380747E+03    0.18836E+01   -0.46076E+00 14036   0.554E+00    0.154E+01
RMM:  13    -0.620444799217E+03    0.77258E+00   -0.42297E+00 14392   0.388E+00    0.130E+01
RMM:  14    -0.620115059908E+03    0.32974E+00   -0.16187E+00 14144   0.405E+00    0.830E+00
RMM:  15    -0.620071388284E+03    0.43672E-01   -0.20548E+00 14081   0.254E+00    0.558E+00
RMM:  16    -0.620373276863E+03   -0.30189E+00   -0.69597E-01 13108   0.283E+00    0.113E+01
RMM:  17    -0.620029991889E+03    0.34328E+00   -0.10100E+00 14113   0.195E+00    0.377E+00
RMM:  18    -0.620079883795E+03   -0.49892E-01   -0.48306E-01 14210   0.187E+00    0.464E+00
RMM:  19    -0.620048319436E+03    0.31564E-01   -0.46510E-01 14242   0.116E+00    0.206E+00
RMM:  20    -0.620013651006E+03    0.34668E-01   -0.21287E-01 13980   0.917E-01    0.965E-01
RMM:  21    -0.620011312711E+03    0.23383E-02   -0.12313E-01 14270   0.786E-01    0.657E-01
RMM:  22    -0.620014072357E+03   -0.27596E-02   -0.83049E-02 14086   0.545E-01    0.246E-01
RMM:  23    -0.620017576559E+03   -0.35042E-02   -0.51922E-02 14215   0.448E-01    0.163E-01
RMM:  24    -0.620020336164E+03   -0.27596E-02   -0.33628E-02 13842   0.303E-01    0.154E-01
RMM:  25    -0.620021595852E+03   -0.12597E-02   -0.18638E-02 13872   0.241E-01    0.916E-02
RMM:  26    -0.620022700133E+03   -0.11043E-02   -0.13167E-02 13625   0.184E-01    0.608E-02
RMM:  27    -0.620023329055E+03   -0.62892E-03   -0.82691E-03 12647   0.145E-01    0.425E-02
RMM:  28    -0.620023829405E+03   -0.50035E-03   -0.58283E-03 12101   0.120E-01    0.367E-02
RMM:  29    -0.620024145700E+03   -0.31630E-03   -0.36854E-03 12167   0.960E-02    0.206E-02
RMM:  30    -0.620024372951E+03   -0.22725E-03   -0.26627E-03 11712   0.810E-02    0.226E-02
RMM:  31    -0.620024516284E+03   -0.14333E-03   -0.17005E-03 11530   0.638E-02    0.127E-02
RMM:  32    -0.620024626140E+03   -0.10986E-03   -0.12469E-03 11616   0.545E-02    0.105E-02
RMM:  33    -0.620024696544E+03   -0.70405E-04   -0.81901E-04 11454   0.452E-02    0.989E-03
RMM:  34    -0.620024748838E+03   -0.52294E-04   -0.60152E-04 11340   0.383E-02    0.103E-02
RMM:  35    -0.620024784473E+03   -0.35634E-04   -0.40502E-04 11204   0.326E-02    0.713E-03
RMM:  36    -0.620024809321E+03   -0.24848E-04   -0.29726E-04 10939   0.282E-02    0.620E-03
RMM:  37    -0.620024826909E+03   -0.17588E-04   -0.20583E-04 10341   0.237E-02    0.398E-03
RMM:  38    -0.620024839492E+03   -0.12583E-04   -0.14852E-04 10055   0.207E-02    0.486E-03
RMM:  39    -0.620024847786E+03   -0.82943E-05   -0.10377E-04  9557   0.181E-02    0.112E-02
RMM:  40    -0.620024853716E+03   -0.59297E-05   -0.76537E-05  9313   0.164E-02
   1 F= -.62002485E+03 E0= -.61993207E+03  d E =-.620025E+03
       N       E                     dE             d eps       ncg     rms          rms(c)
DAV:   1    -0.680623979656E+03   -0.60599E+02   -0.23084E+03 12264   0.217E+02    0.628E+01
RMM:   2    -0.841979662124E+03   -0.16136E+03   -0.11650E+03 10352   0.128E+02    0.102E+02
RMM:   3    -0.628461320650E+03    0.21352E+03   -0.93349E+01 12121   0.359E+01    0.323E+01
RMM:   4    -0.630962073821E+03   -0.25008E+01   -0.34389E+01 13104   0.200E+01    0.359E+01
RMM:   5    -0.630276590563E+03    0.68548E+00   -0.22560E+01 11498   0.175E+01    0.367E+01
RMM:   6    -0.621445914867E+03    0.88307E+01   -0.16962E+01 12966   0.107E+01    0.172E+01
RMM:   7    -0.620658683010E+03    0.78723E+00   -0.43973E+00 11881   0.710E+00    0.146E+01
RMM:   8    -0.620150978590E+03    0.50770E+00   -0.22865E+00 12991   0.429E+00    0.112E+01
RMM:   9    -0.619702761181E+03    0.44822E+00   -0.89642E-01 13447   0.305E+00    0.592E+00
RMM:  10    -0.619636027857E+03    0.66733E-01   -0.71198E-01 14814   0.162E+00    0.378E+00
RMM:  11    -0.619649902470E+03   -0.13875E-01   -0.26665E-01 14432   0.155E+00    0.339E+00
RMM:  12    -0.619678976933E+03   -0.29074E-01   -0.29272E-01 14490   0.118E+00    0.145E+00
RMM:  13    -0.619728463475E+03   -0.49487E-01   -0.24840E-01 14672   0.117E+00    0.132E+00
RMM:  14    -0.619761964951E+03   -0.33501E-01   -0.17637E-01 15353   0.857E-01    0.216E+00
RMM:  15    -0.619758737699E+03    0.32273E-02   -0.11835E-01 14980   0.794E-01    0.592E-01
RMM:  16    -0.619767245446E+03   -0.85077E-02   -0.83827E-02 15103   0.504E-01    0.409E-01
RMM:  17    -0.619772179399E+03   -0.49340E-02   -0.48007E-02 15108   0.436E-01    0.137E-01
RMM:  18    -0.619774489208E+03   -0.23098E-02   -0.31277E-02 14938   0.337E-01    0.940E-02
RMM:  19    -0.619775869609E+03   -0.13804E-02   -0.17539E-02 15089   0.258E-01    0.940E-02
RMM:  20    -0.619776877777E+03   -0.10082E-02   -0.11999E-02 14632   0.181E-01    0.534E-02
RMM:  21    -0.619777397147E+03   -0.51937E-03   -0.64813E-03 14049   0.156E-01    0.300E-02
RMM:  22    -0.619777802213E+03   -0.40507E-03   -0.46925E-03 13598   0.112E-01    0.397E-02
RMM:  23    -0.619777990557E+03   -0.18834E-03   -0.24205E-03 13154   0.988E-02    0.167E-02
RMM:  24    -0.619778150073E+03   -0.15952E-03   -0.18358E-03 12700   0.741E-02    0.101E-02
RMM:  25    -0.619778231624E+03   -0.81550E-04   -0.10250E-03 12197   0.620E-02    0.195E-02
RMM:  26    -0.619778297608E+03   -0.65984E-04   -0.74674E-04 11960   0.485E-02    0.669E-03
RMM:  27    -0.619778331299E+03   -0.33691E-04   -0.41867E-04 11632   0.426E-02    0.747E-03
RMM:  28    -0.619778357130E+03   -0.25831E-04   -0.30519E-04 11381   0.332E-02    0.430E-03
RMM:  29    -0.619778371614E+03   -0.14484E-04   -0.17590E-04 11068   0.288E-02    0.193E-03
RMM:  30    -0.619778381796E+03   -0.10182E-04   -0.12472E-04 10296   0.237E-02    0.531E-03
RMM:  31    -0.619778388299E+03   -0.65028E-05   -0.75611E-05  9836   0.208E-02
   2 F= -.61977839E+03 E0= -.61970572E+03  d E =0.246465E+00
       N       E                     dE             d eps       ncg     rms          rms(c)
DAV:   1    -0.641125002828E+03   -0.21347E+02   -0.58739E+02 12432   0.104E+02    0.475E+01
RMM:   2    -0.804162312712E+03   -0.16304E+03   -0.18016E+02 13385   0.376E+01    0.735E+01
RMM:   3    -0.639796763448E+03    0.16437E+03   -0.53362E+01 11930   0.317E+01    0.390E+01
RMM:   4    -0.627990955356E+03    0.11806E+02   -0.32214E+01 12276   0.186E+01    0.255E+01
RMM:   5    -0.630513944087E+03   -0.25230E+01   -0.18766E+01 11955   0.136E+01    0.307E+01
RMM:   6    -0.625318111867E+03    0.51958E+01   -0.56538E+00 12978   0.694E+00    0.204E+01
RMM:   7    -0.624095343157E+03    0.12228E+01   -0.21978E+00 12049   0.528E+00    0.148E+01
RMM:   8    -0.623817078571E+03    0.27826E+00   -0.17032E+00 12601   0.387E+00    0.136E+01
RMM:   9    -0.623098245979E+03    0.71883E+00   -0.58806E-01 12528   0.260E+00    0.647E+00
RMM:  10    -0.622931699612E+03    0.16655E+00   -0.34368E-01 12725   0.197E+00    0.459E+00
RMM:  11    -0.622871180477E+03    0.60519E-01   -0.18065E-01 14266   0.117E+00    0.258E+00
RMM:  12    -0.622887820291E+03   -0.16640E-01   -0.12492E-01 14028   0.984E-01    0.324E+00
RMM:  13    -0.622855049981E+03    0.32770E-01   -0.73462E-02 14532   0.700E-01    0.102E+00
RMM:  14    -0.622864677409E+03   -0.96274E-02   -0.62586E-02 14863   0.442E-01    0.814E-01
RMM:  15    -0.622869661255E+03   -0.49838E-02   -0.43994E-02 14898   0.441E-01    0.381E-01
RMM:  16    -0.622875533512E+03   -0.58723E-02   -0.33942E-02 14883   0.332E-01    0.285E-01
RMM:  17    -0.622879567585E+03   -0.40341E-02   -0.26482E-02 14831   0.293E-01    0.218E-01
RMM:  18    -0.622881093236E+03   -0.15257E-02   -0.17923E-02 14670   0.228E-01    0.140E-01
RMM:  19    -0.622881934037E+03   -0.84080E-03   -0.11307E-02 14338   0.190E-01    0.710E-02
RMM:  20    -0.622882455195E+03   -0.52116E-03   -0.65177E-03 13637   0.144E-01    0.675E-02
RMM:  21    -0.622882801427E+03   -0.34623E-03   -0.43198E-03 13088   0.110E-01    0.204E-02
RMM:  22    -0.622883002749E+03   -0.20132E-03   -0.25824E-03 12531   0.849E-02    0.213E-02
RMM:  23    -0.622883137072E+03   -0.13432E-03   -0.16615E-03 12038   0.714E-02    0.124E-02
RMM:  24    -0.622883220831E+03   -0.83759E-04   -0.10407E-03 11715   0.566E-02    0.132E-02
RMM:  25    -0.622883278918E+03   -0.58086E-04   -0.69692E-04 11573   0.451E-02    0.224E-02
RMM:  26    -0.622883327256E+03   -0.48338E-04   -0.46111E-04 11185   0.376E-02    0.649E-02
RMM:  27    -0.622883357164E+03   -0.29908E-04   -0.32177E-04 11232   0.329E-02    0.767E-02
RMM:  28    -0.622883374817E+03   -0.17653E-04   -0.19600E-04 10646   0.270E-02    0.866E-02
RMM:  29    -0.622883375169E+03   -0.35229E-06   -0.13969E-04 10824   0.236E-02    0.680E-02
RMM:  30    -0.622883379353E+03   -0.41837E-05   -0.81718E-05  9825   0.204E-02
   3 F= -.62288338E+03 E0= -.62280183E+03  d E =-.285853E+01
       N       E                     dE             d eps       ncg     rms          rms(c)
DAV:   1    -0.620413701607E+03    0.24697E+01   -0.46540E+02  9888   0.799E+01    0.101E+01
RMM:   2    -0.641171468639E+03   -0.20758E+02   -0.52545E+01 13990   0.209E+01    0.363E+01
RMM:   3    -0.625118883135E+03    0.16053E+02   -0.91607E+00 10951   0.138E+01    0.131E+01
RMM:   4    -0.624377454916E+03    0.74143E+00   -0.37464E+00 14291   0.451E+00    0.415E+00
RMM:   5    -0.624292775537E+03    0.84679E-01   -0.81715E-01 13385   0.257E+00    0.491E+00
RMM:   6    -0.624246495477E+03    0.46280E-01   -0.36819E-01 14187   0.146E+00    0.345E+00
RMM:   7    -0.624211604497E+03    0.34891E-01   -0.25691E-01 14118   0.124E+00    0.304E+00
RMM:   8    -0.624235102341E+03   -0.23498E-01   -0.15338E-01 13878   0.119E+00    0.386E+00
RMM:   9    -0.624175585970E+03    0.59516E-01   -0.12829E-01 14105   0.101E+00    0.176E+00
RMM:  10    -0.624186467025E+03   -0.10881E-01   -0.76509E-02 14333   0.758E-01    0.223E+00
RMM:  11    -0.624165753337E+03    0.20714E-01   -0.47224E-02 14624   0.548E-01    0.731E-01
RMM:  12    -0.624169912621E+03   -0.41593E-02   -0.29702E-02 14622   0.348E-01    0.109E+00
RMM:  13    -0.624165693807E+03    0.42188E-02   -0.15902E-02 14615   0.274E-01    0.255E-01
RMM:  14    -0.624166252273E+03   -0.55847E-03   -0.11371E-02 14473   0.169E-01    0.171E-01
RMM:  15    -0.624166628210E+03   -0.37594E-03   -0.55590E-03 14234   0.150E-01    0.141E-01
RMM:  16    -0.624166913831E+03   -0.28562E-03   -0.39884E-03 13782   0.111E-01    0.457E-02
RMM:  17    -0.624167071431E+03   -0.15760E-03   -0.23116E-03 12864   0.892E-02    0.252E-02
RMM:  18    -0.624167201366E+03   -0.12993E-03   -0.15841E-03 12109   0.671E-02    0.174E-02
RMM:  19    -0.624167278275E+03   -0.76909E-04   -0.96179E-04 11790   0.542E-02    0.140E-02
RMM:  20    -0.624167333625E+03   -0.55350E-04   -0.65267E-04 11635   0.445E-02    0.182E-02
RMM:  21    -0.624167366773E+03   -0.33149E-04   -0.41732E-04 11443   0.367E-02    0.391E-03
RMM:  22    -0.624167390118E+03   -0.23345E-04   -0.28037E-04 11178   0.293E-02    0.282E-03
RMM:  23    -0.624167405276E+03   -0.15158E-04   -0.18441E-04 10911   0.255E-02    0.376E-03
RMM:  24    -0.624167415629E+03   -0.10353E-04   -0.12421E-04 10394   0.209E-02    0.163E-03
RMM:  25    -0.624167422136E+03   -0.65066E-05   -0.81328E-05  9788   0.188E-02
   4 F= -.62416742E+03 E0= -.62408819E+03  d E =-.128404E+01
       N       E                     dE             d eps       ncg     rms          rms(c)
DAV:   1    -0.624162142744E+03    0.52729E-02   -0.89287E-01  9744   0.352E+00    0.428E-01
RMM:   2    -0.624220407505E+03   -0.58265E-01   -0.12384E-01 13437   0.109E+00    0.317E+00
RMM:   3    -0.624174785290E+03    0.45622E-01   -0.22262E-02 11182   0.597E-01    0.982E-01
RMM:   4    -0.624170587982E+03    0.41973E-02   -0.75562E-03 12930   0.256E-01    0.320E-01
RMM:   5    -0.624170459218E+03    0.12876E-03   -0.25444E-03 13068   0.124E-01    0.344E-01
RMM:   6    -0.624169978022E+03    0.48120E-03   -0.84229E-04 11700   0.850E-02    0.127E-01
RMM:   7    -0.624169934150E+03    0.43872E-04   -0.57655E-04 12468   0.540E-02    0.141E-01
RMM:   8    -0.624169929355E+03    0.47952E-05   -0.26489E-04 10594   0.574E-02    0.142E-01
RMM:   9    -0.624169930943E+03   -0.15884E-05   -0.33515E-04 12297   0.493E-02    0.156E-01
RMM:  10    -0.624169833447E+03    0.97496E-04   -0.12408E-04  9783   0.423E-02    0.503E-02
RMM:  11    -0.624169838098E+03   -0.46507E-05   -0.10623E-04 10242   0.236E-02    0.433E-02
RMM:  12    -0.624169834580E+03    0.35172E-05   -0.41218E-05  7232   0.221E-02
   5 F= -.62416983E+03 E0= -.62409050E+03  d E =-.128646E+01
       N       E                     dE             d eps       ncg     rms          rms(c)
DAV:   1    -0.622934684359E+03    0.12352E+01   -0.84184E+01  9888   0.500E+01    0.374E+00
RMM:   2    -0.626446201049E+03   -0.35115E+01   -0.18070E+01 14237   0.105E+01    0.172E+01
RMM:   3    -0.624604569832E+03    0.18416E+01   -0.15838E+00 11253   0.544E+00    0.507E+00
RMM:   4    -0.624613412442E+03   -0.88426E-02   -0.65775E-01 13876   0.210E+00    0.470E+00
RMM:   5    -0.624508093057E+03    0.10532E+00   -0.17552E-01 13614   0.119E+00    0.181E+00
RMM:   6    -0.624512007316E+03   -0.39143E-02   -0.87111E-02 14098   0.699E-01    0.214E+00
RMM:   7    -0.624493170812E+03    0.18837E-01   -0.47422E-02 14110   0.590E-01    0.122E+00
RMM:   8    -0.624510350458E+03   -0.17180E-01   -0.41986E-02 13828   0.600E-01    0.237E+00
RMM:   9    -0.624485086749E+03    0.25264E-01   -0.31805E-02 13980   0.550E-01    0.710E-01
RMM:  10    -0.624487237415E+03   -0.21507E-02   -0.18749E-02 14541   0.330E-01    0.893E-01
RMM:  11    -0.624484258502E+03    0.29789E-02   -0.95832E-03 14312   0.242E-01    0.240E-01
RMM:  12    -0.624484902442E+03   -0.64394E-03   -0.71437E-03 13501   0.150E-01    0.294E-01
RMM:  13    -0.624484693692E+03    0.20875E-03   -0.31445E-03 13599   0.126E-01    0.978E-02
RMM:  14    -0.624484901181E+03   -0.20749E-03   -0.24610E-03 13389   0.795E-02    0.711E-02
RMM:  15    -0.624485008253E+03   -0.10707E-03   -0.12794E-03 13099   0.771E-02    0.410E-02
RMM:  16    -0.624485082710E+03   -0.74457E-04   -0.96960E-04 12300   0.571E-02    0.197E-02
RMM:  17    -0.624485123765E+03   -0.41055E-04   -0.56744E-04 11685   0.482E-02    0.126E-02
RMM:  18    -0.624485153742E+03   -0.29977E-04   -0.38002E-04 11388   0.374E-02    0.977E-03
RMM:  19    -0.624485172245E+03   -0.18503E-04   -0.24008E-04 11212   0.307E-02    0.691E-03
RMM:  20    -0.624485184497E+03   -0.12253E-04   -0.15891E-04 11043   0.255E-02    0.386E-03
RMM:  21    -0.624485191852E+03   -0.73549E-05   -0.97891E-05 10381   0.215E-02
   6 F= -.62448519E+03 E0= -.62440928E+03  d E =-.315357E+00
       N       E                     dE             d eps       ncg     rms          rms(c)
DAV:   1    -0.624052076512E+03    0.43311E+00   -0.24781E+01  9720   0.274E+01    0.204E+00
RMM:   2    -0.625099899451E+03   -0.10478E+01   -0.55769E+00 14227   0.588E+00    0.982E+00
RMM:   3    -0.624589920800E+03    0.50998E+00   -0.51972E-01 11225   0.308E+00    0.362E+00
RMM:   4    -0.624564556885E+03    0.25364E-01   -0.20585E-01 13795   0.119E+00    0.224E+00
RMM:   5    -0.624542997674E+03    0.21559E-01   -0.56816E-02 13758   0.644E-01    0.132E+00
RMM:   6    -0.624538317666E+03    0.46800E-02   -0.24691E-02 14045   0.399E-01    0.905E-01
RMM:   7    -0.624535416348E+03    0.29013E-02   -0.15487E-02 14128   0.299E-01    0.747E-01
RMM:   8    -0.624538399253E+03   -0.29829E-02   -0.11028E-02 13488   0.346E-01    0.114E+00
RMM:   9    -0.624532722566E+03    0.56767E-02   -0.10112E-02 14022   0.292E-01    0.442E-01
RMM:  10    -0.624532915331E+03   -0.19277E-03   -0.54439E-03 14192   0.187E-01    0.433E-01
RMM:  11    -0.624532247769E+03    0.66756E-03   -0.30280E-03 13526   0.123E-01    0.883E-02
RMM:  12    -0.624532476496E+03   -0.22873E-03   -0.21910E-03 12653   0.865E-02    0.151E-01
RMM:  13    -0.624532431208E+03    0.45287E-04   -0.91132E-04 12538   0.694E-02    0.598E-02
RMM:  14    -0.624532490614E+03   -0.59406E-04   -0.76332E-04 11860   0.456E-02    0.396E-02
RMM:  15    -0.624532521894E+03   -0.31279E-04   -0.42556E-04 11777   0.435E-02    0.229E-02
RMM:  16    -0.624532540603E+03   -0.18709E-04   -0.30649E-04 11406   0.362E-02    0.900E-03
RMM:  17    -0.624532554138E+03   -0.13535E-04   -0.19047E-04 11062   0.305E-02    0.637E-03
RMM:  18    -0.624532563612E+03   -0.94733E-05   -0.12210E-04 10588   0.246E-02    0.539E-03
RMM:  19    -0.624532569099E+03   -0.54877E-05   -0.74717E-05  9981   0.207E-02
   7 F= -.62453257E+03 E0= -.62445829E+03  d E =-.362735E+00
       N       E                     dE             d eps       ncg     rms          rms(c)
DAV:   1    -0.622879065914E+03    0.16535E+01   -0.11118E+02 11904   0.635E+01    0.742E+00
RMM:   2    -0.633368907586E+03   -0.10490E+02   -0.34320E+01 11695   0.186E+01    0.321E+01
RMM:   3    -0.624846344273E+03    0.85226E+01   -0.55227E+00 11460   0.932E+00    0.583E+00
RMM:   4    -0.624967239782E+03   -0.12090E+00   -0.16418E+00 14220   0.297E+00    0.664E+00
RMM:   5    -0.624746033788E+03    0.22121E+00   -0.29276E-01 13182   0.185E+00    0.301E+00
RMM:   6    -0.624748505580E+03   -0.24718E-02   -0.17520E-01 13700   0.113E+00    0.371E+00
RMM:   7    -0.624678721223E+03    0.69784E-01   -0.11872E-01 13457   0.109E+00    0.179E+00
RMM:   8    -0.624739257995E+03   -0.60537E-01   -0.11043E-01 13020   0.105E+00    0.398E+00
RMM:   9    -0.624659603035E+03    0.79655E-01   -0.68940E-02 12969   0.894E-01    0.846E-01
RMM:  10    -0.624662933402E+03   -0.33304E-02   -0.38590E-02 14631   0.414E-01    0.103E+00
RMM:  11    -0.624659203202E+03    0.37302E-02   -0.14217E-02 14431   0.307E-01    0.341E-01
RMM:  12    -0.624660437835E+03   -0.12346E-02   -0.11900E-02 14081   0.180E-01    0.414E-01
RMM:  13    -0.624660206264E+03    0.23157E-03   -0.46582E-03 14290   0.160E-01    0.175E-01
RMM:  14    -0.624660871665E+03   -0.66540E-03   -0.40671E-03 14342   0.101E-01    0.136E-01
RMM:  15    -0.624661353431E+03   -0.48177E-03   -0.24268E-03 13847   0.104E-01    0.691E-02
RMM:  16    -0.624661626100E+03   -0.27267E-03   -0.21597E-03 13401   0.858E-02    0.319E-02
RMM:  17    -0.624661718019E+03   -0.91918E-04   -0.12009E-03 12681   0.711E-02    0.261E-02
RMM:  18    -0.624661786042E+03   -0.68024E-04   -0.82198E-04 11808   0.509E-02    0.228E-02
RMM:  19    -0.624661823311E+03   -0.37268E-04   -0.47133E-04 11563   0.417E-02    0.180E-02
RMM:  20    -0.624661852395E+03   -0.29084E-04   -0.31695E-04 11008   0.335E-02    0.102E-02
RMM:  21    -0.624661870437E+03   -0.18042E-04   -0.19755E-04 11115   0.284E-02    0.369E-03
RMM:  22    -0.624661880262E+03   -0.98250E-05   -0.12888E-04 10682   0.240E-02    0.324E-03
RMM:  23    -0.624661886496E+03   -0.62335E-05   -0.78589E-05 10036   0.196E-02
   8 F= -.62466189E+03 E0= -.62459313E+03  d E =-.129317E+00
       N       E                     dE             d eps       ncg     rms          rms(c)
DAV:   1    -0.624602489111E+03    0.59391E-01   -0.38889E+00 12456   0.119E+01    0.144E+00
RMM:   2    -0.625005652679E+03   -0.40316E+00   -0.11102E+00 12257   0.319E+00    0.720E+00
RMM:   3    -0.624706337976E+03    0.29931E+00   -0.20668E-01 11182   0.175E+00    0.266E+00
RMM:   4    -0.624679061005E+03    0.27277E-01   -0.57774E-02 13683   0.663E-01    0.109E+00
RMM:   5    -0.624673597688E+03    0.54633E-02   -0.16763E-02 13574   0.354E-01    0.691E-01
RMM:   6    -0.624672988681E+03    0.60901E-03   -0.63411E-03 12672   0.250E-01    0.705E-01
RMM:   7    -0.624670389859E+03    0.25988E-02   -0.45368E-03 13404   0.204E-01    0.340E-01
RMM:   8    -0.624672003908E+03   -0.16140E-02   -0.32669E-03 12727   0.187E-01    0.674E-01
RMM:   9    -0.624669823009E+03    0.21809E-02   -0.22605E-03 13281   0.153E-01    0.183E-01
RMM:  10    -0.624669922988E+03   -0.99979E-04   -0.11426E-03 12697   0.882E-02    0.222E-01
RMM:  11    -0.624669719194E+03    0.20379E-03   -0.51200E-04 12492   0.588E-02    0.459E-02
RMM:  12    -0.624669758905E+03   -0.39710E-04   -0.35338E-04 11954   0.365E-02    0.736E-02
RMM:  13    -0.624669743407E+03    0.15498E-04   -0.14284E-04 11662   0.323E-02    0.309E-02
RMM:  14    -0.624669753475E+03   -0.10068E-04   -0.12184E-04 10280   0.209E-02    0.204E-02
RMM:  15    -0.624669759620E+03   -0.61451E-05   -0.98792E-05 10921   0.233E-02
   9 F= -.62466976E+03 E0= -.62459997E+03  d E =-.137191E+00
       N       E                     dE             d eps       ncg     rms          rms(c)
DAV:   1    -0.623145449436E+03    0.15243E+01   -0.83134E+01 10296   0.531E+01    0.457E+00
RMM:   2    -0.627642818574E+03   -0.44974E+01   -0.19456E+01 14123   0.115E+01    0.195E+01
RMM:   3    -0.624913417459E+03    0.27294E+01   -0.22408E+00 11169   0.611E+00    0.509E+00
RMM:   4    -0.624912624396E+03    0.79306E-03   -0.77931E-01 13935   0.228E+00    0.473E+00
RMM:   5    -0.624799689613E+03    0.11293E+00   -0.18703E-01 13683   0.126E+00    0.173E+00
RMM:   6    -0.624810313575E+03   -0.10624E-01   -0.88766E-02 14214   0.763E-01    0.246E+00
RMM:   7    -0.624782315494E+03    0.27998E-01   -0.52591E-02 14100   0.654E-01    0.106E+00
RMM:   8    -0.624804989243E+03   -0.22674E-01   -0.48791E-02 13906   0.630E-01    0.249E+00
RMM:   9    -0.624774656242E+03    0.30333E-01   -0.29506E-02 13925   0.546E-01    0.554E-01
RMM:  10    -0.624779244043E+03   -0.45878E-02   -0.19101E-02 14775   0.320E-01    0.105E+00
RMM:  11    -0.624774652367E+03    0.45917E-02   -0.89428E-03 14212   0.253E-01    0.180E-01
RMM:  12    -0.624775417277E+03   -0.76491E-03   -0.72132E-03 14034   0.136E-01    0.278E-01
RMM:  13    -0.624775229977E+03    0.18730E-03   -0.25004E-03 13494   0.131E-01    0.117E-01
RMM:  14    -0.624775495547E+03   -0.26557E-03   -0.26818E-03 13653   0.762E-02    0.740E-02
RMM:  15    -0.624775617023E+03   -0.12148E-03   -0.12480E-03 13301   0.767E-02    0.404E-02
RMM:  16    -0.624775692930E+03   -0.75907E-04   -0.96568E-04 12641   0.600E-02    0.171E-02
RMM:  17    -0.624775734657E+03   -0.41727E-04   -0.56711E-04 11998   0.492E-02    0.146E-02
RMM:  18    -0.624775764245E+03   -0.29588E-04   -0.38421E-04 11444   0.389E-02    0.108E-02
RMM:  19    -0.624775780160E+03   -0.15915E-04   -0.22418E-04 11218   0.319E-02    0.811E-03
RMM:  20    -0.624775791645E+03   -0.11485E-04   -0.15208E-04 11038   0.252E-02    0.320E-03
RMM:  21    -0.624775798532E+03   -0.68872E-05   -0.91590E-05 10417   0.216E-02
  10 F= -.62477580E+03 E0= -.62470953E+03  d E =-.106039E+00
       N       E                     dE             d eps       ncg     rms          rms(c)
DAV:   1    -0.624772714923E+03    0.30767E-02   -0.16028E-01 11256   0.238E+00    0.213E-01
RMM:   2    -0.624783755037E+03   -0.11040E-01   -0.43666E-02 13737   0.550E-01    0.113E+00
RMM:   3    -0.624776849633E+03    0.69054E-02   -0.55957E-03 11063   0.295E-01    0.414E-01
RMM:   4    -0.624776206084E+03    0.64355E-03   -0.17154E-03 12256   0.114E-01    0.146E-01
RMM:   5    -0.624776127622E+03    0.78462E-04   -0.49383E-04 11852   0.565E-02    0.130E-01
RMM:   6    -0.624776065187E+03    0.62435E-04   -0.13362E-04  9873   0.405E-02    0.745E-02
RMM:   7    -0.624776042191E+03    0.22995E-04   -0.11655E-04 10477   0.296E-02    0.604E-02
RMM:   8    -0.624776066343E+03   -0.24152E-04   -0.73804E-05  7481   0.335E-02    0.952E-02
RMM:   9    -0.624776018492E+03    0.47851E-04   -0.69304E-05  7828   0.277E-02    0.271E-02
RMM:  10    -0.624776022909E+03   -0.44169E-05   -0.25731E-05  5838   0.211E-02
  11 F= -.62477602E+03 E0= -.62470959E+03  d E =-.106263E+00
       N       E                     dE             d eps       ncg     rms          rms(c)
DAV:   1    -0.624313712365E+03    0.46231E+00   -0.24743E+01 10080   0.285E+01    0.130E+00
RMM:   2    -0.624838183906E+03   -0.52447E+00   -0.52850E+00 14060   0.590E+00    0.267E+00
RMM:   3    -0.624847678526E+03   -0.94946E-02   -0.43280E-01 11895   0.256E+00    0.207E+00
RMM:   4    -0.624850393452E+03   -0.27149E-02   -0.15175E-01 14158   0.943E-01    0.155E+00
RMM:   5    -0.624837944341E+03    0.12449E-01   -0.32010E-02 13568   0.585E-01    0.596E-01
RMM:   6    -0.624840461309E+03   -0.25170E-02   -0.21519E-02 14005   0.315E-01    0.881E-01
RMM:   7    -0.624837712607E+03    0.27487E-02   -0.11690E-02 13867   0.332E-01    0.656E-01
RMM:   8    -0.624839402782E+03   -0.16902E-02   -0.94858E-03 13662   0.265E-01    0.894E-01
RMM:   9    -0.624835684770E+03    0.37180E-02   -0.55554E-03 13686   0.229E-01    0.170E-01
RMM:  10    -0.624836286819E+03   -0.60205E-03   -0.38524E-03 12943   0.121E-01    0.335E-01
RMM:  11    -0.624835799285E+03    0.48753E-03   -0.17211E-03 12229   0.110E-01    0.558E-02
RMM:  12    -0.624835908016E+03   -0.10873E-03   -0.15209E-03 12437   0.623E-02    0.738E-02
RMM:  13    -0.624835941346E+03   -0.33330E-04   -0.60729E-04 11720   0.623E-02    0.681E-02
RMM:  14    -0.624835962231E+03   -0.20885E-04   -0.52863E-04 11388   0.417E-02    0.170E-02
RMM:  15    -0.624835983949E+03   -0.21718E-04   -0.28651E-04 10987   0.359E-02    0.113E-02
RMM:  16    -0.624836000008E+03   -0.16059E-04   -0.19591E-04 10656   0.281E-02    0.631E-03
RMM:  17    -0.624836009021E+03   -0.90127E-05   -0.11987E-04 10303   0.240E-02    0.320E-03
RMM:  18    -0.624836015425E+03   -0.64042E-05   -0.79669E-05  9928   0.192E-02
  12 F= -.62483602E+03 E0= -.62477224E+03  d E =-.599925E-01
       N       E                     dE             d eps       ncg     rms          rms(c)
DAV:   1    -0.624730572155E+03    0.10544E+00   -0.49662E+00  9888   0.129E+01    0.585E-01
RMM:   2    -0.624839578022E+03   -0.10901E+00   -0.11035E+00 14083   0.271E+00    0.112E+00
RMM:   3    -0.624846246910E+03   -0.66689E-02   -0.10576E-01 12225   0.117E+00    0.106E+00
RMM:   4    -0.624844395949E+03    0.18510E-02   -0.29344E-02 14113   0.425E-01    0.540E-01
RMM:   5    -0.624843492793E+03    0.90316E-03   -0.69214E-03 13448   0.258E-01    0.319E-01
RMM:   6    -0.624843884990E+03   -0.39220E-03   -0.41554E-03 13224   0.142E-01    0.416E-01
RMM:   7    -0.624843290279E+03    0.59471E-03   -0.21359E-03 13382   0.142E-01    0.260E-01
RMM:   8    -0.624843559425E+03   -0.26915E-03   -0.21457E-03 13302   0.134E-01    0.350E-01
RMM:   9    -0.624842872489E+03    0.68694E-03   -0.11868E-03 13057   0.110E-01    0.464E-02
RMM:  10    -0.624842936130E+03   -0.63641E-04   -0.83246E-04 11575   0.508E-02    0.721E-02
RMM:  11    -0.624842934868E+03    0.12622E-05   -0.31323E-04 11299   0.467E-02    0.435E-02
RMM:  12    -0.624842946776E+03   -0.11908E-04   -0.29034E-04 10801   0.296E-02    0.209E-02
RMM:  13    -0.624842963456E+03   -0.16681E-04   -0.15341E-04 10778   0.289E-02    0.404E-02
RMM:  14    -0.625261168179E+03   -0.41820E+00   -0.41822E+00 10412   0.233E-02    0.694E-01
RMM:  15    -0.624451353596E+03    0.80981E+00   -0.83029E-05  9980   0.218E-02    0.177E-01
RMM:  16    -0.624451111022E+03    0.24257E-03   -0.43010E-05  9051   0.215E-02    0.172E-01
RMM:  17    -0.624451110556E+03    0.46597E-06   -0.20966E-05  7283   0.136E-02
  13 F= -.62445111E+03 E0= -.62438838E+03  d E =0.324912E+00
       N       E                     dE             d eps       ncg     rms          rms(c)
DAV:   1    -0.623936376255E+03    0.51473E+00   -0.26913E+01 11712   0.315E+01    0.255E+00
RMM:   2    -0.625312716350E+03   -0.13763E+01   -0.67667E+00 13744   0.667E+00    0.112E+01
RMM:   3    -0.624553778944E+03    0.75894E+00   -0.75827E-01 11004   0.347E+00    0.381E+00
RMM:   4    -0.624516467847E+03    0.37311E-01   -0.25269E-01 14100   0.129E+00    0.242E+00
RMM:   5    -0.624489635476E+03    0.26832E-01   -0.62715E-02 13445   0.714E-01    0.125E+00
RMM:   6    -0.624487331961E+03    0.23035E-02   -0.29252E-02 13877   0.449E-01    0.115E+00
RMM:   7    -0.624480964407E+03    0.63676E-02   -0.17891E-02 14177   0.356E-01    0.602E-01
RMM:   8    -0.624653034170E+03   -0.17207E+00   -0.78008E-02 13611   0.376E-01    0.130E+00
RMM:   9    -0.624783010997E+03   -0.12998E+00   -0.11167E+00 13847   0.356E-01    0.395E-01
RMM:  10    -0.624820409692E+03   -0.37399E-01   -0.39541E-01 14419   0.190E-01    0.389E-01
RMM:  11    -0.624850022514E+03   -0.29613E-01   -0.30748E-01 13390   0.151E-01    0.129E-01
RMM:  12    -0.624856531366E+03   -0.65089E-02   -0.71324E-02 12749   0.125E-01    0.217E-01
RMM:  13    -0.624865357453E+03   -0.88261E-02   -0.93615E-02 12611   0.923E-02    0.779E-02
RMM:  14    -0.624865840876E+03   -0.48342E-03   -0.10897E-02 12340   0.561E-02    0.504E-02
RMM:  15    -0.624867044034E+03   -0.12032E-02   -0.12132E-02 12371   0.528E-02    0.260E-02
RMM:  16    -0.624866940967E+03    0.10307E-03   -0.10817E-03 11640   0.407E-02    0.150E-02
RMM:  17    -0.624867111173E+03   -0.17021E-03   -0.17729E-03 11419   0.345E-02    0.100E-02
RMM:  18    -0.624867141506E+03   -0.30333E-04   -0.54934E-04 10838   0.269E-02    0.779E-03
RMM:  19    -0.624867178701E+03   -0.37195E-04   -0.42633E-04 10400   0.246E-02    0.525E-03
RMM:  20    -0.624867194651E+03   -0.15950E-04   -0.22039E-04  9441   0.196E-02    0.289E-03
RMM:  21    -0.624867207322E+03   -0.12671E-04   -0.15773E-04  8754   0.176E-02    0.158E-03
RMM:  22    -0.624867214051E+03   -0.67292E-05   -0.92052E-05  7810   0.162E-02
  14 F= -.62486721E+03 E0= -.62480573E+03  d E =-.416103E+00
       N       E                     dE             d eps       ncg     rms          rms(c)
DAV:   1    -0.624867233000E+03   -0.25678E-04   -0.21232E-04 12336   0.324E-02    0.647E-03
RMM:   2    -0.624867233557E+03   -0.55689E-06   -0.10784E-05  5194   0.106E-02
  15 F= -.62486723E+03 E0= -.62480575E+03  d E =-.416123E+00
       N       E                     dE             d eps       ncg     rms          rms(c)
DAV:   1    -0.624701458960E+03    0.16577E+00   -0.85048E+00 12024   0.182E+01    0.147E+00
RMM:   2    -0.625203058593E+03   -0.50160E+00   -0.23744E+00 13482   0.401E+00    0.671E+00
RMM:   3    -0.624909238878E+03    0.29382E+00   -0.31609E-01 10994   0.227E+00    0.223E+00
RMM:   4    -0.624899135506E+03    0.10103E-01   -0.94640E-02 13966   0.784E-01    0.128E+00
RMM:   5    -0.624891431191E+03    0.77043E-02   -0.23364E-02 13629   0.409E-01    0.665E-01
RMM:   6    -0.624891083690E+03    0.34750E-03   -0.77895E-03 13704   0.246E-01    0.679E-01
RMM:   7    -0.624888751398E+03    0.23323E-02   -0.52871E-03 13991   0.193E-01    0.329E-01
RMM:   8    -0.624891771020E+03   -0.30196E-02   -0.50185E-03 13313   0.231E-01    0.862E-01
RMM:   9    -0.624888007793E+03    0.37632E-02   -0.31506E-03 13219   0.192E-01    0.165E-01
RMM:  10    -0.624888162186E+03   -0.15439E-03   -0.18510E-03 13287   0.939E-02    0.203E-01
RMM:  11    -0.624888012149E+03    0.15004E-03   -0.75387E-04 12605   0.782E-02    0.482E-02
RMM:  12    -0.624888082206E+03   -0.70057E-04   -0.60704E-04 11904   0.428E-02    0.635E-02
RMM:  13    -0.624888091774E+03   -0.95676E-05   -0.24904E-04 11705   0.405E-02    0.423E-02
RMM:  14    -0.624888123188E+03   -0.31415E-04   -0.21879E-04 10983   0.280E-02    0.230E-02
RMM:  15    -0.624888149398E+03   -0.26210E-04   -0.14795E-04 11115   0.272E-02    0.126E-02
RMM:  16    -0.624888162283E+03   -0.12885E-04   -0.10163E-04 10803   0.243E-02    0.519E-03
RMM:  17    -0.624888167661E+03   -0.53778E-05   -0.67028E-05  9792   0.204E-02
  16 F= -.62488817E+03 E0= -.62482744E+03  d E =-.209341E-01
       N       E                     dE             d eps       ncg     rms          rms(c)
DAV:   1    -0.624796005422E+03    0.92157E-01   -0.43606E+00 11904   0.130E+01    0.105E+00
RMM:   2    -0.625049767473E+03   -0.25376E+00   -0.12095E+00 13533   0.285E+00    0.477E+00
RMM:   3    -0.624903567129E+03    0.14620E+00   -0.16190E-01 10953   0.163E+00    0.163E+00
RMM:   4    -0.624897600793E+03    0.59663E-02   -0.47683E-02 13917   0.571E-01    0.900E-01
RMM:   5    -0.624893953965E+03    0.36468E-02   -0.12867E-02 13567   0.300E-01    0.485E-01
RMM:   6    -0.624893688288E+03    0.26568E-03   -0.40452E-03 13416   0.180E-01    0.472E-01
RMM:   7    -0.624892530782E+03    0.11575E-02   -0.27440E-03 13943   0.138E-01    0.220E-01
RMM:   8    -0.624894169143E+03   -0.16384E-02   -0.26351E-03 13294   0.167E-01    0.632E-01
RMM:   9    -0.624892183379E+03    0.19858E-02   -0.16002E-03 13029   0.139E-01    0.961E-02
RMM:  10    -0.624892301239E+03   -0.11786E-03   -0.97139E-04 12731   0.683E-02    0.150E-01
RMM:  11    -0.624892218084E+03    0.83155E-04   -0.40199E-04 12303   0.587E-02    0.351E-02
RMM:  12    -0.624892252536E+03   -0.34452E-04   -0.31018E-04 11271   0.305E-02    0.359E-02
RMM:  13    -0.624892266563E+03   -0.14027E-04   -0.14544E-04 11302   0.294E-02    0.356E-02
RMM:  14    -0.624892283986E+03   -0.17423E-04   -0.12360E-04 10572   0.225E-02    0.164E-02
RMM:  15    -0.624892299092E+03   -0.15105E-04   -0.84140E-05 10436   0.222E-02    0.904E-03
RMM:  16    -0.624892306314E+03   -0.72226E-05   -0.56788E-05  9681   0.194E-02
  17 F= -.62489231E+03 E0= -.62483206E+03  d E =-.250728E-01
       N       E                     dE             d eps       ncg     rms          rms(c)
DAV:   1    -0.624892280582E+03    0.18509E-04   -0.70441E-01 12456   0.448E+00    0.512E-01
RMM:   2    -0.624941949022E+03   -0.49668E-01   -0.14561E-01 12645   0.119E+00    0.253E+00
RMM:   3    -0.624904696582E+03    0.37252E-01   -0.25614E-02 11207   0.683E-01    0.902E-01
RMM:   4    -0.624901560960E+03    0.31356E-02   -0.80976E-03 13874   0.252E-01    0.336E-01
RMM:   5    -0.624900921561E+03    0.63940E-03   -0.24939E-03 13360   0.136E-01    0.216E-01
RMM:   6    -0.624900987871E+03   -0.66310E-04   -0.98437E-04 12560   0.981E-02    0.269E-01
RMM:   7    -0.624900661081E+03    0.32679E-03   -0.77058E-04 13274   0.823E-02    0.130E-01
RMM:   8    -0.624900862411E+03   -0.20133E-03   -0.55075E-04 12338   0.779E-02    0.231E-01
RMM:   9    -0.624900596132E+03    0.26628E-03   -0.31894E-04 12102   0.603E-02    0.467E-02
RMM:  10    -0.624900623498E+03   -0.27366E-04   -0.23530E-04 11810   0.345E-02    0.671E-02
RMM:  11    -0.624900609935E+03    0.13563E-04   -0.93228E-05 11042   0.289E-02    0.164E-02
RMM:  12    -0.624900619993E+03   -0.10058E-04   -0.67028E-05  9516   0.171E-02    0.182E-02
RMM:  13    -0.624900623938E+03   -0.39450E-05   -0.40203E-05  8979   0.165E-02
  18 F= -.62490062E+03 E0= -.62484038E+03  d E =-.831762E-02
       N       E                     dE             d eps       ncg     rms          rms(c)
DAV:   1    -0.624871377280E+03    0.29243E-01   -0.30490E+00 12408   0.932E+00    0.107E+00
RMM:   2    -0.625084607444E+03   -0.21323E+00   -0.63799E-01 12627   0.249E+00    0.515E+00
RMM:   3    -0.624922963319E+03    0.16164E+00   -0.11067E-01 11299   0.142E+00    0.176E+00
RMM:   4    -0.624911790584E+03    0.11173E-01   -0.35452E-02 14142   0.516E-01    0.723E-01
RMM:   5    -0.624908681688E+03    0.31089E-02   -0.10460E-02 13635   0.282E-01    0.401E-01
RMM:   6    -0.624909411209E+03   -0.72952E-03   -0.44304E-03 13640   0.201E-01    0.606E-01
RMM:   7    -0.624907709994E+03    0.17012E-02   -0.33123E-03 13668   0.173E-01    0.254E-01
RMM:   8    -0.624908763494E+03   -0.10535E-02   -0.25353E-03 13379   0.153E-01    0.507E-01
RMM:   9    -0.624907458662E+03    0.13048E-02   -0.13426E-03 12833   0.124E-01    0.932E-02
RMM:  10    -0.624907585189E+03   -0.12653E-03   -0.10840E-03 12383   0.637E-02    0.140E-01
RMM:  11    -0.624907519125E+03    0.66064E-04   -0.41399E-04 12147   0.582E-02    0.344E-02
RMM:  12    -0.624907560666E+03   -0.41541E-04   -0.35465E-04 11346   0.306E-02    0.336E-02
RMM:  13    -0.624907576905E+03   -0.16239E-04   -0.16394E-04 11358   0.308E-02    0.346E-02
RMM:  14    -0.624907594971E+03   -0.18066E-04   -0.13900E-04 10721   0.227E-02    0.154E-02
RMM:  15    -0.624907610663E+03   -0.15692E-04   -0.95162E-05 10564   0.223E-02    0.884E-03
RMM:  16    -0.624907618397E+03   -0.77333E-05   -0.67198E-05  9936   0.204E-02
  19 F= -.62490762E+03 E0= -.62484736E+03  d E =-.153121E-01
       N       E                     dE             d eps       ncg     rms          rms(c)
DAV:   1    -0.624902082622E+03    0.55280E-02   -0.12602E+00 12576   0.651E+00    0.979E-01
RMM:   2    -0.625054691571E+03   -0.15261E+00   -0.34244E-01 12083   0.201E+00    0.446E+00
RMM:   3    -0.624925075352E+03    0.12962E+00   -0.76760E-02 11491   0.113E+00    0.140E+00
RMM:   4    -0.624917814719E+03    0.72606E-02   -0.19700E-02 13534   0.413E-01    0.731E-01
RMM:   5    -0.624915857821E+03    0.19569E-02   -0.64822E-03 13552   0.232E-01    0.541E-01
RMM:   6    -0.624915081937E+03    0.77588E-03   -0.30040E-03 12784   0.177E-01    0.417E-01
RMM:   7    -0.624913985803E+03    0.10961E-02   -0.22554E-03 13762   0.135E-01    0.137E-01
RMM:   8    -0.624914789801E+03   -0.80400E-03   -0.15072E-03 13239   0.129E-01    0.414E-01
RMM:   9    -0.624913907723E+03    0.88208E-03   -0.79044E-04 12332   0.973E-02    0.902E-02
RMM:  10    -0.624913987383E+03   -0.79660E-04   -0.52948E-04 12209   0.557E-02    0.141E-01
RMM:  11    -0.624913901209E+03    0.86174E-04   -0.21702E-04 11865   0.427E-02    0.266E-02
RMM:  12    -0.624913914266E+03   -0.13057E-04   -0.17187E-04 10967   0.244E-02    0.351E-02
RMM:  13    -0.624913914409E+03   -0.14339E-06   -0.78472E-05 10621   0.243E-02
  20 F= -.62491391E+03 E0= -.62485334E+03  d E =-.629601E-02
       N       E                     dE             d eps       ncg     rms          rms(c)
DAV:   1    -0.624909023329E+03    0.48909E-02   -0.66781E-01 12576   0.474E+00    0.716E-01
RMM:   2    -0.624991792286E+03   -0.82769E-01   -0.18350E-01 12042   0.147E+00    0.329E+00
RMM:   3    -0.624921245448E+03    0.70547E-01   -0.41126E-02 11432   0.830E-01    0.102E+00
RMM:   4    -0.624917346394E+03    0.38991E-02   -0.10373E-02 13409   0.300E-01    0.521E-01
RMM:   5    -0.624916371097E+03    0.97530E-03   -0.34126E-03 13464   0.167E-01    0.392E-01
RMM:   6    -0.624915956675E+03    0.41442E-03   -0.15338E-03 12480   0.128E-01    0.297E-01
RMM:   7    -0.624915413613E+03    0.54306E-03   -0.12264E-03 13784   0.982E-02    0.100E-01
RMM:   8    -0.624915823170E+03   -0.40956E-03   -0.79580E-04 12996   0.945E-02    0.294E-01
RMM:   9    -0.624915382102E+03    0.44107E-03   -0.43549E-04 11854   0.718E-02    0.651E-02
RMM:  10    -0.624915422643E+03   -0.40541E-04   -0.30828E-04 11881   0.424E-02    0.967E-02
RMM:  11    -0.624915384371E+03    0.38272E-04   -0.12840E-04 11644   0.327E-02    0.218E-02
RMM:  12    -0.624915391662E+03   -0.72911E-05   -0.96681E-05 10249   0.192E-02
  21 F= -.62491539E+03 E0= -.62485456E+03  d E =-.777326E-02
       N       E                     dE             d eps       ncg     rms          rms(c)
DAV:   1    -0.624896270553E+03    0.19114E-01   -0.96758E-01  9864   0.600E+00    0.281E-01
RMM:   2    -0.624925138110E+03   -0.28868E-01   -0.24536E-01 14234   0.115E+00    0.106E+00
RMM:   3    -0.624920542348E+03    0.45958E-02   -0.18069E-02 11250   0.568E-01    0.463E-01
RMM:   4    -0.624920803440E+03   -0.26109E-03   -0.66043E-03 13583   0.211E-01    0.395E-01
RMM:   5    -0.624919896660E+03    0.90678E-03   -0.15812E-03 12430   0.135E-01    0.125E-01
RMM:   6    -0.624920026193E+03   -0.12953E-03   -0.11032E-03 12102   0.657E-02    0.188E-01
RMM:   7    -0.624919877545E+03    0.14865E-03   -0.47542E-04 12570   0.651E-02    0.836E-02
RMM:   8    -0.624919940584E+03   -0.63039E-04   -0.47098E-04 12651   0.603E-02    0.148E-01
RMM:   9    -0.624919829659E+03    0.11093E-03   -0.19432E-04 11084   0.494E-02    0.305E-02
RMM:  10    -0.624919845012E+03   -0.15353E-04   -0.16893E-04 10854   0.286E-02    0.379E-02
RMM:  11    -0.624919845788E+03   -0.77552E-06   -0.73020E-05 10391   0.274E-02
  22 F= -.62491985E+03 E0= -.62485897E+03  d E =-.445413E-02
       N       E                     dE             d eps       ncg     rms          rms(c)
DAV:   1    -0.624880676456E+03    0.39169E-01   -0.17078E+00  9840   0.798E+00    0.379E-01
RMM:   2    -0.624932965193E+03   -0.52289E-01   -0.43792E-01 14224   0.154E+00    0.145E+00
RMM:   3    -0.624923944480E+03    0.90207E-02   -0.32802E-02 11143   0.753E-01    0.624E-01
RMM:   4    -0.624924355294E+03   -0.41081E-03   -0.11737E-02 13762   0.279E-01    0.528E-01
RMM:   5    -0.624922748609E+03    0.16067E-02   -0.27833E-03 12674   0.175E-01    0.162E-01
RMM:   6    -0.624922968579E+03   -0.21997E-03   -0.19307E-03 12453   0.868E-02    0.240E-01
RMM:   7    -0.624922741960E+03    0.22662E-03   -0.85482E-04 13073   0.847E-02    0.120E-01
RMM:   8    -0.624922939305E+03   -0.19734E-03   -0.79563E-04 12838   0.795E-02    0.232E-01
RMM:   9    -0.624922657971E+03    0.28133E-03   -0.39476E-04 12207   0.670E-02    0.291E-02
RMM:  10    -0.624922680550E+03   -0.22578E-04   -0.29610E-04 11025   0.349E-02    0.220E-02
RMM:  11    -0.624922699494E+03   -0.18945E-04   -0.12826E-04 11059   0.325E-02    0.495E-02
RMM:  12    -0.624922697270E+03    0.22247E-05   -0.10631E-04 10337   0.226E-02    0.115E-02
RMM:  13    -0.624922706312E+03   -0.90426E-05   -0.71739E-05 10127   0.202E-02
  23 F= -.62492271E+03 E0= -.62486183E+03  d E =-.731465E-02
       N       E                     dE             d eps       ncg     rms          rms(c)
DAV:   1    -0.624919176832E+03    0.35204E-02   -0.15261E-01 10128   0.238E+00    0.112E-01
RMM:   2    -0.624923731609E+03   -0.45548E-02   -0.38658E-02 14170   0.452E-01    0.414E-01
RMM:   3    -0.624922975052E+03    0.75656E-03   -0.26804E-03 10934   0.228E-01    0.187E-01
RMM:   4    -0.624923021231E+03   -0.46178E-04   -0.11265E-03 12408   0.866E-02    0.159E-01
RMM:   5    -0.624922882326E+03    0.13890E-03   -0.27460E-04 11445   0.568E-02    0.499E-02
RMM:   6    -0.624922902735E+03   -0.20409E-04   -0.19854E-04 11159   0.296E-02    0.684E-02
RMM:   7    -0.624922886314E+03    0.16421E-04   -0.88984E-05 10872   0.299E-02    0.364E-02
RMM:   8    -0.624922904799E+03   -0.18485E-04   -0.81977E-05 10747   0.250E-02    0.671E-02
RMM:   9    -0.624922881883E+03    0.22917E-04   -0.38618E-05  8759   0.234E-02    0.903E-03
RMM:  10    -0.624922885613E+03   -0.37298E-05   -0.28749E-05  7598   0.162E-02
  24 F= -.62492289E+03 E0= -.62486199E+03  d E =-.749395E-02
       N       E                     dE             d eps       ncg     rms          rms(c)
DAV:   1    -0.624885191255E+03    0.37691E-01   -0.14495E+00 10152   0.768E+00    0.317E-01
RMM:   2    -0.624925463228E+03   -0.40272E-01   -0.40584E-01 14195   0.153E+00    0.567E-01
RMM:   3    -0.624927787543E+03   -0.23243E-02   -0.33162E-02 11262   0.598E-01    0.650E-01
RMM:   4    -0.624927398856E+03    0.38869E-03   -0.86505E-03 13627   0.222E-01    0.400E-01
RMM:   5    -0.624926538364E+03    0.86049E-03   -0.18558E-03 12312   0.135E-01    0.143E-01
RMM:   6    -0.624926616176E+03   -0.77812E-04   -0.11387E-03 12152   0.671E-02    0.159E-01
RMM:   7    -0.624926504775E+03    0.11140E-03   -0.53703E-04 12647   0.685E-02    0.107E-01
RMM:   8    -0.624926584683E+03   -0.79907E-04   -0.44428E-04 11879   0.633E-02    0.166E-01
RMM:   9    -0.624926453117E+03    0.13157E-03   -0.28134E-04 12183   0.528E-02    0.459E-02
RMM:  10    -0.624926478327E+03   -0.25210E-04   -0.18557E-04 11019   0.346E-02    0.691E-02
RMM:  11    -0.624926457610E+03    0.20718E-04   -0.89917E-05 10648   0.284E-02    0.117E-02
RMM:  12    -0.624926461904E+03   -0.42945E-05   -0.60888E-05  9188   0.167E-02
  25 F= -.62492646E+03 E0= -.62486561E+03  d E =-.357629E-02
       N       E                     dE             d eps       ncg     rms          rms(c)
DAV:   1    -0.624799808068E+03    0.12665E+00   -0.44826E+00 10080   0.135E+01    0.563E-01
RMM:   2    -0.624926349332E+03   -0.12654E+00   -0.12721E+00 14205   0.272E+00    0.103E+00
RMM:   3    -0.624932953687E+03   -0.66044E-02   -0.10422E-01 11318   0.103E+00    0.113E+00
RMM:   4    -0.624932191967E+03    0.76172E-03   -0.27075E-02 13965   0.391E-01    0.726E-01
RMM:   5    -0.624929186856E+03    0.30051E-02   -0.56844E-03 13087   0.239E-01    0.237E-01
RMM:   6    -0.624929511636E+03   -0.32478E-03   -0.37396E-03 12807   0.116E-01    0.297E-01
RMM:   7    -0.624929107707E+03    0.40393E-03   -0.16897E-03 13377   0.122E-01    0.176E-01
RMM:   8    -0.624929400876E+03   -0.29317E-03   -0.14828E-03 13112   0.109E-01    0.304E-01
RMM:   9    -0.624928963473E+03    0.43740E-03   -0.80213E-04 12663   0.904E-02    0.745E-02
RMM:  10    -0.624929061711E+03   -0.98239E-04   -0.60560E-04 11548   0.544E-02    0.133E-01
RMM:  11    -0.624928982558E+03    0.79153E-04   -0.27363E-04 11357   0.487E-02    0.213E-02
RMM:  12    -0.624928995443E+03   -0.12885E-04   -0.21100E-04 10406   0.260E-02    0.129E-02
RMM:  13    -0.624929009011E+03   -0.13568E-04   -0.12896E-04 10642   0.259E-02    0.249E-02
RMM:  14    -0.624929012662E+03   -0.36506E-05   -0.82009E-05  9788   0.200E-02
  26 F= -.62492901E+03 E0= -.62486826E+03  d E =-.612705E-02
       N       E                     dE             d eps       ncg     rms          rms(c)
DAV:   1    -0.624880320338E+03    0.48689E-01   -0.21822E+00 11448   0.925E+00    0.778E-01
RMM:   2    -0.625011256602E+03   -0.13094E+00   -0.65206E-01 13878   0.208E+00    0.344E+00
RMM:   3    -0.624938420230E+03    0.72836E-01   -0.76845E-02 11149   0.104E+00    0.113E+00
RMM:   4    -0.624935453541E+03    0.29667E-02   -0.23675E-02 13990   0.385E-01    0.720E-01
RMM:   5    -0.624933157303E+03    0.22962E-02   -0.57317E-03 13214   0.221E-01    0.407E-01
RMM:   6    -0.624932778689E+03    0.37861E-03   -0.24163E-03 12752   0.138E-01    0.339E-01
RMM:   7    -0.624932159198E+03    0.61949E-03   -0.14923E-03 13643   0.108E-01    0.149E-01
RMM:   8    -0.624932894333E+03   -0.73513E-03   -0.13298E-03 13207   0.120E-01    0.421E-01
RMM:   9    -0.624932003557E+03    0.89078E-03   -0.83173E-04 12906   0.966E-02    0.992E-02
RMM:  10    -0.624932063833E+03   -0.60276E-04   -0.48927E-04 12233   0.560E-02    0.134E-01
RMM:  11    -0.624931984776E+03    0.79057E-04   -0.20969E-04 11750   0.439E-02    0.251E-02
RMM:  12    -0.624931993069E+03   -0.82932E-05   -0.16012E-04 10670   0.228E-02    0.220E-02
RMM:  13    -0.624932000146E+03   -0.70769E-05   -0.81788E-05 10427   0.229E-02
  27 F= -.62493200E+03 E0= -.62487128E+03  d E =-.298748E-02
       N       E                     dE             d eps       ncg     rms          rms(c)
DAV:   1    -0.624924481030E+03    0.75120E-02   -0.32526E-01 11664   0.358E+00    0.303E-01
RMM:   2    -0.624944546413E+03   -0.20065E-01   -0.98734E-02 13791   0.812E-01    0.134E+00
RMM:   3    -0.624933220128E+03    0.11326E-01   -0.11790E-02 11027   0.406E-01    0.432E-01
RMM:   4    -0.624932811676E+03    0.40845E-03   -0.36526E-03 13240   0.149E-01    0.272E-01
RMM:   5    -0.624932482463E+03    0.32921E-03   -0.86144E-04 12344   0.856E-02    0.150E-01
RMM:   6    -0.624932439275E+03    0.43188E-04   -0.36073E-04 11299   0.556E-02    0.131E-01
RMM:   7    -0.624932351431E+03    0.87844E-04   -0.23831E-04 12441   0.449E-02    0.585E-02
RMM:   8    -0.624932455504E+03   -0.10407E-03   -0.20728E-04 11499   0.493E-02    0.157E-01
RMM:   9    -0.624932331299E+03    0.12420E-03   -0.14117E-04 11371   0.401E-02    0.381E-02
RMM:  10    -0.624932339408E+03   -0.81090E-05   -0.86672E-05 10470   0.265E-02
  28 F= -.62493234E+03 E0= -.62487163E+03  d E =-.332675E-02
       N       E                     dE             d eps       ncg     rms          rms(c)
DAV:   1    -0.624879485888E+03    0.52845E-01   -0.21505E+00  9624   0.901E+00    0.569E-01
RMM:   2    -0.624966388562E+03   -0.86903E-01   -0.61172E-01 14308   0.187E+00    0.219E+00
RMM:   3    -0.624937953124E+03    0.28435E-01   -0.56825E-02 11239   0.912E-01    0.841E-01
RMM:   4    -0.624938010538E+03   -0.57414E-04   -0.18014E-02 13928   0.323E-01    0.704E-01
RMM:   5    -0.624935399785E+03    0.26108E-02   -0.38721E-03 12976   0.202E-01    0.226E-01
RMM:   6    -0.624935642961E+03   -0.24318E-03   -0.22335E-03 13095   0.106E-01    0.341E-01
RMM:   7    -0.624935130787E+03    0.51217E-03   -0.10373E-03 13365   0.949E-02    0.147E-01
RMM:   8    -0.624935522226E+03   -0.39144E-03   -0.12072E-03 13478   0.102E-01    0.330E-01
RMM:   9    -0.624934954946E+03    0.56728E-03   -0.61341E-04 12483   0.859E-02    0.606E-02
RMM:  10    -0.624935025141E+03   -0.70195E-04   -0.42478E-04 12100   0.480E-02    0.111E-01
RMM:  11    -0.624934975585E+03    0.49556E-04   -0.18084E-04 11398   0.424E-02    0.268E-02
RMM:  12    -0.624934986027E+03   -0.10442E-04   -0.13565E-04 10317   0.211E-02    0.156E-02
RMM:  13    -0.624934997247E+03   -0.11219E-04   -0.74075E-05 10295   0.219E-02    0.288E-02
RMM:  14    -0.624934999975E+03   -0.27280E-05   -0.53628E-05  9552   0.178E-02
  29 F= -.62493500E+03 E0= -.62487476E+03  d E =-.266057E-02
       N       E                     dE             d eps       ncg     rms          rms(c)
DAV:   1    -0.624925416965E+03    0.95803E-02   -0.37435E-01  9864   0.376E+00    0.236E-01
RMM:   2    -0.624940516164E+03   -0.15099E-01   -0.10721E-01 14283   0.782E-01    0.900E-01
RMM:   3    -0.624935729563E+03    0.47866E-02   -0.99531E-03 11033   0.378E-01    0.346E-01
RMM:   4    -0.624935762681E+03   -0.33118E-04   -0.31547E-03 13060   0.136E-01    0.296E-01
RMM:   5    -0.624935311493E+03    0.45119E-03   -0.70349E-04 12162   0.870E-02    0.945E-02
RMM:   6    -0.624935354293E+03   -0.42800E-04   -0.39683E-04 11695   0.474E-02    0.139E-01
RMM:   7    -0.624935270890E+03    0.83403E-04   -0.19219E-04 11646   0.412E-02    0.590E-02
RMM:   8    -0.624935342837E+03   -0.71947E-04   -0.21024E-04 11644   0.441E-02    0.137E-01
RMM:   9    -0.624935248793E+03    0.94043E-04   -0.10997E-04 10926   0.382E-02    0.242E-02
RMM:  10    -0.624935262317E+03   -0.13524E-04   -0.86947E-05 10483   0.242E-02    0.442E-02
RMM:  11    -0.624935255284E+03    0.70334E-05   -0.36653E-05  7380   0.231E-02
  30 F= -.62493526E+03 E0= -.62487523E+03  d E =-.291588E-02
       N       E                     dE             d eps       ncg     rms          rms(c)
DAV:   1    -0.624896706853E+03    0.38555E-01   -0.14859E+00  9456   0.733E+00    0.333E-01
RMM:   2    -0.624937789639E+03   -0.41083E-01   -0.40715E-01 14238   0.148E+00    0.656E-01
RMM:   3    -0.624938298408E+03   -0.50877E-03   -0.29733E-02 11248   0.611E-01    0.543E-01
RMM:   4    -0.624938563733E+03   -0.26533E-03   -0.92570E-03 13466   0.222E-01    0.460E-01
RMM:   5    -0.624937420023E+03    0.11437E-02   -0.18844E-03 12332   0.148E-01    0.149E-01
RMM:   6    -0.624937531517E+03   -0.11149E-03   -0.13016E-03 12196   0.740E-02    0.196E-01
RMM:   7    -0.624937363142E+03    0.16838E-03   -0.57289E-04 12599   0.734E-02    0.116E-01
RMM:   8    -0.624937530474E+03   -0.16733E-03   -0.57021E-04 12028   0.695E-02    0.229E-01
RMM:   9    -0.624937281844E+03    0.24863E-03   -0.34806E-04 12281   0.577E-02    0.489E-02
RMM:  10    -0.624937312933E+03   -0.31090E-04   -0.21550E-04 11204   0.376E-02    0.808E-02
RMM:  11    -0.624937282573E+03    0.30360E-04   -0.10384E-04 10782   0.296E-02    0.129E-02
RMM:  12    -0.624937285674E+03   -0.31010E-05   -0.71589E-05  9255   0.176E-02
  31 F= -.62493729E+03 E0= -.62487775E+03  d E =-.203039E-02
       N       E                     dE             d eps       ncg     rms          rms(c)
DAV:   1    -0.624922000636E+03    0.15282E-01   -0.57119E-01  9384   0.456E+00    0.209E-01
RMM:   2    -0.624938276228E+03   -0.16276E-01   -0.15998E-01 14219   0.927E-01    0.434E-01
RMM:   3    -0.624938307545E+03   -0.31318E-04   -0.12016E-02 11165   0.382E-01    0.326E-01
RMM:   4    -0.624938503646E+03   -0.19610E-03   -0.37564E-03 13015   0.141E-01    0.302E-01
RMM:   5    -0.624938018133E+03    0.48551E-03   -0.78085E-04 11595   0.986E-02    0.935E-02
RMM:   6    -0.624938063809E+03   -0.45676E-04   -0.57934E-04 11699   0.492E-02    0.118E-01
RMM:   7    -0.624938007518E+03    0.56292E-04   -0.24329E-04 11763   0.486E-02    0.760E-02
RMM:   8    -0.624938059224E+03   -0.51706E-04   -0.22681E-04 11457   0.418E-02    0.131E-01
RMM:   9    -0.624937977535E+03    0.81689E-04   -0.14588E-04 11336   0.378E-02    0.355E-02
RMM:  10    -0.624937985928E+03   -0.83930E-05   -0.90447E-05 10405   0.254E-02
  32 F= -.62493799E+03 E0= -.62487875E+03  d E =-.273064E-02
       N       E                     dE             d eps       ncg     rms          rms(c)
DAV:   1    -0.624874431675E+03    0.63546E-01   -0.22858E+00  9432   0.911E+00    0.417E-01
RMM:   2    -0.624938599760E+03   -0.64168E-01   -0.63623E-01 14233   0.185E+00    0.810E-01
RMM:   3    -0.624939601285E+03   -0.10015E-02   -0.48847E-02 11180   0.767E-01    0.669E-01
RMM:   4    -0.624939969786E+03   -0.36850E-03   -0.13866E-02 13567   0.275E-01    0.573E-01
RMM:   5    -0.624938220164E+03    0.17496E-02   -0.29866E-03 12623   0.182E-01    0.183E-01
RMM:   6    -0.624938391261E+03   -0.17110E-03   -0.20345E-03 12457   0.908E-02    0.241E-01
RMM:   7    -0.624938138235E+03    0.25303E-03   -0.89344E-04 12928   0.912E-02    0.139E-01
RMM:   8    -0.624938403414E+03   -0.26518E-03   -0.89952E-04 12616   0.843E-02    0.284E-01
RMM:   9    -0.624938020272E+03    0.38314E-03   -0.52769E-04 12628   0.711E-02    0.600E-02
RMM:  10    -0.624938067385E+03   -0.47113E-04   -0.34740E-04 11476   0.441E-02    0.974E-02
RMM:  11    -0.624938024912E+03    0.42473E-04   -0.16577E-04 11116   0.367E-02    0.163E-02
RMM:  12    -0.624938029699E+03   -0.47873E-05   -0.11251E-04  9693   0.210E-02    0.947E-03
RMM:  13    -0.624938034871E+03   -0.51717E-05   -0.79488E-05  9890   0.215E-02
  33 F= -.62493803E+03 E0= -.62487950E+03  d E =-.277959E-02
       N       E                     dE             d eps       ncg     rms          rms(c)
DAV:   1    -0.624921605337E+03    0.16424E-01   -0.60704E-01  9408   0.470E+00    0.214E-01
RMM:   2    -0.624938370680E+03   -0.16765E-01   -0.16640E-01 14204   0.959E-01    0.395E-01
RMM:   3    -0.624938713538E+03   -0.34286E-03   -0.12358E-02 10928   0.381E-01    0.350E-01
RMM:   4    -0.624938841252E+03   -0.12771E-03   -0.34756E-03 12826   0.143E-01    0.315E-01
RMM:   5    -0.624938292809E+03    0.54844E-03   -0.71005E-04 11330   0.964E-02    0.848E-02
RMM:   6    -0.624938346809E+03   -0.54000E-04   -0.45740E-04 11617   0.472E-02    0.135E-01
RMM:   7    -0.624938263356E+03    0.83452E-04   -0.19139E-04 11298   0.442E-02    0.672E-02
RMM:   8    -0.624938332227E+03   -0.68870E-04   -0.22950E-04 11278   0.445E-02    0.150E-01
RMM:   9    -0.624938226563E+03    0.10566E-03   -0.11243E-04 10258   0.366E-02    0.267E-02
RMM:  10    -0.624938240107E+03   -0.13544E-04   -0.68217E-05  9331   0.229E-02    0.525E-02
RMM:  11    -0.624938226698E+03    0.13409E-04   -0.29791E-05  6588   0.211E-02    0.956E-03
RMM:  12    -0.624938229197E+03   -0.24987E-05   -0.28185E-05  6531   0.153E-02
  34 F= -.62493823E+03 E0= -.62487933E+03  d E =-.297391E-02
       N       E                     dE             d eps       ncg     rms          rms(c)
DAV:   1    -0.624907243165E+03    0.30984E-01   -0.10287E+00  9072   0.593E+00    0.345E-01
RMM:   2    -0.624946923246E+03   -0.39680E-01   -0.32168E-01 14296   0.130E+00    0.126E+00
RMM:   3    -0.624940644838E+03    0.62784E-02   -0.36781E-02 10856   0.588E-01    0.487E-01
RMM:   4    -0.624941066456E+03   -0.42162E-03   -0.69136E-03 13189   0.209E-01    0.485E-01
RMM:   5    -0.624939905753E+03    0.11607E-02   -0.16309E-03 12106   0.134E-01    0.202E-01
RMM:   6    -0.624939801806E+03    0.10395E-03   -0.94120E-04 11749   0.675E-02    0.139E-01
RMM:   7    -0.624939709815E+03    0.91991E-04   -0.40442E-04 12204   0.520E-02    0.899E-02
RMM:   8    -0.624939854761E+03   -0.14495E-03   -0.37975E-04 11579   0.632E-02    0.202E-01
RMM:   9    -0.624939629408E+03    0.22535E-03   -0.27574E-04 11921   0.549E-02    0.366E-02
RMM:  10    -0.624939670933E+03   -0.41525E-04   -0.16707E-04 11015   0.331E-02    0.924E-02
RMM:  11    -0.624939633972E+03    0.36960E-04   -0.70399E-05  9902   0.271E-02    0.146E-02
RMM:  12    -0.624939636430E+03   -0.24580E-05   -0.55320E-05  8628   0.161E-02
  35 F= -.62493964E+03 E0= -.62488108E+03  d E =-.140723E-02
       N       E                     dE             d eps       ncg     rms          rms(c)
DAV:   1    -0.624932917479E+03    0.67165E-02   -0.22099E-01  9120   0.273E+00    0.159E-01
RMM:   2    -0.624941456170E+03   -0.85387E-02   -0.68660E-02 14233   0.605E-01    0.586E-01
RMM:   3    -0.624940029970E+03    0.14262E-02   -0.80281E-03 10374   0.275E-01    0.224E-01
RMM:   4    -0.624940118856E+03   -0.88886E-04   -0.15481E-03 12338   0.100E-01    0.221E-01
RMM:   5    -0.624939884962E+03    0.23389E-03   -0.39803E-04 11508   0.635E-02    0.922E-02
RMM:   6    -0.624939866337E+03    0.18625E-04   -0.22796E-04 11088   0.338E-02    0.637E-02
RMM:   7    -0.624939850123E+03    0.16214E-04   -0.10472E-04 10684   0.280E-02    0.433E-02
RMM:   8    -0.624939879459E+03   -0.29335E-04   -0.92117E-05 10331   0.296E-02    0.901E-02
RMM:   9    -0.624939834103E+03    0.45356E-04   -0.66457E-05  9850   0.274E-02    0.186E-02
RMM:  10    -0.624939843255E+03   -0.91524E-05   -0.45309E-05  8269   0.184E-02
  36 F= -.62493984E+03 E0= -.62488143E+03  d E =-.161406E-02
       N       E                     dE             d eps       ncg     rms          rms(c)
DAV:   1    -0.624923154605E+03    0.16679E-01   -0.85362E-01 11016   0.501E+00    0.596E-01
RMM:   2    -0.624984541068E+03   -0.61386E-01   -0.24728E-01 12334   0.145E+00    0.242E+00
RMM:   3    -0.624942274690E+03    0.42266E-01   -0.43363E-02 11292   0.719E-01    0.559E-01
RMM:   4    -0.624942586607E+03   -0.31192E-03   -0.10446E-02 13709   0.246E-01    0.566E-01
RMM:   5    -0.624940931761E+03    0.16548E-02   -0.22537E-03 12708   0.154E-01    0.224E-01
RMM:   6    -0.624941055713E+03   -0.12395E-03   -0.12490E-03 12593   0.103E-01    0.309E-01
RMM:   7    -0.624940560785E+03    0.49493E-03   -0.78987E-04 13012   0.890E-02    0.123E-01
RMM:   8    -0.624940962121E+03   -0.40134E-03   -0.80027E-04 12627   0.860E-02    0.307E-01
RMM:   9    -0.624940470938E+03    0.49118E-03   -0.41948E-04 11401   0.727E-02    0.597E-02
RMM:  10    -0.624940515817E+03   -0.44879E-04   -0.26016E-04 11811   0.385E-02    0.995E-02
RMM:  11    -0.624940476842E+03    0.38975E-04   -0.10741E-04 10901   0.299E-02    0.182E-02
RMM:  12    -0.624940485652E+03   -0.88110E-05   -0.73326E-05  9100   0.163E-02
  37 F= -.62494049E+03 E0= -.62488245E+03  d E =-.642398E-03
       N       E                     dE             d eps       ncg     rms          rms(c)
DAV:   1    -0.624940163573E+03    0.31327E-03   -0.18202E-02 11400   0.729E-01    0.873E-02
RMM:   2    -0.624941501039E+03   -0.13375E-02   -0.51855E-03 12391   0.211E-01    0.369E-01
RMM:   3    -0.624940573238E+03    0.92780E-03   -0.92274E-04 10094   0.105E-01    0.871E-02
RMM:   4    -0.624940572968E+03    0.26998E-06   -0.23469E-04 11255   0.429E-02    0.823E-02
RMM:   5    -0.624940546477E+03    0.26490E-04   -0.51959E-05  7489   0.280E-02    0.535E-02
RMM:   6    -0.624940536721E+03    0.97568E-05   -0.27572E-05  6125   0.223E-02
  38 F= -.62494054E+03 E0= -.62488243E+03  d E =-.693466E-03
       N       E                     dE             d eps       ncg     rms          rms(c)
DAV:   1    -0.624931213358E+03    0.93331E-02   -0.36297E-01  9408   0.321E+00    0.173E-01
RMM:   2    -0.624941552797E+03   -0.10339E-01   -0.96757E-02 14208   0.715E-01    0.443E-01
RMM:   3    -0.624941499810E+03    0.52988E-04   -0.10551E-02 10527   0.300E-01    0.274E-01
RMM:   4    -0.624941647693E+03   -0.14788E-03   -0.19986E-03 12470   0.110E-01    0.264E-01
RMM:   5    -0.624941245969E+03    0.40172E-03   -0.47332E-04 11158   0.767E-02    0.686E-02
RMM:   6    -0.624941272822E+03   -0.26854E-04   -0.30087E-04 11182   0.372E-02    0.985E-02
RMM:   7    -0.624941232234E+03    0.40589E-04   -0.12893E-04 10796   0.340E-02    0.538E-02
RMM:   8    -0.624941277330E+03   -0.45097E-04   -0.14146E-04 10775   0.335E-02    0.116E-01
RMM:   9    -0.624941208265E+03    0.69065E-04   -0.75074E-05  9702   0.303E-02    0.131E-02
RMM:  10    -0.624941210528E+03   -0.22623E-05   -0.53988E-05  8326   0.155E-02
  39 F= -.62494121E+03 E0= -.62488325E+03  d E =-.673807E-03
       N       E                     dE             d eps       ncg     rms          rms(c)
DAV:   1    -0.624917472972E+03    0.23735E-01   -0.87354E-01  9408   0.498E+00    0.261E-01
RMM:   2    -0.624942076304E+03   -0.24603E-01   -0.23378E-01 14218   0.111E+00    0.627E-01
RMM:   3    -0.624942370220E+03   -0.29392E-03   -0.25273E-02 10911   0.462E-01    0.424E-01
RMM:   4    -0.624942668044E+03   -0.29782E-03   -0.49933E-03 13162   0.166E-01    0.396E-01
RMM:   5    -0.624941801759E+03    0.86629E-03   -0.11577E-03 11742   0.116E-01    0.117E-01
RMM:   6    -0.624941853611E+03   -0.51852E-04   -0.78028E-04 11774   0.552E-02    0.147E-01
RMM:   7    -0.624941770948E+03    0.82663E-04   -0.31755E-04 11852   0.499E-02    0.887E-02
RMM:   8    -0.624941882818E+03   -0.11187E-03   -0.34588E-04 11723   0.519E-02    0.181E-01
RMM:   9    -0.624941710321E+03    0.17250E-03   -0.22352E-04 11696   0.482E-02    0.206E-02
RMM:  10    -0.624941727109E+03   -0.16788E-04   -0.14257E-04 10478   0.251E-02    0.472E-02
RMM:  11    -0.624941718305E+03    0.88044E-05   -0.46211E-05  8279   0.254E-02
  40 F= -.62494172E+03 E0= -.62488400E+03  d E =-.118158E-02
       N       E                     dE             d eps       ncg     rms          rms(c)
DAV:   1    -0.624937810033E+03    0.39171E-02   -0.18739E-01  9456   0.222E+00    0.184E-01
RMM:   2    -0.624945470171E+03   -0.76601E-02   -0.50498E-02 14321   0.550E-01    0.684E-01
RMM:   3    -0.624942622097E+03    0.28481E-02   -0.64492E-03 10640   0.275E-01    0.221E-01
RMM:   4    -0.624942710520E+03   -0.88424E-04   -0.16105E-03 12674   0.969E-02    0.231E-01
RMM:   5    -0.624942452484E+03    0.25804E-03   -0.41557E-04 11808   0.632E-02    0.839E-02
RMM:   6    -0.624942462377E+03   -0.98923E-05   -0.23459E-04 11150   0.381E-02    0.991E-02
RMM:   7    -0.624942416352E+03    0.46025E-04   -0.11367E-04 10615   0.317E-02    0.463E-02
RMM:   8    -0.624942473489E+03   -0.57138E-04   -0.11728E-04 10222   0.346E-02    0.122E-01
RMM:   9    -0.624942400113E+03    0.73376E-04   -0.77569E-05  9457   0.311E-02    0.242E-02
RMM:  10    -0.624942408801E+03   -0.86882E-05   -0.53018E-05  8141   0.216E-02
  41 F= -.62494241E+03 E0= -.62488472E+03  d E =-.690496E-03
       N       E                     dE             d eps       ncg     rms          rms(c)
DAV:   1    -0.624931852499E+03    0.10548E-01   -0.44714E-01  9408   0.342E+00    0.285E-01
RMM:   2    -0.624950310598E+03   -0.18458E-01   -0.12015E-01 14352   0.846E-01    0.108E+00
RMM:   3    -0.624943296728E+03    0.70139E-02   -0.15203E-02 10703   0.422E-01    0.345E-01
RMM:   4    -0.624943467456E+03   -0.17073E-03   -0.38663E-03 13414   0.149E-01    0.349E-01
RMM:   5    -0.624942879039E+03    0.58842E-03   -0.96591E-04 12414   0.942E-02    0.140E-01
RMM:   6    -0.624942885288E+03   -0.62489E-05   -0.54486E-04 11667   0.562E-02    0.149E-01
RMM:   7    -0.624942777237E+03    0.10805E-03   -0.26843E-04 12243   0.460E-02    0.670E-02
RMM:   8    -0.624942919961E+03   -0.14272E-03   -0.29037E-04 12048   0.525E-02    0.194E-01
RMM:   9    -0.624942741315E+03    0.17865E-03   -0.16801E-04 11374   0.446E-02    0.306E-02
RMM:  10    -0.624942757309E+03   -0.15994E-04   -0.12108E-04 10810   0.274E-02    0.542E-02
RMM:  11    -0.624942743853E+03    0.13456E-04   -0.49873E-05  7926   0.236E-02    0.132E-02
RMM:  12    -0.624942744230E+03   -0.37784E-06   -0.35687E-05  7060   0.170E-02
  42 F= -.62494274E+03 E0= -.62488520E+03  d E =-.102593E-02
       N       E                     dE             d eps       ncg     rms          rms(c)
DAV:   1    -0.624941096095E+03    0.16478E-02   -0.84197E-02  9624   0.150E+00    0.121E-01
RMM:   2    -0.624944598676E+03   -0.35026E-02   -0.22180E-02 14313   0.365E-01    0.474E-01
RMM:   3    -0.624943216878E+03    0.13818E-02   -0.29258E-03 10754   0.186E-01    0.161E-01
RMM:   4    -0.624943220399E+03   -0.35213E-05   -0.75460E-04 12463   0.652E-02    0.138E-01
RMM:   5    -0.624943123979E+03    0.96420E-04   -0.19010E-04 11321   0.456E-02    0.490E-02
RMM:   6    -0.624943130538E+03   -0.65587E-05   -0.11126E-04 10672   0.265E-02    0.632E-02
RMM:   7    -0.624943110843E+03    0.19695E-04   -0.53060E-05  8950   0.241E-02    0.317E-02
RMM:   8    -0.624943132272E+03   -0.21429E-04   -0.57754E-05  8696   0.255E-02    0.784E-02
RMM:   9    -0.624943102055E+03    0.30217E-04   -0.29456E-05  5818   0.242E-02    0.165E-02
RMM:  10    -0.624943105885E+03   -0.38303E-05   -0.21478E-05  5951   0.173E-02
  43 F= -.62494311E+03 E0= -.62488567E+03  d E =-.361655E-03
       N       E                     dE             d eps       ncg     rms          rms(c)
DAV:   1    -0.624925378968E+03    0.17723E-01   -0.75303E-01  9408   0.449E+00    0.370E-01
RMM:   2    -0.624958080273E+03   -0.32701E-01   -0.20157E-01 14358   0.109E+00    0.146E+00
RMM:   3    -0.624944617962E+03    0.13462E-01   -0.26917E-02 10975   0.560E-01    0.488E-01
RMM:   4    -0.624944615006E+03    0.29560E-05   -0.64610E-03 13693   0.184E-01    0.408E-01
RMM:   5    -0.624943749837E+03    0.86517E-03   -0.14656E-03 12521   0.120E-01    0.132E-01
RMM:   6    -0.624943819252E+03   -0.69415E-04   -0.80087E-04 12287   0.679E-02    0.191E-01
RMM:   7    -0.624943653636E+03    0.16562E-03   -0.41012E-04 12411   0.633E-02    0.903E-02
RMM:   8    -0.624943777991E+03   -0.12436E-03   -0.51074E-04 12965   0.613E-02    0.184E-01
RMM:   9    -0.624943600566E+03    0.17743E-03   -0.22897E-04 11316   0.554E-02    0.426E-02
RMM:  10    -0.624943624628E+03   -0.24062E-04   -0.17573E-04 11346   0.303E-02    0.686E-02
RMM:  11    -0.624943608625E+03    0.16003E-04   -0.69427E-05 10027   0.262E-02    0.172E-02
RMM:  12    -0.624943614036E+03   -0.54106E-05   -0.52739E-05  8658   0.163E-02
  44 F= -.62494361E+03 E0= -.62488646E+03  d E =-.869805E-03
       N       E                     dE             d eps       ncg     rms          rms(c)
DAV:   1    -0.624942605758E+03    0.10029E-02   -0.84318E-02  9120   0.137E+00    0.852E-02
RMM:   2    -0.624944455762E+03   -0.18500E-02   -0.16070E-02 14228   0.325E-01    0.236E-01
RMM:   3    -0.624944195676E+03    0.26009E-03   -0.17956E-03 11020   0.144E-01    0.932E-02
RMM:   4    -0.624944253531E+03   -0.57854E-04   -0.51111E-04 12140   0.552E-02    0.121E-01
RMM:   5    -0.624944176172E+03    0.77358E-04   -0.13560E-04 10366   0.446E-02    0.443E-02
RMM:   6    -0.624944188936E+03   -0.12764E-04   -0.11161E-04 10466   0.242E-02    0.616E-02
RMM:   7    -0.624944177177E+03    0.11759E-04   -0.59498E-05  9798   0.243E-02    0.371E-02
RMM:   8    -0.624944189079E+03   -0.11902E-04   -0.41941E-05  7779   0.219E-02    0.615E-02
RMM:   9    -0.624944170406E+03    0.18673E-04   -0.25566E-05  6056   0.219E-02    0.115E-02
RMM:  10    -0.624944173598E+03   -0.31926E-05   -0.21042E-05  5957   0.153E-02
  45 F= -.62494417E+03 E0= -.62488709E+03  d E =-.559563E-03
       N       E                     dE             d eps       ncg     rms          rms(c)
DAV:   1    -0.624930620779E+03    0.13550E-01   -0.75495E-01  9072   0.410E+00    0.249E-01
RMM:   2    -0.624945971531E+03   -0.15351E-01   -0.14509E-01 14270   0.980E-01    0.521E-01
RMM:   3    -0.624945153154E+03    0.81838E-03   -0.15984E-02 11802   0.407E-01    0.289E-01
RMM:   4    -0.624945665492E+03   -0.51234E-03   -0.41360E-03 13425   0.158E-01    0.392E-01
RMM:   5    -0.624944877071E+03    0.78842E-03   -0.10566E-03 12072   0.119E-01    0.112E-01
RMM:   6    -0.624945019985E+03   -0.14291E-03   -0.88644E-04 12214   0.629E-02    0.207E-01
RMM:   7    -0.624944861934E+03    0.15805E-03   -0.42789E-04 12201   0.668E-02    0.993E-02
RMM:   8    -0.624944924201E+03   -0.62268E-04   -0.42180E-04 12522   0.542E-02    0.158E-01
RMM:   9    -0.624944803054E+03    0.12115E-03   -0.17334E-04 11067   0.467E-02    0.377E-02
RMM:  10    -0.624944824665E+03   -0.21611E-04   -0.15773E-04 10870   0.270E-02    0.607E-02
RMM:  11    -0.624944810426E+03    0.14239E-04   -0.66426E-05  9900   0.261E-02    0.130E-02
RMM:  12    -0.624944814253E+03   -0.38273E-05   -0.48967E-05  8626   0.153E-02
  46 F= -.62494481E+03 E0= -.62488791E+03  d E =-.120022E-02
       N       E                     dE             d eps       ncg     rms          rms(c)
DAV:   1    -0.624942895484E+03    0.19149E-02   -0.12962E-01  9504   0.171E+00    0.183E-01
RMM:   2    -0.624949155519E+03   -0.62600E-02   -0.30837E-02 13985   0.465E-01    0.741E-01
RMM:   3    -0.624945554028E+03    0.36015E-02   -0.45734E-03 11187   0.240E-01    0.238E-01
RMM:   4    -0.624945486423E+03    0.67606E-04   -0.12876E-03 12395   0.892E-02    0.185E-01
RMM:   5    -0.624945318425E+03    0.16800E-03   -0.35017E-04 11671   0.589E-02    0.781E-02
RMM:   6    -0.624945333649E+03   -0.15225E-04   -0.18587E-04 11101   0.381E-02    0.103E-01
RMM:   7    -0.624945277550E+03    0.56099E-04   -0.98367E-05 10823   0.304E-02    0.385E-02
RMM:   8    -0.624945332277E+03   -0.54727E-04   -0.96595E-05  9887   0.333E-02    0.117E-01
RMM:   9    -0.624945265588E+03    0.66689E-04   -0.57651E-05  7833   0.291E-02    0.166E-02
RMM:  10    -0.624945270779E+03   -0.51919E-05   -0.42404E-05  7233   0.203E-02
  47 F= -.62494527E+03 E0= -.62488841E+03  d E =-.456526E-03
       N       E                     dE             d eps       ncg     rms          rms(c)
DAV:   1    -0.624933690798E+03    0.11575E-01   -0.64707E-01  9408   0.383E+00    0.411E-01
RMM:   2    -0.624965930130E+03   -0.32239E-01   -0.15574E-01 13901   0.104E+00    0.170E+00
RMM:   3    -0.624947068151E+03    0.18862E-01   -0.22964E-02 11337   0.535E-01    0.538E-01
RMM:   4    -0.624946653862E+03    0.41429E-03   -0.63056E-03 13414   0.197E-01    0.409E-01
RMM:   5    -0.624945851131E+03    0.80273E-03   -0.16412E-03 12589   0.124E-01    0.187E-01
RMM:   6    -0.624945864990E+03   -0.13859E-04   -0.84877E-04 11878   0.776E-02    0.211E-01
RMM:   7    -0.624945628672E+03    0.23632E-03   -0.46874E-04 12771   0.614E-02    0.894E-02
RMM:   8    -0.624945870755E+03   -0.24208E-03   -0.42419E-04 11994   0.672E-02    0.244E-01
RMM:   9    -0.624945581201E+03    0.28955E-03   -0.29275E-04 11826   0.578E-02    0.537E-02
RMM:  10    -0.624945605313E+03   -0.24112E-04   -0.18910E-04 11480   0.373E-02    0.764E-02
RMM:  11    -0.624945577911E+03    0.27401E-04   -0.90643E-05 10337   0.273E-02    0.147E-02
RMM:  12    -0.624945582381E+03   -0.44696E-05   -0.70316E-05  8901   0.168E-02
  48 F= -.62494558E+03 E0= -.62488879E+03  d E =-.768128E-03
       N       E                     dE             d eps       ncg     rms          rms(c)
DAV:   1    -0.624943216707E+03    0.23612E-02   -0.13797E-01  9408   0.173E+00    0.928E-02
RMM:   2    -0.624946211574E+03   -0.29949E-02   -0.27382E-02 14193   0.406E-01    0.265E-01
RMM:   3    -0.624946120309E+03    0.91265E-04   -0.31401E-03 11573   0.164E-01    0.145E-01
RMM:   4    -0.624946162891E+03   -0.42582E-04   -0.72600E-04 12324   0.651E-02    0.132E-01
RMM:   5    -0.624946066988E+03    0.95903E-04   -0.19605E-04 11157   0.481E-02    0.464E-02
RMM:   6    -0.624946078713E+03   -0.11725E-04   -0.14447E-04 10734   0.255E-02    0.596E-02
RMM:   7    -0.624946065296E+03    0.13417E-04   -0.62521E-05  9661   0.252E-02    0.367E-02
RMM:   8    -0.624946083129E+03   -0.17833E-04   -0.60267E-05  9055   0.243E-02    0.726E-02
RMM:   9    -0.624946055328E+03    0.27801E-04   -0.33447E-05  6747   0.221E-02    0.142E-02
RMM:  10    -0.624946059929E+03   -0.46018E-05   -0.22469E-05  6208   0.171E-02
  49 F= -.62494606E+03 E0= -.62488936E+03  d E =-.477548E-03
       N       E                     dE             d eps       ncg     rms          rms(c)
DAV:   1    -0.624921318649E+03    0.24737E-01   -0.12394E+00  9408   0.518E+00    0.282E-01
RMM:   2    -0.624948812832E+03   -0.27494E-01   -0.24706E-01 14240   0.121E+00    0.834E-01
RMM:   3    -0.624947476791E+03    0.13360E-02   -0.27948E-02 11638   0.495E-01    0.449E-01
RMM:   4    -0.624947836628E+03   -0.35984E-03   -0.62818E-03 13378   0.187E-01    0.408E-01
RMM:   5    -0.624946892641E+03    0.94399E-03   -0.15434E-03 12272   0.130E-01    0.129E-01
RMM:   6    -0.624946981494E+03   -0.88853E-04   -0.10690E-03 11997   0.639E-02    0.171E-01
RMM:   7    -0.624946871479E+03    0.11001E-03   -0.47527E-04 12253   0.609E-02    0.102E-01
RMM:   8    -0.624947004321E+03   -0.13284E-03   -0.45500E-04 11954   0.614E-02    0.199E-01
RMM:   9    -0.624946801730E+03    0.20259E-03   -0.26642E-04 11603   0.536E-02    0.360E-02
RMM:  10    -0.624946835128E+03   -0.33397E-04   -0.17928E-04 10998   0.317E-02    0.762E-02
RMM:  11    -0.624946809787E+03    0.25340E-04   -0.78484E-05  9991   0.272E-02    0.129E-02
RMM:  12    -0.624946812229E+03   -0.24420E-05   -0.54392E-05  8664   0.158E-02
  50 F= -.62494681E+03 E0= -.62489039E+03  d E =-.122985E-02
       N       E                     dE             d eps       ncg     rms          rms(c)
DAV:   1    -0.624946965901E+03   -0.15611E-03   -0.44584E-02 12192   0.114E+00    0.207E-01
RMM:   2    -0.624953812908E+03   -0.68470E-02   -0.13046E-02 11717   0.415E-01    0.962E-01
RMM:   3    -0.624947689817E+03    0.61231E-02   -0.33370E-03 11264   0.239E-01    0.292E-01
RMM:   4    -0.624947336428E+03    0.35339E-03   -0.70836E-04 11835   0.844E-02    0.127E-01
RMM:   5    -0.624947265429E+03    0.70999E-04   -0.25654E-04 11548   0.475E-02    0.936E-02
RMM:   6    -0.624947252070E+03    0.13358E-04   -0.12115E-04  9784   0.409E-02    0.909E-02
RMM:   7    -0.624947206419E+03    0.45652E-04   -0.99540E-05 10315   0.305E-02    0.390E-02
RMM:   8    -0.624947232100E+03   -0.25682E-04   -0.62225E-05  7434   0.311E-02    0.776E-02
RMM:   9    -0.624947204583E+03    0.27517E-04   -0.34870E-05  5977   0.248E-02    0.247E-02
RMM:  10    -0.624947205782E+03   -0.11986E-05   -0.20905E-05  5781   0.188E-02
  51 F= -.62494721E+03 E0= -.62489085E+03  d E =-.393553E-03
       N       E                     dE             d eps       ncg     rms          rms(c)
DAV:   1    -0.624947008999E+03    0.19558E-03   -0.59469E-02 12192   0.131E+00    0.239E-01
RMM:   2    -0.624956108699E+03   -0.90997E-02   -0.17384E-02 11691   0.479E-01    0.110E+00
RMM:   3    -0.624947988785E+03    0.81199E-02   -0.44530E-03 11331   0.276E-01    0.338E-01
RMM:   4    -0.624947518356E+03    0.47043E-03   -0.96354E-04 12157   0.967E-02    0.145E-01
RMM:   5    -0.624947418591E+03    0.99765E-04   -0.34011E-04 12037   0.531E-02    0.102E-01
RMM:   6    -0.624947414551E+03    0.40398E-05   -0.16203E-04 10413   0.456E-02    0.110E-01
RMM:   7    -0.624947346310E+03    0.68241E-04   -0.13324E-04 11333   0.349E-02    0.345E-02
RMM:   8    -0.624947392383E+03   -0.46073E-04   -0.88144E-05  9465   0.344E-02    0.960E-02
RMM:   9    -0.624947348511E+03    0.43872E-04   -0.46954E-05  6680   0.269E-02    0.244E-02
RMM:  10    -0.624947352037E+03   -0.35252E-05   -0.33069E-05  6432   0.201E-02
  52 F= -.62494735E+03 E0= -.62489107E+03  d E =-.539808E-03
       N       E                     dE             d eps       ncg     rms          rms(c)
DAV:   1    -0.624946674902E+03    0.67361E-03   -0.62888E-02 11832   0.142E+00    0.145E-01
RMM:   2    -0.624949999419E+03   -0.33245E-02   -0.14843E-02 13253   0.358E-01    0.562E-01
RMM:   3    -0.624947782948E+03    0.22165E-02   -0.21797E-03 11140   0.198E-01    0.153E-01
RMM:   4    -0.624947810390E+03   -0.27442E-04   -0.77785E-04 12645   0.712E-02    0.153E-01
RMM:   5    -0.624947691496E+03    0.11889E-03   -0.21685E-04 11487   0.484E-02    0.543E-02
RMM:   6    -0.624947711060E+03   -0.19564E-04   -0.12078E-04 10879   0.340E-02    0.911E-02
RMM:   7    -0.624947670537E+03    0.40523E-04   -0.70167E-05  9647   0.302E-02    0.326E-02
RMM:   8    -0.624947689839E+03   -0.19302E-04   -0.71932E-05  9514   0.259E-02    0.691E-02
RMM:   9    -0.624947664193E+03    0.25646E-04   -0.29260E-05  6101   0.238E-02    0.131E-02
RMM:  10    -0.624947667348E+03   -0.31553E-05   -0.22317E-05  6138   0.169E-02
  53 F= -.62494767E+03 E0= -.62489138E+03  d E =-.315312E-03
       N       E                     dE             d eps       ncg     rms          rms(c)
DAV:   1    -0.624946817267E+03    0.84693E-03   -0.59371E-02 11784   0.138E+00    0.141E-01
RMM:   2    -0.624950066911E+03   -0.32496E-02   -0.14145E-02 13267   0.348E-01    0.556E-01
RMM:   3    -0.624947869686E+03    0.21972E-02   -0.20578E-03 10896   0.193E-01    0.147E-01
RMM:   4    -0.624947897187E+03   -0.27501E-04   -0.71550E-04 12418   0.690E-02    0.149E-01
RMM:   5    -0.624947788810E+03    0.10838E-03   -0.20024E-04 11133   0.461E-02    0.546E-02
RMM:   6    -0.624947804390E+03   -0.15581E-04   -0.10534E-04 10567   0.315E-02    0.845E-02
RMM:   7    -0.624947767719E+03    0.36672E-04   -0.63228E-05  9616   0.276E-02    0.262E-02
RMM:   8    -0.624947781058E+03   -0.13339E-04   -0.62478E-05  9354   0.241E-02    0.580E-02
RMM:   9    -0.624947763458E+03    0.17600E-04   -0.26809E-05  6049   0.229E-02    0.137E-02
RMM:  10    -0.624947765982E+03   -0.25241E-05   -0.21271E-05  5999   0.173E-02
  54 F= -.62494777E+03 E0= -.62489145E+03  d E =-.413945E-03
       N       E                     dE             d eps       ncg     rms          rms(c)
DAV:   1    -0.624946838684E+03    0.92477E-03   -0.46121E-02  9744   0.127E+00    0.629E-02
RMM:   2    -0.624947992932E+03   -0.11542E-02   -0.11730E-02 14108   0.252E-01    0.984E-02
RMM:   3    -0.624948003516E+03   -0.10584E-04   -0.88072E-04  9634   0.129E-01    0.831E-02
RMM:   4    -0.624948009208E+03   -0.56922E-05   -0.28851E-04 11748   0.451E-02    0.797E-02
RMM:   5    -0.624947981966E+03    0.27242E-04   -0.74262E-05  9066   0.306E-02    0.284E-02
RMM:   6    -0.624947984994E+03   -0.30281E-05   -0.48558E-05  8354   0.197E-02
  55 F= -.62494798E+03 E0= -.62489171E+03  d E =-.219012E-03
       N       E                     dE             d eps       ncg     rms          rms(c)
DAV:   1    -0.624942830827E+03    0.51511E-02   -0.21885E-01  9552   0.276E+00    0.140E-01
RMM:   2    -0.624948506432E+03   -0.56756E-02   -0.55749E-02 14155   0.554E-01    0.298E-01
RMM:   3    -0.624948394755E+03    0.11168E-03   -0.42608E-03 10489   0.287E-01    0.225E-01
RMM:   4    -0.624948548230E+03   -0.15348E-03   -0.15875E-03 12785   0.105E-01    0.232E-01
RMM:   5    -0.624948246357E+03    0.30187E-03   -0.39710E-04 11314   0.703E-02    0.604E-02
RMM:   6    -0.624948291378E+03   -0.45021E-04   -0.27755E-04 11576   0.375E-02    0.107E-01
RMM:   7    -0.624948242657E+03    0.48722E-04   -0.14727E-04 11480   0.385E-02    0.516E-02
RMM:   8    -0.624948264409E+03   -0.21752E-04   -0.11564E-04 11120   0.317E-02    0.863E-02
RMM:   9    -0.624948227683E+03    0.36725E-04   -0.51171E-05  9446   0.258E-02    0.163E-02
RMM:  10    -0.624948234038E+03   -0.63545E-05   -0.50983E-05  8655   0.179E-02
  56 F= -.62494823E+03 E0= -.62489193E+03  d E =-.468056E-03
       N       E                     dE             d eps       ncg     rms          rms(c)
DAV:   1    -0.624947392043E+03    0.83564E-03   -0.69669E-02 12336   0.148E+00    0.188E-01
RMM:   2    -0.624953348927E+03   -0.59569E-02   -0.18417E-02 11959   0.416E-01    0.826E-01
RMM:   3    -0.624948764475E+03    0.45845E-02   -0.33713E-03 10902   0.240E-01    0.249E-01
RMM:   4    -0.624948582357E+03    0.18212E-03   -0.99752E-04 12445   0.863E-02    0.134E-01
RMM:   5    -0.624948490674E+03    0.91683E-04   -0.26223E-04 11772   0.482E-02    0.794E-02
RMM:   6    -0.624948489791E+03    0.88317E-06   -0.10982E-04 10121   0.384E-02    0.892E-02
RMM:   7    -0.624948445168E+03    0.44623E-04   -0.75743E-05  9593   0.284E-02    0.321E-02
RMM:   8    -0.624948483689E+03   -0.38521E-04   -0.67982E-05  7849   0.309E-02    0.922E-02
RMM:   9    -0.624948441429E+03    0.42260E-04   -0.36876E-05  5925   0.266E-02    0.218E-02
RMM:  10    -0.624948444261E+03   -0.28319E-05   -0.20448E-05  5796   0.187E-02
  57 F= -.62494844E+03 E0= -.62489217E+03  d E =-.210223E-03
       N       E                     dE             d eps       ncg     rms          rms(c)
DAV:   1    -0.624947380506E+03    0.10609E-02   -0.72354E-02 12312   0.151E+00    0.192E-01
RMM:   2    -0.624953685569E+03   -0.63051E-02   -0.19224E-02 11911   0.423E-01    0.848E-01
RMM:   3    -0.624948817850E+03    0.48677E-02   -0.34819E-03 10724   0.244E-01    0.254E-01
RMM:   4    -0.624948624187E+03    0.19366E-03   -0.10257E-03 12456   0.872E-02    0.133E-01
RMM:   5    -0.624948534710E+03    0.89477E-04   -0.25684E-04 11567   0.464E-02    0.772E-02
RMM:   6    -0.624948535479E+03   -0.76822E-06   -0.10515E-04  9802   0.367E-02    0.873E-02
RMM:   7    -0.624948493538E+03    0.41940E-04   -0.74592E-05  9378   0.276E-02    0.283E-02
RMM:   8    -0.624948526341E+03   -0.32803E-04   -0.66452E-05  8054   0.291E-02    0.838E-02
RMM:   9    -0.624948493117E+03    0.33224E-04   -0.34654E-05  5934   0.256E-02    0.199E-02
RMM:  10    -0.624948496615E+03   -0.34984E-05   -0.21333E-05  5815   0.186E-02
  58 F= -.62494850E+03 E0= -.62489226E+03  d E =-.262577E-03
       N       E                     dE             d eps       ncg     rms          rms(c)
DAV:   1    -0.624947578293E+03    0.91482E-03   -0.41855E-02  9648   0.115E+00    0.549E-02
RMM:   2    -0.624948593765E+03   -0.10155E-02   -0.10442E-02 14013   0.231E-01    0.767E-02
RMM:   3    -0.624948649239E+03   -0.55473E-04   -0.75526E-04  9600   0.115E-01    0.878E-02
RMM:   4    -0.624948641933E+03    0.73054E-05   -0.25859E-04 11305   0.417E-02    0.595E-02
RMM:   5    -0.624948627182E+03    0.14752E-04   -0.66745E-05  7531   0.271E-02    0.274E-02
RMM:   6    -0.624948630427E+03   -0.32454E-05   -0.33618E-05  6656   0.197E-02
  59 F= -.62494863E+03 E0= -.62489242E+03  d E =-.133812E-03
       N       E                     dE             d eps       ncg     rms          rms(c)
DAV:   1    -0.624946257445E+03    0.23697E-02   -0.10091E-01  9504   0.178E+00    0.861E-02
RMM:   2    -0.624948753914E+03   -0.24965E-02   -0.24983E-02 14077   0.359E-01    0.155E-01
RMM:   3    -0.624948799671E+03   -0.45757E-04   -0.17999E-03  9908   0.176E-01    0.134E-01
RMM:   4    -0.624948869682E+03   -0.70011E-04   -0.66580E-04 12034   0.638E-02    0.148E-01
RMM:   5    -0.624948757616E+03    0.11207E-03   -0.16378E-04 10410   0.418E-02    0.371E-02
RMM:   6    -0.624948773162E+03   -0.15546E-04   -0.10412E-04 10126   0.250E-02    0.601E-02
RMM:   7    -0.624948752796E+03    0.20367E-04   -0.57280E-05  9418   0.238E-02    0.216E-02
RMM:   8    -0.624948759181E+03   -0.63847E-05   -0.34019E-05  7014   0.189E-02
  60 F= -.62494876E+03 E0= -.62489255E+03  d E =-.262565E-03
       N       E                     dE             d eps       ncg     rms          rms(c)
DAV:   1    -0.624938772319E+03    0.99805E-02   -0.40315E-01  9504   0.358E+00    0.171E-01
RMM:   2    -0.624948517110E+03   -0.97448E-02   -0.99853E-02 14099   0.721E-01    0.251E-01
RMM:   3    -0.624949004598E+03   -0.48749E-03   -0.71567E-03 10502   0.350E-01    0.274E-01
RMM:   4    -0.624948950403E+03    0.54195E-04   -0.24357E-03 12805   0.120E-01    0.194E-01
RMM:   5    -0.624948778968E+03    0.17143E-03   -0.56783E-04 11767   0.699E-02    0.829E-02
RMM:   6    -0.624948801447E+03   -0.22479E-04   -0.29409E-04 11535   0.390E-02    0.985E-02
RMM:   7    -0.624948759008E+03    0.42438E-04   -0.13534E-04 11204   0.335E-02    0.471E-02
RMM:   8    -0.624948755127E+03    0.38809E-05   -0.15811E-04 11687   0.320E-02    0.590E-02
RMM:   9    -0.624948744589E+03    0.10538E-04   -0.48679E-05  9086   0.274E-02    0.317E-02
RMM:  10    -0.624948745032E+03   -0.44259E-06   -0.47784E-05  8366   0.174E-02
  61 F= -.62494875E+03 E0= -.62489250E+03  d E =-.248416E-03
       N       E                     dE             d eps       ncg     rms          rms(c)
DAV:   1    -0.624946515991E+03    0.22286E-02   -0.93111E-02  9504   0.172E+00    0.818E-02
RMM:   2    -0.624948785786E+03   -0.22698E-02   -0.22687E-02 13994   0.344E-01    0.147E-01
RMM:   3    -0.624948848942E+03   -0.63156E-04   -0.16361E-03  9477   0.170E-01    0.126E-01
RMM:   4    -0.624948864454E+03   -0.15512E-04   -0.50247E-04 11250   0.589E-02    0.109E-01
RMM:   5    -0.624948802355E+03    0.62100E-04   -0.10462E-04  7709   0.359E-02    0.381E-02
RMM:   6    -0.624948804757E+03   -0.24020E-05   -0.49611E-05  6983   0.216E-02
  62 F= -.62494880E+03 E0= -.62489257E+03  d E =-.308141E-03
       N       E                     dE             d eps       ncg     rms          rms(c)
DAV:   1    -0.624947130361E+03    0.16720E-02   -0.82258E-02 10488   0.169E+00    0.150E-01
RMM:   2    -0.624951173031E+03   -0.40427E-02   -0.23863E-02 13640   0.376E-01    0.540E-01
RMM:   3    -0.624949065385E+03    0.21076E-02   -0.25100E-03 10381   0.209E-01    0.138E-01
RMM:   4    -0.624949196797E+03   -0.13141E-03   -0.82107E-04 11899   0.758E-02    0.207E-01
RMM:   5    -0.624948996645E+03    0.20015E-03   -0.20317E-04  9347   0.502E-02    0.608E-02
RMM:   6    -0.624949007058E+03   -0.10413E-04   -0.10987E-04  8853   0.320E-02    0.867E-02
RMM:   7    -0.624948966990E+03    0.40068E-04   -0.45777E-05  6574   0.243E-02    0.313E-02
RMM:   8    -0.624948995940E+03   -0.28951E-04   -0.48022E-05  6591   0.262E-02    0.860E-02
RMM:   9    -0.624948958647E+03    0.37293E-04   -0.31685E-05  5762   0.250E-02    0.165E-02
RMM:  10    -0.624948961774E+03   -0.31275E-05   -0.17143E-05  5481   0.182E-02
  63 F= -.62494896E+03 E0= -.62489271E+03  d E =-.157018E-03
       N       E                     dE             d eps       ncg     rms          rms(c)
DAV:   1    -0.624948510779E+03    0.44787E-03   -0.22214E-02 11136   0.880E-01    0.804E-02
RMM:   2    -0.624949766254E+03   -0.12555E-02   -0.64421E-03 13163   0.198E-01    0.323E-01
RMM:   3    -0.624949031079E+03    0.73518E-03   -0.72267E-04  9018   0.111E-01    0.865E-02
RMM:   4    -0.624949041447E+03   -0.10368E-04   -0.24902E-04 10140   0.421E-02    0.864E-02
RMM:   5    -0.624949007460E+03    0.33987E-04   -0.61445E-05  7181   0.260E-02    0.377E-02
RMM:   6    -0.624949006328E+03    0.11321E-05   -0.27175E-05  5935   0.196E-02
  64 F= -.62494901E+03 E0= -.62489276E+03  d E =-.201571E-03
       N       E                     dE             d eps       ncg     rms          rms(c)
DAV:   1    -0.624947097201E+03    0.19103E-02   -0.89337E-02 10824   0.176E+00    0.167E-01
RMM:   2    -0.624952271000E+03   -0.51738E-02   -0.25567E-02 13085   0.405E-01    0.669E-01
RMM:   3    -0.624949138786E+03    0.31322E-02   -0.30430E-03 10387   0.227E-01    0.180E-01
RMM:   4    -0.624949166081E+03   -0.27295E-04   -0.10204E-03 12207   0.802E-02    0.170E-01
RMM:   5    -0.624949027475E+03    0.13861E-03   -0.24096E-04 10505   0.479E-02    0.711E-02
RMM:   6    -0.624949028522E+03   -0.10477E-05   -0.11980E-04  9360   0.347E-02    0.806E-02
RMM:   7    -0.624948995432E+03    0.33090E-04   -0.77585E-05  8838   0.270E-02    0.369E-02
RMM:   8    -0.624949023520E+03   -0.28088E-04   -0.68008E-05  7459   0.284E-02    0.831E-02
RMM:   9    -0.624948984793E+03    0.38727E-04   -0.38630E-05  6130   0.259E-02    0.123E-02
RMM:  10    -0.624948988408E+03   -0.36154E-05   -0.27020E-05  6031   0.184E-02
  65 F= -.62494899E+03 E0= -.62489273E+03  d E =-.183651E-03
       N       E                     dE             d eps       ncg     rms          rms(c)
DAV:   1    -0.624948220545E+03    0.76425E-03   -0.36929E-02 10968   0.113E+00    0.103E-01
RMM:   2    -0.624950205517E+03   -0.19850E-02   -0.10618E-02 13309   0.258E-01    0.400E-01
RMM:   3    -0.624949073317E+03    0.11322E-02   -0.11673E-03 10006   0.141E-01    0.112E-01
RMM:   4    -0.624949089796E+03   -0.16479E-04   -0.38267E-04 11489   0.533E-02    0.115E-01
RMM:   5    -0.624949022076E+03    0.67720E-04   -0.85725E-05  8005   0.329E-02    0.427E-02
RMM:   6    -0.624949024418E+03   -0.23418E-05   -0.37083E-05  6099   0.234E-02
  66 F= -.62494902E+03 E0= -.62489275E+03  d E =-.219661E-03
       N       E                     dE             d eps       ncg     rms          rms(c)
DAV:   1    -0.624947842443E+03    0.11796E-02   -0.49649E-02  9600   0.132E+00    0.688E-02
RMM:   2    -0.624949273665E+03   -0.14312E-02   -0.12786E-02 13882   0.257E-01    0.208E-01
RMM:   3    -0.624949145420E+03    0.12824E-03   -0.10467E-03  8956   0.138E-01    0.110E-01
RMM:   4    -0.624949176781E+03   -0.31361E-04   -0.31054E-04  9920   0.527E-02    0.106E-01
RMM:   5    -0.624949113598E+03    0.63183E-04   -0.78887E-05  7068   0.330E-02    0.292E-02
RMM:   6    -0.624949114229E+03   -0.63120E-06   -0.31769E-05  6458   0.188E-02
  67 F= -.62494911E+03 E0= -.62489290E+03  d E =-.898109E-04
       N       E                     dE             d eps       ncg     rms          rms(c)
DAV:   1    -0.624948958955E+03    0.15464E-03   -0.71109E-03 10224   0.496E-01    0.304E-02
RMM:   2    -0.624949248006E+03   -0.28905E-03   -0.18823E-03 12884   0.101E-01    0.148E-01
RMM:   3    -0.624949144665E+03    0.10334E-03   -0.18779E-04  7406   0.610E-02    0.358E-02
RMM:   4    -0.624949147466E+03   -0.28008E-05   -0.57291E-05  6892   0.229E-02
  68 F= -.62494915E+03 E0= -.62489292E+03  d E =-.123048E-03
       N       E                     dE             d eps       ncg     rms          rms(c)
DAV:   1    -0.624949415379E+03   -0.27071E-03   -0.64182E-03 12432   0.386E-01    0.157E-01
RMM:   2    -0.624952911791E+03   -0.34964E-02   -0.41754E-03 10978   0.254E-01    0.725E-01
RMM:   3    -0.624949503927E+03    0.34079E-02   -0.14842E-03  9857   0.172E-01    0.234E-01
RMM:   4    -0.624949260760E+03    0.24317E-03   -0.27030E-04  9405   0.634E-02    0.962E-02
RMM:   5    -0.624949204033E+03    0.56727E-04   -0.10221E-04  9519   0.314E-02    0.388E-02
RMM:   6    -0.624949235419E+03   -0.31386E-04   -0.61074E-05  7009   0.297E-02    0.974E-02
RMM:   7    -0.624949188746E+03    0.46672E-04   -0.31838E-05  5691   0.246E-02    0.188E-02
RMM:   8    -0.624949197791E+03   -0.90445E-05   -0.20179E-05  5551   0.199E-02
  69 F= -.62494920E+03 E0= -.62489300E+03  d E =-.503251E-04
       N       E                     dE             d eps       ncg     rms          rms(c)
DAV:   1    -0.624949212227E+03   -0.23481E-04   -0.80789E-04 12576   0.147E-01    0.564E-02
RMM:   2    -0.624949714881E+03   -0.50265E-03   -0.55056E-04  9014   0.900E-02    0.269E-01
RMM:   3    -0.624949225268E+03    0.48961E-03   -0.19711E-04  7545   0.664E-02    0.772E-02
RMM:   4    -0.624949197044E+03    0.28224E-04   -0.27606E-05  5713   0.222E-02    0.310E-02
RMM:   5    -0.624949195625E+03    0.14188E-05   -0.99329E-06  5188   0.169E-02
  70 F= -.62494920E+03 E0= -.62489301E+03  d E =-.481596E-04
       N       E                     dE             d eps       ncg     rms          rms(c)
DAV:   1    -0.624949280899E+03   -0.83855E-04   -0.34009E-03 12456   0.289E-01    0.114E-01
RMM:   2    -0.624950998840E+03   -0.17179E-02   -0.21352E-03 10944   0.181E-01    0.500E-01
RMM:   3    -0.624949278691E+03    0.17201E-02   -0.74534E-04  9302   0.121E-01    0.136E-01
RMM:   4    -0.624949206889E+03    0.71802E-04   -0.13174E-04  8259   0.450E-02    0.837E-02
RMM:   5    -0.624949181982E+03    0.24907E-04   -0.52602E-05  7019   0.267E-02    0.618E-02
RMM:   6    -0.624949174703E+03    0.72792E-05   -0.26975E-05  5648   0.231E-02
  71 F= -.62494917E+03 E0= -.62489302E+03  d E =-.272373E-04
       N       E                     dE             d eps       ncg     rms          rms(c)
DAV:   1    -0.624949207197E+03   -0.25215E-04   -0.10697E-03 12768   0.146E-01    0.477E-02
RMM:   2    -0.624949512361E+03   -0.30516E-03   -0.39971E-04  9777   0.772E-02    0.213E-01
RMM:   3    -0.624949211921E+03    0.30044E-03   -0.13504E-04  8159   0.543E-02    0.589E-02
RMM:   4    -0.624949199121E+03    0.12799E-04   -0.26628E-05  6214   0.219E-02    0.389E-02
RMM:   5    -0.624949194044E+03    0.50771E-05   -0.13277E-05  4925   0.194E-02
  72 F= -.62494919E+03 E0= -.62489302E+03  d E =-.465786E-04
       N       E                     dE             d eps       ncg     rms          rms(c)
DAV:   1    -0.624949224605E+03   -0.25484E-04   -0.48833E-04 12624   0.110E-01    0.459E-02
RMM:   2    -0.624949538432E+03   -0.31383E-03   -0.32668E-04  9257   0.685E-02    0.230E-01
RMM:   3    -0.624949227626E+03    0.31081E-03   -0.12442E-04  7343   0.520E-02    0.586E-02
RMM:   4    -0.624949213700E+03    0.13926E-04   -0.21426E-05  5609   0.207E-02    0.427E-02
RMM:   5    -0.624949207583E+03    0.61169E-05   -0.11471E-05  4936   0.177E-02
  73 F= -.62494921E+03 E0= -.62489299E+03  d E =-.601177E-04
       N       E                     dE             d eps       ncg     rms          rms(c)
DAV:   1    -0.624949207714E+03    0.59859E-05   -0.72509E-05  8280   0.385E-02    0.235E-02
RMM:   2    -0.624949360168E+03   -0.15245E-03   -0.83990E-05  6933   0.350E-02    0.177E-01
RMM:   3    -0.624949206725E+03    0.15344E-03   -0.40510E-05  5996   0.303E-02    0.211E-02
RMM:   4    -0.624949204888E+03    0.18368E-05   -0.54066E-06  4500   0.905E-03
  74 F= -.62494920E+03 E0= -.62489302E+03  d E =-.574223E-04
       N       E                     dE             d eps       ncg     rms          rms(c)
DAV:   1    -0.624949210204E+03   -0.34793E-05   -0.13502E-03 10704   0.187E-01    0.125E-02
RMM:   2    -0.624949244675E+03   -0.34471E-04   -0.24329E-04 11574   0.447E-02    0.510E-02
RMM:   3    -0.624949231590E+03    0.13085E-04   -0.23961E-05  5262   0.273E-02    0.131E-02
RMM:   4    -0.624949232685E+03   -0.10952E-05   -0.86824E-06  4462   0.130E-02
  75 F= -.62494923E+03 E0= -.62489306E+03  d E =-.277972E-04
       N       E                     dE             d eps       ncg     rms          rms(c)
DAV:   1    -0.624949229036E+03    0.25535E-05   -0.15735E-03 10680   0.197E-01    0.174E-02
RMM:   2    -0.624949319773E+03   -0.90737E-04   -0.32391E-04 12158   0.525E-02    0.116E-01
RMM:   3    -0.624949255381E+03    0.64392E-04   -0.41192E-05  5910   0.321E-02    0.154E-02
RMM:   4    -0.624949255977E+03   -0.59616E-06   -0.12911E-05  5280   0.154E-02
  76 F= -.62494926E+03 E0= -.62489309E+03  d E =-.510895E-04
       N       E                     dE             d eps       ncg     rms          rms(c)
DAV:   1    -0.624949177268E+03    0.78114E-04   -0.60994E-03  9840   0.391E-01    0.267E-02
RMM:   2    -0.624949360001E+03   -0.18273E-03   -0.11932E-03 13709   0.961E-02    0.123E-01
RMM:   3    -0.624949285940E+03    0.74061E-04   -0.12267E-04  8581   0.487E-02    0.296E-02
RMM:   4    -0.624949289866E+03   -0.39253E-05   -0.45154E-05  7910   0.227E-02
  77 F= -.62494929E+03 E0= -.62489313E+03  d E =-.849777E-04
       N       E                     dE             d eps       ncg     rms          rms(c)
DAV:   1    -0.624949279514E+03    0.64264E-05   -0.19749E-03 11160   0.214E-01    0.467E-02
RMM:   2    -0.624949633094E+03   -0.35358E-03   -0.58578E-04 11077   0.897E-02    0.232E-01
RMM:   3    -0.624949312581E+03    0.32051E-03   -0.15945E-04  7503   0.543E-02    0.719E-02
RMM:   4    -0.624949288954E+03    0.23628E-04   -0.33120E-05  5840   0.246E-02    0.297E-02
RMM:   5    -0.624949289715E+03   -0.76111E-06   -0.18325E-05  5507   0.211E-02
  78 F= -.62494929E+03 E0= -.62489310E+03  d E =0.150932E-06
       N       E                     dE             d eps       ncg     rms          rms(c)
DAV:   1    -0.624949281204E+03    0.77490E-05   -0.85076E-04 12288   0.143E-01    0.297E-02
RMM:   2    -0.624949403383E+03   -0.12218E-03   -0.21590E-04  9124   0.533E-02    0.141E-01
RMM:   3    -0.624949289555E+03    0.11383E-03   -0.57895E-05  6458   0.368E-02    0.353E-02
RMM:   4    -0.624949285453E+03    0.41019E-05   -0.16589E-05  5500   0.184E-02
  79 F= -.62494929E+03 E0= -.62489312E+03  d E =0.441256E-05
       N       E                     dE             d eps       ncg     rms          rms(c)
DAV:   1    -0.624949251674E+03    0.37881E-04   -0.31521E-03 10848   0.274E-01    0.543E-02
RMM:   2    -0.624949670308E+03   -0.41863E-03   -0.86648E-04 11866   0.105E-01    0.246E-01
RMM:   3    -0.624949298744E+03    0.37156E-03   -0.21027E-04  8064   0.612E-02    0.756E-02
RMM:   4    -0.624949276777E+03    0.21967E-04   -0.51877E-05  7023   0.294E-02    0.428E-02
RMM:   5    -0.624949270031E+03    0.67460E-05   -0.23827E-05  5835   0.209E-02
  80 F= -.62494927E+03 E0= -.62489313E+03  d E =0.198348E-04
