  64  64   0   0
  0.1129557E+02  0.8932500E-09  0.9055600E-09  0.8937200E-09  0.5000000E-15
  1.000000000000000E-004
  CAR 
 HECN                                    
     14.55097245    -44.18577881  301      7.83323419      1.00000000
    -44.186  0.0000E+00  0.0000E+00
    -43.990  0.0000E+00  0.0000E+00
    -43.794  0.0000E+00  0.0000E+00
    -43.598  0.0000E+00  0.0000E+00
    -43.403  0.0000E+00  0.0000E+00
    -43.207  0.0000E+00  0.0000E+00
    -43.011  0.0000E+00  0.0000E+00
    -42.815  0.0000E+00  0.0000E+00
    -42.619  0.0000E+00  0.0000E+00
    -42.424  0.0000E+00  0.0000E+00
    -42.228  0.0000E+00  0.0000E+00
    -42.032  0.1472E-13  0.2882E-14
    -41.836  0.3000E-06  0.5873E-07
    -41.641  0.3987E-02  0.7807E-03
    -41.445  0.8213E-01  0.1686E-01
    -41.249  0.1622E-01  0.2004E-01
    -41.053  0.7789E-01  0.3528E-01
    -40.857  0.4304E+00  0.1196E+00
    -40.662  0.1039E+00  0.1399E+00
    -40.466  0.5071E-03  0.1400E+00
    -40.270  0.4179E-08  0.1400E+00
    -40.074  0.2268E-16  0.1400E+00
    -39.878  0.0000E+00  0.1400E+00
    -39.683  0.0000E+00  0.1400E+00
    -39.487  0.0000E+00  0.1400E+00
    -39.291  0.0000E+00  0.1400E+00
    -39.095  0.0000E+00  0.1400E+00
    -38.899  0.0000E+00  0.1400E+00
    -38.704  0.0000E+00  0.1400E+00
    -38.508  0.0000E+00  0.1400E+00
    -38.312  0.0000E+00  0.1400E+00
    -38.116  0.0000E+00  0.1400E+00
    -37.921  0.0000E+00  0.1400E+00
    -37.725  0.0000E+00  0.1400E+00
    -37.529  0.0000E+00  0.1400E+00
    -37.333  0.0000E+00  0.1400E+00
    -37.137  0.0000E+00  0.1400E+00
    -36.942  0.0000E+00  0.1400E+00
    -36.746  0.0000E+00  0.1400E+00
    -36.550  0.0000E+00  0.1400E+00
    -36.354  0.0000E+00  0.1400E+00
    -36.158  0.0000E+00  0.1400E+00
    -35.963  0.0000E+00  0.1400E+00
    -35.767  0.0000E+00  0.1400E+00
    -35.571  0.0000E+00  0.1400E+00
    -35.375  0.0000E+00  0.1400E+00
    -35.179  0.0000E+00  0.1400E+00
    -34.984  0.0000E+00  0.1400E+00
    -34.788  0.0000E+00  0.1400E+00
    -34.592  0.0000E+00  0.1400E+00
    -34.396  0.0000E+00  0.1400E+00
    -34.201  0.0000E+00  0.1400E+00
    -34.005  0.0000E+00  0.1400E+00
    -33.809  0.0000E+00  0.1400E+00
    -33.613  0.0000E+00  0.1400E+00
    -33.417  0.0000E+00  0.1400E+00
    -33.222  0.0000E+00  0.1400E+00
    -33.026  0.0000E+00  0.1400E+00
    -32.830  0.0000E+00  0.1400E+00
    -32.634  0.0000E+00  0.1400E+00
    -32.438  0.0000E+00  0.1400E+00
    -32.243  0.4268E-12  0.1400E+00
    -32.047  0.2470E-05  0.1400E+00
    -31.851  0.1001E-01  0.1420E+00
    -31.655  0.1396E+00  0.1693E+00
    -31.459  0.7493E+00  0.3160E+00
    -31.264  0.7838E+00  0.4695E+00
    -31.068  0.1551E+00  0.4998E+00
    -30.872  0.8072E-03  0.5000E+00
    -30.676  0.7681E-08  0.5000E+00
    -30.481  0.4536E-16  0.5000E+00
    -30.285  0.0000E+00  0.5000E+00
    -30.089  0.0000E+00  0.5000E+00
    -29.893  0.0000E+00  0.5000E+00
    -29.697  0.0000E+00  0.5000E+00
    -29.502  0.0000E+00  0.5000E+00
    -29.306  0.0000E+00  0.5000E+00
    -29.110  0.0000E+00  0.5000E+00
    -28.914  0.0000E+00  0.5000E+00
    -28.718  0.0000E+00  0.5000E+00
    -28.523  0.0000E+00  0.5000E+00
    -28.327  0.0000E+00  0.5000E+00
    -28.131  0.6018E-11  0.5000E+00
    -27.935  0.1459E-04  0.5000E+00
    -27.739  0.3577E-01  0.5070E+00
    -27.544  0.5131E+00  0.6075E+00
    -27.348  0.8148E+00  0.7670E+00
    -27.152  0.4577E+00  0.8566E+00
    -26.956  0.1730E-01  0.8600E+00
    -26.761  0.4757E-05  0.8600E+00
    -26.565  0.1200E-11  0.8600E+00
    -26.369  0.0000E+00  0.8600E+00
    -26.173  0.0000E+00  0.8600E+00
    -25.977  0.0000E+00  0.8600E+00
    -25.782  0.0000E+00  0.8600E+00
    -25.586  0.0000E+00  0.8600E+00
    -25.390  0.0000E+00  0.8600E+00
    -25.194  0.0000E+00  0.8600E+00
    -24.998  0.0000E+00  0.8600E+00
    -24.803  0.0000E+00  0.8600E+00
    -24.607  0.0000E+00  0.8600E+00
    -24.411  0.0000E+00  0.8600E+00
    -24.215  0.0000E+00  0.8600E+00
    -24.019  0.3706E-10  0.8600E+00
    -23.824  0.3550E-04  0.8600E+00
    -23.628  0.2774E-01  0.8654E+00
    -23.432  0.2203E+00  0.9086E+00
    -23.236  0.4623E+00  0.9991E+00
    -23.041  0.2244E+00  0.1043E+01
    -22.845  0.6132E+00  0.1163E+01
    -22.649  0.2895E+00  0.1220E+01
    -22.453  0.9692E-01  0.1239E+01
    -22.257  0.2058E+00  0.1279E+01
    -22.062  0.4982E-02  0.1280E+01
    -21.866  0.2182E-06  0.1280E+01
    -21.670  0.7086E-14  0.1280E+01
    -21.474  0.0000E+00  0.1280E+01
    -21.278  0.0000E+00  0.1280E+01
    -21.083  0.0000E+00  0.1280E+01
    -20.887  0.0000E+00  0.1280E+01
    -20.691  0.0000E+00  0.1280E+01
    -20.495  0.0000E+00  0.1280E+01
    -20.299  0.2025E-10  0.1280E+01
    -20.104  0.2931E-04  0.1280E+01
    -19.908  0.4224E-01  0.1288E+01
    -19.712  0.2448E+00  0.1336E+01
    -19.516  0.9400E-01  0.1355E+01
    -19.321  0.5895E+00  0.1470E+01
    -19.125  0.8946E+00  0.1645E+01
    -18.929  0.2478E+00  0.1694E+01
    -18.733  0.3213E-01  0.1700E+01
    -18.537  0.3776E-04  0.1700E+01
    -18.342  0.4094E-10  0.1700E+01
    -18.146  0.0000E+00  0.1700E+01
    -17.950  0.0000E+00  0.1700E+01
    -17.754  0.0000E+00  0.1700E+01
    -17.558  0.0000E+00  0.1700E+01
    -17.363  0.0000E+00  0.1700E+01
    -17.167  0.0000E+00  0.1700E+01
    -16.971  0.0000E+00  0.1700E+01
    -16.775  0.0000E+00  0.1700E+01
    -16.580  0.0000E+00  0.1700E+01
    -16.384  0.0000E+00  0.1700E+01
    -16.188  0.0000E+00  0.1700E+01
    -15.992  0.0000E+00  0.1700E+01
    -15.796  0.0000E+00  0.1700E+01
    -15.601  0.0000E+00  0.1700E+01
    -15.405  0.0000E+00  0.1700E+01
    -15.209  0.0000E+00  0.1700E+01
    -15.013  0.0000E+00  0.1700E+01
    -14.817  0.0000E+00  0.1700E+01
    -14.622  0.0000E+00  0.1700E+01
    -14.426  0.0000E+00  0.1700E+01
    -14.230  0.0000E+00  0.1700E+01
    -14.034  0.0000E+00  0.1700E+01
    -13.838  0.0000E+00  0.1700E+01
    -13.643  0.0000E+00  0.1700E+01
    -13.447  0.0000E+00  0.1700E+01
    -13.251  0.0000E+00  0.1700E+01
    -13.055  0.0000E+00  0.1700E+01
    -12.860  0.0000E+00  0.1700E+01
    -12.664  0.0000E+00  0.1700E+01
    -12.468  0.0000E+00  0.1700E+01
    -12.272  0.0000E+00  0.1700E+01
    -12.076  0.0000E+00  0.1700E+01
    -11.881  0.0000E+00  0.1700E+01
    -11.685  0.0000E+00  0.1700E+01
    -11.489  0.0000E+00  0.1700E+01
    -11.293  0.0000E+00  0.1700E+01
    -11.097  0.0000E+00  0.1700E+01
    -10.902  0.0000E+00  0.1700E+01
    -10.706  0.0000E+00  0.1700E+01
    -10.510  0.0000E+00  0.1700E+01
    -10.314  0.0000E+00  0.1700E+01
    -10.118  0.0000E+00  0.1700E+01
     -9.923  0.0000E+00  0.1700E+01
     -9.727  0.0000E+00  0.1700E+01
     -9.531  0.0000E+00  0.1700E+01
     -9.335  0.0000E+00  0.1700E+01
     -9.140  0.2640E-13  0.1700E+01
     -8.944  0.1478E-06  0.1700E+01
     -8.748  0.9484E-03  0.1700E+01
     -8.552  0.4220E-01  0.1708E+01
     -8.356  0.5778E-01  0.1720E+01
     -8.161  0.4515E-01  0.1729E+01
     -7.965  0.9423E-01  0.1747E+01
     -7.769  0.8819E-01  0.1764E+01
     -7.573  0.1056E+00  0.1785E+01
     -7.377  0.1820E+00  0.1821E+01
     -7.182  0.2749E+00  0.1874E+01
     -6.986  0.3182E+00  0.1937E+01
     -6.790  0.1154E+00  0.1959E+01
     -6.594  0.3501E-02  0.1960E+01
     -6.398  0.2582E-06  0.1960E+01
     -6.203  0.1377E-13  0.1960E+01
     -6.007  0.0000E+00  0.1960E+01
     -5.811  0.7634E-15  0.1960E+01
     -5.615  0.1789E-07  0.1960E+01
     -5.420  0.3027E-03  0.1960E+01
     -5.224  0.1995E-01  0.1964E+01
     -5.028  0.6654E-01  0.1977E+01
     -4.832  0.2259E-01  0.1981E+01
     -4.636  0.1010E+00  0.2001E+01
     -4.441  0.1067E+00  0.2022E+01
     -4.245  0.1029E+00  0.2042E+01
     -4.049  0.1494E+00  0.2071E+01
     -3.853  0.1941E+00  0.2109E+01
     -3.657  0.2007E+00  0.2149E+01
     -3.462  0.2392E+00  0.2196E+01
     -3.266  0.1756E+00  0.2230E+01
     -3.070  0.1784E+00  0.2265E+01
     -2.874  0.1866E+00  0.2301E+01
     -2.678  0.1229E+00  0.2326E+01
     -2.483  0.6506E-01  0.2338E+01
     -2.287  0.8457E-02  0.2340E+01
     -2.091  0.4638E-03  0.2340E+01
     -1.895  0.1494E-06  0.2340E+01
     -1.700  0.3520E-13  0.2340E+01
     -1.504  0.0000E+00  0.2340E+01
     -1.308  0.0000E+00  0.2340E+01
     -1.112  0.7813E-16  0.2340E+01
     -0.916  0.3186E-08  0.2340E+01
     -0.721  0.8309E-04  0.2340E+01
     -0.525  0.3748E-02  0.2341E+01
     -0.329  0.9393E-02  0.2343E+01
     -0.133  0.4252E-01  0.2351E+01
      0.063  0.8451E-01  0.2367E+01
      0.258  0.9394E-01  0.2386E+01
      0.454  0.1303E+00  0.2411E+01
      0.650  0.1738E+00  0.2445E+01
      0.846  0.2015E+00  0.2485E+01
      1.042  0.2582E+00  0.2535E+01
      1.237  0.2706E+00  0.2588E+01
      1.433  0.2342E+00  0.2634E+01
      1.629  0.2812E+00  0.2689E+01
      1.825  0.3249E+00  0.2753E+01
      2.020  0.3324E+00  0.2818E+01
      2.216  0.3631E+00  0.2889E+01
      2.412  0.4245E+00  0.2972E+01
      2.608  0.5118E+00  0.3072E+01
      2.804  0.6331E+00  0.3196E+01
      2.999  0.6852E+00  0.3330E+01
      3.195  0.6597E+00  0.3460E+01
      3.391  0.6609E+00  0.3589E+01
      3.587  0.6165E+00  0.3710E+01
      3.783  0.5411E+00  0.3816E+01
      3.978  0.4432E+00  0.3902E+01
      4.174  0.3731E+00  0.3975E+01
      4.370  0.3127E+00  0.4037E+01
      4.566  0.2787E+00  0.4091E+01
      4.762  0.2454E+00  0.4139E+01
      4.957  0.2045E+00  0.4179E+01
      5.153  0.1909E+00  0.4217E+01
      5.349  0.1433E+00  0.4245E+01
      5.545  0.7844E-01  0.4260E+01
      5.740  0.1160E+00  0.4283E+01
      5.936  0.1736E+00  0.4317E+01
      6.132  0.1696E+00  0.4350E+01
      6.328  0.1764E+00  0.4385E+01
      6.524  0.1972E+00  0.4423E+01
      6.719  0.1757E+00  0.4458E+01
      6.915  0.1717E+00  0.4491E+01
      7.111  0.2036E+00  0.4531E+01
      7.307  0.2194E+00  0.4574E+01
      7.503  0.2183E+00  0.4617E+01
      7.698  0.2398E+00  0.4664E+01
      7.894  0.1853E+00  0.4700E+01
      8.090  0.1796E+00  0.4735E+01
      8.286  0.2168E+00  0.4778E+01
      8.482  0.2555E+00  0.4828E+01
      8.677  0.2547E+00  0.4878E+01
      8.873  0.3433E+00  0.4945E+01
      9.069  0.3799E+00  0.5019E+01
      9.265  0.3876E+00  0.5095E+01
      9.460  0.3786E+00  0.5169E+01
      9.656  0.4046E+00  0.5248E+01
      9.852  0.4041E+00  0.5327E+01
     10.048  0.3866E+00  0.5403E+01
     10.244  0.4182E+00  0.5485E+01
     10.439  0.4381E+00  0.5571E+01
     10.635  0.4394E+00  0.5657E+01
     10.831  0.4218E+00  0.5739E+01
     11.027  0.4454E+00  0.5827E+01
     11.223  0.4540E+00  0.5916E+01
     11.418  0.4921E+00  0.6012E+01
     11.614  0.4408E+00  0.6098E+01
     11.810  0.2629E+00  0.6150E+01
     12.006  0.5197E-01  0.6160E+01
     12.202  0.6945E-03  0.6160E+01
     12.397  0.3714E-07  0.6160E+01
     12.593  0.1604E-14  0.6160E+01
     12.789  0.0000E+00  0.6160E+01
     12.985  0.0000E+00  0.6160E+01
     13.180  0.0000E+00  0.6160E+01
     13.376  0.0000E+00  0.6160E+01
     13.572  0.0000E+00  0.6160E+01
     13.768  0.0000E+00  0.6160E+01
     13.964  0.0000E+00  0.6160E+01
     14.159  0.0000E+00  0.6160E+01
     14.355  0.0000E+00  0.6160E+01
     14.551  0.0000E+00  0.6160E+01
