       N       E                     dE             d eps       ncg     rms          rms(c)
DAV:   1     0.323369468529E+04    0.32337E+04   -0.21111E+05  8624   0.130E+03
DAV:   2    -0.438615444457E+03   -0.36723E+04   -0.34818E+04  9576   0.401E+02
DAV:   3    -0.768785146937E+03   -0.33017E+03   -0.32369E+03 11564   0.109E+02
DAV:   4    -0.784598851605E+03   -0.15814E+02   -0.15733E+02 13776   0.196E+01
DAV:   5    -0.785169717381E+03   -0.57087E+00   -0.57013E+00 11984   0.336E+00    0.565E+01
RMM:   6    -0.676450116413E+03    0.10872E+03   -0.56063E+02 10396   0.293E+01    0.216E+01
RMM:   7    -0.671247237408E+03    0.52029E+01   -0.94199E+01  9897   0.155E+01    0.153E+01
RMM:   8    -0.667993770955E+03    0.32535E+01   -0.34005E+01 12629   0.707E+00    0.897E+00
RMM:   9    -0.667071477638E+03    0.92229E+00   -0.33782E+00 11456   0.251E+00    0.638E+00
RMM:  10    -0.666901698691E+03    0.16978E+00   -0.30981E+00 11713   0.229E+00    0.422E+00
RMM:  11    -0.666822588379E+03    0.79110E-01   -0.17119E+00 12363   0.180E+00    0.268E+00
RMM:  12    -0.666646057920E+03    0.17653E+00   -0.52427E-01 12318   0.973E-01    0.158E+00
RMM:  13    -0.666618420971E+03    0.27637E-01   -0.53253E-01 13170   0.800E-01    0.899E-01
RMM:  14    -0.666640846416E+03   -0.22425E-01   -0.18882E-01 14474   0.449E-01    0.102E+00
RMM:  15    -0.666638576480E+03    0.22699E-02   -0.44723E-02 14301   0.234E-01    0.814E-01
RMM:  16    -0.666627850365E+03    0.10726E-01   -0.57833E-02 12362   0.318E-01    0.228E-01
RMM:  17    -0.666628626259E+03   -0.77589E-03   -0.21548E-02 14386   0.182E-01    0.167E-01
RMM:  18    -0.666628033538E+03    0.59272E-03   -0.44346E-03 14136   0.837E-02    0.873E-02
RMM:  19    -0.666628030982E+03    0.25557E-05   -0.22485E-03 14549   0.538E-02    0.606E-02
RMM:  20    -0.666628030030E+03    0.95238E-06   -0.67856E-04 14582   0.313E-02    0.165E-02
RMM:  21    -0.666628043755E+03   -0.13725E-04   -0.27565E-04 13607   0.190E-02    0.106E-02
RMM:  22    -0.666628052067E+03   -0.83117E-05   -0.12819E-04 12184   0.130E-02    0.105E-02
RMM:  23    -0.666628052988E+03   -0.92133E-06   -0.32678E-05  8447   0.935E-03
   1 F= -.66662805E+03 E0= -.66656889E+03  d E =-.666628E+03
       N       E                     dE             d eps       ncg     rms          rms(c)
DAV:   1    -0.664570132340E+03    0.20579E+01   -0.12283E+03  8624   0.759E+01    0.133E+01
RMM:   2    -0.669265311701E+03   -0.46952E+01   -0.91642E+01 10382   0.189E+01    0.975E+00
RMM:   3    -0.668451967649E+03    0.81334E+00   -0.16655E+01 11236   0.772E+00    0.606E+00
RMM:   4    -0.667940713767E+03    0.51125E+00   -0.40499E+00 12222   0.354E+00    0.414E+00
RMM:   5    -0.667710248161E+03    0.23047E+00   -0.13400E+00 11335   0.201E+00    0.285E+00
RMM:   6    -0.667592960610E+03    0.11729E+00   -0.55305E-01 12588   0.116E+00    0.146E+00
RMM:   7    -0.667571302499E+03    0.21658E-01   -0.18530E-01 13318   0.638E-01    0.848E-01
RMM:   8    -0.667563417981E+03    0.78845E-02   -0.69060E-02 14705   0.343E-01    0.411E-01
RMM:   9    -0.667563456843E+03   -0.38861E-04   -0.25046E-02 15015   0.191E-01    0.263E-01
RMM:  10    -0.667563497534E+03   -0.40692E-04   -0.10971E-02 15064   0.124E-01    0.150E-01
RMM:  11    -0.667564024820E+03   -0.52729E-03   -0.55594E-03 15114   0.871E-02    0.113E-01
RMM:  12    -0.667564243316E+03   -0.21850E-03   -0.26220E-03 15077   0.613E-02    0.806E-02
RMM:  13    -0.667564419882E+03   -0.17657E-03   -0.13102E-03 15075   0.445E-02    0.581E-02
RMM:  14    -0.667564490955E+03   -0.71073E-04   -0.65376E-04 14638   0.330E-02    0.394E-02
RMM:  15    -0.667564511371E+03   -0.20416E-04   -0.34162E-04 14222   0.255E-02    0.133E-02
RMM:  16    -0.667564524595E+03   -0.13223E-04   -0.19249E-04 13280   0.183E-02    0.549E-03
RMM:  17    -0.667564531377E+03   -0.67827E-05   -0.73707E-05  9530   0.137E-02
   2 F= -.66756453E+03 E0= -.66750002E+03  d E =-.936478E+00
       N       E                     dE             d eps       ncg     rms          rms(c)
DAV:   1    -0.667859312715E+03   -0.29479E+00   -0.23531E+02  8680   0.318E+01    0.544E+00
RMM:   2    -0.668740720297E+03   -0.88141E+00   -0.17501E+01 10487   0.861E+00    0.396E+00
RMM:   3    -0.668731099040E+03    0.96213E-02   -0.31298E+00 11155   0.341E+00    0.267E+00
RMM:   4    -0.668623635228E+03    0.10746E+00   -0.75895E-01 11531   0.162E+00    0.167E+00
RMM:   5    -0.668582915871E+03    0.40719E-01   -0.28733E-01 11216   0.965E-01    0.107E+00
RMM:   6    -0.668570972159E+03    0.11944E-01   -0.11026E-01 12502   0.542E-01    0.532E-01
RMM:   7    -0.668567631980E+03    0.33402E-02   -0.29178E-02 13597   0.255E-01    0.273E-01
RMM:   8    -0.668567740668E+03   -0.10869E-03   -0.10122E-02 14712   0.129E-01    0.190E-01
RMM:   9    -0.668567787752E+03   -0.47085E-04   -0.36115E-03 14797   0.742E-02    0.999E-02
RMM:  10    -0.668567954264E+03   -0.16651E-03   -0.17182E-03 14725   0.494E-02    0.706E-02
RMM:  11    -0.668568067883E+03   -0.11362E-03   -0.90178E-04 14633   0.358E-02    0.434E-02
RMM:  12    -0.668568119014E+03   -0.51131E-04   -0.42322E-04 14323   0.244E-02    0.355E-02
RMM:  13    -0.668568145422E+03   -0.26408E-04   -0.19212E-04 13653   0.169E-02    0.264E-02
RMM:  14    -0.668568167002E+03   -0.21581E-04   -0.93432E-05 11564   0.132E-02    0.146E-02
RMM:  15    -0.668568171633E+03   -0.46310E-05   -0.36469E-05  9181   0.100E-02
   3 F= -.66856817E+03 E0= -.66850547E+03  d E =-.194012E+01
       N       E                     dE             d eps       ncg     rms          rms(c)
DAV:   1    -0.669148952679E+03   -0.58079E+00   -0.36218E+02  8624   0.425E+01    0.876E+00
RMM:   2    -0.669921380857E+03   -0.77243E+00   -0.29351E+01 10560   0.116E+01    0.654E+00
RMM:   3    -0.669480251998E+03    0.44113E+00   -0.53095E+00 10753   0.480E+00    0.447E+00
RMM:   4    -0.669161323100E+03    0.31893E+00   -0.17388E+00 10825   0.252E+00    0.275E+00
RMM:   5    -0.669032716274E+03    0.12861E+00   -0.64826E-01 10953   0.149E+00    0.127E+00
RMM:   6    -0.669010416445E+03    0.22300E-01   -0.21094E-01 12294   0.792E-01    0.495E-01
RMM:   7    -0.669013129025E+03   -0.27126E-02   -0.65767E-02 14364   0.371E-01    0.364E-01
RMM:   8    -0.669013411404E+03   -0.28238E-03   -0.18797E-02 14861   0.174E-01    0.232E-01
RMM:   9    -0.669014097948E+03   -0.68654E-03   -0.74957E-03 15039   0.106E-01    0.140E-01
RMM:  10    -0.669014696035E+03   -0.59809E-03   -0.37065E-03 15012   0.725E-02    0.101E-01
RMM:  11    -0.669014987809E+03   -0.29177E-03   -0.19095E-03 14994   0.517E-02    0.746E-02
RMM:  12    -0.669015115024E+03   -0.12722E-03   -0.84189E-04 15045   0.355E-02    0.552E-02
RMM:  13    -0.669015171275E+03   -0.56251E-04   -0.35651E-04 14361   0.257E-02    0.272E-02
RMM:  14    -0.669015197546E+03   -0.26271E-04   -0.18287E-04 13647   0.194E-02    0.116E-02
RMM:  15    -0.669015205498E+03   -0.79521E-05   -0.99709E-05 12171   0.138E-02
   4 F= -.66901521E+03 E0= -.66896069E+03  d E =-.447034E+00
       N       E                     dE             d eps       ncg     rms          rms(c)
DAV:   1    -0.669247046608E+03   -0.23185E+00   -0.47742E+01  9408   0.157E+01    0.324E+00
RMM:   2    -0.669366686544E+03   -0.11964E+00   -0.39530E+00 10617   0.419E+00    0.261E+00
RMM:   3    -0.669323093369E+03    0.43593E-01   -0.78344E-01 10950   0.177E+00    0.176E+00
RMM:   4    -0.669271289489E+03    0.51804E-01   -0.22861E-01 10991   0.914E-01    0.107E+00
RMM:   5    -0.669251104931E+03    0.20185E-01   -0.90462E-02 10946   0.556E-01    0.537E-01
RMM:   6    -0.669246755165E+03    0.43498E-02   -0.33000E-02 12124   0.315E-01    0.217E-01
RMM:   7    -0.669246898096E+03   -0.14293E-03   -0.10542E-02 14194   0.155E-01    0.158E-01
RMM:   8    -0.669246727682E+03    0.17041E-03   -0.29847E-03 14724   0.710E-02    0.848E-02
RMM:   9    -0.669246741249E+03   -0.13567E-04   -0.11263E-03 14683   0.420E-02    0.495E-02
RMM:  10    -0.669246773971E+03   -0.32721E-04   -0.51523E-04 14198   0.274E-02    0.344E-02
RMM:  11    -0.669246797236E+03   -0.23265E-04   -0.27614E-04 13620   0.197E-02    0.260E-02
RMM:  12    -0.669246809960E+03   -0.12724E-04   -0.13554E-04 12594   0.140E-02    0.199E-02
RMM:  13    -0.669246811774E+03   -0.18137E-05   -0.38836E-05  9299   0.101E-02
   5 F= -.66924681E+03 E0= -.66918927E+03  d E =-.678640E+00
       N       E                     dE             d eps       ncg     rms          rms(c)
DAV:   1    -0.668977068029E+03    0.26974E+00   -0.88158E+01  8708   0.207E+01    0.187E+00
RMM:   2    -0.669471135486E+03   -0.49407E+00   -0.59617E+00 10221   0.517E+00    0.113E+00
RMM:   3    -0.669577413513E+03   -0.10628E+00   -0.10637E+00 10558   0.190E+00    0.990E-01
RMM:   4    -0.669578247658E+03   -0.83415E-03   -0.22682E-01 12264   0.798E-01    0.540E-01
RMM:   5    -0.669576663817E+03    0.15838E-02   -0.54770E-02 12603   0.356E-01    0.401E-01
RMM:   6    -0.669574826536E+03    0.18373E-02   -0.16390E-02 11372   0.209E-01    0.255E-01
RMM:   7    -0.669574218395E+03    0.60814E-03   -0.71592E-03 13227   0.129E-01    0.135E-01
RMM:   8    -0.669574061420E+03    0.15697E-03   -0.24779E-03 14438   0.657E-02    0.816E-02
RMM:   9    -0.669574034176E+03    0.27245E-04   -0.11792E-03 14342   0.410E-02    0.531E-02
RMM:  10    -0.669574030350E+03    0.38262E-05   -0.43586E-04 13730   0.244E-02    0.332E-02
RMM:  11    -0.669574029973E+03    0.37630E-06   -0.19720E-04 12706   0.160E-02    0.210E-02
RMM:  12    -0.669574033351E+03   -0.33779E-05   -0.91707E-05 11130   0.117E-02
   6 F= -.66957403E+03 E0= -.66952268E+03  d E =-.327222E+00
       N       E                     dE             d eps       ncg     rms          rms(c)
DAV:   1    -0.669481942825E+03    0.92087E-01   -0.19190E+01  9408   0.964E+00    0.870E-01
RMM:   2    -0.669589697566E+03   -0.10775E+00   -0.13040E+00 10227   0.242E+00    0.517E-01
RMM:   3    -0.669612489344E+03   -0.22792E-01   -0.23081E-01 10586   0.886E-01    0.451E-01
RMM:   4    -0.669612975811E+03   -0.48647E-03   -0.49598E-02 12331   0.373E-01    0.254E-01
RMM:   5    -0.669612622604E+03    0.35321E-03   -0.12141E-02 12583   0.168E-01    0.187E-01
RMM:   6    -0.669612268563E+03    0.35404E-03   -0.36566E-03 11497   0.983E-02    0.126E-01
RMM:   7    -0.669612102574E+03    0.16599E-03   -0.16432E-03 13457   0.607E-02    0.624E-02
RMM:   8    -0.669612067344E+03    0.35230E-04   -0.55708E-04 13824   0.304E-02    0.379E-02
RMM:   9    -0.669612061871E+03    0.54730E-05   -0.28850E-04 12454   0.201E-02    0.247E-02
RMM:  10    -0.669612059687E+03    0.21836E-05   -0.10533E-04 10620   0.122E-02    0.155E-02
RMM:  11    -0.669612057778E+03    0.19097E-05   -0.36677E-05  8924   0.821E-03
   7 F= -.66961206E+03 E0= -.66956326E+03  d E =-.365246E+00
       N       E                     dE             d eps       ncg     rms          rms(c)
DAV:   1    -0.669422572145E+03    0.18949E+00   -0.52833E+01  8624   0.162E+01    0.125E+00
RMM:   2    -0.669758678115E+03   -0.33611E+00   -0.36520E+00 10186   0.410E+00    0.109E+00
RMM:   3    -0.669810640764E+03   -0.51963E-01   -0.63792E-01 10088   0.147E+00    0.764E-01
RMM:   4    -0.669811786182E+03   -0.11454E-02   -0.11072E-01 12167   0.557E-01    0.410E-01
RMM:   5    -0.669811378251E+03    0.40793E-03   -0.25704E-02 12820   0.250E-01    0.330E-01
RMM:   6    -0.669809752664E+03    0.16256E-02   -0.95441E-03 11156   0.162E-01    0.168E-01
RMM:   7    -0.669809772251E+03   -0.19587E-04   -0.43058E-03 12933   0.993E-02    0.957E-02
RMM:   8    -0.669809682653E+03    0.89598E-04   -0.15856E-03 14311   0.523E-02    0.517E-02
RMM:   9    -0.669809678229E+03    0.44239E-05   -0.66065E-04 13517   0.312E-02    0.337E-02
RMM:  10    -0.669809694607E+03   -0.16378E-04   -0.30645E-04 13070   0.199E-02    0.223E-02
RMM:  11    -0.669809704443E+03   -0.98357E-05   -0.13015E-04 11813   0.127E-02    0.145E-02
RMM:  12    -0.669809708810E+03   -0.43669E-05   -0.44658E-05  9497   0.893E-03
   8 F= -.66980971E+03 E0= -.66976579E+03  d E =-.197651E+00
       N       E                     dE             d eps       ncg     rms          rms(c)
DAV:   1    -0.669531634022E+03    0.27807E+00   -0.46796E+01  8624   0.152E+01    0.117E+00
RMM:   2    -0.669827893034E+03   -0.29626E+00   -0.32414E+00 10188   0.386E+00    0.979E-01
RMM:   3    -0.669876854123E+03   -0.48961E-01   -0.56595E-01 10144   0.139E+00    0.719E-01
RMM:   4    -0.669877967470E+03   -0.11133E-02   -0.99515E-02 12207   0.528E-01    0.385E-01
RMM:   5    -0.669877623108E+03    0.34436E-03   -0.23141E-02 12900   0.236E-01    0.310E-01
RMM:   6    -0.669876134220E+03    0.14889E-02   -0.87050E-03 11133   0.155E-01    0.149E-01
RMM:   7    -0.669876203581E+03   -0.69361E-04   -0.39254E-03 13065   0.941E-02    0.850E-02
RMM:   8    -0.669876125592E+03    0.77989E-04   -0.14068E-03 14192   0.493E-02    0.466E-02
RMM:   9    -0.669876127757E+03   -0.21651E-05   -0.61164E-04 13375   0.300E-02    0.313E-02
RMM:  10    -0.669876143978E+03   -0.16221E-04   -0.28357E-04 12961   0.191E-02    0.208E-02
RMM:  11    -0.669876152881E+03   -0.89030E-05   -0.11896E-04 11571   0.122E-02    0.136E-02
RMM:  12    -0.669876155879E+03   -0.29979E-05   -0.31751E-05  8715   0.865E-03
   9 F= -.66987616E+03 E0= -.66983520E+03  d E =-.264098E+00
       N       E                     dE             d eps       ncg     rms          rms(c)
DAV:   1    -0.669759260749E+03    0.11689E+00   -0.47170E+01  8624   0.150E+01    0.178E+00
RMM:   2    -0.669962736952E+03   -0.20348E+00   -0.29022E+00 10308   0.362E+00    0.129E+00
RMM:   3    -0.670004153400E+03   -0.41416E-01   -0.55622E-01 10748   0.138E+00    0.111E+00
RMM:   4    -0.669987914101E+03    0.16239E-01   -0.11217E-01 11471   0.588E-01    0.496E-01
RMM:   5    -0.669984907708E+03    0.30064E-02   -0.35328E-02 11965   0.307E-01    0.321E-01
RMM:   6    -0.669983474467E+03    0.14332E-02   -0.11008E-02 11893   0.170E-01    0.161E-01
RMM:   7    -0.669983289249E+03    0.18522E-03   -0.46157E-03 13994   0.978E-02    0.745E-02
RMM:   8    -0.669983362822E+03   -0.73573E-04   -0.15553E-03 14622   0.469E-02    0.567E-02
RMM:   9    -0.669983367228E+03   -0.44067E-05   -0.62159E-04 14204   0.279E-02    0.315E-02
RMM:  10    -0.669983382259E+03   -0.15031E-04   -0.26674E-04 13072   0.182E-02    0.212E-02
RMM:  11    -0.669983386015E+03   -0.37553E-05   -0.11451E-04 11679   0.128E-02    0.116E-02
RMM:  12    -0.669983386761E+03   -0.74664E-06   -0.34217E-05  9027   0.918E-03
  10 F= -.66998339E+03 E0= -.66994287E+03  d E =-.107231E+00
       N       E                     dE             d eps       ncg     rms          rms(c)
DAV:   1    -0.669979321668E+03    0.40643E-02   -0.13805E+00 10444   0.256E+00    0.304E-01
RMM:   2    -0.669985161532E+03   -0.58399E-02   -0.85116E-02 10319   0.620E-01    0.207E-01
RMM:   3    -0.669986422435E+03   -0.12609E-02   -0.15944E-02 10802   0.236E-01    0.187E-01
RMM:   4    -0.669985995569E+03    0.42687E-03   -0.34021E-03 11686   0.101E-01    0.871E-02
RMM:   5    -0.669985896813E+03    0.98756E-04   -0.10451E-03 12174   0.524E-02    0.538E-02
RMM:   6    -0.669985856760E+03    0.40053E-04   -0.34727E-04 12282   0.294E-02    0.292E-02
RMM:   7    -0.669985849162E+03    0.75972E-05   -0.15161E-04 11269   0.170E-02    0.143E-02
RMM:   8    -0.669985848579E+03    0.58317E-06   -0.48445E-05  9177   0.893E-03
  11 F= -.66998585E+03 E0= -.66994533E+03  d E =-.109693E+00
       N       E                     dE             d eps       ncg     rms          rms(c)
DAV:   1    -0.669947297010E+03    0.38552E-01   -0.36143E+01  8624   0.130E+01    0.182E+00
RMM:   2    -0.670066689518E+03   -0.11939E+00   -0.19814E+00 10514   0.295E+00    0.152E+00
RMM:   3    -0.670059589498E+03    0.71000E-02   -0.38888E-01 11053   0.118E+00    0.927E-01
RMM:   4    -0.670047509520E+03    0.12080E-01   -0.92387E-02 11386   0.549E-01    0.557E-01
RMM:   5    -0.670042975567E+03    0.45340E-02   -0.31375E-02 11464   0.313E-01    0.309E-01
RMM:   6    -0.670041818790E+03    0.11568E-02   -0.11102E-02 12348   0.177E-01    0.130E-01
RMM:   7    -0.670041883014E+03   -0.64224E-04   -0.37124E-03 14196   0.880E-02    0.804E-02
RMM:   8    -0.670041915662E+03   -0.32648E-04   -0.11849E-03 14399   0.421E-02    0.492E-02
RMM:   9    -0.670041958366E+03   -0.42704E-04   -0.45739E-04 13927   0.251E-02    0.295E-02
RMM:  10    -0.670041983947E+03   -0.25581E-04   -0.20246E-04 12670   0.164E-02    0.192E-02
RMM:  11    -0.670041999211E+03   -0.15264E-04   -0.96886E-05 11256   0.116E-02    0.112E-02
RMM:  12    -0.670042002264E+03   -0.30529E-05   -0.14342E-05  7417   0.798E-03
  12 F= -.67004200E+03 E0= -.67000147E+03  d E =-.561537E-01
       N       E                     dE             d eps       ncg     rms          rms(c)
DAV:   1    -0.670041809450E+03    0.18976E-03   -0.61678E-01  9604   0.170E+00    0.237E-01
RMM:   2    -0.670043812718E+03   -0.20033E-02   -0.33538E-02 10516   0.384E-01    0.196E-01
RMM:   3    -0.670043702486E+03    0.11023E-03   -0.65648E-03 11055   0.154E-01    0.121E-01
RMM:   4    -0.670043492187E+03    0.21030E-03   -0.16056E-03 11411   0.719E-02    0.737E-02
RMM:   5    -0.670043402048E+03    0.90139E-04   -0.51557E-04 11320   0.406E-02    0.407E-02
RMM:   6    -0.670043370191E+03    0.31858E-04   -0.17330E-04 11605   0.229E-02    0.173E-02
RMM:   7    -0.670043365698E+03    0.44922E-05   -0.59691E-05 10780   0.115E-02
  13 F= -.67004337E+03 E0= -.67000290E+03  d E =-.575171E-01
       N       E                     dE             d eps       ncg     rms          rms(c)
DAV:   1    -0.670023406884E+03    0.19963E-01   -0.17546E+01  8624   0.891E+00    0.101E+00
RMM:   2    -0.670075692731E+03   -0.52286E-01   -0.83570E-01 10306   0.194E+00    0.615E-01
RMM:   3    -0.670086815763E+03   -0.11123E-01   -0.16252E-01 10949   0.747E-01    0.505E-01
RMM:   4    -0.670084025059E+03    0.27907E-02   -0.33297E-02 11814   0.320E-01    0.287E-01
RMM:   5    -0.670083055515E+03    0.96954E-03   -0.10118E-02 12063   0.165E-01    0.176E-01
RMM:   6    -0.670082678975E+03    0.37654E-03   -0.32464E-03 12508   0.899E-02    0.912E-02
RMM:   7    -0.670082586086E+03    0.92888E-04   -0.13053E-03 14138   0.502E-02    0.353E-02
RMM:   8    -0.670082610183E+03   -0.24097E-04   -0.44669E-04 13577   0.245E-02    0.252E-02
RMM:   9    -0.670082614829E+03   -0.46453E-05   -0.18099E-04 11938   0.148E-02    0.152E-02
RMM:  10    -0.670082618618E+03   -0.37893E-05   -0.79471E-05 10649   0.101E-02
  14 F= -.67008262E+03 E0= -.67004133E+03  d E =-.392529E-01
       N       E                     dE             d eps       ncg     rms          rms(c)
DAV:   1    -0.670082416886E+03    0.19794E-03   -0.15849E-01 10556   0.846E-01    0.967E-02
RMM:   2    -0.670082879976E+03   -0.46309E-03   -0.74759E-03 10332   0.184E-01    0.587E-02
RMM:   3    -0.670082973053E+03   -0.93077E-04   -0.14377E-03 11114   0.709E-02    0.474E-02
RMM:   4    -0.670082949579E+03    0.23474E-04   -0.31774E-04 12050   0.307E-02    0.275E-02
RMM:   5    -0.670082940414E+03    0.91651E-05   -0.10626E-04 11298   0.159E-02    0.164E-02
RMM:   6    -0.670082937080E+03    0.33344E-05   -0.43743E-05  8472   0.844E-03
  15 F= -.67008294E+03 E0= -.67004156E+03  d E =-.395714E-01
       N       E                     dE             d eps       ncg     rms          rms(c)
DAV:   1    -0.670080101338E+03    0.28391E-02   -0.67805E+00  8792   0.559E+00    0.617E-01
RMM:   2    -0.670101815401E+03   -0.21714E-01   -0.32398E-01 10286   0.122E+00    0.423E-01
RMM:   3    -0.670105164398E+03   -0.33490E-02   -0.60090E-02 10859   0.466E-01    0.312E-01
RMM:   4    -0.670103769877E+03    0.13945E-02   -0.12457E-02 11780   0.197E-01    0.163E-01
RMM:   5    -0.670103698567E+03    0.71310E-04   -0.39840E-03 12098   0.102E-01    0.130E-01
RMM:   6    -0.670103385762E+03    0.31280E-03   -0.11455E-03 11747   0.550E-02    0.363E-02
RMM:   7    -0.670103416189E+03   -0.30427E-04   -0.49947E-04 13324   0.305E-02    0.245E-02
RMM:   8    -0.670103426811E+03   -0.10622E-04   -0.18059E-04 11303   0.154E-02    0.153E-02
RMM:   9    -0.670103432374E+03   -0.55626E-05   -0.71013E-05  9905   0.941E-03
  16 F= -.67010343E+03 E0= -.67006185E+03  d E =-.204953E-01
       N       E                     dE             d eps       ncg     rms          rms(c)
DAV:   1    -0.670101855769E+03    0.15710E-02   -0.95786E-01  9408   0.210E+00    0.231E-01
RMM:   2    -0.670104921231E+03   -0.30655E-02   -0.45739E-02 10306   0.459E-01    0.156E-01
RMM:   3    -0.670105422594E+03   -0.50136E-03   -0.85610E-03 10932   0.175E-01    0.116E-01
RMM:   4    -0.670105241568E+03    0.18103E-03   -0.18207E-03 11967   0.745E-02    0.597E-02
RMM:   5    -0.670105242845E+03   -0.12770E-05   -0.59001E-04 12283   0.385E-02    0.490E-02
RMM:   6    -0.670105203308E+03    0.39537E-04   -0.18544E-04 11781   0.209E-02    0.137E-02
RMM:   7    -0.670105208510E+03   -0.52015E-05   -0.71299E-05  9682   0.112E-02
  17 F= -.67010521E+03 E0= -.67006352E+03  d E =-.222714E-01
       N       E                     dE             d eps       ncg     rms          rms(c)
DAV:   1    -0.670106799068E+03   -0.15958E-02   -0.36442E+00  8680   0.401E+00    0.428E-01
RMM:   2    -0.670114337373E+03   -0.75383E-02   -0.13437E-01 10457   0.799E-01    0.250E-01
RMM:   3    -0.670115781820E+03   -0.14444E-02   -0.25469E-02 11106   0.320E-01    0.198E-01
RMM:   4    -0.670115284918E+03    0.49690E-03   -0.56454E-03 12033   0.136E-01    0.107E-01
RMM:   5    -0.670115170405E+03    0.11451E-03   -0.15620E-03 12209   0.680E-02    0.719E-02
RMM:   6    -0.670115104668E+03    0.65737E-04   -0.48684E-04 12748   0.344E-02    0.378E-02
RMM:   7    -0.670115082105E+03    0.22563E-04   -0.18108E-04 12225   0.184E-02    0.141E-02
RMM:   8    -0.670115081171E+03    0.93436E-06   -0.57738E-05  9573   0.956E-03
  18 F= -.67011508E+03 E0= -.67007311E+03  d E =-.987266E-02
       N       E                     dE             d eps       ncg     rms          rms(c)
DAV:   1    -0.670114914381E+03    0.16772E-03   -0.38598E-01  9828   0.130E+00    0.139E-01
RMM:   2    -0.670115718646E+03   -0.80426E-03   -0.14242E-02 10472   0.260E-01    0.820E-02
RMM:   3    -0.670115872191E+03   -0.15354E-03   -0.27168E-03 11183   0.104E-01    0.651E-02
RMM:   4    -0.670115819478E+03    0.52713E-04   -0.62203E-04 12224   0.445E-02    0.357E-02
RMM:   5    -0.670115806293E+03    0.13185E-04   -0.18297E-04 12394   0.223E-02    0.242E-02
RMM:   6    -0.670115797408E+03    0.88851E-05   -0.65348E-05 10015   0.113E-02
  19 F= -.67011580E+03 E0= -.67007374E+03  d E =-.105889E-01
       N       E                     dE             d eps       ncg     rms          rms(c)
DAV:   1    -0.670119303749E+03   -0.34975E-02   -0.35898E+00  8680   0.402E+00    0.605E-01
RMM:   2    -0.670122106199E+03   -0.28025E-02   -0.14250E-01 10552   0.815E-01    0.382E-01
RMM:   3    -0.670122039937E+03    0.66262E-04   -0.29205E-02 11187   0.345E-01    0.281E-01
RMM:   4    -0.670120532370E+03    0.15076E-02   -0.79681E-03 11148   0.170E-01    0.146E-01
RMM:   5    -0.670120349935E+03    0.18244E-03   -0.29686E-03 11690   0.977E-02    0.910E-02
RMM:   6    -0.670120273579E+03    0.76355E-04   -0.93270E-04 13100   0.482E-02    0.429E-02
RMM:   7    -0.670120268502E+03    0.50769E-05   -0.27605E-04 13050   0.223E-02    0.200E-02
RMM:   8    -0.670120280250E+03   -0.11748E-04   -0.88304E-05 10130   0.114E-02    0.143E-02
RMM:   9    -0.670120284672E+03   -0.44215E-05   -0.24897E-05  7843   0.777E-03
  20 F= -.67012028E+03 E0= -.67007826E+03  d E =-.448726E-02
       N       E                     dE             d eps       ncg     rms          rms(c)
DAV:   1    -0.670120595045E+03   -0.31479E-03   -0.15127E-01  9408   0.825E-01    0.124E-01
RMM:   2    -0.670120708411E+03   -0.11337E-03   -0.60080E-03 10557   0.168E-01    0.788E-02
RMM:   3    -0.670120699589E+03    0.88213E-05   -0.12259E-03 11166   0.709E-02    0.584E-02
RMM:   4    -0.670120626635E+03    0.72954E-04   -0.33144E-04 11117   0.350E-02    0.306E-02
RMM:   5    -0.670120612335E+03    0.14301E-04   -0.11690E-04 10986   0.201E-02    0.192E-02
RMM:   6    -0.670120605033E+03    0.73013E-05   -0.38257E-05  8422   0.101E-02
  21 F= -.67012061E+03 E0= -.67007858E+03  d E =-.480763E-02
       N       E                     dE             d eps       ncg     rms          rms(c)
DAV:   1    -0.670119141569E+03    0.14708E-02   -0.13253E+00  8820   0.238E+00    0.223E-01
RMM:   2    -0.670123198902E+03   -0.40573E-02   -0.55038E-02 10184   0.512E-01    0.122E-01
RMM:   3    -0.670124034031E+03   -0.83513E-03   -0.98545E-03 10703   0.191E-01    0.992E-02
RMM:   4    -0.670123973415E+03    0.60616E-04   -0.19686E-03 12159   0.780E-02    0.532E-02
RMM:   5    -0.670123959398E+03    0.14017E-04   -0.53618E-04 12127   0.380E-02    0.381E-02
RMM:   6    -0.670123936400E+03    0.22998E-04   -0.16054E-04 11723   0.197E-02    0.161E-02
RMM:   7    -0.670123934781E+03    0.16193E-05   -0.58981E-05  9376   0.104E-02
  22 F= -.67012393E+03 E0= -.67008180E+03  d E =-.332975E-02
       N       E                     dE             d eps       ncg     rms          rms(c)
DAV:   1    -0.670123402076E+03    0.53432E-03   -0.24264E-01  9408   0.102E+00    0.956E-02
RMM:   2    -0.670124155964E+03   -0.75389E-03   -0.10142E-02 10230   0.220E-01    0.528E-02
RMM:   3    -0.670124315685E+03   -0.15972E-03   -0.18610E-03 10911   0.824E-02    0.441E-02
RMM:   4    -0.670124303726E+03    0.11959E-04   -0.38312E-04 11999   0.337E-02    0.232E-02
RMM:   5    -0.670124301022E+03    0.27035E-05   -0.11326E-04 11280   0.167E-02    0.167E-02
RMM:   6    -0.670124296957E+03    0.40653E-05   -0.40899E-05  8171   0.866E-03
  23 F= -.67012430E+03 E0= -.67008213E+03  d E =-.369192E-02
       N       E                     dE             d eps       ncg     rms          rms(c)
DAV:   1    -0.670124515324E+03   -0.21430E-03   -0.45066E-01  9352   0.135E+00    0.124E-01
RMM:   2    -0.670125652939E+03   -0.11376E-02   -0.15488E-02 10232   0.267E-01    0.726E-02
RMM:   3    -0.670125884695E+03   -0.23176E-03   -0.28142E-03 10916   0.102E-01    0.635E-02
RMM:   4    -0.670125849745E+03    0.34950E-04   -0.55583E-04 12065   0.410E-02    0.333E-02
RMM:   5    -0.670125850469E+03   -0.72335E-06   -0.16494E-04 11515   0.206E-02    0.265E-02
RMM:   6    -0.670125841034E+03    0.94350E-05   -0.56289E-05 10141   0.112E-02
  24 F= -.67012584E+03 E0= -.67008364E+03  d E =-.154408E-02
       N       E                     dE             d eps       ncg     rms          rms(c)
DAV:   1    -0.670125258368E+03    0.59210E-03   -0.34313E-01  9184   0.118E+00    0.109E-01
RMM:   2    -0.670126133049E+03   -0.87468E-03   -0.11855E-02 10273   0.234E-01    0.633E-02
RMM:   3    -0.670126316124E+03   -0.18308E-03   -0.21819E-03 11004   0.892E-02    0.557E-02
RMM:   4    -0.670126294155E+03    0.21969E-04   -0.44463E-04 12122   0.362E-02    0.298E-02
RMM:   5    -0.670126295344E+03   -0.11886E-05   -0.13562E-04 11480   0.181E-02    0.232E-02
RMM:   6    -0.670126289711E+03    0.56329E-05   -0.53583E-05  9358   0.100E-02
  25 F= -.67012629E+03 E0= -.67008407E+03  d E =-.199275E-02
       N       E                     dE             d eps       ncg     rms          rms(c)
DAV:   1    -0.670126156539E+03    0.13880E-03   -0.46207E-01  9016   0.141E+00    0.181E-01
RMM:   2    -0.670127041478E+03   -0.88494E-03   -0.18788E-02 10468   0.294E-01    0.111E-01
RMM:   3    -0.670127191190E+03   -0.14971E-03   -0.35962E-03 11029   0.116E-01    0.895E-02
RMM:   4    -0.670127047885E+03    0.14330E-03   -0.86873E-04 11490   0.535E-02    0.436E-02
RMM:   5    -0.670127029290E+03    0.18595E-04   -0.30569E-04 12170   0.291E-02    0.293E-02
RMM:   6    -0.670127014515E+03    0.14776E-04   -0.87722E-05 10947   0.141E-02    0.129E-02
RMM:   7    -0.670127010194E+03    0.43203E-05   -0.23448E-05  6988   0.734E-03
  26 F= -.67012701E+03 E0= -.67008466E+03  d E =-.720483E-03
       N       E                     dE             d eps       ncg     rms          rms(c)
DAV:   1    -0.670127008749E+03    0.57652E-05   -0.13147E-03 10556   0.749E-02    0.106E-02
RMM:   2    -0.670127011595E+03   -0.28452E-05   -0.56141E-05  9542   0.162E-02
  27 F= -.67012701E+03 E0= -.67008467E+03  d E =-.721884E-03
       N       E                     dE             d eps       ncg     rms          rms(c)
DAV:   1    -0.670126566798E+03    0.44195E-03   -0.32430E-01  9268   0.120E+00    0.147E-01
RMM:   2    -0.670127375964E+03   -0.80917E-03   -0.14811E-02 10477   0.262E-01    0.896E-02
RMM:   3    -0.670127525738E+03   -0.14977E-03   -0.28320E-03 11028   0.104E-01    0.680E-02
RMM:   4    -0.670127465332E+03    0.60406E-04   -0.64008E-04 11762   0.463E-02    0.349E-02
RMM:   5    -0.670127462260E+03    0.30717E-05   -0.19623E-04 11978   0.239E-02    0.255E-02
RMM:   6    -0.670127457321E+03    0.49388E-05   -0.56663E-05 10367   0.120E-02
  28 F= -.67012746E+03 E0= -.67008511E+03  d E =-.445727E-03
       N       E                     dE             d eps       ncg     rms          rms(c)
DAV:   1    -0.670127459062E+03    0.31980E-05   -0.85001E-05 10192   0.180E-02    0.571E-03
RMM:   2    -0.670127461425E+03   -0.23631E-05   -0.92451E-06  5317   0.578E-03
  29 F= -.67012746E+03 E0= -.67008512E+03  d E =-.449831E-03
       N       E                     dE             d eps       ncg     rms          rms(c)
DAV:   1    -0.670127563553E+03   -0.10449E-03   -0.86578E-02  9352   0.602E-01    0.678E-02
RMM:   2    -0.670127738371E+03   -0.17482E-03   -0.31256E-03 10226   0.123E-01    0.403E-02
RMM:   3    -0.670127777671E+03   -0.39300E-04   -0.58960E-04 10796   0.468E-02    0.355E-02
RMM:   4    -0.670127753625E+03    0.24046E-04   -0.12747E-04 10935   0.202E-02    0.144E-02
RMM:   5    -0.670127752935E+03    0.68948E-06   -0.45531E-05  9117   0.102E-02
  30 F= -.67012775E+03 E0= -.67008543E+03  d E =-.291510E-03
       N       E                     dE             d eps       ncg     rms          rms(c)
DAV:   1    -0.670127727113E+03    0.26512E-04   -0.37035E-02  9408   0.393E-01    0.446E-02
RMM:   2    -0.670127804231E+03   -0.77118E-04   -0.13504E-03 10293   0.806E-02    0.278E-02
RMM:   3    -0.670127820545E+03   -0.16314E-04   -0.26572E-04 10845   0.310E-02    0.229E-02
RMM:   4    -0.670127810062E+03    0.10483E-04   -0.62351E-05 10380   0.135E-02    0.927E-03
RMM:   5    -0.670127809740E+03    0.32230E-06   -0.18491E-05  5743   0.664E-03
  31 F= -.67012781E+03 E0= -.67008550E+03  d E =-.348314E-03
       N       E                     dE             d eps       ncg     rms          rms(c)
DAV:   1    -0.670127791560E+03    0.18502E-04   -0.58652E-02  9296   0.505E-01    0.509E-02
RMM:   2    -0.670127959095E+03   -0.16754E-03   -0.24079E-03 10176   0.107E-01    0.332E-02
RMM:   3    -0.670127991352E+03   -0.32257E-04   -0.44701E-04 10696   0.404E-02    0.267E-02
RMM:   4    -0.670127983742E+03    0.76100E-05   -0.93369E-05 10625   0.170E-02
  32 F= -.67012798E+03 E0= -.67008566E+03  d E =-.174002E-03
       N       E                     dE             d eps       ncg     rms          rms(c)
DAV:   1    -0.670127933495E+03    0.57857E-04   -0.26837E-02  9408   0.341E-01    0.379E-02
RMM:   2    -0.670128015272E+03   -0.81777E-04   -0.11235E-03 10257   0.730E-02    0.301E-02
RMM:   3    -0.670128025869E+03   -0.10597E-04   -0.22377E-04 10688   0.281E-02    0.216E-02
RMM:   4    -0.670128020238E+03    0.56308E-05   -0.51479E-05  9919   0.121E-02
  33 F= -.67012802E+03 E0= -.67008569E+03  d E =-.210498E-03
       N       E                     dE             d eps       ncg     rms          rms(c)
DAV:   1    -0.670128007422E+03    0.18447E-04   -0.34210E-02  9408   0.399E-01    0.477E-02
RMM:   2    -0.670128109427E+03   -0.10200E-03   -0.17348E-03 10447   0.893E-02    0.307E-02
RMM:   3    -0.670128125412E+03   -0.15986E-04   -0.33509E-04 10994   0.352E-02    0.231E-02
RMM:   4    -0.670128118842E+03    0.65706E-05   -0.80094E-05 10971   0.157E-02
  34 F= -.67012812E+03 E0= -.67008575E+03  d E =-.986036E-04
