<?xml version="1.0" encoding="ISO-8859-1"?>
<modeling>
 <generator>
  <i name="program" type="string">vasp </i>
  <i name="version" type="string">6.4.3  </i>
  <i name="subversion" type="string">19Mar24 (build Sep 18 2024 11:30:23) complex                          parallel </i>
  <i name="platform" type="string">LinuxIFC </i>
  <i name="date" type="string">2026 07 03 </i>
  <i name="time" type="string">22:57:38 </i>
 </generator>
 <incar>
  <i type="string" name="SYSTEM">HECN</i>
  <i type="int" name="ISTART">     0</i>
  <i type="string" name="PREC">Normal</i>
  <i type="string" name="ALGO">Fast</i>
  <i type="int" name="ICHARG">     2</i>
  <i type="int" name="NELM">    60</i>
  <i type="int" name="IBRION">     2</i>
  <i name="EDIFF">      0.00001000</i>
  <i name="EDIFFG">     -0.01000000</i>
  <i type="int" name="NSW">   100</i>
  <i type="int" name="ISIF">     3</i>
  <i name="ENCUT">    400.00000000</i>
  <i name="POTIM">      0.50000000</i>
  <i type="logical" name="LREAL"> F  </i>
  <i type="int" name="ISMEAR">     0</i>
  <i name="SIGMA">      0.10000000</i>
  <i type="logical" name="LWAVE"> F  </i>
  <i type="logical" name="LCHARG"> F  </i>
 </incar>
 <primitive_cell>
  <structure name="primitive_cell" >
   <crystal>
    <varray name="basis" >
     <v>       8.93249989       0.00000000       0.00000000 </v>
     <v>       0.00575300       9.05559834       0.00000000 </v>
     <v>       0.03210180      -0.01574346       8.93712807 </v>
    </varray>
    <i name="volume">    722.91652451 </i>
    <varray name="rec_basis" >
     <v>       0.11195074      -0.00007112      -0.00040225 </v>
     <v>       0.00000000       0.11042893       0.00019453 </v>
     <v>       0.00000000       0.00000000       0.11189277 </v>
    </varray>
   </crystal>
   <varray name="positions" >
    <v>       0.99688001       0.99204997       0.99924002 </v>
    <v>       0.25398003       0.99714995       0.24912000 </v>
    <v>       0.24803003       0.50165000       0.24955001 </v>
    <v>       0.50501006       0.49745998       0.99834003 </v>
    <v>       0.50479003       0.24631001       0.74710002 </v>
    <v>       0.99427992       0.50449999       0.49779000 </v>
    <v>       0.49950005       0.75481999       0.74817004 </v>
    <v>       0.99437004       0.23617001       0.26379999 </v>
    <v>       0.75718000       0.74102998       0.01100000 </v>
    <v>       0.00201000       0.25541000       0.73894001 </v>
    <v>       0.75307001       0.26163001       0.50533002 </v>
    <v>       0.99514004       0.74492004       0.74511997 </v>
    <v>       0.25679999       0.49462002       0.74545002 </v>
    <v>       0.24788999       0.24839000       0.99657997 </v>
    <v>       0.50833000       0.25676999       0.25376001 </v>
    <v>       0.74879004       0.98787999       0.26967001 </v>
    <v>       0.75719000       0.25603001       0.99591997 </v>
    <v>       0.24762001       0.74973999       0.99974006 </v>
    <v>       0.25272001       0.24823001       0.50015003 </v>
    <v>       0.24457999       0.75048999       0.49983999 </v>
    <v>       0.24982001       0.24942998       0.24825000 </v>
    <v>       0.26146999       0.99984002       0.99295996 </v>
    <v>       0.00281000       0.25024000       0.00130000 </v>
    <v>       0.75313998       0.24617000       0.25492002 </v>
    <v>       0.74767001       0.99748000       0.01202000 </v>
    <v>       0.50714994       0.99977000       0.24673000 </v>
    <v>       0.99051999       0.48088002       0.24100998 </v>
    <v>       0.50519005       0.76130999       0.00855000 </v>
    <v>       0.98896989       0.00202000       0.73708999 </v>
    <v>       0.75744996       0.24437997       0.74896999 </v>
    <v>       0.73632001       0.00417000       0.51063000 </v>
    <v>       0.50563996       0.23264999       0.49544997 </v>
    <v>       0.50008998       0.00061000       0.73471998 </v>
    <v>       0.99720000       0.99771992       0.25899999 </v>
    <v>       0.50427997       0.24673000       0.00262000 </v>
    <v>       0.25133999       0.74958002       0.24910999 </v>
    <v>       0.24328000       0.50072997       0.99510994 </v>
    <v>       0.99837005       0.74313996       0.00460000 </v>
    <v>       0.75633000       0.73891003       0.25767000 </v>
    <v>       0.75839004       0.50315998       0.00288000 </v>
    <v>       0.50700002       0.50333002       0.25878999 </v>
    <v>       0.24900999       0.25315000       0.74854000 </v>
    <v>       0.24446000       0.99823996       0.50287998 </v>
    <v>       0.99804009       0.24229999       0.50128003 </v>
    <v>       0.24177002       0.75340997       0.75018002 </v>
    <v>       0.25841001       0.50062002       0.50129001 </v>
    <v>       0.99000004       0.76215003       0.49746000 </v>
    <v>       0.99203996       0.50055999       0.75138002 </v>
    <v>       0.75036005       0.74888000       0.74756004 </v>
    <v>       0.74036002       0.50197000       0.50067003 </v>
    <v>       0.50575006       0.74958002       0.49720000 </v>
    <v>       0.50501003       0.50217998       0.73912003 </v>
    <v>       0.51588997       0.01358000       0.98075008 </v>
    <v>       0.99841994       0.50976998       0.98613004 </v>
    <v>       0.50379003       0.73926997       0.25905001 </v>
    <v>       0.23780002       0.01082000       0.74607998 </v>
    <v>       0.47957999       0.98308000       0.49717999 </v>
    <v>       0.74279003       0.97869994       0.76450995 </v>
    <v>       0.99864998       0.77573999       0.26102000 </v>
    <v>       0.73551001       0.51468004       0.26666001 </v>
    <v>       0.02362000       0.99783001       0.49557002 </v>
    <v>       0.50539000       0.52833005       0.49917999 </v>
    <v>       0.73876003       0.52828003       0.73814999 </v>
    <v>       0.75400003       0.72937999       0.49116997 </v>
   </varray>
  </structure>
  <varray name="primitive_index" >
   <v type="int" >        1 </v>
   <v type="int" >        2 </v>
   <v type="int" >        3 </v>
   <v type="int" >        4 </v>
   <v type="int" >        5 </v>
   <v type="int" >        6 </v>
   <v type="int" >        7 </v>
   <v type="int" >        8 </v>
   <v type="int" >        9 </v>
   <v type="int" >       10 </v>
   <v type="int" >       11 </v>
   <v type="int" >       12 </v>
   <v type="int" >       13 </v>
   <v type="int" >       14 </v>
   <v type="int" >       15 </v>
   <v type="int" >       16 </v>
   <v type="int" >       17 </v>
   <v type="int" >       18 </v>
   <v type="int" >       19 </v>
   <v type="int" >       20 </v>
   <v type="int" >       21 </v>
   <v type="int" >       22 </v>
   <v type="int" >       23 </v>
   <v type="int" >       24 </v>
   <v type="int" >       25 </v>
   <v type="int" >       26 </v>
   <v type="int" >       27 </v>
   <v type="int" >       28 </v>
   <v type="int" >       29 </v>
   <v type="int" >       30 </v>
   <v type="int" >       31 </v>
   <v type="int" >       32 </v>
   <v type="int" >       33 </v>
   <v type="int" >       34 </v>
   <v type="int" >       35 </v>
   <v type="int" >       36 </v>
   <v type="int" >       37 </v>
   <v type="int" >       38 </v>
   <v type="int" >       39 </v>
   <v type="int" >       40 </v>
   <v type="int" >       41 </v>
   <v type="int" >       42 </v>
   <v type="int" >       43 </v>
   <v type="int" >       44 </v>
   <v type="int" >       45 </v>
   <v type="int" >       46 </v>
   <v type="int" >       47 </v>
   <v type="int" >       48 </v>
   <v type="int" >       49 </v>
   <v type="int" >       50 </v>
   <v type="int" >       51 </v>
   <v type="int" >       52 </v>
   <v type="int" >       53 </v>
   <v type="int" >       54 </v>
   <v type="int" >       55 </v>
   <v type="int" >       56 </v>
   <v type="int" >       57 </v>
   <v type="int" >       58 </v>
   <v type="int" >       59 </v>
   <v type="int" >       60 </v>
   <v type="int" >       61 </v>
   <v type="int" >       62 </v>
   <v type="int" >       63 </v>
   <v type="int" >       64 </v>
  </varray>
 </primitive_cell>
 <kpoints>
  <generation param="Gamma">
   <v type="int" name="divisions">       3        3        3 </v>
   <v name="usershift">      0.00000000       0.00000000       0.00000000 </v>
   <v name="genvec1">      0.33333333      -0.00000000      -0.00000000 </v>
   <v name="genvec2">      0.00000000       0.33333333      -0.00000000 </v>
   <v name="genvec3">      0.00000000       0.00000000       0.33333333 </v>
   <v name="shift">      0.00000000       0.00000000       0.00000000 </v>
  </generation>
  <varray name="kpointlist" >
   <v>       0.00000000       0.00000000       0.00000000 </v>
   <v>       0.33333333      -0.00000000      -0.00000000 </v>
   <v>       0.00000000       0.33333333      -0.00000000 </v>
   <v>       0.33333333       0.33333333      -0.00000000 </v>
   <v>      -0.33333333       0.33333333      -0.00000000 </v>
   <v>       0.00000000       0.00000000       0.33333333 </v>
   <v>       0.33333333      -0.00000000       0.33333333 </v>
   <v>      -0.33333333       0.00000000       0.33333333 </v>
   <v>       0.00000000       0.33333333       0.33333333 </v>
   <v>       0.33333333       0.33333333       0.33333333 </v>
   <v>      -0.33333333       0.33333333       0.33333333 </v>
   <v>       0.00000000      -0.33333333       0.33333333 </v>
   <v>       0.33333333      -0.33333333       0.33333333 </v>
   <v>      -0.33333333      -0.33333333       0.33333333 </v>
  </varray>
  <varray name="weights" >
   <v>       0.03703704 </v>
   <v>       0.07407407 </v>
   <v>       0.07407407 </v>
   <v>       0.07407407 </v>
   <v>       0.07407407 </v>
   <v>       0.07407407 </v>
   <v>       0.07407407 </v>
   <v>       0.07407407 </v>
   <v>       0.07407407 </v>
   <v>       0.07407407 </v>
   <v>       0.07407407 </v>
   <v>       0.07407407 </v>
   <v>       0.07407407 </v>
   <v>       0.07407407 </v>
  </varray>
 </kpoints>
 <parameters>
  <separator name="general" >
   <i type="string" name="SYSTEM">HECN</i>
   <i type="logical" name="LCOMPAT"> F  </i>
  </separator>
  <separator name="electronic" >
   <i type="string" name="PREC">normal</i>
   <i name="ENMAX">    400.00000000</i>
   <i name="ENAUG">    644.87300000</i>
   <i name="EDIFF">      0.00001000</i>
   <i type="int" name="IALGO">    68</i>
   <i type="int" name="IWAVPR">    11</i>
   <i type="int" name="NBANDS">   308</i>
   <i type="int" name="NBANDSLOW">    -1</i>
   <i type="int" name="NBANDSHIGH">    -1</i>
   <i name="NELECT">    488.00000000</i>
   <i type="int" name="TURBO">     0</i>
   <i type="int" name="IRESTART">     0</i>
   <i type="int" name="NREBOOT">     0</i>
   <i type="int" name="NMIN">     0</i>
   <i name="EREF">      0.00000000</i>
   <separator name="electronic smearing" >
    <i type="int" name="ISMEAR">     0</i>
    <i name="SIGMA">      0.10000000</i>
    <i name="KSPACING">      0.50000000</i>
    <i type="logical" name="KGAMMA"> T  </i>
    <i type="logical" name="KBLOWUP"> T  </i>
   </separator>
   <separator name="electronic projectors" >
    <i type="logical" name="LREAL"> F  </i>
    <v name="ROPT">      0.00000000      0.00000000      0.00000000      0.00000000      0.00000000      0.00000000      0.00000000</v>
    <i type="int" name="LMAXPAW">  -100</i>
    <i type="int" name="LMAXMIX">     2</i>
    <i type="logical" name="NLSPLINE"> F  </i>
   </separator>
   <separator name="electronic startup" >
    <i type="int" name="ISTART">     0</i>
    <i type="int" name="ICHARG">     2</i>
    <i type="int" name="INIWAV">     1</i>
   </separator>
   <separator name="electronic spin" >
    <i type="int" name="ISPIN">     1</i>
    <i type="logical" name="LNONCOLLINEAR"> F  </i>
    <v name="MAGMOM">      1.00000000      1.00000000      1.00000000      1.00000000      1.00000000      1.00000000      1.00000000      1.00000000      1.00000000      1.00000000      1.00000000      1.00000000      1.00000000      1.00000000      1.00000000      1.00000000      1.00000000      1.00000000      1.00000000      1.00000000
      1.00000000      1.00000000      1.00000000      1.00000000      1.00000000      1.00000000      1.00000000      1.00000000      1.00000000      1.00000000      1.00000000      1.00000000      1.00000000      1.00000000      1.00000000      1.00000000      1.00000000      1.00000000      1.00000000      1.00000000
      1.00000000      1.00000000      1.00000000      1.00000000      1.00000000      1.00000000      1.00000000      1.00000000      1.00000000      1.00000000      1.00000000      1.00000000      1.00000000      1.00000000      1.00000000      1.00000000      1.00000000      1.00000000      1.00000000      1.00000000
      1.00000000      1.00000000      1.00000000      1.00000000</v>
    <i name="NUPDOWN">     -1.00000000</i>
    <i type="logical" name="LSORBIT"> F  </i>
    <v name="SAXIS">      0.00000000      0.00000000      1.00000000</v>
    <i type="logical" name="LSPIRAL"> F  </i>
    <v name="QSPIRAL">      0.00000000      0.00000000      0.00000000</v>
    <i type="logical" name="LZEROZ"> F  </i>
   </separator>
   <separator name="electronic exchange-correlation" >
    <i type="logical" name="LASPH"> F  </i>
   </separator>
   <separator name="electronic convergence" >
    <i type="int" name="NELM">    60</i>
    <i type="int" name="NELMDL">    -5</i>
    <i type="int" name="NELMIN">     2</i>
    <i name="ENINI">    400.00000000</i>
    <separator name="electronic convergence detail" >
     <i type="logical" name="LDIAG"> T  </i>
     <i type="logical" name="LSUBROT"> F  </i>
     <i name="WEIMIN">      0.00100000</i>
     <i name="EBREAK">      0.00000001</i>
     <i name="DEPER">      0.30000000</i>
     <i type="int" name="NRMM">     4</i>
     <i name="TIME">      0.40000000</i>
    </separator>
   </separator>
   <separator name="electronic mixer" >
    <i name="AMIX">      0.40000000</i>
    <i name="BMIX">      1.00000000</i>
    <i name="AMIN">      0.10000000</i>
    <i name="AMIX_MAG">      1.60000000</i>
    <i name="BMIX_MAG">      1.00000000</i>
    <separator name="electronic mixer details" >
     <i type="int" name="IMIX">     4</i>
     <i type="logical" name="MIXFIRST"> F  </i>
     <i type="int" name="MAXMIX">   -45</i>
     <i name="WC">    100.00000000</i>
     <i type="int" name="INIMIX">     1</i>
     <i type="int" name="MIXPRE">     1</i>
     <i type="int" name="MREMOVE">     5</i>
    </separator>
   </separator>
   <separator name="electronic dipolcorrection" >
    <i type="logical" name="LDIPOL"> F  </i>
    <i type="logical" name="LMONO"> F  </i>
    <i type="int" name="IDIPOL">     0</i>
    <i name="EPSILON">      1.00000000</i>
    <v name="DIPOL">   -100.00000000   -100.00000000   -100.00000000</v>
    <i name="EFIELD">      0.00000000</i>
    <i type="logical" name="LVACPOTAV"> F  </i>
   </separator>
  </separator>
  <separator name="grids" >
   <i type="int" name="NGX">    48</i>
   <i type="int" name="NGY">    48</i>
   <i type="int" name="NGZ">    48</i>
   <i type="int" name="NGXF">    96</i>
   <i type="int" name="NGYF">    96</i>
   <i type="int" name="NGZF">    96</i>
   <i type="logical" name="ADDGRID"> F  </i>
  </separator>
  <separator name="ionic" >
   <i type="int" name="NSW">   100</i>
   <i type="int" name="IBRION">     2</i>
   <i type="int" name="MDALGO">     0</i>
   <i type="int" name="ISIF">     3</i>
   <i name="PSTRESS">      0.00000000</i>
   <i name="EDIFFG">     -0.01000000</i>
   <i type="int" name="NFREE">     1</i>
   <i name="POTIM">      0.50000000</i>
   <i name="SMASS">     -3.00000000</i>
   <i name="SCALEE">      1.00000000</i>
  </separator>
  <separator name="ionic md" >
   <i name="TEBEG">      0.00010000</i>
   <i name="TEEND">      0.00010000</i>
   <i type="int" name="NBLOCK">     1</i>
   <i type="int" name="KBLOCK">   100</i>
   <i type="int" name="NPACO">   256</i>
   <i name="APACO">     10.00000000</i>
  </separator>
  <separator name="symmetry" >
   <i type="int" name="ISYM">     2</i>
   <i name="SYMPREC">      0.00001000</i>
  </separator>
  <separator name="dos" >
   <i type="int" name="LORBIT">     0</i>
   <v name="RWIGS">     -1.00000000     -1.00000000     -1.00000000     -1.00000000     -1.00000000     -1.00000000     -1.00000000</v>
   <i type="int" name="NEDOS">   301</i>
   <i name="EMIN">     10.00000000</i>
   <i name="EMAX">    -10.00000000</i>
   <i name="EFERMI">      0.00000000</i>
  </separator>
  <separator name="writing" >
   <i type="int" name="NWRITE">     2</i>
   <i type="logical" name="LWAVE"> F  </i>
   <i type="logical" name="LDOWNSAMPLE"> F  </i>
   <i type="logical" name="LCHARG"> F  </i>
   <i type="logical" name="LPARD"> F  </i>
   <i type="logical" name="LVTOT"> F  </i>
   <i type="logical" name="LVHAR"> F  </i>
   <i type="logical" name="LELF"> F  </i>
   <i type="logical" name="LOPTICS"> F  </i>
   <v name="STM">      0.00000000      0.00000000      0.00000000      0.00000000      0.00000000      0.00000000      0.00000000</v>
  </separator>
  <separator name="performance" >
   <i type="int" name="NPAR">    28</i>
   <i type="int" name="NSIM">     4</i>
   <i type="int" name="NBLK">    -1</i>
   <i type="logical" name="LPLANE"> T  </i>
   <i type="logical" name="LSCALAPACK"> T  </i>
   <i type="logical" name="LSCAAWARE"> F  </i>
   <i type="logical" name="LSCALU"> F  </i>
   <i type="logical" name="LASYNC"> F  </i>
   <i type="logical" name="LORBITALREAL"> F  </i>
  </separator>
  <separator name="miscellaneous" >
   <i type="int" name="IDIOT">     3</i>
   <i type="int" name="PHON_NSTRUCT">    -1</i>
   <i type="logical" name="LMUSIC"> F  </i>
   <v name="POMASS">    178.49000000     92.91000000     50.94100000     14.00100000     12.01100000    183.85000000     95.94000000</v>
   <v name="DARWINR">      0.00000000      0.00000000      0.00000000      0.00000000      0.00000000      0.00000000      0.00000000</v>
   <v name="DARWINV">      1.00000000      1.00000000      1.00000000      1.00000000      1.00000000      1.00000000      1.00000000</v>
   <i type="logical" name="LCORR"> T  </i>
  </separator>
  <i type="logical" name="GGA_COMPAT"> T  </i>
  <i type="logical" name="LBERRY"> F  </i>
  <i type="int" name="ICORELEVEL">     0</i>
  <i type="logical" name="LDAU"> F  </i>
  <i type="int" name="I_CONSTRAINED_M">     0</i>
  <separator name="electronic exchange-correlation" >
   <i type="string" name="GGA    ">PE</i>
   <i type="string" name="XC_C">1</i>
   <i type="int" name="VOSKOWN">     0</i>
   <i type="logical" name="LHFCALC"> F  </i>
   <i type="string" name="PRECFOCK"></i>
   <i type="logical" name="LSYMGRAD"> F  </i>
   <i type="logical" name="LHFONE"> F  </i>
   <i type="logical" name="LRHFCALC"> F  </i>
   <i type="logical" name="LTHOMAS"> F  </i>
   <i type="logical" name="LMODELHF"> F  </i>
   <i type="logical" name="LFOCKACE"> F  </i>
   <i name="ENCUT4O">     -1.00000000</i>
   <i type="int" name="EXXOEP">     0</i>
   <i type="int" name="FOURORBIT">     0</i>
   <i name="AEXX">      0.00000000</i>
   <i name="HFALPHA">      0.00000000</i>
   <i name="MCALPHA">      0.00000000</i>
   <i name="ALDAX">      1.00000000</i>
   <i name="AGGAX">      1.00000000</i>
   <i name="AMGGAX">      1.00000000</i>
   <i name="ALDAC">      1.00000000</i>
   <i name="AGGAC">      1.00000000</i>
   <i name="AMGGAC">      1.00000000</i>
   <i type="int" name="NKREDX">     1</i>
   <i type="int" name="NKREDY">     1</i>
   <i type="int" name="NKREDZ">     1</i>
   <i type="logical" name="SHIFTRED"> F  </i>
   <i type="logical" name="ODDONLY"> F  </i>
   <i type="logical" name="EVENONLY"> F  </i>
   <i type="int" name="LMAXFOCK">     0</i>
   <i type="int" name="NMAXFOCKAE">     0</i>
   <i type="logical" name="LFOCKAEDFT"> F  </i>
   <i name="HFSCREEN">      0.00000000</i>
   <i name="HFSCREENC">      0.00000000</i>
   <i type="int" name="NBANDSGWLOW">     0</i>
  </separator>
  <separator name="vdW DFT" >
   <i type="logical" name="LUSE_VDW"> F  </i>
   <i type="int" name="IVDW_NL">    -1</i>
   <i type="logical" name="LSPIN_VDW"> F  </i>
   <i name="ZAB_VDW">     -0.84910000</i>
   <i name="GAMMA_VDW">      1.39626340</i>
   <i name="ALPHA_VDW">      0.00000000</i>
   <i name="PARAM1">      0.12340000</i>
   <i name="PARAM2">      1.00000000</i>
   <i name="BPARAM">      6.30000000</i>
   <i name="CPARAM">      0.00930000</i>
  </separator>
  <separator name="model GW" >
   <i type="int" name="MODEL_GW">     0</i>
   <i name="MODEL_EPS0">      6.77734242</i>
   <i name="MODEL_ALPHA">      1.00000000</i>
  </separator>
  <separator name="linear response parameters" >
   <i type="logical" name="LEPSILON"> F  </i>
   <i type="logical" name="LRPA"> F  </i>
   <i type="logical" name="LNABLA"> F  </i>
   <i type="logical" name="LVEL"> F  </i>
   <i name="CSHIFT">      0.10000000</i>
   <i name="OMEGAMAX">     -1.00000000</i>
   <i name="DEG_THRESHOLD">      0.00200000</i>
   <i name="RTIME">     -0.10000000</i>
   <i name="WPLASMAI">      0.00000000</i>
   <v name="DFIELD">      0.00000000      0.00000000      0.00000000</v>
   <v name="WPLASMA">      0.00000000      0.00000000      0.00000000      0.00000000      0.00000000      0.00000000      0.00000000      0.00000000      0.00000000</v>
  </separator>
  <separator name="orbital magnetization" >
   <i type="logical" name="NUCIND"> F  </i>
   <v name="MAGPOS">      0.00000000      0.00000000      0.00000000</v>
   <i type="logical" name="LNICSALL"> T  </i>
   <i type="logical" name="ORBITALMAG"> F  </i>
   <i type="logical" name="LMAGBLOCH"> F  </i>
   <i type="logical" name="LCHIMAG"> F  </i>
   <i type="logical" name="LGAUGE"> T  </i>
   <i type="int" name="MAGATOM">     0</i>
   <v name="MAGDIPOL">      0.00000000      0.00000000      0.00000000</v>
   <v name="AVECCONST">      0.00000000      0.00000000      0.00000000</v>
  </separator>
  <separator name="response functions" >
   <i type="logical" name="LALL_IN_ONE"> F  </i>
   <i type="int" name="IALL_IN_ONE">    -1</i>
   <i type="int" name="NBANDS_WAVE">    -1</i>
   <i type="logical" name="LFINITE_TEMPERATURE"> F  </i>
   <i type="logical" name="LADDER"> F  </i>
   <i type="logical" name="LRPAFORCE"> F  </i>
   <i type="logical" name="LFXC"> F  </i>
   <i type="logical" name="LHARTREE"> T  </i>
   <i type="int" name="IBSE">     0</i>
   <v type="int" name="KPOINT">    -1     0     0     0</v>
   <i type="logical" name="LTCTC"> F  </i>
   <i type="logical" name="LTCTE"> F  </i>
   <i type="logical" name="LTETE"> F  </i>
   <i type="logical" name="LTRIPLET"> F  </i>
   <i type="logical" name="LFXCEPS"> F  </i>
   <i type="logical" name="LFXHEG"> F  </i>
   <i type="int" name="NATURALO">     2</i>
   <i type="logical" name="LHOLEGF"> F  </i>
   <i type="logical" name="L2ORDER"> F  </i>
   <i type="logical" name="LDMP1"> F  </i>
   <i type="logical" name="LMP2LT"> F  </i>
   <i type="logical" name="LSMP2LT"> F  </i>
   <i type="logical" name="LGWLF"> F  </i>
   <i name="ENCUTGW">     -1.60000002</i>
   <i name="ENCUTGWSOFT">     -1.60000002</i>
   <i name="ENCUTLF">     -1.00000000</i>
   <i type="logical" name="ESF_SPLINES"> F  </i>
   <i name="ESF_CONV">      0.01000000</i>
   <i type="int" name="ESF_NINTER">    15</i>
   <i type="int" name="LMAXMP2">    -1</i>
   <i name="SCISSOR">      0.00000000</i>
   <i type="int" name="NOMEGA">     0</i>
   <i type="int" name="NOMEGAR">     0</i>
   <i type="int" name="NBANDSGW">    -1</i>
   <i type="int" name="NBANDSO">    -1</i>
   <i type="int" name="NBANDSV">    -1</i>
   <i type="int" name="NELMGW">     1</i>
   <i type="int" name="NELMHF">     1</i>
   <i type="int" name="DIM">     3</i>
   <i type="int" name="IESPILON">     4</i>
   <i type="int" name="ANTIRES">     0</i>
   <i name="OMEGAMAX">    -30.00000000</i>
   <i name="OMEGAMIN">    -30.00000000</i>
   <i name="OMEGATL">   -200.00000000</i>
   <i type="int" name="OMEGAGRID">     0</i>
   <i name="CSHIFT">     -0.10000000</i>
   <i type="logical" name="LSELFENERGY"> F  </i>
   <i type="logical" name="LSPECTRAL"> F  </i>
   <i type="logical" name="LSPECTRALGW"> F  </i>
   <i type="logical" name="LSINGLES"> F  </i>
   <i type="logical" name="LFERMIGW"> F  </i>
   <i type="logical" name="ODDONLYGW"> F  </i>
   <i type="logical" name="EVENONLYGW"> F  </i>
   <i type="int" name="NKREDLFX">     1</i>
   <i type="int" name="NKREDLFY">     1</i>
   <i type="int" name="NKREDLFZ">     1</i>
   <i type="int" name="MAXMEM">  2800</i>
   <i type="int" name="TELESCOPE">     0</i>
   <i type="int" name="NTAUPAR">    -1</i>
   <i type="int" name="NOMEGAPAR">    -1</i>
   <i name="DAMP_NEWTON">      0.80000001</i>
   <i name="LAMBDA">      1.00000000</i>
  </separator>
  <separator name="External order field" >
   <i name="OFIELD_KAPPA">      0.00000000</i>
   <v name="OFIELD_K">      0.00000000      0.00000000      0.00000000</v>
   <i name="OFIELD_Q6_NEAR">      0.00000000</i>
   <i name="OFIELD_Q6_FAR">      0.00000000</i>
   <i name="OFIELD_A">      0.00000000</i>
  </separator>
  <separator name="optional k-points parameters" >
   <i type="int" name="KPOINTS_OPT_MODE">     1</i>
   <i type="logical" name="LKPOINTS_OPT"> F  </i>
  </separator>
  <separator name="solvation model" >
   <i type="logical" name="LSOL"> F  </i>
  </separator>
 </parameters>
 <atominfo>
  <atoms>      64 </atoms>
  <types>       7 </types>
  <array name="atoms" >
   <dimension dim="1">ion</dimension>
   <field type="string">element</field>
   <field type="int">atomtype</field>
   <set>
    <rc><c>Hf</c><c>   1</c></rc>
    <rc><c>Hf</c><c>   1</c></rc>
    <rc><c>Hf</c><c>   1</c></rc>
    <rc><c>Hf</c><c>   1</c></rc>
    <rc><c>Hf</c><c>   1</c></rc>
    <rc><c>Hf</c><c>   1</c></rc>
    <rc><c>Hf</c><c>   1</c></rc>
    <rc><c>Nb</c><c>   2</c></rc>
    <rc><c>Nb</c><c>   2</c></rc>
    <rc><c>Nb</c><c>   2</c></rc>
    <rc><c>Nb</c><c>   2</c></rc>
    <rc><c>Nb</c><c>   2</c></rc>
    <rc><c>Nb</c><c>   2</c></rc>
    <rc><c>V </c><c>   3</c></rc>
    <rc><c>V </c><c>   3</c></rc>
    <rc><c>V </c><c>   3</c></rc>
    <rc><c>V </c><c>   3</c></rc>
    <rc><c>V </c><c>   3</c></rc>
    <rc><c>V </c><c>   3</c></rc>
    <rc><c>V </c><c>   3</c></rc>
    <rc><c>N </c><c>   4</c></rc>
    <rc><c>N </c><c>   4</c></rc>
    <rc><c>N </c><c>   4</c></rc>
    <rc><c>N </c><c>   4</c></rc>
    <rc><c>N </c><c>   4</c></rc>
    <rc><c>N </c><c>   4</c></rc>
    <rc><c>N </c><c>   4</c></rc>
    <rc><c>N </c><c>   4</c></rc>
    <rc><c>N </c><c>   4</c></rc>
    <rc><c>N </c><c>   4</c></rc>
    <rc><c>N </c><c>   4</c></rc>
    <rc><c>N </c><c>   4</c></rc>
    <rc><c>N </c><c>   4</c></rc>
    <rc><c>C </c><c>   5</c></rc>
    <rc><c>C </c><c>   5</c></rc>
    <rc><c>C </c><c>   5</c></rc>
    <rc><c>C </c><c>   5</c></rc>
    <rc><c>C </c><c>   5</c></rc>
    <rc><c>C </c><c>   5</c></rc>
    <rc><c>C </c><c>   5</c></rc>
    <rc><c>C </c><c>   5</c></rc>
    <rc><c>C </c><c>   5</c></rc>
    <rc><c>C </c><c>   5</c></rc>
    <rc><c>C </c><c>   5</c></rc>
    <rc><c>C </c><c>   5</c></rc>
    <rc><c>C </c><c>   5</c></rc>
    <rc><c>C </c><c>   5</c></rc>
    <rc><c>C </c><c>   5</c></rc>
    <rc><c>C </c><c>   5</c></rc>
    <rc><c>C </c><c>   5</c></rc>
    <rc><c>C </c><c>   5</c></rc>
    <rc><c>C </c><c>   5</c></rc>
    <rc><c>W </c><c>   6</c></rc>
    <rc><c>W </c><c>   6</c></rc>
    <rc><c>W </c><c>   6</c></rc>
    <rc><c>W </c><c>   6</c></rc>
    <rc><c>W </c><c>   6</c></rc>
    <rc><c>W </c><c>   6</c></rc>
    <rc><c>Mo</c><c>   7</c></rc>
    <rc><c>Mo</c><c>   7</c></rc>
    <rc><c>Mo</c><c>   7</c></rc>
    <rc><c>Mo</c><c>   7</c></rc>
    <rc><c>Mo</c><c>   7</c></rc>
    <rc><c>Mo</c><c>   7</c></rc>
   </set>
  </array>
  <array name="atomtypes" >
   <dimension dim="1">type</dimension>
   <field type="int">atomspertype</field>
   <field type="string">element</field>
   <field>mass</field>
   <field>valence</field>
   <field type="string">pseudopotential</field>
   <set>
    <rc><c>   7</c><c>Hf</c><c>    178.49000000</c><c>     10.00000000</c><c> PAW_PBE Hf_pv 06Sep2000                </c></rc>
    <rc><c>   6</c><c>Nb</c><c>     92.91000000</c><c>     13.00000000</c><c> PAW_PBE Nb_sv 17Jan2003                </c></rc>
    <rc><c>   7</c><c>V </c><c>     50.94100000</c><c>     13.00000000</c><c> PAW_PBE V_sv 07Sep2000                 </c></rc>
    <rc><c>  13</c><c>N </c><c>     14.00100000</c><c>      5.00000000</c><c> PAW_PBE N 08Apr2002                    </c></rc>
    <rc><c>  19</c><c>C </c><c>     12.01100000</c><c>      4.00000000</c><c> PAW_PBE C 08Apr2002                    </c></rc>
    <rc><c>   6</c><c>W </c><c>    183.85000000</c><c>     12.00000000</c><c> PAW_PBE W_pv 06Sep2000                 </c></rc>
    <rc><c>   6</c><c>Mo</c><c>     95.94000000</c><c>      6.00000000</c><c> PAW_PBE Mo 08Apr2002                   </c></rc>
   </set>
  </array>
 </atominfo>
 <structure name="initialpos" >
  <crystal>
   <varray name="basis" >
    <v>       8.93249989       0.00000000       0.00000000 </v>
    <v>       0.00575300       9.05559834       0.00000000 </v>
    <v>       0.03210180      -0.01574346       8.93712807 </v>
   </varray>
   <i name="volume">    722.91652451 </i>
   <varray name="rec_basis" >
    <v>       0.11195074      -0.00007112      -0.00040225 </v>
    <v>       0.00000000       0.11042893       0.00019453 </v>
    <v>       0.00000000       0.00000000       0.11189277 </v>
   </varray>
  </crystal>
  <varray name="positions" >
   <v>       0.99688001       0.99204997       0.99924002 </v>
   <v>       0.25398003       0.99714995       0.24912000 </v>
   <v>       0.24803003       0.50165000       0.24955001 </v>
   <v>       0.50501006       0.49745998       0.99834003 </v>
   <v>       0.50479003       0.24631001       0.74710002 </v>
   <v>       0.99427992       0.50449999       0.49779000 </v>
   <v>       0.49950005       0.75481999       0.74817004 </v>
   <v>       0.99437004       0.23617001       0.26379999 </v>
   <v>       0.75718000       0.74102998       0.01100000 </v>
   <v>       0.00201000       0.25541000       0.73894001 </v>
   <v>       0.75307001       0.26163001       0.50533002 </v>
   <v>       0.99514004       0.74492004       0.74511997 </v>
   <v>       0.25679999       0.49462002       0.74545002 </v>
   <v>       0.24788999       0.24839000       0.99657997 </v>
   <v>       0.50833000       0.25676999       0.25376001 </v>
   <v>       0.74879004       0.98787999       0.26967001 </v>
   <v>       0.75719000       0.25603001       0.99591997 </v>
   <v>       0.24762001       0.74973999       0.99974006 </v>
   <v>       0.25272001       0.24823001       0.50015003 </v>
   <v>       0.24457999       0.75048999       0.49983999 </v>
   <v>       0.24982001       0.24942998       0.24825000 </v>
   <v>       0.26146999       0.99984002       0.99295996 </v>
   <v>       0.00281000       0.25024000       0.00130000 </v>
   <v>       0.75313998       0.24617000       0.25492002 </v>
   <v>       0.74767001       0.99748000       0.01202000 </v>
   <v>       0.50714994       0.99977000       0.24673000 </v>
   <v>       0.99051999       0.48088002       0.24100998 </v>
   <v>       0.50519005       0.76130999       0.00855000 </v>
   <v>       0.98896989       0.00202000       0.73708999 </v>
   <v>       0.75744996       0.24437997       0.74896999 </v>
   <v>       0.73632001       0.00417000       0.51063000 </v>
   <v>       0.50563996       0.23264999       0.49544997 </v>
   <v>       0.50008998       0.00061000       0.73471998 </v>
   <v>       0.99720000       0.99771992       0.25899999 </v>
   <v>       0.50427997       0.24673000       0.00262000 </v>
   <v>       0.25133999       0.74958002       0.24910999 </v>
   <v>       0.24328000       0.50072997       0.99510994 </v>
   <v>       0.99837005       0.74313996       0.00460000 </v>
   <v>       0.75633000       0.73891003       0.25767000 </v>
   <v>       0.75839004       0.50315998       0.00288000 </v>
   <v>       0.50700002       0.50333002       0.25878999 </v>
   <v>       0.24900999       0.25315000       0.74854000 </v>
   <v>       0.24446000       0.99823996       0.50287998 </v>
   <v>       0.99804009       0.24229999       0.50128003 </v>
   <v>       0.24177002       0.75340997       0.75018002 </v>
   <v>       0.25841001       0.50062002       0.50129001 </v>
   <v>       0.99000004       0.76215003       0.49746000 </v>
   <v>       0.99203996       0.50055999       0.75138002 </v>
   <v>       0.75036005       0.74888000       0.74756004 </v>
   <v>       0.74036002       0.50197000       0.50067003 </v>
   <v>       0.50575006       0.74958002       0.49720000 </v>
   <v>       0.50501003       0.50217998       0.73912003 </v>
   <v>       0.51588997       0.01358000       0.98075008 </v>
   <v>       0.99841994       0.50976998       0.98613004 </v>
   <v>       0.50379003       0.73926997       0.25905001 </v>
   <v>       0.23780002       0.01082000       0.74607998 </v>
   <v>       0.47957999       0.98308000       0.49717999 </v>
   <v>       0.74279003       0.97869994       0.76450995 </v>
   <v>       0.99864998       0.77573999       0.26102000 </v>
   <v>       0.73551001       0.51468004       0.26666001 </v>
   <v>       0.02362000       0.99783001       0.49557002 </v>
   <v>       0.50539000       0.52833005       0.49917999 </v>
   <v>       0.73876003       0.52828003       0.73814999 </v>
   <v>       0.75400003       0.72937999       0.49116997 </v>
  </varray>
 </structure>
 <calculation>
  <scstep>
   <time name="dav">   20.00   20.17</time>
   <time name="total">   20.03   20.21</time>
   <energy>
    <i name="alphaZ">   3818.34835850 </i>
    <i name="ewald"> -38010.06010449 </i>
    <i name="hartreedc">  -8102.24389943 </i>
    <i name="XCdc">   1357.59025876 </i>
    <i name="pawpsdc">  27649.85909679 </i>
    <i name="pawaedc"> -27090.84252224 </i>
    <i name="eentropy">     -0.09218191 </i>
    <i name="bandstr">   1231.70498850 </i>
    <i name="atom">  44106.73361431 </i>
    <i name="e_fr_energy">   4960.99760879 </i>
    <i name="e_wo_entrp">   4961.08979070 </i>
    <i name="e_0_energy">   4961.04369975 </i>
   </energy>
  </scstep>
  <scstep>
   <time name="dav">   20.94   21.19</time>
   <time name="total">   20.94   21.19</time>
   <energy>
    <i name="e_fr_energy">    -68.56527703 </i>
    <i name="e_wo_entrp">    -68.43114479 </i>
    <i name="e_0_energy">    -68.49821091 </i>
   </energy>
  </scstep>
  <scstep>
   <time name="dav">   29.69   29.81</time>
   <time name="total">   29.70   29.81</time>
   <energy>
    <i name="e_fr_energy">   -737.13643768 </i>
    <i name="e_wo_entrp">   -737.03145143 </i>
    <i name="e_0_energy">   -737.08394455 </i>
   </energy>
  </scstep>
  <scstep>
   <time name="dav">   29.93   30.08</time>
   <time name="total">   29.93   30.08</time>
   <energy>
    <i name="e_fr_energy">   -784.03979964 </i>
    <i name="e_wo_entrp">   -783.92301926 </i>
    <i name="e_0_energy">   -783.98140945 </i>
   </energy>
  </scstep>
  <scstep>
   <time name="dav">   35.19   35.47</time>
   <time name="total">   35.36   35.64</time>
   <energy>
    <i name="e_fr_energy">   -788.94644690 </i>
    <i name="e_wo_entrp">   -788.82540775 </i>
    <i name="e_0_energy">   -788.88592733 </i>
   </energy>
  </scstep>
  <scstep>
   <time name="diag">    1.38    1.41</time>
   <time name="diis">   17.48   17.70</time>
   <time name="orth">    0.35    0.36</time>
   <time name="total">   19.41   19.66</time>
   <energy>
    <i name="e_fr_energy">   -743.86258641 </i>
    <i name="e_wo_entrp">   -743.74330553 </i>
    <i name="e_0_energy">   -743.80294597 </i>
   </energy>
  </scstep>
  <scstep>
   <time name="diag">    1.40    1.42</time>
   <time name="diis">   17.18   17.35</time>
   <time name="orth">    0.42    0.43</time>
   <time name="total">   19.19   19.38</time>
   <energy>
    <i name="e_fr_energy">   -664.84901672 </i>
    <i name="e_wo_entrp">   -664.70204235 </i>
    <i name="e_0_energy">   -664.77552953 </i>
   </energy>
  </scstep>
  <scstep>
   <time name="diag">    1.36    1.37</time>
   <time name="diis">   20.23   20.53</time>
   <time name="orth">    0.34    0.34</time>
   <time name="total">   22.12   22.46</time>
   <energy>
    <i name="e_fr_energy">   -651.15675433 </i>
    <i name="e_wo_entrp">   -650.98305087 </i>
    <i name="e_0_energy">   -651.06990260 </i>
   </energy>
  </scstep>
  <scstep>
   <time name="diag">    1.36    1.39</time>
   <time name="diis">   19.78   20.01</time>
   <time name="orth">    0.34    0.34</time>
   <time name="total">   21.67   21.93</time>
   <energy>
    <i name="e_fr_energy">   -651.87525537 </i>
    <i name="e_wo_entrp">   -651.68419632 </i>
    <i name="e_0_energy">   -651.77972584 </i>
   </energy>
  </scstep>
  <scstep>
   <time name="diag">    1.41    1.42</time>
   <time name="diis">   20.24   20.47</time>
   <time name="orth">    0.37    0.37</time>
   <time name="total">   22.22   22.45</time>
   <energy>
    <i name="e_fr_energy">   -651.57500208 </i>
    <i name="e_wo_entrp">   -651.40575246 </i>
    <i name="e_0_energy">   -651.49037727 </i>
   </energy>
  </scstep>
  <scstep>
   <time name="diag">    1.34    1.34</time>
   <time name="diis">   18.82   19.01</time>
   <time name="orth">    0.33    0.33</time>
   <time name="total">   20.69   20.89</time>
   <energy>
    <i name="e_fr_energy">   -650.39227793 </i>
    <i name="e_wo_entrp">   -650.21091621 </i>
    <i name="e_0_energy">   -650.30159707 </i>
   </energy>
  </scstep>
  <scstep>
   <time name="diag">    1.34    1.34</time>
   <time name="diis">   20.02   20.23</time>
   <time name="orth">    0.34    0.34</time>
   <time name="total">   21.89   22.11</time>
   <energy>
    <i name="e_fr_energy">   -650.54727550 </i>
    <i name="e_wo_entrp">   -650.37363730 </i>
    <i name="e_0_energy">   -650.46045640 </i>
   </energy>
  </scstep>
  <scstep>
   <time name="diag">    1.34    1.35</time>
   <time name="diis">   19.61   19.83</time>
   <time name="orth">    0.36    0.36</time>
   <time name="total">   21.51   21.74</time>
   <energy>
    <i name="e_fr_energy">   -650.59200810 </i>
    <i name="e_wo_entrp">   -650.39979700 </i>
    <i name="e_0_energy">   -650.49590255 </i>
   </energy>
  </scstep>
  <scstep>
   <time name="diag">    1.45    1.46</time>
   <time name="diis">   19.94   20.04</time>
   <time name="orth">    0.38    0.40</time>
   <time name="total">   21.96   22.09</time>
   <energy>
    <i name="e_fr_energy">   -650.44828435 </i>
    <i name="e_wo_entrp">   -650.25917561 </i>
    <i name="e_0_energy">   -650.35372998 </i>
   </energy>
  </scstep>
  <scstep>
   <time name="diag">    1.34    1.34</time>
   <time name="diis">   19.36   19.55</time>
   <time name="orth">    0.33    0.33</time>
   <time name="total">   21.23   21.43</time>
   <energy>
    <i name="e_fr_energy">   -650.27548622 </i>
    <i name="e_wo_entrp">   -650.08549362 </i>
    <i name="e_0_energy">   -650.18048992 </i>
   </energy>
  </scstep>
  <scstep>
   <time name="diag">    1.39    1.40</time>
   <time name="diis">   20.71   20.91</time>
   <time name="orth">    0.34    0.34</time>
   <time name="total">   22.64   22.84</time>
   <energy>
    <i name="e_fr_energy">   -650.27091231 </i>
    <i name="e_wo_entrp">   -650.08021735 </i>
    <i name="e_0_energy">   -650.17556483 </i>
   </energy>
  </scstep>
  <scstep>
   <time name="diag">    1.67    1.69</time>
   <time name="diis">   21.01   21.09</time>
   <time name="orth">    0.34    0.34</time>
   <time name="total">   23.22   23.32</time>
   <energy>
    <i name="e_fr_energy">   -650.29647827 </i>
    <i name="e_wo_entrp">   -650.10646010 </i>
    <i name="e_0_energy">   -650.20146919 </i>
   </energy>
  </scstep>
  <scstep>
   <time name="diag">    1.44    1.45</time>
   <time name="diis">   21.55   21.65</time>
   <time name="orth">    0.34    0.34</time>
   <time name="total">   23.53   23.64</time>
   <energy>
    <i name="e_fr_energy">   -650.32797561 </i>
    <i name="e_wo_entrp">   -650.13974799 </i>
    <i name="e_0_energy">   -650.23386180 </i>
   </energy>
  </scstep>
  <scstep>
   <time name="diag">    1.46    1.46</time>
   <time name="diis">   20.29   20.46</time>
   <time name="orth">    0.34    0.34</time>
   <time name="total">   22.31   22.49</time>
   <energy>
    <i name="e_fr_energy">   -650.34480713 </i>
    <i name="e_wo_entrp">   -650.15637557 </i>
    <i name="e_0_energy">   -650.25059135 </i>
   </energy>
  </scstep>
  <scstep>
   <time name="diag">    1.34    1.34</time>
   <time name="diis">   21.16   21.23</time>
   <time name="orth">    0.34    0.34</time>
   <time name="total">   23.04   23.12</time>
   <energy>
    <i name="e_fr_energy">   -650.36611846 </i>
    <i name="e_wo_entrp">   -650.17708741 </i>
    <i name="e_0_energy">   -650.27160293 </i>
   </energy>
  </scstep>
  <scstep>
   <time name="diag">    1.41    1.42</time>
   <time name="diis">   20.97   21.17</time>
   <time name="orth">    0.37    0.37</time>
   <time name="total">   22.94   23.15</time>
   <energy>
    <i name="e_fr_energy">   -650.36584693 </i>
    <i name="e_wo_entrp">   -650.17779904 </i>
    <i name="e_0_energy">   -650.27182298 </i>
   </energy>
  </scstep>
  <scstep>
   <time name="diag">    1.36    1.36</time>
   <time name="diis">   21.58   21.78</time>
   <time name="orth">    0.40    0.40</time>
   <time name="total">   23.54   23.75</time>
   <energy>
    <i name="e_fr_energy">   -650.37308482 </i>
    <i name="e_wo_entrp">   -650.18440309 </i>
    <i name="e_0_energy">   -650.27874396 </i>
   </energy>
  </scstep>
  <scstep>
   <time name="diag">    1.41    1.41</time>
   <time name="diis">   22.12   22.24</time>
   <time name="orth">    0.34    0.35</time>
   <time name="total">   24.08   24.20</time>
   <energy>
    <i name="e_fr_energy">   -650.37810769 </i>
    <i name="e_wo_entrp">   -650.18949646 </i>
    <i name="e_0_energy">   -650.28380207 </i>
   </energy>
  </scstep>
  <scstep>
   <time name="diag">    1.46    1.46</time>
   <time name="diis">   22.29   22.51</time>
   <time name="orth">    0.34    0.34</time>
   <time name="total">   24.30   24.52</time>
   <energy>
    <i name="e_fr_energy">   -650.38330048 </i>
    <i name="e_wo_entrp">   -650.19444329 </i>
    <i name="e_0_energy">   -650.28887189 </i>
   </energy>
  </scstep>
  <scstep>
   <time name="diag">    1.39    1.40</time>
   <time name="diis">   21.91   22.06</time>
   <time name="orth">    0.35    0.35</time>
   <time name="total">   23.85   24.00</time>
   <energy>
    <i name="e_fr_energy">   -650.38607831 </i>
    <i name="e_wo_entrp">   -650.19727017 </i>
    <i name="e_0_energy">   -650.29167424 </i>
   </energy>
  </scstep>
  <scstep>
   <time name="diag">    1.36    1.36</time>
   <time name="diis">   21.96   22.11</time>
   <time name="orth">    0.34    0.34</time>
   <time name="total">   23.87   24.04</time>
   <energy>
    <i name="e_fr_energy">   -650.38874902 </i>
    <i name="e_wo_entrp">   -650.19982054 </i>
    <i name="e_0_energy">   -650.29428478 </i>
   </energy>
  </scstep>
  <scstep>
   <time name="diag">    1.39    1.39</time>
   <time name="diis">   21.63   21.83</time>
   <time name="orth">    0.35    0.35</time>
   <time name="total">   23.56   23.76</time>
   <energy>
    <i name="e_fr_energy">   -650.39048864 </i>
    <i name="e_wo_entrp">   -650.20158462 </i>
    <i name="e_0_energy">   -650.29603663 </i>
   </energy>
  </scstep>
  <scstep>
   <time name="diag">    1.35    1.35</time>
   <time name="diis">   20.89   21.01</time>
   <time name="orth">    0.39    0.39</time>
   <time name="total">   22.83   22.95</time>
   <energy>
    <i name="e_fr_energy">   -650.39220161 </i>
    <i name="e_wo_entrp">   -650.20324498 </i>
    <i name="e_0_energy">   -650.29772329 </i>
   </energy>
  </scstep>
  <scstep>
   <time name="diag">    1.37    1.37</time>
   <time name="diis">   20.42   20.61</time>
   <time name="orth">    0.34    0.34</time>
   <time name="total">   22.34   22.53</time>
   <energy>
    <i name="e_fr_energy">   -650.39317005 </i>
    <i name="e_wo_entrp">   -650.20421644 </i>
    <i name="e_0_energy">   -650.29869324 </i>
   </energy>
  </scstep>
  <scstep>
   <time name="diag">    1.36    1.37</time>
   <time name="diis">   20.24   20.43</time>
   <time name="orth">    0.34    0.34</time>
   <time name="total">   22.14   22.34</time>
   <energy>
    <i name="e_fr_energy">   -650.39421013 </i>
    <i name="e_wo_entrp">   -650.20526328 </i>
    <i name="e_0_energy">   -650.29973671 </i>
   </energy>
  </scstep>
  <scstep>
   <time name="diag">    1.45    1.46</time>
   <time name="diis">   19.90   19.96</time>
   <time name="orth">    0.37    0.37</time>
   <time name="total">   21.92   22.00</time>
   <energy>
    <i name="e_fr_energy">   -650.39475969 </i>
    <i name="e_wo_entrp">   -650.20577691 </i>
    <i name="e_0_energy">   -650.30026830 </i>
   </energy>
  </scstep>
  <scstep>
   <time name="diag">    1.36    1.36</time>
   <time name="diis">   19.69   19.82</time>
   <time name="orth">    0.34    0.34</time>
   <time name="total">   21.60   21.73</time>
   <energy>
    <i name="e_fr_energy">   -650.39534841 </i>
    <i name="e_wo_entrp">   -650.20634915 </i>
    <i name="e_0_energy">   -650.30084878 </i>
   </energy>
  </scstep>
  <scstep>
   <time name="diag">    1.35    1.35</time>
   <time name="diis">   19.41   19.48</time>
   <time name="orth">    0.34    0.34</time>
   <time name="total">   21.30   21.37</time>
   <energy>
    <i name="e_fr_energy">   -650.39565135 </i>
    <i name="e_wo_entrp">   -650.20666681 </i>
    <i name="e_0_energy">   -650.30115908 </i>
   </energy>
  </scstep>
  <scstep>
   <time name="diag">    1.36    1.36</time>
   <time name="diis">   19.45   19.50</time>
   <time name="orth">    0.34    0.34</time>
   <time name="total">   21.35   21.40</time>
   <energy>
    <i name="e_fr_energy">   -650.39599754 </i>
    <i name="e_wo_entrp">   -650.20699262 </i>
    <i name="e_0_energy">   -650.30149508 </i>
   </energy>
  </scstep>
  <scstep>
   <time name="diag">    1.48    1.48</time>
   <time name="diis">   18.73   18.80</time>
   <time name="orth">    0.34    0.34</time>
   <time name="total">   20.76   20.83</time>
   <energy>
    <i name="e_fr_energy">   -650.39617519 </i>
    <i name="e_wo_entrp">   -650.20716829 </i>
    <i name="e_0_energy">   -650.30167174 </i>
   </energy>
  </scstep>
  <scstep>
   <time name="diag">    1.46    1.46</time>
   <time name="diis">   18.84   18.97</time>
   <time name="orth">    0.36    0.36</time>
   <time name="total">   20.87   21.01</time>
   <energy>
    <i name="e_fr_energy">   -650.39638111 </i>
    <i name="e_wo_entrp">   -650.20737452 </i>
    <i name="e_0_energy">   -650.30187782 </i>
   </energy>
  </scstep>
  <scstep>
   <time name="diag">    1.39    1.39</time>
   <time name="diis">   18.15   18.18</time>
   <time name="orth">    0.34    0.35</time>
   <time name="total">   20.08   20.11</time>
   <energy>
    <i name="e_fr_energy">   -650.39648727 </i>
    <i name="e_wo_entrp">   -650.20747352 </i>
    <i name="e_0_energy">   -650.30198039 </i>
   </energy>
  </scstep>
  <scstep>
   <time name="diag">    1.42    1.43</time>
   <time name="diis">   18.12   18.26</time>
   <time name="orth">    0.34    0.34</time>
   <time name="total">   20.08   20.22</time>
   <energy>
    <i name="e_fr_energy">   -650.39660766 </i>
    <i name="e_wo_entrp">   -650.20759132 </i>
    <i name="e_0_energy">   -650.30209949 </i>
   </energy>
  </scstep>
  <scstep>
   <time name="diag">    1.43    1.44</time>
   <time name="diis">   17.42   17.50</time>
   <time name="orth">    0.34    0.34</time>
   <time name="total">   19.38   19.48</time>
   <energy>
    <i name="e_fr_energy">   -650.39667147 </i>
    <i name="e_wo_entrp">   -650.20765076 </i>
    <i name="e_0_energy">   -650.30216112 </i>
   </energy>
  </scstep>
  <scstep>
   <time name="diag">    1.35    1.35</time>
   <time name="diis">   16.73   16.79</time>
   <time name="orth">    0.37    0.37</time>
   <time name="total">   18.64   18.71</time>
   <energy>
    <i name="e_fr_energy">   -650.39674096 </i>
    <i name="e_wo_entrp">   -650.20771958 </i>
    <i name="e_0_energy">   -650.30223027 </i>
   </energy>
  </scstep>
  <scstep>
   <time name="diag">    1.38    1.38</time>
   <time name="diis">   16.06   16.13</time>
   <time name="orth">    0.34    0.34</time>
   <time name="total">   17.97   18.05</time>
   <energy>
    <i name="e_fr_energy">   -650.39677977 </i>
    <i name="e_wo_entrp">   -650.20775482 </i>
    <i name="e_0_energy">   -650.30226730 </i>
   </energy>
  </scstep>
  <scstep>
   <time name="diag">    1.45    1.45</time>
   <time name="diis">   15.30   15.33</time>
   <time name="orth">    0.34    0.34</time>
   <time name="total">   17.28   17.32</time>
   <energy>
    <i name="e_fr_energy">   -650.39681905 </i>
    <i name="e_wo_entrp">   -650.20778071 </i>
    <i name="e_0_energy">   -650.30229988 </i>
   </energy>
  </scstep>
  <scstep>
   <time name="diag">    1.36    1.37</time>
   <time name="diis">   14.85   14.94</time>
   <time name="orth">    0.35    0.35</time>
   <time name="total">   16.76   16.86</time>
   <energy>
    <i name="e_fr_energy">   -650.39684439 </i>
    <i name="e_wo_entrp">   -650.20780257 </i>
    <i name="e_0_energy">   -650.30232348 </i>
   </energy>
  </scstep>
  <scstep>
   <time name="diag">    1.38    1.39</time>
   <time name="diis">   13.87   13.97</time>
   <time name="orth">    0.34    0.34</time>
   <time name="total">   15.79   15.89</time>
   <energy>
    <i name="e_fr_energy">   -650.39686875 </i>
    <i name="e_wo_entrp">   -650.20782499 </i>
    <i name="e_0_energy">   -650.30234687 </i>
   </energy>
  </scstep>
  <scstep>
   <time name="diag">    1.36    1.36</time>
   <time name="diis">   13.06   13.16</time>
   <time name="orth">    0.34    0.34</time>
   <time name="total">   14.96   15.06</time>
   <energy>
    <i name="e_fr_energy">   -650.39688484 </i>
    <i name="e_wo_entrp">   -650.20784069 </i>
    <i name="e_0_energy">   -650.30236277 </i>
   </energy>
  </scstep>
  <scstep>
   <time name="diag">    1.34    1.34</time>
   <time name="diis">   12.46   12.50</time>
   <time name="orth">    0.34    0.34</time>
   <time name="total">   14.34   14.38</time>
   <energy>
    <i name="e_fr_energy">   -650.39689951 </i>
    <i name="e_wo_entrp">   -650.20785323 </i>
    <i name="e_0_energy">   -650.30237637 </i>
   </energy>
  </scstep>
  <scstep>
   <time name="diag">    1.37    1.38</time>
   <time name="diis">   11.81   11.87</time>
   <time name="orth">    0.34    0.34</time>
   <time name="total">   13.72   13.79</time>
   <energy>
    <i name="e_fr_energy">   -650.39690909 </i>
    <i name="e_wo_entrp">   -650.20786192 </i>
    <i name="e_0_energy">   -650.30238551 </i>
   </energy>
  </scstep>
  <scstep>
   <time name="diag">    1.35    1.35</time>
   <time name="diis">   11.40   11.43</time>
   <time name="orth">    0.34    0.34</time>
   <time name="total">   13.11   13.15</time>
   <energy>
    <i name="alphaZ">   3818.34835850 </i>
    <i name="ewald"> -38010.06010449 </i>
    <i name="hartreedc">  -7636.52783719 </i>
    <i name="XCdc">   1352.40031941 </i>
    <i name="pawpsdc">  28800.30535485 </i>
    <i name="pawaedc"> -28296.87311329 </i>
    <i name="eentropy">     -0.18904748 </i>
    <i name="bandstr">  -4784.53446309 </i>
    <i name="atom">  44106.73361431 </i>
    <i name="e_fr_energy">   -650.39691847 </i>
    <i name="e_wo_entrp">   -650.20787099 </i>
    <i name="e_0_energy">   -650.30239473 </i>
   </energy>
  </scstep>
  <structure>
   <crystal>
    <varray name="basis" >
     <v>       8.93249989       0.00000000       0.00000000 </v>
     <v>       0.00575300       9.05559834       0.00000000 </v>
     <v>       0.03210180      -0.01574346       8.93712807 </v>
    </varray>
    <i name="volume">    722.91652451 </i>
    <varray name="rec_basis" >
     <v>       0.11195074      -0.00007112      -0.00040225 </v>
     <v>       0.00000000       0.11042893       0.00019453 </v>
     <v>       0.00000000       0.00000000       0.11189277 </v>
    </varray>
   </crystal>
   <varray name="positions" >
    <v>       0.99688001       0.99204997       0.99924002 </v>
    <v>       0.25398003       0.99714995       0.24912000 </v>
    <v>       0.24803003       0.50165000       0.24955001 </v>
    <v>       0.50501006       0.49745998       0.99834003 </v>
    <v>       0.50479003       0.24631001       0.74710002 </v>
    <v>       0.99427992       0.50449999       0.49779000 </v>
    <v>       0.49950005       0.75481999       0.74817004 </v>
    <v>       0.99437004       0.23617001       0.26379999 </v>
    <v>       0.75718000       0.74102998       0.01100000 </v>
    <v>       0.00201000       0.25541000       0.73894001 </v>
    <v>       0.75307001       0.26163001       0.50533002 </v>
    <v>       0.99514004       0.74492004       0.74511997 </v>
    <v>       0.25679999       0.49462002       0.74545002 </v>
    <v>       0.24788999       0.24839000       0.99657997 </v>
    <v>       0.50833000       0.25676999       0.25376001 </v>
    <v>       0.74879004       0.98787999       0.26967001 </v>
    <v>       0.75719000       0.25603001       0.99591997 </v>
    <v>       0.24762001       0.74973999       0.99974006 </v>
    <v>       0.25272001       0.24823001       0.50015003 </v>
    <v>       0.24457999       0.75048999       0.49983999 </v>
    <v>       0.24982001       0.24942998       0.24825000 </v>
    <v>       0.26146999       0.99984002       0.99295996 </v>
    <v>       0.00281000       0.25024000       0.00130000 </v>
    <v>       0.75313998       0.24617000       0.25492002 </v>
    <v>       0.74767001       0.99748000       0.01202000 </v>
    <v>       0.50714994       0.99977000       0.24673000 </v>
    <v>       0.99051999       0.48088002       0.24100998 </v>
    <v>       0.50519005       0.76130999       0.00855000 </v>
    <v>       0.98896989       0.00202000       0.73708999 </v>
    <v>       0.75744996       0.24437997       0.74896999 </v>
    <v>       0.73632001       0.00417000       0.51063000 </v>
    <v>       0.50563996       0.23264999       0.49544997 </v>
    <v>       0.50008998       0.00061000       0.73471998 </v>
    <v>       0.99720000       0.99771992       0.25899999 </v>
    <v>       0.50427997       0.24673000       0.00262000 </v>
    <v>       0.25133999       0.74958002       0.24910999 </v>
    <v>       0.24328000       0.50072997       0.99510994 </v>
    <v>       0.99837005       0.74313996       0.00460000 </v>
    <v>       0.75633000       0.73891003       0.25767000 </v>
    <v>       0.75839004       0.50315998       0.00288000 </v>
    <v>       0.50700002       0.50333002       0.25878999 </v>
    <v>       0.24900999       0.25315000       0.74854000 </v>
    <v>       0.24446000       0.99823996       0.50287998 </v>
    <v>       0.99804009       0.24229999       0.50128003 </v>
    <v>       0.24177002       0.75340997       0.75018002 </v>
    <v>       0.25841001       0.50062002       0.50129001 </v>
    <v>       0.99000004       0.76215003       0.49746000 </v>
    <v>       0.99203996       0.50055999       0.75138002 </v>
    <v>       0.75036005       0.74888000       0.74756004 </v>
    <v>       0.74036002       0.50197000       0.50067003 </v>
    <v>       0.50575006       0.74958002       0.49720000 </v>
    <v>       0.50501003       0.50217998       0.73912003 </v>
    <v>       0.51588997       0.01358000       0.98075008 </v>
    <v>       0.99841994       0.50976998       0.98613004 </v>
    <v>       0.50379003       0.73926997       0.25905001 </v>
    <v>       0.23780002       0.01082000       0.74607998 </v>
    <v>       0.47957999       0.98308000       0.49717999 </v>
    <v>       0.74279003       0.97869994       0.76450995 </v>
    <v>       0.99864998       0.77573999       0.26102000 </v>
    <v>       0.73551001       0.51468004       0.26666001 </v>
    <v>       0.02362000       0.99783001       0.49557002 </v>
    <v>       0.50539000       0.52833005       0.49917999 </v>
    <v>       0.73876003       0.52828003       0.73814999 </v>
    <v>       0.75400003       0.72937999       0.49116997 </v>
   </varray>
  </structure>
  <varray name="forces" >
   <v>      -0.10854189       0.82186927      -0.04052588 </v>
   <v>       0.79086560       0.63877737      -0.61211851 </v>
   <v>       0.16092816      -0.67000044      -0.23592488 </v>
   <v>      -0.39629718      -0.67965550       0.36199417 </v>
   <v>      -0.19783809      -0.11709635       0.05682641 </v>
   <v>       0.98775035      -0.39642424       0.28054195 </v>
   <v>      -1.02803617       0.47829591       0.61562620 </v>
   <v>      -0.32029662      -0.46939315      -0.48520181 </v>
   <v>       0.14266428       0.35352584       0.10016396 </v>
   <v>       0.61642800      -0.01279728       0.74981798 </v>
   <v>      -0.46114450      -0.60075356      -0.91448751 </v>
   <v>       1.22702960       0.00464472       0.53700409 </v>
   <v>      -0.41840906       0.06983859       0.17499973 </v>
   <v>       0.47758949       0.71973633      -0.63588495 </v>
   <v>       0.55067038       0.19046772      -0.51384903 </v>
   <v>      -0.06660252      -0.10601441       0.51810392 </v>
   <v>      -0.63477972       0.52959518       0.03411758 </v>
   <v>      -1.24972020      -0.86155710      -0.04514945 </v>
   <v>      -0.58212907       0.36927467       0.46527020 </v>
   <v>      -0.19117137      -0.28706278       0.07249613 </v>
   <v>       0.24102786      -0.15033347       0.02731302 </v>
   <v>      -0.27334695      -0.01768878       0.06122781 </v>
   <v>      -0.08470967      -0.36927313      -0.10960571 </v>
   <v>      -0.62899608      -0.43687143      -0.37028612 </v>
   <v>       0.15791134       0.46604786       0.20737243 </v>
   <v>       0.18651849      -0.05317610       0.03248556 </v>
   <v>       0.89061543       0.28590961       0.54880121 </v>
   <v>      -0.52035154      -0.31996379      -0.32096677 </v>
   <v>      -0.00775188       0.05237500       1.10778927 </v>
   <v>      -0.63354997      -0.24999013       0.47627956 </v>
   <v>      -0.16755741       0.12159883      -0.45422701 </v>
   <v>      -0.48037571      -0.19380282      -0.11603973 </v>
   <v>      -0.28594654       0.08477137       0.26748815 </v>
   <v>      -0.48588016       0.67891465      -0.99751292 </v>
   <v>       0.10970404      -0.03745399       0.38159657 </v>
   <v>       0.32617199       0.02544779      -0.08298812 </v>
   <v>       0.16653712      -0.05023193       0.26056254 </v>
   <v>       0.94207043       0.12310350      -0.14244416 </v>
   <v>      -0.21310096       1.52886274      -0.86033542 </v>
   <v>      -0.23586491      -1.17877579      -0.04012873 </v>
   <v>      -1.44172606      -0.98993371      -0.83246306 </v>
   <v>       0.29758011      -0.50695982      -0.02673019 </v>
   <v>       1.47034665      -0.21238010      -0.17702765 </v>
   <v>       0.58375914       0.66412237      -0.06309434 </v>
   <v>       0.44138629       0.32378379      -0.00054717 </v>
   <v>      -0.57454315      -0.00829341      -0.35726903 </v>
   <v>       1.29275060      -0.59126769       0.36153582 </v>
   <v>       0.43813992      -0.04533797      -0.37385196 </v>
   <v>      -0.57548576       1.21480160       0.26645435 </v>
   <v>       1.22513682      -0.97657134       0.26913018 </v>
   <v>      -1.03320812       1.32241855       0.29704847 </v>
   <v>      -0.86800311      -0.25216958       1.12263170 </v>
   <v>       0.60018859       0.68877750       0.43885338 </v>
   <v>       0.41409097      -0.31214870      -0.06280225 </v>
   <v>      -0.25140248       0.41962484      -0.24261005 </v>
   <v>      -0.02003065       0.22535870       0.22497557 </v>
   <v>       0.20222341       0.60144209      -0.81924884 </v>
   <v>      -0.04578300      -0.09503439       0.29075262 </v>
   <v>       0.21864992      -0.08362450      -0.14746351 </v>
   <v>      -0.11329632      -1.29052291      -1.12619318 </v>
   <v>      -0.55438072       0.43004142      -0.02024259 </v>
   <v>      -0.72672882      -1.02655164      -0.41706714 </v>
   <v>       0.74825335      -1.11551134       1.20317666 </v>
   <v>      -0.03000195       1.33119548      -0.16814953 </v>
  </varray>
  <varray name="stress" >
   <v>    -137.10353287       4.28194615       3.69834795 </v>
   <v>       4.28194608    -136.62489058      -3.11701955 </v>
   <v>       3.69834792      -3.11701888    -122.67768510 </v>
  </varray>
  <energy>
   <i name="e_fr_energy">   -650.39691847 </i>
   <i name="e_wo_entrp">   -650.20787099 </i>
   <i name="e_0_energy">   -650.30239473 </i>
  </energy>
  <time name="totalsc"> 1062.65 1070.00</time>
 </calculation>
 <calculation>
  <scstep>
   <time name="dav">   24.90   24.97</time>
   <time name="total">   25.09   25.16</time>
   <energy>
    <i name="alphaZ">   4383.20380491 </i>
    <i name="ewald"> -39646.03365969 </i>
    <i name="hartreedc">  -8149.04450689 </i>
    <i name="XCdc">   1437.08165110 </i>
    <i name="pawpsdc">  28800.29581779 </i>
    <i name="pawaedc"> -28296.86655047 </i>
    <i name="eentropy">     -0.12151354 </i>
    <i name="bandstr">  -3341.05421226 </i>
    <i name="atom">  44106.73361431 </i>
    <i name="e_fr_energy">   -705.80555472 </i>
    <i name="e_wo_entrp">   -705.68404119 </i>
    <i name="e_0_energy">   -705.74479796 </i>
   </energy>
  </scstep>
  <scstep>
   <time name="diag">    1.64    1.66</time>
   <time name="diis">   15.10   15.20</time>
   <time name="orth">    0.34    0.34</time>
   <time name="total">   17.27   17.40</time>
   <energy>
    <i name="e_fr_energy">   -732.59129837 </i>
    <i name="e_wo_entrp">   -732.48154026 </i>
    <i name="e_0_energy">   -732.53641932 </i>
   </energy>
  </scstep>
  <scstep>
   <time name="diag">    1.34    1.35</time>
   <time name="diis">   16.73   16.86</time>
   <time name="orth">    0.34    0.34</time>
   <time name="total">   18.61   18.74</time>
   <energy>
    <i name="e_fr_energy">   -660.19103942 </i>
    <i name="e_wo_entrp">   -660.07574732 </i>
    <i name="e_0_energy">   -660.13339337 </i>
   </energy>
  </scstep>
  <scstep>
   <time name="diag">    1.43    1.44</time>
   <time name="diis">   18.12   18.25</time>
   <time name="orth">    0.34    0.34</time>
   <time name="total">   20.08   20.23</time>
   <energy>
    <i name="e_fr_energy">   -655.33542141 </i>
    <i name="e_wo_entrp">   -655.17414190 </i>
    <i name="e_0_energy">   -655.25478166 </i>
   </energy>
  </scstep>
  <scstep>
   <time name="diag">    1.42    1.43</time>
   <time name="diis">   17.14   17.22</time>
   <time name="orth">    0.34    0.34</time>
   <time name="total">   19.09   19.18</time>
   <energy>
    <i name="e_fr_energy">   -651.94137897 </i>
    <i name="e_wo_entrp">   -651.82239349 </i>
    <i name="e_0_energy">   -651.88188623 </i>
   </energy>
  </scstep>
  <scstep>
   <time name="diag">    1.37    1.38</time>
   <time name="diis">   18.66   18.79</time>
   <time name="orth">    0.34    0.34</time>
   <time name="total">   20.57   20.71</time>
   <energy>
    <i name="e_fr_energy">   -649.66300186 </i>
    <i name="e_wo_entrp">   -649.53538031 </i>
    <i name="e_0_energy">   -649.59919109 </i>
   </energy>
  </scstep>
  <scstep>
   <time name="diag">    1.43    1.45</time>
   <time name="diis">   18.49   18.63</time>
   <time name="orth">    0.36    0.36</time>
   <time name="total">   20.47   20.63</time>
   <energy>
    <i name="e_fr_energy">   -649.20485535 </i>
    <i name="e_wo_entrp">   -649.07757070 </i>
    <i name="e_0_energy">   -649.14121303 </i>
   </energy>
  </scstep>
  <scstep>
   <time name="diag">    1.40    1.40</time>
   <time name="diis">   19.92   20.02</time>
   <time name="orth">    0.39    0.39</time>
   <time name="total">   21.93   22.04</time>
   <energy>
    <i name="e_fr_energy">   -649.09952328 </i>
    <i name="e_wo_entrp">   -648.95930790 </i>
    <i name="e_0_energy">   -649.02941559 </i>
   </energy>
  </scstep>
  <scstep>
   <time name="diag">    1.37    1.37</time>
   <time name="diis">   20.49   20.53</time>
   <time name="orth">    0.34    0.34</time>
   <time name="total">   22.39   22.44</time>
   <energy>
    <i name="e_fr_energy">   -648.78297558 </i>
    <i name="e_wo_entrp">   -648.65572624 </i>
    <i name="e_0_energy">   -648.71935091 </i>
   </energy>
  </scstep>
  <scstep>
   <time name="diag">    1.37    1.37</time>
   <time name="diis">   22.15   22.38</time>
   <time name="orth">    0.34    0.34</time>
   <time name="total">   24.06   24.29</time>
   <energy>
    <i name="e_fr_energy">   -648.83335314 </i>
    <i name="e_wo_entrp">   -648.69735626 </i>
    <i name="e_0_energy">   -648.76535470 </i>
   </energy>
  </scstep>
  <scstep>
   <time name="diag">    1.35    1.35</time>
   <time name="diis">   22.26   22.40</time>
   <time name="orth">    0.34    0.34</time>
   <time name="total">   24.15   24.30</time>
   <energy>
    <i name="e_fr_energy">   -648.78816848 </i>
    <i name="e_wo_entrp">   -648.65866862 </i>
    <i name="e_0_energy">   -648.72341855 </i>
   </energy>
  </scstep>
  <scstep>
   <time name="diag">    1.48    1.48</time>
   <time name="diis">   22.71   22.82</time>
   <time name="orth">    0.34    0.34</time>
   <time name="total">   24.73   24.84</time>
   <energy>
    <i name="e_fr_energy">   -648.79941193 </i>
    <i name="e_wo_entrp">   -648.66838341 </i>
    <i name="e_0_energy">   -648.73389767 </i>
   </energy>
  </scstep>
  <scstep>
   <time name="diag">    1.40    1.44</time>
   <time name="diis">   22.87   22.97</time>
   <time name="orth">    0.34    0.34</time>
   <time name="total">   24.81   24.95</time>
   <energy>
    <i name="e_fr_energy">   -648.79594723 </i>
    <i name="e_wo_entrp">   -648.66610602 </i>
    <i name="e_0_energy">   -648.73102662 </i>
   </energy>
  </scstep>
  <scstep>
   <time name="diag">    1.39    1.40</time>
   <time name="diis">   23.31   23.37</time>
   <time name="orth">    0.34    0.35</time>
   <time name="total">   25.24   25.33</time>
   <energy>
    <i name="e_fr_energy">   -648.79888422 </i>
    <i name="e_wo_entrp">   -648.66853470 </i>
    <i name="e_0_energy">   -648.73370946 </i>
   </energy>
  </scstep>
  <scstep>
   <time name="diag">    1.34    1.34</time>
   <time name="diis">   23.33   23.49</time>
   <time name="orth">    0.34    0.34</time>
   <time name="total">   25.20   25.38</time>
   <energy>
    <i name="e_fr_energy">   -648.80284464 </i>
    <i name="e_wo_entrp">   -648.67220771 </i>
    <i name="e_0_energy">   -648.73752617 </i>
   </energy>
  </scstep>
  <scstep>
   <time name="diag">    1.37    1.38</time>
   <time name="diis">   23.33   23.45</time>
   <time name="orth">    0.34    0.34</time>
   <time name="total">   25.25   25.37</time>
   <energy>
    <i name="e_fr_energy">   -648.80319194 </i>
    <i name="e_wo_entrp">   -648.67278779 </i>
    <i name="e_0_energy">   -648.73798986 </i>
   </energy>
  </scstep>
  <scstep>
   <time name="diag">    1.39    1.40</time>
   <time name="diis">   23.35   23.51</time>
   <time name="orth">    0.48    0.48</time>
   <time name="total">   25.41   25.58</time>
   <energy>
    <i name="e_fr_energy">   -648.80463650 </i>
    <i name="e_wo_entrp">   -648.67419222 </i>
    <i name="e_0_energy">   -648.73941436 </i>
   </energy>
  </scstep>
  <scstep>
   <time name="diag">    1.37    1.37</time>
   <time name="diis">   23.39   23.49</time>
   <time name="orth">    0.35    0.35</time>
   <time name="total">   25.31   25.42</time>
   <energy>
    <i name="e_fr_energy">   -648.80557445 </i>
    <i name="e_wo_entrp">   -648.67514945 </i>
    <i name="e_0_energy">   -648.74036195 </i>
   </energy>
  </scstep>
  <scstep>
   <time name="diag">    1.35    1.36</time>
   <time name="diis">   23.24   23.33</time>
   <time name="orth">    0.36    0.36</time>
   <time name="total">   25.15   25.25</time>
   <energy>
    <i name="e_fr_energy">   -648.80639744 </i>
    <i name="e_wo_entrp">   -648.67598454 </i>
    <i name="e_0_energy">   -648.74119099 </i>
   </energy>
  </scstep>
  <scstep>
   <time name="diag">    1.40    1.41</time>
   <time name="diis">   22.69   22.86</time>
   <time name="orth">    0.37    0.37</time>
   <time name="total">   24.65   24.84</time>
   <energy>
    <i name="e_fr_energy">   -648.80705379 </i>
    <i name="e_wo_entrp">   -648.67664442 </i>
    <i name="e_0_energy">   -648.74184910 </i>
   </energy>
  </scstep>
  <scstep>
   <time name="diag">    1.34    1.34</time>
   <time name="diis">   22.45   22.65</time>
   <time name="orth">    0.34    0.34</time>
   <time name="total">   24.37   24.57</time>
   <energy>
    <i name="e_fr_energy">   -648.80761883 </i>
    <i name="e_wo_entrp">   -648.67720271 </i>
    <i name="e_0_energy">   -648.74241077 </i>
   </energy>
  </scstep>
  <scstep>
   <time name="diag">    1.36    1.37</time>
   <time name="diis">   22.48   22.69</time>
   <time name="orth">    0.34    0.35</time>
   <time name="total">   24.38   24.60</time>
   <energy>
    <i name="e_fr_energy">   -648.80808916 </i>
    <i name="e_wo_entrp">   -648.67766759 </i>
    <i name="e_0_energy">   -648.74287838 </i>
   </energy>
  </scstep>
  <scstep>
   <time name="diag">    1.45    1.46</time>
   <time name="diis">   22.32   22.49</time>
   <time name="orth">    0.34    0.34</time>
   <time name="total">   24.31   24.49</time>
   <energy>
    <i name="e_fr_energy">   -648.80848760 </i>
    <i name="e_wo_entrp">   -648.67806056 </i>
    <i name="e_0_energy">   -648.74327408 </i>
   </energy>
  </scstep>
  <scstep>
   <time name="diag">    1.39    1.41</time>
   <time name="diis">   22.22   22.42</time>
   <time name="orth">    0.34    0.34</time>
   <time name="total">   24.15   24.37</time>
   <energy>
    <i name="e_fr_energy">   -648.80882889 </i>
    <i name="e_wo_entrp">   -648.67840177 </i>
    <i name="e_0_energy">   -648.74361533 </i>
   </energy>
  </scstep>
  <scstep>
   <time name="diag">    1.37    1.37</time>
   <time name="diis">   22.16   22.35</time>
   <time name="orth">    0.34    0.35</time>
   <time name="total">   24.06   24.27</time>
   <energy>
    <i name="e_fr_energy">   -648.80912816 </i>
    <i name="e_wo_entrp">   -648.67869496 </i>
    <i name="e_0_energy">   -648.74391156 </i>
   </energy>
  </scstep>
  <scstep>
   <time name="diag">    1.34    1.34</time>
   <time name="diis">   22.06   22.20</time>
   <time name="orth">    0.34    0.34</time>
   <time name="total">   23.96   24.12</time>
   <energy>
    <i name="e_fr_energy">   -648.80939337 </i>
    <i name="e_wo_entrp">   -648.67896474 </i>
    <i name="e_0_energy">   -648.74417906 </i>
   </energy>
  </scstep>
  <scstep>
   <time name="diag">    1.45    1.46</time>
   <time name="diis">   21.67   21.87</time>
   <time name="orth">    0.35    0.35</time>
   <time name="total">   23.68   23.89</time>
   <energy>
    <i name="e_fr_energy">   -648.80962391 </i>
    <i name="e_wo_entrp">   -648.67919130 </i>
    <i name="e_0_energy">   -648.74440761 </i>
   </energy>
  </scstep>
  <scstep>
   <time name="diag">    1.34    1.35</time>
   <time name="diis">   21.23   21.35</time>
   <time name="orth">    0.38    0.38</time>
   <time name="total">   23.15   23.27</time>
   <energy>
    <i name="e_fr_energy">   -648.80983683 </i>
    <i name="e_wo_entrp">   -648.67940269 </i>
    <i name="e_0_energy">   -648.74461976 </i>
   </energy>
  </scstep>
  <scstep>
   <time name="diag">    1.35    1.35</time>
   <time name="diis">   20.89   21.03</time>
   <time name="orth">    0.39    0.39</time>
   <time name="total">   22.82   22.96</time>
   <energy>
    <i name="e_fr_energy">   -648.81001976 </i>
    <i name="e_wo_entrp">   -648.67958628 </i>
    <i name="e_0_energy">   -648.74480302 </i>
   </energy>
  </scstep>
  <scstep>
   <time name="diag">    1.37    1.37</time>
   <time name="diis">   19.62   19.85</time>
   <time name="orth">    0.34    0.34</time>
   <time name="total">   21.52   21.77</time>
   <energy>
    <i name="e_fr_energy">   -648.81019336 </i>
    <i name="e_wo_entrp">   -648.67975786 </i>
    <i name="e_0_energy">   -648.74497561 </i>
   </energy>
  </scstep>
  <scstep>
   <time name="diag">    1.44    1.45</time>
   <time name="diis">   18.97   19.10</time>
   <time name="orth">    0.38    0.39</time>
   <time name="total">   20.98   21.13</time>
   <energy>
    <i name="e_fr_energy">   -648.81034462 </i>
    <i name="e_wo_entrp">   -648.67990924 </i>
    <i name="e_0_energy">   -648.74512693 </i>
   </energy>
  </scstep>
  <scstep>
   <time name="diag">    1.41    1.44</time>
   <time name="diis">   17.68   17.80</time>
   <time name="orth">    0.35    0.35</time>
   <time name="total">   19.63   19.78</time>
   <energy>
    <i name="e_fr_energy">   -648.81049094 </i>
    <i name="e_wo_entrp">   -648.68005529 </i>
    <i name="e_0_energy">   -648.74527312 </i>
   </energy>
  </scstep>
  <scstep>
   <time name="diag">    1.43    1.44</time>
   <time name="diis">   16.69   16.90</time>
   <time name="orth">    0.34    0.34</time>
   <time name="total">   18.65   18.88</time>
   <energy>
    <i name="e_fr_energy">   -648.81061795 </i>
    <i name="e_wo_entrp">   -648.68018228 </i>
    <i name="e_0_energy">   -648.74540012 </i>
   </energy>
  </scstep>
  <scstep>
   <time name="diag">    1.36    1.36</time>
   <time name="diis">   15.70   15.79</time>
   <time name="orth">    0.41    0.41</time>
   <time name="total">   17.69   17.79</time>
   <energy>
    <i name="e_fr_energy">   -648.81074183 </i>
    <i name="e_wo_entrp">   -648.68030585 </i>
    <i name="e_0_energy">   -648.74552384 </i>
   </energy>
  </scstep>
  <scstep>
   <time name="diag">    1.37    1.37</time>
   <time name="diis">   15.44   15.52</time>
   <time name="orth">    0.35    0.35</time>
   <time name="total">   17.35   17.44</time>
   <energy>
    <i name="e_fr_energy">   -648.81085053 </i>
    <i name="e_wo_entrp">   -648.68041448 </i>
    <i name="e_0_energy">   -648.74563250 </i>
   </energy>
  </scstep>
  <scstep>
   <time name="diag">    1.36    1.37</time>
   <time name="diis">   14.43   14.61</time>
   <time name="orth">    0.36    0.36</time>
   <time name="total">   16.35   16.54</time>
   <energy>
    <i name="e_fr_energy">   -648.81095684 </i>
    <i name="e_wo_entrp">   -648.68052074 </i>
    <i name="e_0_energy">   -648.74573879 </i>
   </energy>
  </scstep>
  <scstep>
   <time name="diag">    1.42    1.43</time>
   <time name="diis">   13.75   13.82</time>
   <time name="orth">    0.38    0.39</time>
   <time name="total">   15.74   15.84</time>
   <energy>
    <i name="e_fr_energy">   -648.81105106 </i>
    <i name="e_wo_entrp">   -648.68061475 </i>
    <i name="e_0_energy">   -648.74583290 </i>
   </energy>
  </scstep>
  <scstep>
   <time name="diag">    1.46    1.53</time>
   <time name="diis">   13.17   13.25</time>
   <time name="orth">    0.34    0.34</time>
   <time name="total">   15.17   15.33</time>
   <energy>
    <i name="e_fr_energy">   -648.81114322 </i>
    <i name="e_wo_entrp">   -648.68070691 </i>
    <i name="e_0_energy">   -648.74592506 </i>
   </energy>
  </scstep>
  <scstep>
   <time name="diag">    1.45    1.46</time>
   <time name="diis">   13.05   13.12</time>
   <time name="orth">    0.34    0.34</time>
   <time name="total">   15.06   15.15</time>
   <energy>
    <i name="e_fr_energy">   -648.81122517 </i>
    <i name="e_wo_entrp">   -648.68078881 </i>
    <i name="e_0_energy">   -648.74600699 </i>
   </energy>
  </scstep>
  <scstep>
   <time name="diag">    1.50    1.51</time>
   <time name="diis">   12.74   12.84</time>
   <time name="orth">    0.35    0.35</time>
   <time name="total">   14.78   14.90</time>
   <energy>
    <i name="e_fr_energy">   -648.81130576 </i>
    <i name="e_wo_entrp">   -648.68086915 </i>
    <i name="e_0_energy">   -648.74608745 </i>
   </energy>
  </scstep>
  <scstep>
   <time name="diag">    1.39    1.40</time>
   <time name="diis">   12.59   12.65</time>
   <time name="orth">    0.37    0.37</time>
   <time name="total">   14.55   14.63</time>
   <energy>
    <i name="e_fr_energy">   -648.81137751 </i>
    <i name="e_wo_entrp">   -648.68094089 </i>
    <i name="e_0_energy">   -648.74615920 </i>
   </energy>
  </scstep>
  <scstep>
   <time name="diag">    1.43    1.44</time>
   <time name="diis">   12.49   12.56</time>
   <time name="orth">    0.34    0.34</time>
   <time name="total">   14.46   14.54</time>
   <energy>
    <i name="e_fr_energy">   -648.81144800 </i>
    <i name="e_wo_entrp">   -648.68101135 </i>
    <i name="e_0_energy">   -648.74622968 </i>
   </energy>
  </scstep>
  <scstep>
   <time name="diag">    1.39    1.40</time>
   <time name="diis">   12.35   12.43</time>
   <time name="orth">    0.34    0.34</time>
   <time name="total">   14.28   14.36</time>
   <energy>
    <i name="e_fr_energy">   -648.81151111 </i>
    <i name="e_wo_entrp">   -648.68107434 </i>
    <i name="e_0_energy">   -648.74629273 </i>
   </energy>
  </scstep>
  <scstep>
   <time name="diag">    1.38    1.39</time>
   <time name="diis">   12.06   12.25</time>
   <time name="orth">    0.40    0.40</time>
   <time name="total">   14.04   14.25</time>
   <energy>
    <i name="e_fr_energy">   -648.81157296 </i>
    <i name="e_wo_entrp">   -648.68113616 </i>
    <i name="e_0_energy">   -648.74635456 </i>
   </energy>
  </scstep>
  <scstep>
   <time name="diag">    1.37    1.38</time>
   <time name="diis">   12.02   12.08</time>
   <time name="orth">    0.34    0.34</time>
   <time name="total">   13.93   14.00</time>
   <energy>
    <i name="e_fr_energy">   -648.81162856 </i>
    <i name="e_wo_entrp">   -648.68119175 </i>
    <i name="e_0_energy">   -648.74641015 </i>
   </energy>
  </scstep>
  <scstep>
   <time name="diag">    1.39    1.41</time>
   <time name="diis">   11.82   11.89</time>
   <time name="orth">    0.38    0.39</time>
   <time name="total">   13.79   13.89</time>
   <energy>
    <i name="e_fr_energy">   -648.81168320 </i>
    <i name="e_wo_entrp">   -648.68124629 </i>
    <i name="e_0_energy">   -648.74646475 </i>
   </energy>
  </scstep>
  <scstep>
   <time name="diag">    1.38    1.38</time>
   <time name="diis">   11.81   11.88</time>
   <time name="orth">    0.34    0.34</time>
   <time name="total">   13.72   13.80</time>
   <energy>
    <i name="e_fr_energy">   -648.81173243 </i>
    <i name="e_wo_entrp">   -648.68129552 </i>
    <i name="e_0_energy">   -648.74651397 </i>
   </energy>
  </scstep>
  <scstep>
   <time name="diag">    1.40    1.41</time>
   <time name="diis">   11.68   11.79</time>
   <time name="orth">    0.34    0.34</time>
   <time name="total">   13.62   13.74</time>
   <energy>
    <i name="e_fr_energy">   -648.81178079 </i>
    <i name="e_wo_entrp">   -648.68134403 </i>
    <i name="e_0_energy">   -648.74656241 </i>
   </energy>
  </scstep>
  <scstep>
   <time name="diag">    1.43    1.44</time>
   <time name="diis">   11.59   11.65</time>
   <time name="orth">    0.34    0.35</time>
   <time name="total">   13.55   13.63</time>
   <energy>
    <i name="e_fr_energy">   -648.81182453 </i>
    <i name="e_wo_entrp">   -648.68138761 </i>
    <i name="e_0_energy">   -648.74660607 </i>
   </energy>
  </scstep>
  <scstep>
   <time name="diag">    1.35    1.36</time>
   <time name="diis">   11.30   11.52</time>
   <time name="orth">    0.34    0.34</time>
   <time name="total">   13.19   13.42</time>
   <energy>
    <i name="e_fr_energy">   -648.81186728 </i>
    <i name="e_wo_entrp">   -648.68143037 </i>
    <i name="e_0_energy">   -648.74664882 </i>
   </energy>
  </scstep>
  <scstep>
   <time name="diag">    1.34    1.35</time>
   <time name="diis">   10.95   11.04</time>
[...]
      </set>
     </set>
    </set>
   </array>
  </eigenvalues>
  <separator name="orbital magnetization" >
   <v name="MAGDIPOLOUT">      0.00000000      0.00000000      0.00000000</v>
  </separator>
  <dos>
   <i name="efermi">      9.04685759 </i>
   <total>
    <array>
     <dimension dim="1">gridpoints</dimension>
     <dimension dim="2">spin</dimension>
     <field>energy</field>
     <field>total</field>
     <field>integrated</field>
     <set>
      <set comment="spin 1">
       <r>   -59.3603     0.0000     0.0000 </r>
       <r>   -59.1107     0.0000     0.0000 </r>
       <r>   -58.8612     0.0000     0.0000 </r>
       <r>   -58.6117     0.0000     0.0000 </r>
       <r>   -58.3621     0.0000     0.0000 </r>
       <r>   -58.1126     0.0000     0.0000 </r>
       <r>   -57.8631     0.0000     0.0000 </r>
       <r>   -57.6136     0.0000     0.0000 </r>
       <r>   -57.3640     0.0000     0.0000 </r>
       <r>   -57.1145     0.0000     0.0000 </r>
       <r>   -56.8650     0.0000     0.0000 </r>
       <r>   -56.6155     0.0000     0.0000 </r>
       <r>   -56.3659     0.0000     0.0000 </r>
       <r>   -56.1164     0.1002     0.0250 </r>
       <r>   -55.8669    17.1030     4.2927 </r>
       <r>   -55.6174    38.4858    13.8959 </r>
       <r>   -55.3678     0.4173    14.0000 </r>
       <r>   -55.1183     0.0000    14.0000 </r>
       <r>   -54.8688     0.0000    14.0000 </r>
       <r>   -54.6193     0.0000    14.0000 </r>
       <r>   -54.3697     0.0000    14.0000 </r>
       <r>   -54.1202     0.0000    14.0000 </r>
       <r>   -53.8707     0.0000    14.0000 </r>
       <r>   -53.6211     0.0000    14.0000 </r>
       <r>   -53.3716     0.0000    14.0000 </r>
       <r>   -53.1221     0.0000    14.0000 </r>
       <r>   -52.8726     0.0000    14.0000 </r>
       <r>   -52.6230     0.0000    14.0000 </r>
       <r>   -52.3735     0.0000    14.0000 </r>
       <r>   -52.1240     0.0000    14.0000 </r>
       <r>   -51.8745     0.0000    14.0000 </r>
       <r>   -51.6249     0.0000    14.0000 </r>
       <r>   -51.3754     0.0000    14.0000 </r>
       <r>   -51.1259     0.0000    14.0000 </r>
       <r>   -50.8764     0.0000    14.0000 </r>
       <r>   -50.6268     0.0000    14.0000 </r>
       <r>   -50.3773     0.0000    14.0000 </r>
       <r>   -50.1278     0.0000    14.0000 </r>
       <r>   -49.8783     0.0000    14.0000 </r>
       <r>   -49.6287     0.0000    14.0000 </r>
       <r>   -49.3792     0.0000    14.0000 </r>
       <r>   -49.1297     0.0000    14.0000 </r>
       <r>   -48.8801     0.0000    14.0000 </r>
       <r>   -48.6306     0.0000    14.0000 </r>
       <r>   -48.3811     0.0000    14.0000 </r>
       <r>   -48.1316     0.0000    14.0000 </r>
       <r>   -47.8820     0.0000    14.0000 </r>
       <r>   -47.6325     0.0000    14.0000 </r>
       <r>   -47.3830     0.0000    14.0000 </r>
       <r>   -47.1335     0.0478    14.0119 </r>
       <r>   -46.8839    12.1978    17.0556 </r>
       <r>   -46.6344    25.5572    23.4328 </r>
       <r>   -46.3849    10.0329    25.9363 </r>
       <r>   -46.1354     0.2554    26.0000 </r>
       <r>   -45.8858     0.0000    26.0000 </r>
       <r>   -45.6363     0.0000    26.0000 </r>
       <r>   -45.3868     0.0000    26.0000 </r>
       <r>   -45.1373     0.0000    26.0000 </r>
       <r>   -44.8877     0.0000    26.0000 </r>
       <r>   -44.6382     0.0000    26.0000 </r>
       <r>   -44.3887     0.0000    26.0000 </r>
       <r>   -44.1391     0.0000    26.0000 </r>
       <r>   -43.8896     0.0000    26.0000 </r>
       <r>   -43.6401     0.0000    26.0000 </r>
       <r>   -43.3906     0.0000    26.0000 </r>
       <r>   -43.1410     0.0000    26.0000 </r>
       <r>   -42.8915     0.0000    26.0000 </r>
       <r>   -42.6420     0.0000    26.0000 </r>
       <r>   -42.3925     0.0000    26.0000 </r>
       <r>   -42.1429     0.0000    26.0000 </r>
       <r>   -41.8934     0.0000    26.0000 </r>
       <r>   -41.6439     0.0000    26.0000 </r>
       <r>   -41.3944     0.0000    26.0000 </r>
       <r>   -41.1448     0.0000    26.0000 </r>
       <r>   -40.8953     0.0000    26.0000 </r>
       <r>   -40.6458     0.0000    26.0000 </r>
       <r>   -40.3963     0.0000    26.0000 </r>
       <r>   -40.1467     0.0000    26.0000 </r>
       <r>   -39.8972     0.0000    26.0000 </r>
       <r>   -39.6477     0.0000    26.0000 </r>
       <r>   -39.3981     0.0000    26.0000 </r>
       <r>   -39.1486     0.0000    26.0000 </r>
       <r>   -38.8991     0.0000    26.0000 </r>
       <r>   -38.6496     0.0000    26.0000 </r>
       <r>   -38.4000     0.0000    26.0000 </r>
       <r>   -38.1505     0.0000    26.0000 </r>
       <r>   -37.9010     0.0000    26.0000 </r>
       <r>   -37.6515     0.0000    26.0000 </r>
       <r>   -37.4019     0.0000    26.0000 </r>
       <r>   -37.1524     0.0000    26.0000 </r>
       <r>   -36.9029     0.0000    26.0000 </r>
       <r>   -36.6534     0.0000    26.0000 </r>
       <r>   -36.4038     0.0000    26.0000 </r>
       <r>   -36.1543     0.0000    26.0000 </r>
       <r>   -35.9048     0.0000    26.0000 </r>
       <r>   -35.6553     0.0000    26.0000 </r>
       <r>   -35.4057     0.0000    26.0000 </r>
       <r>   -35.1562     0.0000    26.0000 </r>
       <r>   -34.9067     0.0000    26.0000 </r>
       <r>   -34.6572     0.0000    26.0000 </r>
       <r>   -34.4076     0.0000    26.0000 </r>
       <r>   -34.1581     0.0000    26.0000 </r>
       <r>   -33.9086     0.0000    26.0000 </r>
       <r>   -33.6590     0.0000    26.0000 </r>
       <r>   -33.4095     0.0000    26.0000 </r>
       <r>   -33.1600     0.0000    26.0000 </r>
       <r>   -32.9105     0.0000    26.0000 </r>
       <r>   -32.6609     0.0000    26.0000 </r>
       <r>   -32.4114     0.0000    26.0000 </r>
       <r>   -32.1619     0.0000    26.0000 </r>
       <r>   -31.9124     0.0000    26.0000 </r>
       <r>   -31.6628     0.0000    26.0000 </r>
       <r>   -31.4133     0.0000    26.0000 </r>
       <r>   -31.1638     0.0000    26.0000 </r>
       <r>   -30.9143     0.0003    26.0001 </r>
       <r>   -30.6647     3.5973    26.8977 </r>
       <r>   -30.4152    28.9333    34.1173 </r>
       <r>   -30.1657    72.7562    52.2719 </r>
       <r>   -29.9162    55.4327    66.1038 </r>
       <r>   -29.6666   122.4708    96.6635 </r>
       <r>   -29.4171    29.3915   103.9974 </r>
       <r>   -29.1676     0.0104   104.0000 </r>
       <r>   -28.9180     0.0000   104.0000 </r>
       <r>   -28.6685     0.0000   104.0000 </r>
       <r>   -28.4190     0.0000   104.0000 </r>
       <r>   -28.1695     0.0000   104.0000 </r>
       <r>   -27.9199     0.0000   104.0000 </r>
       <r>   -27.6704     0.0000   104.0000 </r>
       <r>   -27.4209     0.0000   104.0000 </r>
       <r>   -27.1714     0.0000   104.0000 </r>
       <r>   -26.9218     0.0000   104.0000 </r>
       <r>   -26.6723     0.0000   104.0000 </r>
       <r>   -26.4228     0.0000   104.0000 </r>
       <r>   -26.1733     0.0000   104.0000 </r>
       <r>   -25.9237     0.0000   104.0000 </r>
       <r>   -25.6742     0.0000   104.0000 </r>
       <r>   -25.4247     0.0000   104.0000 </r>
       <r>   -25.1752     0.0000   104.0000 </r>
       <r>   -24.9256     0.0000   104.0000 </r>
       <r>   -24.6761     0.0000   104.0000 </r>
       <r>   -24.4266     0.0000   104.0000 </r>
       <r>   -24.1770     0.0000   104.0000 </r>
       <r>   -23.9275     0.0000   104.0000 </r>
       <r>   -23.6780     0.0000   104.0000 </r>
       <r>   -23.4285     0.5812   104.1450 </r>
       <r>   -23.1789    15.9655   108.1288 </r>
       <r>   -22.9294    66.7251   124.7785 </r>
       <r>   -22.6799    46.4322   136.3646 </r>
       <r>   -22.4304    14.5383   139.9922 </r>
       <r>   -22.1808     8.5649   142.1294 </r>
       <r>   -21.9313    16.6897   146.2939 </r>
       <r>   -21.6818    56.0343   160.2760 </r>
       <r>   -21.4323    48.3519   172.3410 </r>
       <r>   -21.1827    35.9420   181.3095 </r>
       <r>   -20.9332     2.7670   181.9999 </r>
       <r>   -20.6837     0.0003   182.0000 </r>
       <r>   -20.4342     0.0000   182.0000 </r>
       <r>   -20.1846     0.0000   182.0000 </r>
       <r>   -19.9351     0.0000   182.0000 </r>
       <r>   -19.6856     0.0000   182.0000 </r>
       <r>   -19.4360     0.0000   182.0000 </r>
       <r>   -19.1865     0.0000   182.0000 </r>
       <r>   -18.9370     0.0000   182.0000 </r>
       <r>   -18.6875     0.0000   182.0000 </r>
       <r>   -18.4379     0.0000   182.0000 </r>
       <r>   -18.1884     0.0000   182.0000 </r>
       <r>   -17.9389     0.0000   182.0000 </r>
       <r>   -17.6894     0.0000   182.0000 </r>
       <r>   -17.4398     0.0000   182.0000 </r>
       <r>   -17.1903     0.0000   182.0000 </r>
       <r>   -16.9408     0.0000   182.0000 </r>
       <r>   -16.6913     0.0000   182.0000 </r>
       <r>   -16.4417     0.0000   182.0000 </r>
       <r>   -16.1922     0.0000   182.0000 </r>
       <r>   -15.9427     0.0000   182.0000 </r>
       <r>   -15.6932     0.0000   182.0000 </r>
       <r>   -15.4436     0.0000   182.0000 </r>
       <r>   -15.1941     0.0000   182.0000 </r>
       <r>   -14.9446     0.0000   182.0000 </r>
       <r>   -14.6950     0.0000   182.0000 </r>
       <r>   -14.4455     0.0000   182.0000 </r>
       <r>   -14.1960     0.0000   182.0000 </r>
       <r>   -13.9465     0.0000   182.0000 </r>
       <r>   -13.6969     0.0000   182.0000 </r>
       <r>   -13.4474     0.0000   182.0000 </r>
       <r>   -13.1979     0.0000   182.0000 </r>
       <r>   -12.9484     0.0000   182.0000 </r>
       <r>   -12.6988     0.0000   182.0000 </r>
       <r>   -12.4493     0.0000   182.0000 </r>
       <r>   -12.1998     0.0000   182.0000 </r>
       <r>   -11.9503     0.0000   182.0000 </r>
       <r>   -11.7007     0.0000   182.0000 </r>
       <r>   -11.4512     0.0000   182.0000 </r>
       <r>   -11.2017     0.0000   182.0000 </r>
       <r>   -10.9522     0.0000   182.0000 </r>
       <r>   -10.7026     0.0000   182.0000 </r>
       <r>   -10.4531     0.0000   182.0000 </r>
       <r>   -10.2036     0.0000   182.0000 </r>
       <r>    -9.9540     0.0000   182.0000 </r>
       <r>    -9.7045     0.0000   182.0000 </r>
       <r>    -9.4550     0.0000   182.0000 </r>
       <r>    -9.2055     0.0000   182.0000 </r>
       <r>    -8.9559     0.0000   182.0000 </r>
       <r>    -8.7064     0.0000   182.0000 </r>
       <r>    -8.4569     0.0000   182.0000 </r>
       <r>    -8.2074     0.0000   182.0000 </r>
       <r>    -7.9578     0.0061   182.0015 </r>
       <r>    -7.7083     1.7702   182.4432 </r>
       <r>    -7.4588     5.8320   183.8985 </r>
       <r>    -7.2093     4.9241   185.1272 </r>
       <r>    -6.9597     9.3879   187.4697 </r>
       <r>    -6.7102    10.9974   190.2138 </r>
       <r>    -6.4607    16.3280   194.2881 </r>
       <r>    -6.2112    15.6817   198.2011 </r>
       <r>    -5.9616    20.0756   203.2105 </r>
       <r>    -5.7121     8.3435   205.2924 </r>
       <r>    -5.4626     6.5289   206.9215 </r>
       <r>    -5.2130     4.3181   207.9990 </r>
       <r>    -4.9635     0.0040   208.0000 </r>
       <r>    -4.7140     0.0000   208.0000 </r>
       <r>    -4.4645     0.0000   208.0000 </r>
       <r>    -4.2149     0.0000   208.0000 </r>
       <r>    -3.9654     0.2835   208.0707 </r>
       <r>    -3.7159     5.2876   209.3901 </r>
       <r>    -3.4664     5.2044   210.6888 </r>
       <r>    -3.2168     8.9924   212.9326 </r>
       <r>    -2.9673    15.9015   216.9005 </r>
       <r>    -2.7178    22.0177   222.3945 </r>
       <r>    -2.4683    29.0223   229.6363 </r>
       <r>    -2.2187    23.2476   235.4372 </r>
       <r>    -1.9692    18.1624   239.9692 </r>
       <r>    -1.7197    13.6259   243.3692 </r>
       <r>    -1.4702     7.3238   245.1967 </r>
       <r>    -1.2206     2.9023   245.9209 </r>
       <r>    -0.9711     0.3170   246.0000 </r>
       <r>    -0.7216     0.0001   246.0000 </r>
       <r>    -0.4721     0.0000   246.0000 </r>
       <r>    -0.2225     0.0000   246.0000 </r>
       <r>     0.0270     0.0000   246.0000 </r>
       <r>     0.2765     0.0001   246.0000 </r>
       <r>     0.5261     0.2373   246.0592 </r>
       <r>     0.7756     1.8504   246.5210 </r>
       <r>     1.0251     6.4822   248.1384 </r>
       <r>     1.2746     9.5046   250.5101 </r>
       <r>     1.5242    11.8503   253.4670 </r>
       <r>     1.7737    16.2017   257.5098 </r>
       <r>     2.0232    21.5980   262.8991 </r>
       <r>     2.2727    26.2886   269.4588 </r>
       <r>     2.5223    27.5064   276.3223 </r>
       <r>     2.7718    31.9120   284.2852 </r>
       <r>     3.0213    31.9468   292.2568 </r>
       <r>     3.2708    34.4679   300.8574 </r>
       <r>     3.5204    43.1570   311.6262 </r>
       <r>     3.7699    52.0980   324.6260 </r>
       <r>     4.0194    60.0175   339.6020 </r>
       <r>     4.2689    63.1824   355.3676 </r>
       <r>     4.5185    61.7355   370.7722 </r>
       <r>     4.7680    56.5912   384.8932 </r>
       <r>     5.0175    49.8444   397.3307 </r>
       <r>     5.2671    41.2755   407.6300 </r>
       <r>     5.5166    32.6100   415.7671 </r>
       <r>     5.7661    29.5940   423.1516 </r>
       <r>     6.0156    24.1114   429.1680 </r>
       <r>     6.2652    17.4357   433.5187 </r>
       <r>     6.5147    13.1015   436.7878 </r>
       <r>     6.7642    10.1070   439.3098 </r>
       <r>     7.0137    14.3444   442.8891 </r>
       <r>     7.2633    16.2921   446.9544 </r>
       <r>     7.5128    19.6445   451.8563 </r>
       <r>     7.7623    21.7861   457.2925 </r>
       <r>     8.0118    19.9110   462.2608 </r>
       <r>     8.2614    23.3847   468.0959 </r>
       <r>     8.5109    28.4169   475.1866 </r>
       <r>     8.7604    24.7659   481.3663 </r>
       <r>     9.0099    23.2320   487.1633 </r>
       <r>     9.2595    23.6059   493.0536 </r>
       <r>     9.5090    34.2117   501.5903 </r>
       <r>     9.7585    42.4630   512.1860 </r>
       <r>    10.0081    47.8957   524.1372 </r>
       <r>    10.2576    49.1585   536.4035 </r>
       <r>    10.5071    49.5370   548.7643 </r>
       <r>    10.7566    53.0383   561.9988 </r>
       <r>    11.0062    48.8282   574.1827 </r>
       <r>    11.2557    45.7095   585.5884 </r>
       <r>    11.5052    46.3693   597.1588 </r>
       <r>    11.7547    41.3907   607.4869 </r>
       <r>    12.0043    27.8358   614.4326 </r>
       <r>    12.2538     6.2595   615.9946 </r>
       <r>    12.5033     0.0218   616.0000 </r>
       <r>    12.7528     0.0000   616.0000 </r>
       <r>    13.0024     0.0000   616.0000 </r>
       <r>    13.2519     0.0000   616.0000 </r>
       <r>    13.5014     0.0000   616.0000 </r>
       <r>    13.7509     0.0000   616.0000 </r>
       <r>    14.0005     0.0000   616.0000 </r>
       <r>    14.2500     0.0000   616.0000 </r>
       <r>    14.4995     0.0000   616.0000 </r>
       <r>    14.7491     0.0000   616.0000 </r>
       <r>    14.9986     0.0000   616.0000 </r>
       <r>    15.2481     0.0000   616.0000 </r>
       <r>    15.4976     0.0000   616.0000 </r>
      </set>
     </set>
    </array>
   </total>
  </dos>
 </calculation>
 <structure name="finalpos" >
  <crystal>
   <varray name="basis" >
    <v>       8.81258727       0.01535804       0.00985067 </v>
    <v>       0.02143663       8.80099427      -0.00580138 </v>
    <v>       0.04155337      -0.02090712       8.82075327 </v>
   </varray>
   <i name="volume">    684.12589420 </i>
   <varray name="rec_basis" >
    <v>       0.11347513      -0.00027674      -0.00053522 </v>
    <v>      -0.00019832       0.11362419       0.00027025 </v>
    <v>      -0.00012685       0.00007504       0.11336978 </v>
   </varray>
  </crystal>
  <varray name="positions" >
   <v>       0.00205068       0.00437246       0.99985548 </v>
   <v>       0.25813103       0.00771573       0.24264099 </v>
   <v>       0.24844120       0.49007480       0.25355871 </v>
   <v>       0.50328427       0.49620392       0.00117757 </v>
   <v>       0.49984619       0.24843732       0.74131063 </v>
   <v>       0.99917152       0.50333683       0.49966585 </v>
   <v>       0.49504341       0.75676767       0.75528208 </v>
   <v>       0.98447689       0.23804055       0.25630072 </v>
   <v>       0.76416025       0.74414971       0.00947509 </v>
   <v>       0.00092502       0.26180682       0.75071678 </v>
   <v>       0.75112216       0.25190609       0.48917123 </v>
   <v>       0.99933269       0.74600973       0.74914303 </v>
   <v>       0.25356556       0.50211915       0.74453616 </v>
   <v>       0.24952225       0.27106091       0.98092804 </v>
   <v>       0.52617032       0.25260480       0.23839086 </v>
   <v>       0.74566883       0.98862243       0.27805922 </v>
   <v>       0.73309741       0.23730912       0.98636078 </v>
   <v>       0.23044623       0.72856664       0.00056628 </v>
   <v>       0.23332893       0.24007601       0.51423471 </v>
   <v>       0.24554994       0.76466895       0.50125085 </v>
   <v>       0.24303564       0.24822024       0.24670493 </v>
   <v>       0.25570408       0.00231935       0.99199645 </v>
   <v>       0.99602684       0.25157769       0.00269749 </v>
   <v>       0.74444957       0.23817154       0.23827254 </v>
   <v>       0.75579216       0.00236523       0.02422280 </v>
   <v>       0.50964893       0.99607367       0.23597045 </v>
   <v>       0.99861884       0.49655042       0.24730153 </v>
   <v>       0.49837173       0.75628569       0.00534675 </v>
   <v>       0.98904149       0.00380860       0.74840440 </v>
   <v>       0.74965458       0.24248611       0.74967895 </v>
   <v>       0.75410824       0.99973150       0.52286393 </v>
   <v>       0.49951528       0.23700412       0.48886596 </v>
   <v>       0.49232479       0.00251304       0.74547859 </v>
   <v>       0.99569309       0.00264289       0.25515176 </v>
   <v>       0.49108592       0.24823141       0.00023347 </v>
   <v>       0.25520983       0.74973804       0.24679843 </v>
   <v>       0.24611849       0.49832344       0.99819267 </v>
   <v>       0.00487843       0.74492853       0.00585929 </v>
   <v>       0.75232622       0.74838028       0.25200915 </v>
   <v>       0.75681934       0.48806396       0.00931554 </v>
   <v>       0.49779858       0.49095364       0.25288966 </v>
   <v>       0.24701186       0.24916898       0.74810583 </v>
   <v>       0.27039105       0.00455207       0.49790065 </v>
   <v>       0.00163568       0.24964492       0.50230634 </v>
   <v>       0.24466179       0.75712563       0.75395603 </v>
   <v>       0.25510246       0.49675328       0.50155262 </v>
   <v>       0.00204430       0.75794882       0.50242956 </v>
   <v>       0.00163708       0.50336558       0.74845095 </v>
   <v>       0.74856391       0.75396273       0.75144509 </v>
   <v>       0.74640194       0.49826008       0.50702804 </v>
   <v>       0.49124932       0.75439355       0.49998784 </v>
   <v>       0.50313571       0.50306738       0.74491022 </v>
   <v>       0.52397987       0.01551442       0.99208519 </v>
   <v>       0.99866472       0.49891714       0.98637603 </v>
   <v>       0.49215425       0.73840436       0.25761493 </v>
   <v>       0.23562228       0.00223909       0.73378669 </v>
   <v>       0.51752830       0.98859159       0.47178556 </v>
   <v>       0.73945354       0.98938920       0.77569766 </v>
   <v>       0.00979733       0.77105635       0.26005645 </v>
   <v>       0.73445370       0.50226558       0.25896917 </v>
   <v>       0.02278324       0.00194159       0.49952289 </v>
   <v>       0.50492725       0.52167407       0.49241030 </v>
   <v>       0.75280143       0.51654558       0.76345624 </v>
   <v>       0.74644248       0.74299875       0.48928605 </v>
  </varray>
 </structure>
</modeling>
