HECN                                    
           1
     8.932500    0.000000    0.000000
     0.005753    9.055598    0.000000
     0.032102   -0.015743    8.937128
   Hf   Nb   V    N    C    W    Mo
     7     6     7    13    19     6     6
Direct configuration=     1
   0.99688001  0.99204997  0.99924002
   0.25398003  0.99714995  0.24912000
   0.24803003  0.50165000  0.24955001
   0.50501006  0.49745998  0.99834003
   0.50479003  0.24631001  0.74710002
   0.99427992  0.50449999  0.49779000
   0.49950005  0.75481999  0.74817004
   0.99437004  0.23617001  0.26379999
   0.75718000  0.74102998  0.01100000
   0.00201000  0.25541000  0.73894001
   0.75307001  0.26163001  0.50533002
   0.99514004  0.74492004  0.74511997
   0.25679999  0.49462002  0.74545002
   0.24788999  0.24839000  0.99657997
   0.50833000  0.25676999  0.25376001
   0.74879004  0.98787999  0.26967001
   0.75719000  0.25603001  0.99591997
   0.24762001  0.74973999  0.99974006
   0.25272001  0.24823001  0.50015003
   0.24457999  0.75048999  0.49983999
   0.24982001  0.24942998  0.24825000
   0.26146999  0.99984002  0.99295996
   0.00281000  0.25024000  0.00130000
   0.75313998  0.24617000  0.25492002
   0.74767001  0.99748000  0.01202000
   0.50714994  0.99977000  0.24673000
   0.99051999  0.48088002  0.24100998
   0.50519005  0.76130999  0.00855000
   0.98896989  0.00202000  0.73708999
   0.75744996  0.24437997  0.74896999
   0.73632001  0.00417000  0.51063000
   0.50563996  0.23264999  0.49544997
   0.50008998  0.00061000  0.73471998
   0.99720000  0.99771992  0.25899999
   0.50427997  0.24673000  0.00262000
   0.25133999  0.74958002  0.24910999
   0.24328000  0.50072997  0.99510994
   0.99837005  0.74313996  0.00460000
   0.75633000  0.73891003  0.25767000
   0.75839004  0.50315998  0.00288000
   0.50700002  0.50333002  0.25878999
   0.24900999  0.25315000  0.74854000
   0.24446000  0.99823996  0.50287998
   0.99804009  0.24229999  0.50128003
   0.24177002  0.75340997  0.75018002
   0.25841001  0.50062002  0.50129001
   0.99000004  0.76215003  0.49746000
   0.99203996  0.50055999  0.75138002
   0.75036005  0.74888000  0.74756004
   0.74036002  0.50197000  0.50067003
   0.50575006  0.74958002  0.49720000
   0.50501003  0.50217998  0.73912003
   0.51588997  0.01358000  0.98075008
   0.99841994  0.50976998  0.98613004
   0.50379003  0.73926997  0.25905001
   0.23780002  0.01082000  0.74607998
   0.47957999  0.98308000  0.49717999
   0.74279003  0.97869994  0.76450995
   0.99864998  0.77573999  0.26102000
   0.73551001  0.51468004  0.26666001
   0.02362000  0.99783001  0.49557002
   0.50539000  0.52833005  0.49917999
   0.73876003  0.52828003  0.73814999
   0.75400003  0.72937999  0.49116997
HECN                                    
           1
     8.515966    0.013009    0.011236
     0.018673    8.634807   -0.009593
     0.041824   -0.024440    8.564285
   Hf   Nb   V    N    C    W    Mo
     7     6     7    13    19     6     6
Direct configuration=     2
   0.99629176  0.99642800  0.99902126
   0.25826102  0.00054722  0.24581578
   0.24890604  0.49807844  0.24827648
   0.50286505  0.49384259  0.00029408
   0.50372085  0.24568673  0.74740676
   0.99961048  0.50239072  0.49930436
   0.49393425  0.75737383  0.75149319
   0.99265121  0.23366482  0.26118087
   0.75794734  0.74291428  0.01154069
   0.00532470  0.25534886  0.74298753
   0.75059927  0.25842098  0.50039361
   0.00175655  0.74494982  0.74801872
   0.25453661  0.49499372  0.74639467
   0.25047923  0.25221834  0.99314746
   0.51131338  0.25777987  0.25098625
   0.74842064  0.98732008  0.27246674
   0.75375920  0.25885169  0.99610414
   0.24087435  0.74514972  0.99949634
   0.24956575  0.25020164  0.50266156
   0.24354709  0.74896137  0.50023132
   0.25112174  0.24862935  0.24839743
   0.25999257  0.99974636  0.99329047
   0.00235589  0.24827171  0.00070835
   0.74975158  0.24383914  0.25292121
   0.74851724  0.99996476  0.01313940
   0.50815684  0.99948701  0.24690536
   0.99531840  0.48240833  0.24397242
   0.50238706  0.75960241  0.00681742
   0.98890634  0.00230942  0.74306984
   0.75401990  0.24305265  0.75154095
   0.73542346  0.00481354  0.50817808
   0.50304846  0.23161643  0.49482359
   0.49854016  0.00106412  0.73616388
   0.99459288  0.00132740  0.25361541
   0.50486518  0.24653405  0.00467986
   0.25310310  0.74971481  0.24866202
   0.24417455  0.50046481  0.99651646
   0.00346032  0.74379444  0.00383109
   0.75519053  0.74704679  0.25302590
   0.75712100  0.49687981  0.00266338
   0.49923309  0.49804845  0.25429635
   0.25061942  0.25044898  0.74839571
   0.25240522  0.99710687  0.50192438
   0.00119180  0.24583744  0.50093945
   0.24415276  0.75513489  0.75017706
   0.25531397  0.50057248  0.49936147
   0.99697694  0.75900351  0.49941157
   0.99441368  0.50031495  0.74936196
   0.74724263  0.75535422  0.74899836
   0.74697486  0.49676996  0.50212279
   0.50015960  0.75662784  0.49880347
   0.50030120  0.50084712  0.74518000
   0.51912059  0.01725350  0.98311901
   0.00065865  0.50810646  0.98579103
   0.50243552  0.74150319  0.25774040
   0.23768670  0.01202268  0.74729440
   0.48068600  0.98627643  0.49275769
   0.74253745  0.97819638  0.76607943
   0.99983401  0.77529311  0.26022399
   0.73492440  0.50779436  0.26058081
   0.02062482  0.00012082  0.49546075
   0.50147669  0.52285730  0.49692866
   0.74278168  0.52234856  0.74464474
   0.75383669  0.73647020  0.49026230
HECN                                    
           1
     8.743197    0.005912    0.005106
     0.011625    8.864360   -0.004360
     0.036520   -0.019696    8.767681
   Hf   Nb   V    N    C    W    Mo
     7     6     7    13    19     6     6
Direct configuration=     3
   0.99663210  0.99392288  0.99914254
   0.25581194  0.99860933  0.24769784
   0.24840065  0.50012333  0.24900443
   0.50409069  0.49590910  0.99918239
   0.50433233  0.24604220  0.74723173
   0.99655949  0.50360114  0.49844763
   0.49712383  0.75590588  0.74959557
   0.99363058  0.23509821  0.26267219
   0.75751033  0.74183657  0.01123225
   0.00343092  0.25538420  0.74068589
   0.75200656  0.26025783  0.50320401
   0.99797265  0.74493671  0.74637348
   0.25583279  0.49477738  0.74585496
   0.24899848  0.25003244  0.99510100
   0.50960509  0.25720639  0.25256689
   0.74863359  0.98763837  0.27087470
   0.75572500  0.25723428  0.99599491
   0.24473007  0.74777021  0.99963296
   0.25137428  0.24906936  0.50122816
   0.24413706  0.74983478  0.50000875
   0.25037627  0.24908844  0.24831499
   0.26083813  0.99979846  0.99310127
   0.00261355  0.24939778  0.00104609
   0.75168693  0.24517096  0.25405804
   0.74803548  0.99854323  0.01250119
   0.50758055  0.99964967  0.24680647
   0.99257623  0.48153628  0.24228859
   0.50398818  0.76057799  0.00780273
   0.98894739  0.00214009  0.73966541
   0.75598336  0.24380748  0.75007563
   0.73593524  0.00444610  0.50957282
   0.50452997  0.23220589  0.49517889
   0.49942846  0.00080208  0.73534044
   0.99608394  0.99926458  0.25667647
   0.50453167  0.24664539  0.00350779
   0.25209401  0.74963949  0.24891828
   0.24366348  0.50061642  0.99571660
   0.00054759  0.74342488  0.00427222
   0.75584635  0.74239350  0.25566361
   0.75784142  0.50047183  0.00278978
   0.50366943  0.50106618  0.25685204
   0.24969597  0.25199576  0.74848080
   0.24785712  0.99776258  0.50247508
   0.99939123  0.24381654  0.50113343
   0.24279084  0.75415010  0.75017943
   0.25708410  0.50059819  0.50045705
   0.99298329  0.76080851  0.49830785
   0.99305369  0.50045844  0.75051274
   0.74903329  0.75164663  0.74817305
   0.74318619  0.49974981  0.50130407
   0.50336601  0.75258985  0.49788192
   0.50299897  0.50160186  0.74172750
   0.51727699  0.01515316  0.98177049
   0.99937590  0.50906033  0.98598677
   0.50321161  0.74022517  0.25848348
   0.23775351  0.01133376  0.74660220
   0.48005269  0.98445139  0.49527399
   0.74268269  0.97848329  0.76518609
   0.99915550  0.77555029  0.26067832
   0.73524887  0.51173701  0.26404555
   0.02234067  0.99880769  0.49551923
   0.50370942  0.52598636  0.49821087
   0.74047997  0.52574151  0.74095425
   0.75393579  0.73241420  0.49077434
HECN                                    
           1
     8.757980    0.015228    0.015170
     0.021105    8.840094   -0.011263
     0.046638   -0.026427    8.801339
   Hf   Nb   V    N    C    W    Mo
     7     6     7    13    19     6     6
Direct configuration=     4
   0.99683517  0.99898387  0.99865476
   0.25915422  0.00255610  0.24365772
   0.24843337  0.49612658  0.24783403
   0.50144990  0.49326619  0.00097642
   0.50337116  0.24618883  0.74763807
   0.00246130  0.50142603  0.49937168
   0.49129140  0.75704370  0.75369168
   0.99244021  0.23412978  0.25823705
   0.75812935  0.74420698  0.01063941
   0.00591876  0.25510447  0.74620323
   0.74966477  0.25617139  0.49802260
   0.00397522  0.74539940  0.74987335
   0.25261597  0.49573845  0.74712685
   0.25234527  0.25444347  0.99143487
   0.51302300  0.25821399  0.24909801
   0.74832303  0.98766944  0.27364152
   0.75138361  0.25980164  0.99676070
   0.23769098  0.74260679  0.99959062
   0.24761247  0.25092654  0.50371895
   0.24338776  0.74800958  0.50025075
   0.25236297  0.24814263  0.24842699
   0.25938989  0.99966740  0.99349383
   0.00209603  0.24802398  0.00069574
   0.74684974  0.24256911  0.25042817
   0.74992809  0.00187697  0.01518563
   0.50961920  0.99973178  0.24571768
   0.99696144  0.48460546  0.24465725
   0.50028642  0.75885540  0.00621050
   0.98870161  0.00251633  0.74541496
   0.75301092  0.24303534  0.75322151
   0.73675789  0.00453575  0.50742292
   0.50105794  0.23301201  0.49400541
   0.49695611  0.00161178  0.73700534
   0.99359210  0.00256061  0.25148787
   0.50463153  0.24788025  0.00647934
   0.25372804  0.74971163  0.24825284
   0.24521870  0.50005291  0.99690102
   0.00626643  0.74495324  0.00414040
   0.75434650  0.75032039  0.25115314
   0.75634175  0.49323446  0.00281475
   0.49593807  0.49509430  0.25265300
   0.25160735  0.25009135  0.74831476
   0.25342518  0.99710896  0.50112858
   0.00336701  0.24756343  0.50107856
   0.24508464  0.75561203  0.75030659
   0.25432136  0.50029685  0.49871226
   0.00083650  0.75732332  0.50067274
   0.99620445  0.50000222  0.74785199
   0.74668825  0.75535025  0.74910357
   0.74894308  0.49600017  0.50248179
   0.49724227  0.75699736  0.50003516
   0.49873264  0.50055346  0.74697996
   0.51851314  0.01673534  0.98538936
   0.00162295  0.50529162  0.98712982
   0.50105519  0.74283537  0.25640150
   0.23847082  0.01118810  0.74854898
   0.48381898  0.98925856  0.48974772
   0.74280529  0.98139701  0.76647417
   0.00140627  0.77264098  0.25824498
   0.73592799  0.50348280  0.25690934
   0.01808237  0.00201116  0.49580908
   0.50015784  0.51955459  0.49605641
   0.74530825  0.51887753  0.74960546
   0.75283027  0.73982237  0.49082682
HECN                                    
           1
     8.759017    0.015882    0.015876
     0.021771    8.838391   -0.011748
     0.047348   -0.026900    8.803702
   Hf   Nb   V    N    C    W    Mo
     7     6     7    13    19     6     6
Direct configuration=     5
   0.99684904  0.99934000  0.99862092
   0.25938841  0.00283339  0.24337521
   0.24843607  0.49584525  0.24775198
   0.50126493  0.49308049  0.00110191
   0.50330377  0.24619924  0.74766656
   0.00287490  0.50127257  0.49943570
   0.49088233  0.75712442  0.75397859
   0.99235724  0.23406148  0.25792701
   0.75817259  0.74437372  0.01059805
   0.00609266  0.25508489  0.74658875
   0.74950142  0.25588370  0.49766031
   0.00439547  0.74543170  0.75011758
   0.25239041  0.49580639  0.74721608
   0.25257971  0.25475346  0.99117853
   0.51326267  0.25828446  0.24885527
   0.74830105  0.98767179  0.27383499
   0.75107917  0.25998268  0.99681473
   0.23719819  0.74224393  0.99958794
   0.24734855  0.25105765  0.50389349
   0.24333538  0.74788120  0.50026762
   0.25250223  0.24807593  0.24843460
   0.25928840  0.99965830  0.99352138
   0.00205991  0.24792732  0.00067121
   0.74651131  0.24238617  0.25017464
   0.75006023  0.00211158  0.01537334
   0.50976212  0.99973735  0.24564139
   0.99726827  0.48482126  0.24482267
   0.50002732  0.75873436  0.00609938
   0.98868390  0.00254313  0.74581698
   0.75280246  0.24298138  0.75344165
   0.73681570  0.00454189  0.50727255
   0.50081471  0.23306894  0.49392369
   0.49678269  0.00166903  0.73712199
   0.99341767  0.00279248  0.25112549
   0.50463819  0.24796730  0.00668716
   0.25384258  0.74971655  0.24820619
   0.24532761  0.50001320  0.99698367
   0.00666701  0.74506037  0.00413081
   0.75424117  0.75087812  0.25083836
   0.75623723  0.49272524  0.00281621
   0.49539717  0.49467438  0.25235971
   0.25174143  0.24995718  0.74830290
   0.25381546  0.99706248  0.50103395
   0.00364529  0.24782682  0.50107462
   0.24524523  0.75571475  0.75031538
   0.25412795  0.50027575  0.49859048
   0.00138681  0.75707759  0.50083725
   0.99642546  0.49996974  0.74766569
   0.74652359  0.75561112  0.74916902
   0.74934663  0.49573592  0.50256346
   0.49681270  0.75730811  0.50018644
   0.49843338  0.50048027  0.74734746
   0.51859934  0.01684678  0.98564236
   0.00178059  0.50502629  0.98720935
   0.50090406  0.74301911  0.25625626
   0.23852094  0.01117790  0.74868503
   0.48408294  0.98959629  0.48936132
   0.74281355  0.98160212  0.76656438
   0.00156438  0.77243594  0.25807451
   0.73597677  0.50290148  0.25640991
   0.01778374  0.00223694  0.49582987
   0.49990967  0.51910210  0.49590571
   0.74564638  0.51839457  0.75020954
   0.75275224  0.74034381  0.49083098
HECN                                    
           1
     8.803121    0.016262    0.014439
     0.022252    8.841051   -0.007017
     0.046097   -0.022164    8.823136
   Hf   Nb   V    N    C    W    Mo
     7     6     7    13    19     6     6
Direct configuration=     6
   0.99704117  0.00117113  0.99835357
   0.25866166  0.00389230  0.24215279
   0.24688142  0.49439504  0.24833540
   0.50070962  0.49440937  0.00114302
   0.50342779  0.24678217  0.74837519
   0.00247472  0.50085663  0.49943714
   0.49149293  0.75604300  0.75540961
   0.99037648  0.23649926  0.25661015
   0.76068273  0.74358278  0.00818046
   0.00597527  0.25569816  0.74844997
   0.75138173  0.25501808  0.49491167
   0.00333117  0.74467759  0.75126100
   0.25098478  0.49607625  0.74738426
   0.25513325  0.25754646  0.98801326
   0.51725324  0.25933482  0.24616011
   0.74847702  0.98830628  0.27649369
   0.74698433  0.26004416  0.99786223
   0.23393348  0.73797666  0.00017501
   0.24396558  0.25079376  0.50630748
   0.24366023  0.74718102  0.49996179
   0.25302875  0.24725611  0.24861626
   0.25866803  0.00003499  0.99335156
   0.00151396  0.24887527  0.00114892
   0.74417915  0.24069583  0.24697092
   0.75078812  0.00419834  0.01608387
   0.51151514  0.99927128  0.24336258
   0.99844113  0.48809189  0.24515298
   0.49850123  0.75786212  0.00601948
   0.98878457  0.00268633  0.74691874
   0.75260298  0.24295990  0.75422785
   0.73919620  0.00382513  0.50808913
   0.49915517  0.23635170  0.49382366
   0.49537256  0.00218948  0.73833391
   0.99423060  0.00010319  0.25150130
   0.50362628  0.24839673  0.00731438
   0.25498733  0.74996103  0.24761815
   0.24549441  0.49932909  0.99682586
   0.00651709  0.74566170  0.00505349
   0.75269497  0.75102282  0.25122482
   0.75627702  0.49121360  0.00336414
   0.49676502  0.49443619  0.25300611
   0.25199432  0.25027808  0.74771960
   0.25149786  0.99813728  0.50088475
   0.00464947  0.24868656  0.50108880
   0.24465916  0.75598834  0.75055307
   0.25521586  0.49982554  0.49869081
   0.00366896  0.75602372  0.50128982
   0.99884782  0.50020091  0.74831756
   0.74705612  0.75307445  0.74873894
   0.74906537  0.49820841  0.50210313
   0.49457403  0.75370388  0.50005590
   0.49898036  0.50142330  0.74713287
   0.52003188  0.01600670  0.98705788
   0.00097464  0.50277589  0.98644435
   0.49921908  0.74087216  0.25808909
   0.23857529  0.00956011  0.74871178
   0.48766499  0.99087794  0.48510115
   0.74091723  0.98372185  0.76934062
   0.00334446  0.77373873  0.25685767
   0.73350512  0.50052900  0.25565081
   0.01926527  0.00326207  0.49477949
   0.50127817  0.51987353  0.49381772
   0.74753196  0.51846313  0.75513602
   0.75231462  0.74006051  0.48945236
HECN                                    
           1
     8.818637    0.016396    0.013934
     0.022422    8.841987   -0.005353
     0.045656   -0.020498    8.829973
   Hf   Nb   V    N    C    W    Mo
     7     6     7    13    19     6     6
Direct configuration=     7
   0.99710837  0.00181521  0.99825939
   0.25840717  0.00426497  0.24172342
   0.24633727  0.49388489  0.24854038
   0.50051521  0.49487675  0.00115717
   0.50347124  0.24698706  0.74862385
   0.00233464  0.50071034  0.49943770
   0.49170677  0.75566237  0.75591221
   0.98968299  0.23735693  0.25614730
   0.76156131  0.74330503  0.00733208
   0.00593428  0.25591351  0.74910322
   0.75203981  0.25471413  0.49394706
   0.00295869  0.74441215  0.75166247
   0.25049273  0.49617115  0.74744316
   0.25602691  0.25852936  0.98690175
   0.51865000  0.25970471  0.24521403
   0.74853876  0.98852893  0.27742690
   0.74555097  0.26006563  0.99822969
   0.23279076  0.73647573  0.00038171
   0.24278149  0.25070053  0.50715474
   0.24377395  0.74693482  0.49985458
   0.25321309  0.24696774  0.24868021
   0.25845084  0.00016751  0.99329184
   0.00132285  0.24920859  0.00131640
   0.74336262  0.24010196  0.24584646
   0.75104292  0.00493214  0.01633295
   0.51212868  0.99910777  0.24256281
   0.99885166  0.48924214  0.24526839
   0.49796703  0.75755538  0.00599151
   0.98881987  0.00273648  0.74730549
   0.75253319  0.24295220  0.75450383
   0.74002956  0.00357286  0.50837606
   0.49857418  0.23750632  0.49378783
   0.49487900  0.00237231  0.73875916
   0.99451523  0.99915726  0.25163378
   0.50327208  0.24854766  0.00753442
   0.25538802  0.75004711  0.24741175
   0.24555281  0.49908851  0.99677060
   0.00646465  0.74587301  0.00537727
   0.75215373  0.75107366  0.25136037
   0.75629101  0.49068184  0.00355678
   0.49724388  0.49435228  0.25323315
   0.25208281  0.25039106  0.74751479
   0.25068655  0.99851536  0.50083203
   0.00500097  0.24898893  0.50109368
   0.24445401  0.75608452  0.75063642
   0.25559670  0.49966716  0.49872618
   0.00446789  0.75565295  0.50144903
   0.99969581  0.50028207  0.74854649
   0.74724255  0.75218235  0.74858848
   0.74896684  0.49907811  0.50194106
   0.49379042  0.75243629  0.50001062
   0.49917181  0.50175500  0.74705739
   0.52053344  0.01571095  0.98755504
   0.00069251  0.50198455  0.98617618
   0.49862938  0.74011672  0.25873279
   0.23859435  0.00899111  0.74872148
   0.48891865  0.99132949  0.48360562
   0.74025353  0.98446688  0.77031469
   0.00396750  0.77419715  0.25643036
   0.73263990  0.49969474  0.25538463
   0.01978381  0.00362280  0.49441066
   0.50175709  0.52014523  0.49308469
   0.74819228  0.51848629  0.75686553
   0.75216136  0.73996114  0.48896843
HECN                                    
           1
     8.771038    0.015533    0.013377
     0.021529    8.786325    0.001546
     0.044898   -0.013504    8.794500
   Hf   Nb   V    N    C    W    Mo
     7     6     7    13    19     6     6
Direct configuration=     8
   0.99703468  0.00384419  0.99843422
   0.25840837  0.00514516  0.24127883
   0.24663234  0.49240881  0.24950380
   0.50035705  0.49746875  0.00125040
   0.50411165  0.24767530  0.74833249
   0.00037622  0.50107274  0.49979700
   0.49336333  0.75583413  0.75612221
   0.98670979  0.23751679  0.25530109
   0.76424438  0.74283122  0.00567196
   0.00566119  0.25706476  0.75012343
   0.75443899  0.25501515  0.49138856
   0.00099770  0.74417782  0.75198259
   0.25085187  0.49687539  0.74682494
   0.25868654  0.26162067  0.98290757
   0.52351750  0.26075440  0.24244281
   0.74844582  0.98883476  0.28054960
   0.74013038  0.25828987  0.99966835
   0.22963327  0.73171445  0.00115205
   0.23916670  0.24913914  0.51112580
   0.24483867  0.74722503  0.49905703
   0.25253396  0.24690870  0.24881455
   0.25799817  0.00104997  0.99282510
   0.00048553  0.25093586  0.00206049
   0.74247399  0.23805725  0.24231774
   0.75209347  0.00664832  0.01667719
   0.51339245  0.99833539  0.23960113
   0.99929300  0.49217462  0.24536109
   0.49711270  0.75684368  0.00617955
   0.98878298  0.00254058  0.74713077
   0.75280196  0.24232907  0.75450513
   0.74202568  0.00280249  0.51088902
   0.49787219  0.24036912  0.49357242
   0.49345127  0.00213864  0.73965726
   0.99577795  0.00124419  0.25243087
   0.50104592  0.24898351  0.00716574
   0.25627648  0.74971329  0.24647829
   0.24528778  0.49802541  0.99686575
   0.00498756  0.74563789  0.00631499
   0.75119945  0.74966734  0.25103070
   0.75636096  0.49113393  0.00500874
   0.49691658  0.49458858  0.25328499
   0.25177550  0.25041726  0.74683042
   0.25265724  0.99974408  0.50063228
   0.00476165  0.24929893  0.50108538
   0.24362225  0.75613126  0.75123988
   0.25654260  0.49895701  0.49942469
   0.00494342  0.75590066  0.50111043
   0.00089691  0.50064680  0.74862731
   0.74790972  0.75170680  0.74815258
   0.74818877  0.50091305  0.50211983
   0.49243737  0.75160317  0.50014318
   0.50097428  0.50282542  0.74574036
   0.52288131  0.01412149  0.98890647
   0.99958056  0.50013560  0.98527695
   0.49668518  0.73807929  0.26055241
   0.23765290  0.00751421  0.74773342
   0.49142466  0.99053262  0.47981918
   0.73760877  0.98409822  0.77291448
   0.00511010  0.77253184  0.25655726
   0.73159811  0.49856804  0.25675797
   0.02063269  0.00382761  0.49447807
   0.50438209  0.52022802  0.49207024
   0.75062212  0.51824480  0.76087408
   0.75133572  0.73933721  0.48786697
HECN                                    
           1
     8.781794    0.015728    0.013503
     0.021730    8.798903   -0.000013
     0.045069   -0.015085    8.802516
   Hf   Nb   V    N    C    W    Mo
     7     6     7    13    19     6     6
Direct configuration=     9
   0.99705137  0.00338282  0.99839491
   0.25840808  0.00494492  0.24137986
   0.24656531  0.49274464  0.24928495
   0.50039293  0.49687934  0.00122971
   0.50396614  0.24751872  0.74839871
   0.00082116  0.50099043  0.49971557
   0.49298696  0.75579508  0.75607457
   0.98738531  0.23748035  0.25549315
   0.76363482  0.74293861  0.00604849
   0.00572319  0.25680315  0.74989217
   0.75389393  0.25494619  0.49196907
   0.00144323  0.74423121  0.75190994
   0.25077027  0.49671512  0.74696532
   0.25808227  0.26091693  0.98381430
   0.52241162  0.26051510  0.24307168
   0.74846689  0.98876577  0.27984116
   0.74136195  0.25869405  0.99934169
   0.23035073  0.73279739  0.00097647
   0.23998795  0.24949499  0.51022459
   0.24459677  0.74715887  0.49923803
   0.25268826  0.24692216  0.24878407
   0.25810101  0.00084922  0.99293116
   0.00067573  0.25054322  0.00189198
   0.74267598  0.23852162  0.24311800
   0.75185474  0.00625809  0.01659938
   0.51310539  0.99851048  0.24027294
   0.99919267  0.49150777  0.24534057
   0.49730681  0.75700557  0.00613677
   0.98879137  0.00258510  0.74717038
   0.75274091  0.24247077  0.75450472
   0.74157214  0.00297808  0.51031871
   0.49803163  0.23971808  0.49362181
   0.49377564  0.00219197  0.73945348
   0.99549101  0.00076973  0.25225038
   0.50155170  0.24888438  0.00724950
   0.25607465  0.74978902  0.24669001
   0.24534802  0.49826718  0.99684397
   0.00532314  0.74569156  0.00610221
   0.75141629  0.74998710  0.25110526
   0.75634504  0.49103138  0.00467939
   0.49699094  0.49453486  0.25327327
   0.25184533  0.25041119  0.74698570
   0.25220947  0.99946459  0.50067780
   0.00481601  0.24922843  0.50108732
   0.24381122  0.75612075  0.75110298
   0.25632770  0.49911861  0.49926607
   0.00483538  0.75584426  0.50118729
   0.00062401  0.50056385  0.74860902
   0.74775815  0.75181485  0.74825139
   0.74836551  0.50049582  0.50207960
   0.49274479  0.75179268  0.50011297
   0.50056475  0.50258173  0.74603934
   0.52234789  0.01448314  0.98859954
   0.99983324  0.50055592  0.98548066
   0.49712692  0.73854297  0.26013923
   0.23786684  0.00784990  0.74795735
   0.49085537  0.99071310  0.48067810
   0.73820962  0.98418257  0.77232460
   0.00485054  0.77291054  0.25652816
   0.73183481  0.49882452  0.25644620
   0.02043982  0.00378103  0.49446281
   0.50378571  0.52020896  0.49230038
   0.75007001  0.51830038  0.75996453
   0.75152333  0.73947892  0.48811677
HECN                                    
           1
     8.795428    0.015603    0.013636
     0.021614    8.809177    0.004032
     0.045224   -0.011057    8.829481
   Hf   Nb   V    N    C    W    Mo
     7     6     7    13    19     6     6
Direct configuration=    10
   0.99728700  0.00493317  0.99896629
   0.25915109  0.00576415  0.24125215
   0.24751299  0.49110537  0.25055620
   0.50064369  0.49947715  0.00106524
   0.50493091  0.24801405  0.74683249
   0.99906239  0.50190349  0.49991760
   0.49411052  0.75670289  0.75542185
   0.98508271  0.23734127  0.25492426
   0.76457342  0.74352509  0.00585835
   0.00466672  0.25779730  0.75028299
   0.75490478  0.25523091  0.49071877
   0.99989199  0.74488828  0.75132424
   0.25232936  0.49804289  0.74581069
   0.25970176  0.26325580  0.98074671
   0.52493456  0.26078447  0.24152130
   0.74821826  0.98843934  0.28200007
   0.73675505  0.25583027  0.00034298
   0.22863326  0.72958188  0.00158397
   0.23779864  0.24707155  0.51415638
   0.24604859  0.74859566  0.49821643
   0.25114845  0.24748364  0.24869344
   0.25782044  0.00191534  0.99238581
   0.99976889  0.25220826  0.00264434
   0.74370097  0.23636900  0.24026828
   0.75369775  0.00727574  0.01723876
   0.51381309  0.99786158  0.23771985
   0.99865919  0.49383031  0.24532157
   0.49692659  0.75670994  0.00642250
   0.98840546  0.00214297  0.74627463
   0.75334401  0.24167393  0.75392040
   0.74319471  0.00242799  0.51396032
   0.49824484  0.24140892  0.49290092
   0.49258707  0.00172232  0.73978732
   0.99631139  0.00403892  0.25270341
   0.49863481  0.24958237  0.00616594
   0.25616748  0.74900156  0.24558815
   0.24525494  0.49702315  0.99715430
   0.00403872  0.74508244  0.00651074
   0.75125845  0.74828082  0.24989378
   0.75616956  0.49242598  0.00689993
   0.49529987  0.49436566  0.25236924
   0.25158786  0.25025370  0.74662269
   0.25716046  0.00030886  0.50041023
   0.00378339  0.24937284  0.50109740
   0.24344359  0.75598958  0.75197124
   0.25642897  0.49837581  0.50024736
   0.00390562  0.75681860  0.50079574
   0.00070152  0.50102220  0.74773919
   0.74814066  0.75297192  0.74782951
   0.74811755  0.50035858  0.50356163
   0.49242499  0.75378819  0.50096143
   0.50271807  0.50321160  0.74469935
   0.52327025  0.01249334  0.98965418
   0.99905078  0.49913770  0.98541883
   0.49544529  0.73822108  0.26057307
   0.23634130  0.00654282  0.74612143
   0.49328412  0.98940646  0.47845404
   0.73652289  0.98325736  0.77301083
   0.00524941  0.77024869  0.25757651
   0.73349520  0.49849819  0.25828269
   0.01985131  0.00327418  0.49608101
   0.50598193  0.51854204  0.49257857
   0.75230301  0.51675334  0.76190637
   0.75010783  0.74003681  0.48808424
HECN                                    
           1
     8.796058    0.015597    0.013642
     0.021608    8.809652    0.004219
     0.045231   -0.010871    8.830727
   Hf   Nb   V    N    C    W    Mo
     7     6     7    13    19     6     6
Direct configuration=    11
   0.99729787  0.00500472  0.99899258
   0.25918537  0.00580196  0.24124625
   0.24755672  0.49102969  0.25061480
   0.50065526  0.49959706  0.00105761
   0.50497542  0.24803695  0.74676033
   0.99898124  0.50194562  0.49992689
   0.49416236  0.75674481  0.75539176
   0.98497648  0.23733486  0.25489806
   0.76461672  0.74355216  0.00584958
   0.00461797  0.25784318  0.75030097
   0.75495142  0.25524408  0.49066117
   0.99982042  0.74491861  0.75129724
   0.25240129  0.49810420  0.74575747
   0.25977648  0.26336382  0.98060534
   0.52505097  0.26079694  0.24144987
   0.74820678  0.98842423  0.28209954
   0.73654250  0.25569807  0.00038917
   0.22855402  0.72943346  0.00161203
   0.23769763  0.24695961  0.51433757
   0.24611557  0.74866200  0.49816934
   0.25107741  0.24750956  0.24868925
   0.25780750  0.00196456  0.99236066
   0.99972705  0.25228509  0.00267897
   0.74374826  0.23626971  0.24013705
   0.75378278  0.00732270  0.01726819
   0.51384575  0.99783169  0.23760225
   0.99863458  0.49393751  0.24532064
   0.49690905  0.75669629  0.00643567
   0.98838765  0.00212258  0.74623337
   0.75337184  0.24163717  0.75389350
   0.74326958  0.00240252  0.51412809
   0.49825468  0.24148698  0.49286767
   0.49253223  0.00170064  0.73980271
   0.99634924  0.00418980  0.25272421
   0.49850023  0.24961461  0.00611601
   0.25617176  0.74896524  0.24553741
   0.24525065  0.49696573  0.99716862
   0.00397946  0.74505432  0.00652958
   0.75125116  0.74820209  0.24983800
   0.75616147  0.49249030  0.00700220
   0.49522185  0.49435787  0.25232760
   0.25157598  0.25024644  0.74660597
   0.25738889  0.00034783  0.50039788
   0.00373575  0.24937950  0.50109786
   0.24342663  0.75598351  0.75201124
   0.25643364  0.49834150  0.50029258
   0.00386272  0.75686358  0.50077768
   0.00070510  0.50104338  0.74769911
   0.74815831  0.75302534  0.74781005
   0.74810611  0.50035222  0.50362990
   0.49241024  0.75388028  0.50100048
   0.50281742  0.50324070  0.74463760
   0.52331280  0.01240148  0.98970281
   0.99901468  0.49907224  0.98541601
   0.49536770  0.73820621  0.26059306
   0.23627091  0.00648253  0.74603688
   0.49339617  0.98934620  0.47835161
   0.73644507  0.98321464  0.77304247
   0.00526782  0.77012581  0.25762487
   0.73357180  0.49848309  0.25836730
   0.01982416  0.00325075  0.49615557
   0.50608326  0.51846510  0.49259141
   0.75240603  0.51668190  0.76199586
   0.75004252  0.74006256  0.48808273
HECN                                    
           1
     8.812923    0.016841    0.011441
     0.022911    8.802005    0.002471
     0.043114   -0.012600    8.828396
   Hf   Nb   V    N    C    W    Mo