  64  64   0   0
  0.1129557E+02  0.8932500E-09  0.9055600E-09  0.8937200E-09  0.5000000E-15
  1.000000000000000E-004
  CAR 
 HECN                                    
     14.13448170    -60.19040491  301      8.23350231      1.00000000
    -60.190  0.0000E+00  0.0000E+00
    -59.943  0.0000E+00  0.0000E+00
    -59.695  0.0000E+00  0.0000E+00
    -59.447  0.0000E+00  0.0000E+00
    -59.199  0.0000E+00  0.0000E+00
    -58.952  0.0000E+00  0.0000E+00
    -58.704  0.0000E+00  0.0000E+00
    -58.456  0.0000E+00  0.0000E+00
    -58.208  0.0000E+00  0.0000E+00
    -57.961  0.0000E+00  0.0000E+00
    -57.713  0.0000E+00  0.0000E+00
    -57.465  0.0000E+00  0.0000E+00
    -57.217  0.3972E-09  0.9841E-10
    -56.970  0.1054E-02  0.2611E-03
    -56.722  0.1652E+00  0.4118E-01
    -56.474  0.3921E+00  0.1383E+00
    -56.226  0.6748E-02  0.1400E+00
    -55.979  0.8644E-08  0.1400E+00
    -55.731  0.0000E+00  0.1400E+00
    -55.483  0.0000E+00  0.1400E+00
    -55.235  0.0000E+00  0.1400E+00
    -54.988  0.0000E+00  0.1400E+00
    -54.740  0.0000E+00  0.1400E+00
    -54.492  0.0000E+00  0.1400E+00
    -54.244  0.0000E+00  0.1400E+00
    -53.997  0.0000E+00  0.1400E+00
    -53.749  0.0000E+00  0.1400E+00
    -53.501  0.0000E+00  0.1400E+00
    -53.253  0.0000E+00  0.1400E+00
    -53.006  0.0000E+00  0.1400E+00
    -52.758  0.0000E+00  0.1400E+00
    -52.510  0.0000E+00  0.1400E+00
    -52.262  0.0000E+00  0.1400E+00
    -52.015  0.0000E+00  0.1400E+00
    -51.767  0.0000E+00  0.1400E+00
    -51.519  0.0000E+00  0.1400E+00
    -51.271  0.0000E+00  0.1400E+00
    -51.024  0.0000E+00  0.1400E+00
    -50.776  0.0000E+00  0.1400E+00
    -50.528  0.0000E+00  0.1400E+00
    -50.280  0.0000E+00  0.1400E+00
    -50.033  0.1917E-12  0.1400E+00
    -49.785  0.2759E-04  0.1400E+00
    -49.537  0.6598E-01  0.1564E+00
    -49.289  0.1802E+00  0.2010E+00
    -49.042  0.1836E+00  0.2465E+00
    -48.794  0.8555E-01  0.2677E+00
    -48.546  0.4967E-01  0.2800E+00
    -48.298  0.5367E-04  0.2800E+00
    -48.051  0.7684E-12  0.2800E+00
    -47.803  0.0000E+00  0.2800E+00
    -47.555  0.0000E+00  0.2800E+00
    -47.307  0.0000E+00  0.2800E+00
    -47.060  0.0000E+00  0.2800E+00
    -46.812  0.0000E+00  0.2800E+00
    -46.564  0.0000E+00  0.2800E+00
    -46.316  0.0000E+00  0.2800E+00
    -46.069  0.0000E+00  0.2800E+00
    -45.821  0.0000E+00  0.2800E+00
    -45.573  0.0000E+00  0.2800E+00
    -45.325  0.0000E+00  0.2800E+00
    -45.078  0.0000E+00  0.2800E+00
    -44.830  0.0000E+00  0.2800E+00
    -44.582  0.0000E+00  0.2800E+00
    -44.334  0.0000E+00  0.2800E+00
    -44.087  0.0000E+00  0.2800E+00
    -43.839  0.0000E+00  0.2800E+00
    -43.591  0.0000E+00  0.2800E+00
    -43.343  0.0000E+00  0.2800E+00
    -43.096  0.0000E+00  0.2800E+00
    -42.848  0.0000E+00  0.2800E+00
    -42.600  0.0000E+00  0.2800E+00
    -42.352  0.0000E+00  0.2800E+00
    -42.105  0.0000E+00  0.2800E+00
    -41.857  0.0000E+00  0.2800E+00
    -41.609  0.0000E+00  0.2800E+00
    -41.361  0.0000E+00  0.2800E+00
    -41.114  0.0000E+00  0.2800E+00
    -40.866  0.0000E+00  0.2800E+00
    -40.618  0.0000E+00  0.2800E+00
    -40.370  0.0000E+00  0.2800E+00
    -40.123  0.0000E+00  0.2800E+00
    -39.875  0.0000E+00  0.2800E+00
    -39.627  0.0000E+00  0.2800E+00
    -39.379  0.0000E+00  0.2800E+00
    -39.132  0.0000E+00  0.2800E+00
    -38.884  0.0000E+00  0.2800E+00
    -38.636  0.0000E+00  0.2800E+00
    -38.388  0.0000E+00  0.2800E+00
    -38.141  0.0000E+00  0.2800E+00
    -37.893  0.0000E+00  0.2800E+00
    -37.645  0.0000E+00  0.2800E+00
    -37.397  0.0000E+00  0.2800E+00
    -37.150  0.0000E+00  0.2800E+00
    -36.902  0.0000E+00  0.2800E+00
    -36.654  0.0000E+00  0.2800E+00
    -36.406  0.0000E+00  0.2800E+00
    -36.159  0.8359E-13  0.2800E+00
    -35.911  0.1753E-04  0.2800E+00
    -35.663  0.6647E-01  0.2965E+00
    -35.415  0.6956E+00  0.4688E+00
    -35.168  0.6612E+00  0.6326E+00
    -34.920  0.2983E-01  0.6400E+00
    -34.672  0.2066E-05  0.6400E+00
    -34.424  0.1692E-14  0.6400E+00
    -34.177  0.0000E+00  0.6400E+00
    -33.929  0.0000E+00  0.6400E+00
    -33.681  0.0000E+00  0.6400E+00
    -33.433  0.0000E+00  0.6400E+00
    -33.186  0.0000E+00  0.6400E+00
    -32.938  0.0000E+00  0.6400E+00
    -32.690  0.0000E+00  0.6400E+00
    -32.442  0.0000E+00  0.6400E+00
    -32.195  0.0000E+00  0.6400E+00
    -31.947  0.0000E+00  0.6400E+00
    -31.699  0.0000E+00  0.6400E+00
    -31.451  0.0000E+00  0.6400E+00
    -31.204  0.7079E-08  0.6400E+00
    -30.956  0.4957E-02  0.6412E+00
    -30.708  0.4829E+00  0.7609E+00
    -30.460  0.1105E+01  0.1035E+01
    -30.213  0.1022E+00  0.1060E+01
    -29.965  0.1643E-04  0.1060E+01
    -29.717  0.4224E-13  0.1060E+01
    -29.469  0.0000E+00  0.1060E+01
    -29.222  0.0000E+00  0.1060E+01
    -28.974  0.0000E+00  0.1060E+01
    -28.726  0.0000E+00  0.1060E+01
    -28.478  0.0000E+00  0.1060E+01
    -28.231  0.0000E+00  0.1060E+01
    -27.983  0.2852E-10  0.1060E+01
    -27.735  0.3329E-03  0.1060E+01
    -27.487  0.1591E+00  0.1099E+01
    -27.240  0.3665E+00  0.1190E+01
    -26.992  0.4317E+00  0.1297E+01
    -26.744  0.2711E+00  0.1364E+01
    -26.496  0.2186E+00  0.1419E+01
    -26.249  0.5685E-02  0.1420E+01
    -26.001  0.8098E-01  0.1440E+01
    -25.753  0.5130E+00  0.1567E+01
    -25.505  0.4797E+00  0.1686E+01
    -25.258  0.4136E+00  0.1789E+01
    -25.010  0.2058E+00  0.1839E+01
    -24.762  0.2095E-02  0.1840E+01
    -24.514  0.8945E-09  0.1840E+01
    -24.267  0.0000E+00  0.1840E+01
    -24.019  0.0000E+00  0.1840E+01
    -23.771  0.0000E+00  0.1840E+01
    -23.523  0.0000E+00  0.1840E+01
    -23.276  0.0000E+00  0.1840E+01
    -23.028  0.0000E+00  0.1840E+01
    -22.780  0.0000E+00  0.1840E+01
    -22.532  0.0000E+00  0.1840E+01
    -22.285  0.0000E+00  0.1840E+01
    -22.037  0.0000E+00  0.1840E+01
    -21.789  0.0000E+00  0.1840E+01
    -21.541  0.0000E+00  0.1840E+01
    -21.294  0.0000E+00  0.1840E+01
    -21.046  0.0000E+00  0.1840E+01
    -20.798  0.0000E+00  0.1840E+01
    -20.550  0.0000E+00  0.1840E+01
    -20.303  0.0000E+00  0.1840E+01
    -20.055  0.0000E+00  0.1840E+01
    -19.807  0.0000E+00  0.1840E+01
    -19.559  0.0000E+00  0.1840E+01
    -19.312  0.0000E+00  0.1840E+01
    -19.064  0.0000E+00  0.1840E+01
    -18.816  0.0000E+00  0.1840E+01
    -18.568  0.0000E+00  0.1840E+01
    -18.321  0.0000E+00  0.1840E+01
    -18.073  0.0000E+00  0.1840E+01
    -17.825  0.0000E+00  0.1840E+01
    -17.577  0.0000E+00  0.1840E+01
    -17.330  0.0000E+00  0.1840E+01
    -17.082  0.0000E+00  0.1840E+01
    -16.834  0.0000E+00  0.1840E+01
    -16.586  0.0000E+00  0.1840E+01
    -16.339  0.0000E+00  0.1840E+01
    -16.091  0.0000E+00  0.1840E+01
    -15.843  0.0000E+00  0.1840E+01
    -15.595  0.0000E+00  0.1840E+01
    -15.348  0.0000E+00  0.1840E+01
    -15.100  0.0000E+00  0.1840E+01
    -14.852  0.0000E+00  0.1840E+01
    -14.604  0.0000E+00  0.1840E+01
    -14.357  0.0000E+00  0.1840E+01
    -14.109  0.0000E+00  0.1840E+01
    -13.861  0.0000E+00  0.1840E+01
    -13.613  0.0000E+00  0.1840E+01
    -13.366  0.0000E+00  0.1840E+01
    -13.118  0.0000E+00  0.1840E+01
    -12.870  0.0000E+00  0.1840E+01
    -12.622  0.0000E+00  0.1840E+01
    -12.375  0.0000E+00  0.1840E+01
    -12.127  0.0000E+00  0.1840E+01
    -11.879  0.0000E+00  0.1840E+01
    -11.631  0.0000E+00  0.1840E+01
    -11.384  0.0000E+00  0.1840E+01
    -11.136  0.0000E+00  0.1840E+01
    -10.888  0.0000E+00  0.1840E+01
    -10.640  0.0000E+00  0.1840E+01
    -10.393  0.0000E+00  0.1840E+01
    -10.145  0.0000E+00  0.1840E+01
     -9.897  0.0000E+00  0.1840E+01
     -9.649  0.0000E+00  0.1840E+01
     -9.402  0.0000E+00  0.1840E+01
     -9.154  0.0000E+00  0.1840E+01
     -8.906  0.3548E-15  0.1840E+01
     -8.658  0.2327E-06  0.1840E+01
     -8.411  0.3329E-02  0.1841E+01
     -8.163  0.6373E-01  0.1857E+01
     -7.915  0.4132E-01  0.1867E+01
     -7.667  0.7422E-01  0.1885E+01
     -7.420  0.1065E+00  0.1912E+01
     -7.172  0.1535E+00  0.1950E+01
     -6.924  0.2041E+00  0.2000E+01
     -6.676  0.1818E+00  0.2045E+01
     -6.429  0.1633E+00  0.2086E+01
     -6.181  0.5762E-01  0.2100E+01
     -5.933  0.1268E-03  0.2100E+01
     -5.685  0.4605E-11  0.2100E+01
     -5.438  0.2427E-15  0.2100E+01
     -5.190  0.2254E-06  0.2100E+01
     -4.942  0.3297E-02  0.2101E+01
     -4.694  0.5496E-01  0.2114E+01
     -4.447  0.2924E-01  0.2122E+01
     -4.199  0.8255E-01  0.2142E+01
     -3.951  0.1213E+00  0.2172E+01
     -3.703  0.1775E+00  0.2216E+01
     -3.456  0.2375E+00  0.2275E+01
     -3.208  0.2108E+00  0.2327E+01
     -2.960  0.2408E+00  0.2387E+01
     -2.712  0.2046E+00  0.2438E+01
     -2.465  0.1161E+00  0.2466E+01
     -2.217  0.5374E-01  0.2480E+01
     -1.969  0.1344E-02  0.2480E+01
     -1.721  0.3067E-07  0.2480E+01
     -1.474  0.1195E-16  0.2480E+01
     -1.226  0.0000E+00  0.2480E+01
     -0.978  0.0000E+00  0.2480E+01
     -0.730  0.0000E+00  0.2480E+01
     -0.483  0.1195E-13  0.2480E+01
     -0.235  0.1280E-05  0.2480E+01
      0.013  0.2144E-02  0.2481E+01
      0.261  0.1139E-01  0.2483E+01
      0.508  0.6837E-01  0.2500E+01
      0.756  0.8698E-01  0.2522E+01
      1.004  0.1544E+00  0.2560E+01
      1.252  0.2127E+00  0.2613E+01
      1.499  0.2853E+00  0.2683E+01
      1.747  0.2904E+00  0.2755E+01
      1.995  0.2971E+00  0.2829E+01
      2.242  0.3322E+00  0.2911E+01
      2.490  0.3268E+00  0.2992E+01
      2.738  0.4164E+00  0.3095E+01
      2.986  0.5146E+00  0.3223E+01
      3.233  0.5827E+00  0.3367E+01
      3.481  0.6237E+00  0.3522E+01
      3.729  0.6237E+00  0.3676E+01
      3.977  0.5913E+00  0.3823E+01
      4.224  0.5295E+00  0.3954E+01
      4.472  0.4251E+00  0.4059E+01
      4.720  0.3380E+00  0.4143E+01
      4.968  0.3310E+00  0.4225E+01
      5.215  0.2712E+00  0.4292E+01
      5.463  0.1951E+00  0.4341E+01
      5.711  0.1493E+00  0.4378E+01
      5.959  0.8115E-01  0.4398E+01
      6.206  0.1034E+00  0.4423E+01
      6.454  0.1706E+00  0.4466E+01
      6.702  0.2163E+00  0.4519E+01
      6.950  0.1940E+00  0.4567E+01
      7.197  0.1958E+00  0.4616E+01
      7.445  0.2227E+00  0.4671E+01
      7.693  0.2958E+00  0.4744E+01
      7.941  0.2976E+00  0.4818E+01
      8.188  0.2795E+00  0.4887E+01
      8.436  0.3218E+00  0.4967E+01
      8.684  0.4580E+00  0.5080E+01
      8.932  0.5603E+00  0.5219E+01
      9.179  0.6078E+00  0.5370E+01
      9.427  0.6074E+00  0.5520E+01
      9.675  0.5720E+00  0.5662E+01
      9.923  0.5916E+00  0.5809E+01
     10.170  0.5888E+00  0.5954E+01
     10.418  0.5523E+00  0.6091E+01
     10.666  0.4906E+00  0.6213E+01
     10.914  0.1093E+00  0.6240E+01
     11.161  0.3513E-03  0.6240E+01
     11.409  0.8630E-10  0.6240E+01
     11.657  0.0000E+00  0.6240E+01
     11.905  0.0000E+00  0.6240E+01
     12.152  0.0000E+00  0.6240E+01
     12.400  0.0000E+00  0.6240E+01
     12.648  0.0000E+00  0.6240E+01
     12.896  0.0000E+00  0.6240E+01
     13.143  0.0000E+00  0.6240E+01
     13.391  0.0000E+00  0.6240E+01
     13.639  0.0000E+00  0.6240E+01
     13.887  0.0000E+00  0.6240E+01
     14.134  0.0000E+00  0.6240E+01
