HECN                                    
           1
     8.932500    0.000000    0.000000
     0.005753    9.055598    0.000000
     0.032102   -0.015743    8.937128
   V    Ta   Ti   N    C    Cr   Mo
   7   6   7  13  19   6   6
Direct configuration=     1
   0.99688001  0.99204997  0.99924002
   0.25398003  0.99714995  0.24912000
   0.24803003  0.50165000  0.24955001
   0.50501006  0.49745998  0.99834003
   0.50479003  0.24631001  0.74710002
   0.99427992  0.50449999  0.49779000
   0.49950005  0.75481999  0.74817004
   0.99437004  0.23617001  0.26379999
   0.75718000  0.74102998  0.01100000
   0.00201000  0.25541000  0.73894001
   0.75307001  0.26163001  0.50533002
   0.99514004  0.74492004  0.74511997
   0.25679999  0.49462002  0.74545002
   0.24788999  0.24839000  0.99657997
   0.50833000  0.25676999  0.25376001
   0.74879004  0.98787999  0.26967001
   0.75719000  0.25603001  0.99591997
   0.24762001  0.74973999  0.99974006
   0.25272001  0.24823001  0.50015003
   0.24457999  0.75048999  0.49983999
   0.24982001  0.24942998  0.24825000
   0.26146999  0.99984002  0.99295996
   0.00281000  0.25024000  0.00130000
   0.75313998  0.24617000  0.25492002
   0.74767001  0.99748000  0.01202000
   0.50714994  0.99977000  0.24673000
   0.99051999  0.48088002  0.24100998
   0.50519005  0.76130999  0.00855000
   0.98896989  0.00202000  0.73708999
   0.75744996  0.24437997  0.74896999
   0.73632001  0.00417000  0.51063000
   0.50563996  0.23264999  0.49544997
   0.50008998  0.00061000  0.73471998
   0.99720000  0.99771992  0.25899999
   0.50427997  0.24673000  0.00262000
   0.25133999  0.74958002  0.24910999
   0.24328000  0.50072997  0.99510994
   0.99837005  0.74313996  0.00460000
   0.75633000  0.73891003  0.25767000
   0.75839004  0.50315998  0.00288000
   0.50700002  0.50333002  0.25878999
   0.24900999  0.25315000  0.74854000
   0.24446000  0.99823996  0.50287998
   0.99804009  0.24229999  0.50128003
   0.24177002  0.75340997  0.75018002
   0.25841001  0.50062002  0.50129001
   0.99000004  0.76215003  0.49746000
   0.99203996  0.50055999  0.75138002
   0.75036005  0.74888000  0.74756004
   0.74036002  0.50197000  0.50067003
   0.50575006  0.74958002  0.49720000
   0.50501003  0.50217998  0.73912003
   0.51588997  0.01358000  0.98075008
   0.99841994  0.50976998  0.98613004
   0.50379003  0.73926997  0.25905001
   0.23780002  0.01082000  0.74607998
   0.47957999  0.98308000  0.49717999
   0.74279003  0.97869994  0.76450995
   0.99864998  0.77573999  0.26102000
   0.73551001  0.51468004  0.26666001
   0.02362000  0.99783001  0.49557002
   0.50539000  0.52833005  0.49917999
   0.73876003  0.52828003  0.73814999
   0.75400003  0.72937999  0.49116997
HECN                                    
           1
     8.057513    0.011398   -0.005926
     0.016745    8.162025    0.003052
     0.023008   -0.011134    8.085439
   V    Ta   Ti   N    C    Cr   Mo
   7   6   7  13  19   6   6
Direct configuration=     2
   0.99713529  0.98970819  0.99984758
   0.25409313  0.99326930  0.24854568
   0.25179520  0.50488001  0.24884394
   0.50419478  0.49253866  0.99838312
   0.50099969  0.24351585  0.75155485
   0.99542156  0.50311551  0.50098825
   0.49867952  0.75775144  0.74743680
   0.99869674  0.23889316  0.25839150
   0.75165294  0.74577937  0.01060291
   0.00303480  0.25273762  0.74309104
   0.74685586  0.25586777  0.50728596
   0.00131928  0.74841967  0.74672565
   0.25775408  0.49682859  0.74846075
   0.24986828  0.24732729  0.99737264
   0.50620739  0.25399140  0.25168142
   0.74273237  0.98874115  0.26892942
   0.75396813  0.25592265  0.99364631
   0.24957222  0.75103306  0.00063291
   0.25507097  0.24821341  0.49938185
   0.24647678  0.74988267  0.49862293
   0.24979970  0.24976767  0.24903184
   0.25880503  0.00055025  0.99449884
   0.00227244  0.24749064  0.00111744
   0.75173325  0.24487786  0.25470253
   0.74873812  0.99706763  0.00772372
   0.50453856  0.00005130  0.24958156
   0.99554158  0.47973980  0.24498154
   0.50463437  0.75842778  0.00549452
   0.98885309  0.00250514  0.74363185
   0.75399510  0.24428652  0.75045888
   0.73654983  0.00521784  0.50599246
   0.50411895  0.23308137  0.49652485
   0.50307616  0.00006851  0.73817822
   0.99872310  0.00059092  0.25065614
   0.50491482  0.24801843 -0.00058054
   0.25245672  0.74896070  0.24951038
   0.24639534  0.50069348  0.99956872
   0.00197809  0.74541913  0.00324963
   0.75281162  0.74608652  0.25246049
   0.75501204  0.49983548  0.00257158
   0.49799676  0.50338570  0.25086253
   0.25252132  0.24978557  0.74839354
   0.25394929  0.99714983  0.50203891
   0.00038578  0.24853103  0.50040616
   0.24613551  0.75327907  0.75021797
   0.25303188  0.50083526  0.49582827
   0.99684492  0.75527917  0.50051163
   0.99489608  0.50080283  0.74948502
   0.74414620  0.75797637  0.75046938
   0.75058917  0.49710915  0.50228447
   0.50013961  0.75702342  0.49836401
   0.50124378  0.50113977  0.74732364
   0.51738449  0.01813831  0.97684216
   0.00013092  0.51308945  0.98342843
   0.50286370  0.73736597  0.25827347
   0.23801358  0.01181748  0.74855304
   0.47640430  0.98216775  0.49806699
   0.73810212  0.97448642  0.76756664
   0.00306001  0.77602671  0.25774011
   0.73557819  0.51065472  0.26035082
   0.02508335  0.99894480  0.49798816
   0.49861376  0.52706657  0.49854467
   0.73797878  0.52124992  0.74438698
   0.75442998  0.73554073  0.49229298
HECN                                    
           1
     8.555782    0.004907   -0.002551
     0.010485    8.670878    0.001314
     0.028187   -0.013759    8.570440
   V    Ta   Ti   N    C    Cr   Mo
   7   6   7  13  19   6   6
Direct configuration=     3
   0.99697172  0.99118810  0.99946448
   0.25401849  0.99572107  0.24890620
   0.24942151  0.50284243  0.24928740
   0.50470499  0.49564726  0.99835520
   0.50338789  0.24527894  0.74875187
   0.99469808  0.50399201  0.49897427
   0.49920052  0.75589844  0.74789942
   0.99597032  0.23717518  0.26179448
   0.75514665  0.74277372  0.01085655
   0.00238347  0.25442794  0.74047709
   0.75077270  0.25950337  0.50605631
  -0.00257924  0.74621442  0.74571294
   0.25715235  0.49543477  0.74656576
   0.24861805  0.24800064  0.99687253
   0.50754585  0.25574455  0.25299009
   0.74655769  0.98819155  0.26939859
   0.75600306  0.25598709  0.99507892
   0.24834054  0.75021803  0.00007032
   0.25358716  0.24822578  0.49986428
   0.24527936  0.75026775  0.49938798
   0.24981246  0.24955449  0.24853980
   0.26048733  0.00009955  0.99353161
   0.00260940  0.24922718  0.00123194
   0.75262025  0.24569294  0.25483977
   0.74806548  0.99732807  0.01042739
   0.50618603 -0.00012805  0.24778794
   0.99236856  0.48046558  0.24247907
   0.50498400  0.76024754  0.00741734
   0.98892417  0.00220010  0.73951429
   0.75617536  0.24434288  0.74952328
   0.73640788  0.00455490  0.50891167
   0.50507904  0.23280774  0.49584908
   0.50118887  0.00041409  0.73599994
   0.99776811 -0.00122365  0.25590810
   0.50451672  0.24720418  0.00143403
   0.25175098  0.74935307  0.24925769
   0.24442650  0.50072035  0.99676072
  -0.00029696  0.74398200  0.00409848
   0.75504172  0.74154804  0.25574292
   0.75714170  0.50193286  0.00276648
   0.50368429  0.50334068  0.25585660
   0.25030165  0.25191429  0.74848330
   0.24795813  0.99784674  0.50256366
  -0.00108899  0.24459610  0.50095662
   0.24337945  0.75336563  0.75019203
   0.25642985  0.50069322  0.49926866
   0.99251610  0.75962696  0.49858599
   0.99309413  0.50065146  0.75067655
   0.74807586  0.75222448  0.74864317
   0.74412636  0.50018965  0.50126237
   0.50368766  0.75231599  0.49763571
   0.50361659  0.50179563  0.74216143
   0.51644698  0.01525873  0.97930237
  -0.00094493  0.51099306  0.98512894
   0.50344713  0.73856792  0.25876223
   0.23787850  0.01118805  0.74699653
   0.47840786  0.98274153  0.49750993
   0.74105633  0.97714514  0.76564379
   0.00027777  0.77584866  0.25980264
   0.73553448  0.51319647  0.26432110
   0.02415941  0.99824234  0.49646566
   0.50289074  0.52785872  0.49894740
   0.73846267  0.52569237  0.74045983
   0.75416361  0.73164900  0.49158738
HECN                                    
           1
     8.538610    0.005131   -0.002668
     0.010701    8.653341    0.001374
     0.028008   -0.013668    8.553726
   V    Ta   Ti   N    C    Cr   Mo
   7   6   7  13  19   6   6
Direct configuration=     4
   0.99697699  0.99114010  0.99947692
   0.25402085  0.99564153  0.24889446
   0.24949862  0.50290859  0.24927296
   0.50468834  0.49554640  0.99835609
   0.50331029  0.24522170  0.74884302
   0.99472151  0.50396361  0.49903973
   0.49918367  0.75595854  0.74788440
   0.99605891  0.23723096  0.26168382
   0.75503334  0.74287113  0.01084837
   0.00240452  0.25437314  0.74056206
   0.75064546  0.25938533  0.50609631
  -0.00245267  0.74628607  0.74574583
   0.25717189  0.49548002  0.74662737
   0.24865860  0.24797884  0.99688877
   0.50750238  0.25568763  0.25294755
   0.74643356  0.98820928  0.26938340
   0.75593704  0.25598494  0.99503237
   0.24838053  0.75024451  0.00008860
   0.25363533  0.24822542  0.49984858
   0.24531823  0.75025529  0.49936308
   0.24981205  0.24956141  0.24855580
   0.26043273  0.00011413  0.99356308
   0.00259841  0.24917083  0.00122821
   0.75259144  0.24566648  0.25483531
   0.74808734  0.99731962  0.01033948
   0.50613254 -0.00012226  0.24784628
   0.99247148  0.48044213  0.24256039
   0.50497263  0.76018849  0.00735482
   0.98892182  0.00221002  0.73964817
   0.75610458  0.24434100  0.74955373
   0.73641255  0.00457639  0.50881677
   0.50504788  0.23281659  0.49587107
   0.50125008  0.00040295  0.73607074
   0.99779923 -0.00116480  0.25573735
   0.50452969  0.24723059  0.00136853
   0.25177387  0.74934036  0.24926589
   0.24449036  0.50071956  0.99685199
  -0.00022307  0.74402867  0.00407086
   0.75496952  0.74169518  0.25563627
   0.75707252  0.50186476  0.00276016
   0.50349977  0.50334195  0.25569431
   0.25037363  0.25184529  0.74848033
   0.24815257  0.99782429  0.50254651
  -0.00104101  0.24472378  0.50093873
   0.24346889  0.75336289  0.75019283
   0.25631962  0.50069771  0.49915686
   0.99265644  0.75948605  0.49864850
   0.99315264  0.50065641  0.75063779
   0.74794845  0.75241098  0.74870264
   0.74433602  0.50008990  0.50129549
   0.50357263  0.75246861  0.49765948
   0.50353949  0.50177433  0.74232929
   0.51647752  0.01535215  0.97922239
  -0.00090993  0.51106108  0.98507365
   0.50342817  0.73852891  0.25874634
   0.23788288  0.01120849  0.74704714
   0.47834281  0.98272287  0.49752806
   0.74096034  0.97705882  0.76570633
   0.00036811  0.77585449  0.25973555
   0.73553588  0.51311399  0.26419200
   0.02418939  0.99826517  0.49651516
   0.50275191  0.52783290  0.49893437
   0.73844679  0.52554828  0.74058748
   0.75417235  0.73177526  0.49161035
HECN                                    
           1
     8.505539    0.013016   -0.003680
     0.018701    8.571135    0.002923
     0.026865   -0.011977    8.531466
   V    Ta   Ti   N    C    Cr   Mo
   7   6   7  13  19   6   6
Direct configuration=     5
   0.99889415  0.98965305  0.99922646
   0.25455199  0.99193420  0.24699468
   0.25402229  0.50612177  0.24779162
   0.50249932  0.49041106  0.99880589
   0.49851226  0.24220202  0.75430370
   0.99832658  0.50160321  0.50248403
   0.49695906  0.75985146  0.74834384
   0.00273350  0.24142413  0.25182935
   0.74709845  0.75071898  0.00790856
   0.00431649  0.24995768  0.74901268
   0.74406127  0.25121144  0.50745137
   0.00317296  0.75231228  0.74956599
   0.25577715  0.49880127  0.75072865
   0.25180718  0.24646546  0.99859692
   0.50317490  0.25202978  0.24950150
   0.74033879  0.99089536  0.26616993
   0.75196629  0.25429357  0.99360373
   0.25289952  0.75236981  0.00130494
   0.25711443  0.24863899  0.49816479
   0.24820583  0.74930524  0.49791996
   0.25218180  0.25007524  0.24895121
   0.25799489  0.00062172  0.99563123
   0.00217261  0.24685510  0.00132290
   0.74815962  0.24404559  0.25158390
   0.74990760  0.99893435  0.00610472
   0.50184043 -0.00021646  0.24955322
   0.99893805  0.48399176  0.24587177
   0.50145041  0.75756760  0.00384542
   0.98806763  0.00250046  0.74905055
   0.74936933  0.24402614  0.75394223
   0.73730965  0.00383874  0.50632692
   0.50048064  0.23402552  0.49794938
   0.50345050  0.00017957  0.74014343
   0.99962287  0.00320605  0.24449633
   0.50439693  0.24959794 -0.00205434
   0.25532645  0.74851575  0.24928884
   0.24812134  0.50037235  0.00404743
   0.00594171  0.74689831  0.00362167
   0.74937232  0.75193934  0.25038343
   0.75356540  0.49548782  0.00266225
   0.48932248  0.50267598  0.24479773
   0.25720037  0.24615100  0.74874284
   0.26188288  0.99692159  0.50180261
   0.00345817  0.25312956  0.50013523
   0.25162995  0.75546887  0.75059132
   0.24836817  0.50049947  0.49139352
   0.00201222  0.74986607  0.50177053
   0.99651845  0.50075970  0.74815115
   0.74040586  0.76307037  0.75106511
   0.75565481  0.49517529  0.50292049
   0.49609698  0.76420701  0.49940748
   0.49919128  0.49980401  0.75281953
   0.51611774  0.01886277  0.97545997
   0.00165699  0.51284950  0.98346754
   0.50112215  0.73856126  0.25591948
   0.23920801  0.01090445  0.75128469
   0.47679118  0.98323078  0.49746791
   0.73547775  0.97627166  0.76956600
   0.00659313  0.76789669  0.25258779
   0.73903076  0.50371946  0.25294637
   0.01950885  0.00170434  0.49968916
   0.49485419  0.51896137  0.49765918
   0.74061419  0.51337688  0.75199830
   0.75318129  0.74326800  0.49592511
HECN                                    
           1
     8.505608    0.013000   -0.003678
     0.018684    8.571308    0.002919
     0.026867   -0.011980    8.531513
   V    Ta   Ti   N    C    Cr   Mo
   7   6   7  13  19   6   6
Direct configuration=     6
   0.99889011  0.98965620  0.99922699
   0.25455086  0.99194206  0.24699868
   0.25401276  0.50611497  0.24779474
   0.50250392  0.49042194  0.99880495
   0.49852236  0.24220841  0.75429221
   0.99831898  0.50160822  0.50247678
   0.49696376  0.75984321  0.74834288
   0.00271945  0.24141526  0.25185008
   0.74711518  0.75070233  0.00791475
   0.00431245  0.24996705  0.74899490
   0.74407512  0.25122875  0.50744852
   0.00316112  0.75229953  0.74955795
   0.25578009  0.49879423  0.75072002
   0.25180054  0.24646867  0.99859332
   0.50318401  0.25203752  0.24950875
   0.74035164  0.99088966  0.26617670
   0.75197466  0.25429714  0.99360674
   0.25289000  0.75236532  0.00130238
   0.25710710  0.24863812  0.49816833
   0.24819974  0.74930726  0.49792300
   0.25217681  0.25007415  0.24895038
   0.25800002  0.00062064  0.99562688
   0.00217350  0.24686000  0.00132270
   0.74816895  0.24404901  0.25159074
   0.74990377  0.99893093  0.00611363
   0.50184947 -0.00021627  0.24954963
   0.99892443  0.48398426  0.24586480
   0.50145783  0.75757315  0.00385280
   0.98806943  0.00249984  0.74903077
   0.74938352  0.24402680  0.75393300
   0.73730776  0.00384030  0.50633216
   0.50049026  0.23402295  0.49794501
   0.50344587  0.00018005  0.74013486
   0.99961904  0.00319679  0.24451998
   0.50439722  0.24959292 -0.00204713
   0.25531896  0.74851750  0.24928879
   0.24811368  0.50037309  0.00403228
   0.00592873  0.74689224  0.00362261
   0.74938413  0.75191762  0.25039448
   0.75357278  0.49550132  0.00266245
   0.48935235  0.50267736  0.24482066
   0.25718598  0.24616307  0.74874228
   0.26185395  0.99692353  0.50180417
   0.00344870  0.25311175  0.50013692
   0.25161276  0.75546442  0.75059048
   0.24838492  0.50049987  0.49140985
   0.00199249  0.74988647  0.50176395
   0.99651136  0.50075949  0.74815639
   0.74042177  0.76304777  0.75106015
   0.75563095  0.49518573  0.50291707
   0.49611275  0.76418213  0.49940381
   0.49920044  0.49980818  0.75279746
   0.51611851  0.01885533  0.97546789
   0.00165159  0.51284572  0.98347092
   0.50112701  0.73856119  0.25592543
   0.23920522  0.01090510  0.75127578
   0.47679445  0.98322970  0.49746804
   0.73548930  0.97627331  0.76955788
   0.00658000  0.76791356  0.25260283
   0.73902338  0.50373937  0.25297002
   0.01951871  0.00169705  0.49968248
   0.49487081  0.51898015  0.49766186
   0.74060960  0.51340268  0.75197429
   0.75318340  0.74324365  0.49591604
HECN                                    
           1
     8.610997    0.002608   -0.005924
     0.008325    8.649424    0.007403
     0.024998   -0.007689    8.630332
   V    Ta   Ti   N    C    Cr   Mo
   7   6   7  13  19   6   6
Direct configuration=     7
   0.00238532  0.98808161  0.99910549
   0.25403422  0.98919959  0.24629587
   0.25722572  0.50934399  0.24614062
   0.50067860  0.48662641  0.99931044
   0.49499654  0.24053973  0.75765998
   0.00270776  0.49943290  0.50629645
   0.49565433  0.76151561  0.74730137
   0.00432234  0.24475013  0.24964793
   0.74508027  0.75054616  0.00540699
   0.00682915  0.24737578  0.75080549
   0.74459667  0.24797131  0.50826459
   0.00238806  0.75414929  0.75183232
   0.25340903  0.49829568  0.75193424
   0.25437691  0.24518955  0.99915055
   0.49978971  0.25044099  0.24683357
   0.73836650  0.99381474  0.26232048
   0.74965957  0.25092739  0.99454531
   0.25773889  0.75387466  0.00245091
   0.25722742  0.24905536  0.49791530
   0.24876441  0.74924494  0.49724340
   0.25383097  0.24935999  0.24882221
   0.25723404  0.00101235  0.99736571
   0.00212355  0.24658323  0.00124024
   0.74679999  0.24275857  0.25021584
   0.75031916  0.00151557  0.00300651
   0.49914475 -0.00011345  0.24967407
   0.00141171  0.49000499  0.24746779
   0.49909196  0.75660050  0.00156506
   0.98794745  0.00274357  0.75340351
   0.74717535  0.24460934  0.75448090
   0.74066537  0.00278354  0.50568583
   0.49831270  0.23835851  0.49887379
   0.50375070  0.00099509  0.74319728
   0.00125524 -0.00121413  0.24273709
   0.50303964  0.25050840 -0.00303130
   0.25877297  0.74890378  0.24901484
   0.24874959  0.50016484  0.00627738
   0.00556285  0.74772254  0.00362935
   0.74635436  0.75183684  0.25288085
   0.75319657  0.49592414  0.00337394
   0.48870351  0.50344428  0.24252915
   0.25884432  0.24511479  0.74926522
   0.25837836  0.99786713  0.50252234
   0.00404734  0.25641534  0.49970096
   0.25573755  0.75779152  0.75095499
   0.24481125  0.49993739  0.49107575
   0.00451571  0.74598927  0.50013304
   0.99841677  0.50137827  0.74822989
   0.74078621  0.75848342  0.74995608
   0.75600100  0.49859805  0.50186151
   0.49561033  0.76103997  0.49851687
   0.50013087  0.49931667  0.75463570
   0.51507860  0.02004767  0.97366165
   0.00309281  0.51541391  0.98103171
   0.49812386  0.73608468  0.25579616
   0.23907561  0.00819307  0.75378058
   0.47929752  0.98546181  0.49694530
   0.73002216  0.98159149  0.77352977
   0.00726571  0.76645214  0.25074756
   0.73475234  0.50398350  0.24900279
   0.02113588  0.00294594  0.49691509
   0.49718534  0.51784707  0.49512115
   0.74154823  0.51310329  0.75736962
   0.75246874  0.74206507  0.49637507
HECN                                    
           1
     8.586872    0.004987   -0.005410
     0.010696    8.631542    0.006376
     0.025426   -0.008671    8.607712
   V    Ta   Ti   N    C    Cr   Mo
   7   6   7  13  19   6   6
Direct configuration=     8
   0.00159546  0.98843782  0.99913260
   0.25415184  0.98982177  0.24645462
   0.25649843  0.50861043  0.24651513
   0.50109235  0.48748797  0.99919572
   0.49579403  0.24091963  0.75689789
   0.00171580  0.49992560  0.50543158
   0.49595000  0.76113647  0.74753733
   0.00395911  0.24399293  0.25014656
   0.74554058  0.75058185  0.00597457
   0.00626071  0.24796311  0.75039532
   0.74447960  0.24871019  0.50807951
   0.00256221  0.75373015  0.75131791
   0.25394522  0.49840957  0.75165955
   0.25379469  0.24547906  0.99902415
   0.50055779  0.25080378  0.24743895
   0.73881477  0.99315130  0.26319356
   0.75018391  0.25169255  0.99433265
   0.25664202  0.75353107  0.00219091
   0.25720011  0.24896065  0.49797260
   0.24863679  0.74925884  0.49739715
   0.25345715  0.24952152  0.24885103
   0.25740703  0.00092391  0.99697232
   0.00213492  0.24664602  0.00125887
   0.74710996  0.24305152  0.25052690
   0.75022470  0.00092878  0.00370990
   0.49975628 -0.00013601  0.24964608
   0.00084755  0.48863872  0.24710561
   0.49962731  0.75682153  0.00208278
   0.98797471  0.00268882  0.75241403
   0.74767444  0.24447786  0.75435711
   0.73990651  0.00302226  0.50583177
   0.49880381  0.23737571  0.49866425
   0.50368137  0.00081048  0.74250436
   0.00088661 -0.00021419  0.24313994
   0.50334641  0.25030099 -0.00280841
   0.25799189  0.74881517  0.24907668
   0.24860574  0.50021216  0.00576927
   0.00564535  0.74753429  0.00362794
   0.74703930  0.75185629  0.25231837
   0.75328148  0.49582841  0.00321300
   0.48885014  0.50327022  0.24304783
   0.25846961  0.24535219  0.74914667
   0.25916392  0.99765412  0.50236013
   0.00391109  0.25566572  0.49979997
   0.25480422  0.75726254  0.75087254
   0.24561947  0.50006593  0.49115150
   0.00394636  0.74687244  0.50050150
   0.99798576  0.50123739  0.74821322
   0.74070514  0.75951860  0.75020537
   0.75591644  0.49782375  0.50210075
   0.49572486  0.76175279  0.49871724
   0.49992052  0.49942812  0.75421961
   0.51531351  0.01977727  0.97407059
   0.00276636  0.51483064  0.98158390
   0.49880360  0.73664728  0.25582529
   0.23910553  0.00880861  0.75321345
   0.47873096  0.98495472  0.49706371
   0.73125663  0.98038705  0.77263190
   0.00711118  0.76678325  0.25116718
   0.73571823  0.50392884  0.24990081
   0.02077003  0.00266186  0.49754138
   0.49666246  0.51810317  0.49569582
   0.74133577  0.51317157  0.75614861
   0.75263063  0.74233267  0.49627109
HECN                                    
           1
     8.547532   -0.005046   -0.006285
     0.000594    8.579999    0.011397
     0.024416   -0.003613    8.570274
   V    Ta   Ti   N    C    Cr   Mo
   7   6   7  13  19   6   6
Direct configuration=     9
   0.00618891  0.98635075  0.99967612
   0.25343686  0.98658990  0.24640390
   0.26011002  0.51232010  0.24514768
   0.49934220  0.48389272  0.99931822
   0.49205632  0.23964977  0.75971502
   0.00546361  0.49782345  0.51041122
   0.49618644  0.76256210  0.74550076
   0.00475213  0.24623682  0.24941430
   0.74366741  0.75036385  0.00489347
   0.00865697  0.24562294  0.75060275
   0.74553371  0.24783023  0.50883499
   0.00194025  0.75515715  0.75171943
   0.25352202  0.49836837  0.75243114
   0.25571092  0.24417303  0.99930695
   0.49757800  0.24930359  0.24539087
   0.73719333  0.99488545  0.25947002
   0.74805060  0.24851789  0.99531073
   0.26078077  0.75484346  0.00291733
   0.25657659  0.24944778  0.49811174
   0.24917203  0.74943841  0.49710274
   0.25392819  0.24870450  0.24871388
   0.25688211  0.00114043  0.99881664
   0.00215759  0.24655822  0.00122835
   0.74660019  0.24203658  0.25016146
   0.75009895  0.00266059  0.00106014
   0.49774470  0.00041023  0.24985076
   0.00239622  0.49316458  0.24848301
   0.49883040  0.75619697 -0.00025725
   0.98855599  0.00283265  0.75517529
   0.74696780  0.24450593  0.75357843
   0.74323480  0.00300973  0.50447516
   0.49854807  0.24213040  0.49921052
   0.50355783  0.00166097  0.74508171
   0.00215001 -0.00184326  0.24330032
   0.50196208  0.25031864 -0.00315614
   0.26041265  0.74963671  0.24889099
   0.24863309  0.50016316  0.00630608
   0.00458598  0.74791903  0.00340210
   0.74468334  0.75073491  0.25363431
   0.75362491  0.49708446  0.00411248
   0.49040068  0.50378409  0.24230077
   0.25841573  0.24496049  0.74979553
   0.25598919  0.99856619  0.50310375
   0.00350158  0.25664885  0.49951076
   0.25661021  0.75896712  0.75115290
   0.24457821  0.49975373  0.49229898
   0.00458407  0.74516959  0.49900725
   0.99915229  0.50146549  0.74901698
   0.74211322  0.75665601  0.74923779
   0.75489451  0.49997723  0.50097575
   0.49653716  0.75810614  0.49723865
   0.50096678  0.49911723  0.75405611
   0.51443112  0.02108387  0.97298204
   0.00397109  0.51861639  0.97852387
   0.49589231  0.73355670  0.25693473
   0.23834840  0.00596106  0.75566552
   0.47946584  0.98653020  0.49668450
   0.72531723  0.98307143  0.77642958
   0.00697341  0.76533435  0.25068470
   0.72980715  0.50555090  0.24756450
   0.02281039  0.00357483  0.49371154
   0.49908135  0.51772281  0.49333061
   0.74192111  0.51395301  0.75958923
   0.75276332  0.73946884  0.49645649
HECN                                    
           1
     8.551548   -0.004022   -0.006196
     0.001626    8.585261    0.010885
     0.024519   -0.004130    8.574096
   V    Ta   Ti   N    C    Cr   Mo
   7   6   7  13  19   6   6
Direct configuration=    10
   0.00571804  0.98656459  0.99962022
   0.25351058  0.98692191  0.24640891
   0.25973918  0.51193858  0.24528808
   0.49952213  0.48426219  0.99930546
   0.49243979  0.23978081  0.75942612
   0.00507943  0.49803920  0.50990045
   0.49616204  0.76241553  0.74570966
   0.00467054  0.24600623  0.24948951
   0.74385957  0.75038640  0.00500433
   0.00841149  0.24586302  0.75058132
   0.74542570  0.24792052  0.50875746
   0.00200387  0.75501069  0.75167835
   0.25356542  0.49837269  0.75235203
   0.25551454  0.24430695  0.99927786
   0.49788381  0.24945790  0.24560082
   0.73735946  0.99470731  0.25985194
   0.74826977  0.24884425  0.99521027
   0.26035613  0.75470822  0.00284288
   0.25664048  0.24939783  0.49809751
   0.24911712  0.74941989  0.49713293
   0.25387998  0.24878835  0.24872789
   0.25693590  0.00111837  0.99862755
   0.00215528  0.24656723  0.00123148
   0.74665260  0.24214086  0.25019887
   0.75011167  0.00248258  0.00133194
   0.49795094  0.00035439  0.24982983
   0.00223683  0.49269965  0.24834203
   0.49891223  0.75626107 -0.00001734
   0.98849633  0.00281797  0.75489216
   0.74704028  0.24450308  0.75365828
   0.74289346  0.00301054  0.50461423
   0.49857372  0.24164214  0.49915480
   0.50357037  0.00157379  0.74481749
   0.00202063 -0.00167609  0.24328376
   0.50210406  0.25031697 -0.00312047
   0.26016428  0.74955204  0.24891005
   0.24863028  0.50016822  0.00625103
   0.00469459  0.74787963  0.00342529
   0.74492509  0.75085044  0.25349934
   0.75358953  0.49695547  0.00402032
   0.49024160  0.50373108  0.24237738
   0.25842130  0.24500076  0.74972897
   0.25631468  0.99847294  0.50302759
   0.00354346  0.25654791  0.49954047
   0.25642477  0.75879185  0.75112423
   0.24468503  0.49978599  0.49218131
   0.00451889  0.74534432  0.49916035
   0.99903262  0.50144197  0.74893456
   0.74196916  0.75694978  0.74933681
   0.75499907  0.49975611  0.50109124
   0.49645430  0.75848048  0.49739003
   0.50085952  0.49914902  0.75407285
   0.51452147  0.02094971  0.97309375
   0.00384710  0.51822725  0.97883785
   0.49619125  0.73387453  0.25682082
   0.23842636  0.00625376  0.75541392
   0.47939029  0.98636828  0.49672347
   0.72592602  0.98279667  0.77604040
   0.00698772  0.76548314  0.25073408
   0.73041322  0.50538487  0.24780422
   0.02260106  0.00348059  0.49410427
   0.49883334  0.51776145  0.49357309
   0.74186095  0.51387289  0.75923648
   0.75275005  0.73976296  0.49643730
HECN                                    
           1
     8.554362   -0.005642   -0.003415
     0.000007    8.591216    0.012366
     0.027319   -0.002663    8.577896
   V    Ta   Ti   N    C    Cr   Mo
   7   6   7  13  19   6   6
Direct configuration=    11
   0.00984951  0.98531372  0.00084226
   0.25295426  0.98513795  0.24701231
   0.26128386  0.51357285  0.24508181
   0.49845804  0.48304777  0.99862221
   0.49005641  0.23978884  0.75981014
   0.00606362  0.49709190  0.51351676
   0.49809957  0.76272766  0.74331720
   0.00496833  0.24771883  0.24918190
   0.74237217  0.75141088  0.00523157
   0.00899973  0.24459725  0.75059428
   0.74571693  0.24897106  0.50884231
   0.00223768  0.75604587  0.75008994
   0.25510276  0.49973046  0.75255927
   0.25522268  0.24376989  0.99956154
   0.49622870  0.24812730  0.24535675
   0.73677398  0.99449877  0.25771376
   0.74748307  0.24754227  0.99570065
   0.26183586  0.75515934  0.00247385
   0.25603941  0.24994620  0.49830731
   0.24973078  0.74954593  0.49737030
   0.25340217  0.24862504  0.24875669
   0.25689958  0.00076920  0.99998771
   0.00205686  0.24651511  0.00115673
   0.74656395  0.24193951  0.25029979
   0.74994861  0.00273501  0.00127574
   0.49713919  0.00096586  0.24991830
   0.00301324  0.49417109  0.24881092
   0.49944302  0.75613918 -0.00157003
   0.98930586  0.00249493  0.75556371
   0.74720276  0.24352041  0.75289601
   0.74445247  0.00363055  0.50313076
   0.49943992  0.24415206  0.49943925
   0.50213944  0.00209017  0.74495102
   0.00188156  0.00079751  0.24363071
   0.50144603  0.24948431 -0.00258282
   0.26063274  0.75023379  0.24897283
   0.24848643  0.50035327  0.00581095
   0.00472238  0.74800102  0.00282526
   0.74374752  0.75080059  0.25236134
   0.75441004  0.49705648  0.00460101
   0.49029139  0.50279714  0.24168001
   0.25771647  0.24462885  0.75015375
   0.25750301  0.99870134  0.50341040
   0.00317455  0.25550455  0.49960158
   0.25617677  0.75943766  0.75104170
   0.24601501  0.49994671  0.49304701
   0.00421496  0.74573716  0.49892942
   0.99899631  0.50099144  0.74966473
   0.74265506  0.75888416  0.74906013
   0.75502147  0.49832607  0.50066720
   0.49725058  0.75878261  0.49629022
   0.50130122  0.49895263  0.75316684
   0.51335988  0.02134352  0.97461691
   0.00425817  0.52092881  0.97768293
   0.49515336  0.73305872  0.25853927
   0.23784590  0.00440804  0.75719851
   0.47862622  0.98724749  0.49690011
   0.72332704  0.98238832  0.77671639
   0.00644411  0.76240597  0.25166179
   0.72852910  0.50572336  0.24763530
   0.02154909  0.00400330  0.49141033
   0.49899070  0.51557279  0.49325891
   0.74229681  0.51306283  0.75938096
   0.75349209  0.73894645  0.49686370
HECN                                    
           1
     8.557007   -0.007165   -0.000801
    -0.001515    8.596814    0.013759
     0.029952   -0.001284    8.581468
   V    Ta   Ti   N    C    Cr   Mo
   7   6   7  13  19   6   6
Direct configuration=    12
   0.01373114  0.98413928  0.00198939
   0.25243100  0.98346202  0.24757970
   0.26273570  0.51510827  0.24488726