  64  64   0   0
  0.1102936E+02  0.8907624E-09  0.8931247E-09  0.8872949E-09  0.5000000E-15
  1.000000000000000E-004
  CAR 
 HECN                                    
     14.84745507    -51.81122725  301      9.03059608      1.00000000
    -51.811  0.0000E+00  0.0000E+00
    -51.589  0.0000E+00  0.0000E+00
    -51.367  0.0000E+00  0.0000E+00
    -51.145  0.0000E+00  0.0000E+00
    -50.922  0.0000E+00  0.0000E+00
    -50.700  0.0000E+00  0.0000E+00
    -50.478  0.0000E+00  0.0000E+00
    -50.256  0.0000E+00  0.0000E+00
    -50.034  0.0000E+00  0.0000E+00
    -49.811  0.0000E+00  0.0000E+00
    -49.589  0.0000E+00  0.0000E+00
    -49.367  0.4997E-17  0.1110E-17
    -49.145  0.1216E-07  0.2702E-08
    -48.923  0.2044E-02  0.4542E-03
    -48.700  0.9023E-01  0.2050E-01
    -48.478  0.3400E+00  0.9606E-01
    -48.256  0.1474E+00  0.1288E+00
    -48.034  0.5022E-01  0.1400E+00
    -47.812  0.1229E-03  0.1400E+00
    -47.590  0.3874E-10  0.1400E+00
    -47.367  0.2039E-04  0.1400E+00
    -47.145  0.3357E-01  0.1475E+00
    -46.923  0.1703E+00  0.1853E+00
    -46.701  0.2302E+00  0.2365E+00
    -46.479  0.1055E+00  0.2599E+00
    -46.256  0.5314E-03  0.2600E+00
    -46.034  0.6526E-09  0.2600E+00
    -45.812  0.0000E+00  0.2600E+00
    -45.590  0.0000E+00  0.2600E+00
    -45.368  0.0000E+00  0.2600E+00
    -45.145  0.0000E+00  0.2600E+00
    -44.923  0.0000E+00  0.2600E+00
    -44.701  0.0000E+00  0.2600E+00
    -44.479  0.0000E+00  0.2600E+00
    -44.257  0.0000E+00  0.2600E+00
    -44.034  0.0000E+00  0.2600E+00
    -43.812  0.0000E+00  0.2600E+00
    -43.590  0.0000E+00  0.2600E+00
    -43.368  0.0000E+00  0.2600E+00
    -43.146  0.0000E+00  0.2600E+00
    -42.923  0.0000E+00  0.2600E+00
    -42.701  0.0000E+00  0.2600E+00
    -42.479  0.0000E+00  0.2600E+00
    -42.257  0.0000E+00  0.2600E+00
    -42.035  0.0000E+00  0.2600E+00
    -41.812  0.0000E+00  0.2600E+00
    -41.590  0.0000E+00  0.2600E+00
    -41.368  0.0000E+00  0.2600E+00
    -41.146  0.0000E+00  0.2600E+00
    -40.924  0.9993E-17  0.2600E+00
    -40.701  0.1536E-07  0.2600E+00
    -40.479  0.2267E-02  0.2605E+00
    -40.257  0.8167E-01  0.2787E+00
    -40.035  0.1387E+00  0.3095E+00
    -39.813  0.2102E+00  0.3562E+00
    -39.590  0.1037E+00  0.3792E+00
    -39.368  0.4943E-01  0.3902E+00
    -39.146  0.4409E-01  0.4000E+00
    -38.924  0.6957E-04  0.4000E+00
    -38.702  0.1270E-10  0.4000E+00
    -38.479  0.0000E+00  0.4000E+00
    -38.257  0.0000E+00  0.4000E+00
    -38.035  0.0000E+00  0.4000E+00
    -37.813  0.0000E+00  0.4000E+00
    -37.591  0.0000E+00  0.4000E+00
    -37.369  0.0000E+00  0.4000E+00
    -37.146  0.0000E+00  0.4000E+00
    -36.924  0.0000E+00  0.4000E+00
    -36.702  0.0000E+00  0.4000E+00
    -36.480  0.0000E+00  0.4000E+00
    -36.258  0.0000E+00  0.4000E+00
    -36.035  0.0000E+00  0.4000E+00
    -35.813  0.0000E+00  0.4000E+00
    -35.591  0.0000E+00  0.4000E+00
    -35.369  0.0000E+00  0.4000E+00
    -35.147  0.0000E+00  0.4000E+00
    -34.924  0.0000E+00  0.4000E+00
    -34.702  0.0000E+00  0.4000E+00
    -34.480  0.0000E+00  0.4000E+00
    -34.258  0.0000E+00  0.4000E+00
    -34.036  0.0000E+00  0.4000E+00
    -33.813  0.0000E+00  0.4000E+00
    -33.591  0.0000E+00  0.4000E+00
    -33.369  0.0000E+00  0.4000E+00
    -33.147  0.0000E+00  0.4000E+00
    -32.925  0.0000E+00  0.4000E+00
    -32.702  0.0000E+00  0.4000E+00
    -32.480  0.0000E+00  0.4000E+00
    -32.258  0.0000E+00  0.4000E+00
    -32.036  0.0000E+00  0.4000E+00
    -31.814  0.0000E+00  0.4000E+00
    -31.591  0.0000E+00  0.4000E+00
    -31.369  0.0000E+00  0.4000E+00
    -31.147  0.0000E+00  0.4000E+00
    -30.925  0.1298E-09  0.4000E+00
    -30.703  0.2953E-03  0.4001E+00
    -30.480  0.1365E+00  0.4304E+00
    -30.258  0.6175E+00  0.5676E+00
    -30.036  0.8298E+00  0.7520E+00
    -29.814  0.3608E-01  0.7600E+00
    -29.592  0.1803E-05  0.7600E+00
    -29.369  0.1247E-13  0.7600E+00
    -29.147  0.0000E+00  0.7600E+00
    -28.925  0.0000E+00  0.7600E+00
    -28.703  0.0000E+00  0.7600E+00
    -28.481  0.0000E+00  0.7600E+00
    -28.258  0.0000E+00  0.7600E+00
    -28.036  0.0000E+00  0.7600E+00
    -27.814  0.0000E+00  0.7600E+00
    -27.592  0.0000E+00  0.7600E+00
    -27.370  0.0000E+00  0.7600E+00
    -27.148  0.0000E+00  0.7600E+00
    -26.925  0.0000E+00  0.7600E+00
    -26.703  0.0000E+00  0.7600E+00
    -26.481  0.0000E+00  0.7600E+00
    -26.259  0.0000E+00  0.7600E+00
    -26.037  0.0000E+00  0.7600E+00
    -25.814  0.0000E+00  0.7600E+00
    -25.592  0.3912E-08  0.7600E+00
    -25.370  0.1487E-02  0.7603E+00
    -25.148  0.1645E+00  0.7969E+00
    -24.926  0.7583E+00  0.9654E+00
    -24.703  0.7213E+00  0.1126E+01
    -24.481  0.2382E+00  0.1179E+01
    -24.259  0.6485E-02  0.1180E+01
    -24.037  0.6106E-07  0.1180E+01
    -23.815  0.1466E-09  0.1180E+01
    -23.592  0.2504E-03  0.1180E+01
    -23.370  0.8332E-01  0.1199E+01
    -23.148  0.3710E+00  0.1281E+01
    -22.926  0.5540E+00  0.1404E+01
    -22.704  0.5934E+00  0.1536E+01
    -22.481  0.1815E-01  0.1540E+01
    -22.259  0.4677E-06  0.1540E+01
    -22.037  0.1512E-14  0.1540E+01
    -21.815  0.0000E+00  0.1540E+01
    -21.593  0.0000E+00  0.1540E+01
    -21.370  0.0000E+00  0.1540E+01
    -21.148  0.0000E+00  0.1540E+01
    -20.926  0.0000E+00  0.1540E+01
    -20.704  0.0000E+00  0.1540E+01
    -20.482  0.0000E+00  0.1540E+01
    -20.259  0.0000E+00  0.1540E+01
    -20.037  0.0000E+00  0.1540E+01
    -19.815  0.0000E+00  0.1540E+01
    -19.593  0.0000E+00  0.1540E+01
    -19.371  0.0000E+00  0.1540E+01
    -19.148  0.5285E-08  0.1540E+01
    -18.926  0.1773E-02  0.1540E+01
    -18.704  0.1580E+00  0.1575E+01
    -18.482  0.3086E+00  0.1644E+01
    -18.260  0.4518E+00  0.1744E+01
    -18.037  0.5157E+00  0.1859E+01
    -17.815  0.2042E+00  0.1904E+01
    -17.593  0.1999E+00  0.1949E+01
    -17.371  0.5020E-01  0.1960E+01
    -17.149  0.1890E-04  0.1960E+01
    -16.927  0.8070E-12  0.1960E+01
    -16.704  0.0000E+00  0.1960E+01
    -16.482  0.0000E+00  0.1960E+01
    -16.260  0.0000E+00  0.1960E+01
    -16.038  0.0000E+00  0.1960E+01
    -15.816  0.0000E+00  0.1960E+01
    -15.593  0.0000E+00  0.1960E+01
    -15.371  0.0000E+00  0.1960E+01
    -15.149  0.0000E+00  0.1960E+01
    -14.927  0.0000E+00  0.1960E+01
    -14.705  0.0000E+00  0.1960E+01
    -14.482  0.0000E+00  0.1960E+01
    -14.260  0.0000E+00  0.1960E+01
    -14.038  0.0000E+00  0.1960E+01
    -13.816  0.0000E+00  0.1960E+01
    -13.594  0.0000E+00  0.1960E+01
    -13.371  0.0000E+00  0.1960E+01
    -13.149  0.0000E+00  0.1960E+01
    -12.927  0.0000E+00  0.1960E+01
    -12.705  0.0000E+00  0.1960E+01
    -12.483  0.0000E+00  0.1960E+01
    -12.260  0.0000E+00  0.1960E+01
    -12.038  0.0000E+00  0.1960E+01
    -11.816  0.0000E+00  0.1960E+01
    -11.594  0.0000E+00  0.1960E+01
    -11.372  0.0000E+00  0.1960E+01
    -11.149  0.0000E+00  0.1960E+01
    -10.927  0.0000E+00  0.1960E+01
    -10.705  0.0000E+00  0.1960E+01
    -10.483  0.0000E+00  0.1960E+01
    -10.261  0.0000E+00  0.1960E+01
    -10.038  0.0000E+00  0.1960E+01
     -9.816  0.0000E+00  0.1960E+01
     -9.594  0.0000E+00  0.1960E+01
     -9.372  0.0000E+00  0.1960E+01
     -9.150  0.0000E+00  0.1960E+01
     -8.927  0.0000E+00  0.1960E+01
     -8.705  0.0000E+00  0.1960E+01
     -8.483  0.0000E+00  0.1960E+01
     -8.261  0.0000E+00  0.1960E+01
     -8.039  0.0000E+00  0.1960E+01
     -7.816  0.4654E-10  0.1960E+01
     -7.594  0.5495E-04  0.1960E+01
     -7.372  0.2909E-01  0.1966E+01
     -7.150  0.6017E-01  0.1980E+01
     -6.928  0.4164E-02  0.1981E+01
     -6.706  0.6017E-01  0.1994E+01
     -6.483  0.9475E-01  0.2015E+01
     -6.261  0.1484E+00  0.2048E+01
     -6.039  0.2417E+00  0.2102E+01
     -5.817  0.3113E+00  0.2171E+01
     -5.595  0.1312E+00  0.2200E+01
     -5.372  0.4749E-01  0.2211E+01
     -5.150  0.3943E-01  0.2220E+01
     -4.928  0.2232E-02  0.2220E+01
     -4.706  0.3275E-06  0.2220E+01
     -4.484  0.9808E-08  0.2220E+01
     -4.261  0.5557E-03  0.2220E+01
     -4.039  0.3528E-01  0.2228E+01
     -3.817  0.5213E-01  0.2240E+01
     -3.595  0.3519E-01  0.2247E+01
     -3.373  0.6895E-01  0.2263E+01
     -3.150  0.1247E+00  0.2290E+01
     -2.928  0.1552E+00  0.2325E+01
     -2.706  0.2264E+00  0.2375E+01
     -2.484  0.2434E+00  0.2429E+01
     -2.262  0.2044E+00  0.2475E+01
     -2.039  0.2007E+00  0.2519E+01
     -1.817  0.1750E+00  0.2558E+01
     -1.595  0.1110E+00  0.2583E+01
     -1.373  0.5885E-01  0.2596E+01
     -1.151  0.1727E-01  0.2600E+01
     -0.928  0.1172E-02  0.2600E+01
     -0.706  0.4879E-06  0.2600E+01
     -0.484  0.2236E-13  0.2600E+01
     -0.262  0.0000E+00  0.2600E+01
     -0.040  0.0000E+00  0.2600E+01
      0.183  0.0000E+00  0.2600E+01
      0.405  0.1343E-09  0.2600E+01
      0.627  0.4364E-04  0.2600E+01
      0.849  0.3155E-02  0.2601E+01
      1.071  0.1982E-01  0.2605E+01
      1.294  0.6943E-01  0.2621E+01
      1.516  0.1013E+00  0.2643E+01
      1.738  0.1281E+00  0.2672E+01
      1.960  0.1601E+00  0.2707E+01
      2.182  0.2308E+00  0.2758E+01
      2.405  0.2857E+00  0.2822E+01
      2.627  0.2529E+00  0.2878E+01
      2.849  0.2806E+00  0.2940E+01
      3.071  0.3746E+00  0.3024E+01
      3.293  0.3842E+00  0.3109E+01
      3.515  0.4189E+00  0.3202E+01
      3.738  0.5366E+00  0.3321E+01
      3.960  0.6472E+00  0.3465E+01
      4.182  0.6525E+00  0.3610E+01
      4.404  0.6498E+00  0.3754E+01
      4.626  0.6567E+00  0.3900E+01
      4.849  0.6032E+00  0.4034E+01
      5.071  0.4781E+00  0.4141E+01
      5.293  0.3974E+00  0.4229E+01
      5.515  0.3391E+00  0.4304E+01
      5.737  0.2858E+00  0.4368E+01
      5.960  0.2189E+00  0.4416E+01
      6.182  0.1997E+00  0.4461E+01
      6.404  0.1683E+00  0.4498E+01
      6.626  0.8762E-01  0.4518E+01
      6.848  0.1068E+00  0.4541E+01
      7.071  0.1724E+00  0.4580E+01
      7.293  0.1764E+00  0.4619E+01
      7.515  0.1469E+00  0.4652E+01
      7.737  0.1616E+00  0.4687E+01
      7.959  0.2028E+00  0.4733E+01
      8.182  0.2099E+00  0.4779E+01
      8.404  0.1724E+00  0.4817E+01
      8.626  0.1933E+00  0.4860E+01
      8.848  0.2191E+00  0.4909E+01
      9.070  0.2294E+00  0.4960E+01
      9.293  0.2935E+00  0.5025E+01
      9.515  0.3293E+00  0.5098E+01
      9.737  0.3604E+00  0.5179E+01
      9.959  0.4051E+00  0.5269E+01
     10.181  0.4342E+00  0.5365E+01
     10.404  0.5016E+00  0.5476E+01
     10.626  0.5431E+00  0.5597E+01
     10.848  0.5690E+00  0.5724E+01
     11.070  0.5893E+00  0.5855E+01
     11.292  0.5684E+00  0.5981E+01
     11.515  0.4762E+00  0.6087E+01
     11.737  0.2777E+00  0.6148E+01
     11.959  0.5212E-01  0.6160E+01
     12.181  0.4237E-03  0.6160E+01
     12.403  0.1793E-08  0.6160E+01
     12.625  0.0000E+00  0.6160E+01
     12.848  0.0000E+00  0.6160E+01
     13.070  0.0000E+00  0.6160E+01
     13.292  0.0000E+00  0.6160E+01
     13.514  0.0000E+00  0.6160E+01
     13.736  0.0000E+00  0.6160E+01
     13.959  0.0000E+00  0.6160E+01
     14.181  0.0000E+00  0.6160E+01
     14.403  0.0000E+00  0.6160E+01
     14.625  0.0000E+00  0.6160E+01
     14.847  0.0000E+00  0.6160E+01
