HECN                                    
           1
     8.907570   -0.015009    0.026946
    -0.015052    8.931229    0.009836
     0.026797    0.009756    8.872903
   Ti   Mo   Nb   N    C    Zr   W 
     7     6     6    13    19     7     6
Direct configuration=     1
   0.99540920  0.00212602  0.00366220
   0.24224995  0.99904346  0.24916424
   0.25886670  0.49815681  0.25415313
   0.49782875  0.49896264  0.00097182
   0.49515839  0.25876210  0.75345779
   0.00641735  0.49632076  0.49626948
   0.50343787  0.74212941  0.75042441
   0.00129476  0.23236996  0.27007939
   0.77008334  0.75297059  0.98965849
   0.02127255  0.27465117  0.75204335
   0.75808153  0.27749223  0.47544636
   0.99019635  0.72479947  0.74963700
   0.26043974  0.49607448  0.74682344
   0.25637356  0.25848467  0.99413047
   0.50551853  0.25773262  0.24745938
   0.75975313  0.98766055  0.24440364
   0.73705575  0.25445988  0.99767779
   0.23658009  0.73931885  0.00121162
   0.24092211  0.24990348  0.50559075
   0.25103924  0.24782168  0.25107056
   0.24564820  0.00169790  0.00683696
   0.99922793  0.24067262  0.00596639
   0.76069393  0.24567396  0.24096017
   0.75788295  0.00477357  0.99755764
   0.50112364  0.00446167  0.24706589
   0.99796110  0.49656365  0.26159670
   0.49462104  0.74756674  0.98992288
   0.00021615  0.00508014  0.74917898
   0.74507986  0.25762446  0.75004746
   0.75645409  0.99647879  0.49105198
   0.50022023  0.25432717  0.50380641
   0.50241068  0.00202008  0.74887324
   0.00547422  0.99697945  0.24419874
   0.49799379  0.25845832  0.99594871
   0.24401750  0.74977241  0.24596536
   0.25325741  0.49948382  0.00453279
   0.99968128  0.75486402  0.00169839
   0.75619039  0.74032634  0.25083221
   0.74065923  0.50657348  0.00782443
   0.49348067  0.49758247  0.24904245
   0.25707549  0.25171784  0.74899982
   0.24597928  0.00359408  0.49228652
   0.98888464  0.25144762  0.51550848
   0.24851806  0.74337664  0.75560067
   0.25116432  0.49471917  0.49654038
   0.99125832  0.75448847  0.50133301
   0.99730028  0.49836849  0.74723330
   0.74417217  0.74660730  0.74584900
   0.75324324  0.49994187  0.50550954
   0.50546144  0.74352760  0.50580354
   0.50222900  0.50106731  0.75046257
   0.50175033  0.00225130  0.99842101
   0.99634068  0.49552238  0.01084745
   0.49993236  0.74574271  0.24554320
   0.24311627  0.99702291  0.75273199
   0.49896206  0.00095013  0.49806264
   0.75892735  0.00209889  0.74336407
   0.24660880  0.74833648  0.50137444
   0.00266179  0.76345162  0.25451912
   0.73194197  0.49540360  0.24761749
   0.00990680  0.01080377  0.48657833
   0.49281324  0.50334363  0.49964593
   0.73888647  0.51073797  0.77027791
   0.75259317  0.72525699  0.49964718
HECN                                    
           1
     8.838340   -0.015047    0.026600
    -0.015094    8.859681    0.009869
     0.026464    0.009790    8.800270
   Ti   Mo   Nb   N    C    Zr   W 
     7     6     6    13    19     7     6
Direct configuration=     2
   0.99546199  0.00204355  0.00365293
   0.24220422  0.99901803  0.24926883
   0.25885823  0.49820167  0.25416630
   0.49787657  0.49890136  0.00101078
   0.49517872  0.25878474  0.75354366
   0.00636036  0.49628968  0.49634627
   0.50346286  0.74211676  0.75037602
   0.00132637  0.23231527  0.27014166
   0.76998437  0.75298744  0.98971036
   0.02131373  0.27458019  0.75196130
   0.75795504  0.27741091  0.47537950
   0.99022082  0.72470519  0.74960570
   0.26041714  0.49605939  0.74673782
   0.25640817  0.25857546  0.99401643
   0.50556816  0.25785716  0.24728551
   0.75979985  0.98770426  0.24435089
   0.73686937  0.25451498  0.99766678
   0.23657882  0.73927464  0.00117449
   0.24091483  0.24991023  0.50561560
   0.25103457  0.24788179  0.25108763
   0.24561760  0.00168956  0.00682890
   0.99919321  0.24069860  0.00594657
   0.76081079  0.24570602  0.24105305
   0.75789338  0.00480484  0.99748529
   0.50108133  0.00445050  0.24706869
   0.99792390  0.49655529  0.26157760
   0.49460824  0.74750463  0.98998703
   0.00023107  0.00507303  0.74917032
   0.74514922  0.25765219  0.74988880
   0.75648198  0.99641385  0.49113136
   0.50029707  0.25438446  0.50386733
   0.50241859  0.00197708  0.74886959
   0.00550576  0.99696939  0.24427098
   0.49802044  0.25845249  0.99592285
   0.24397973  0.74977218  0.24595392
   0.25320185  0.49946588  0.00449087
   0.99962475  0.75482559  0.00170650
   0.75624990  0.74039727  0.25086239
   0.74067956  0.50665286  0.00784229
   0.49355764  0.49755395  0.24910596
   0.25709094  0.25171932  0.74895990
   0.24597531  0.00359302  0.49232107
   0.98878334  0.25134736  0.51552786
   0.24849714  0.74337746  0.75557968
   0.25115953  0.49475180  0.49655335
   0.99127339  0.75440362  0.50125590
   0.99725143  0.49844642  0.74722025
   0.74420116  0.74656520  0.74587571
   0.75320082  0.50010286  0.50555108
   0.50544747  0.74353190  0.50582348
   0.50223993  0.50104297  0.75045849
   0.50169206  0.00223208  0.99845416
   0.99628997  0.49553048  0.01079704
   0.49993811  0.74575056  0.24561819
   0.24320439  0.99704565  0.75268553
   0.49895996  0.00091757  0.49805144
   0.75894158  0.00209981  0.74340446
   0.24663332  0.74836203  0.50137179
   0.00265239  0.76350438  0.25454189
   0.73199583  0.49542922  0.24758415
   0.00994842  0.01073871  0.48660704
   0.49278070  0.50335565  0.49971647
   0.73893557  0.51081191  0.77024444
   0.75258771  0.72520832  0.49966854
HECN                                    
           1
     8.888993   -0.015019    0.026853
    -0.015063    8.912030    0.009845
     0.026708    0.009765    8.853413
   Ti   Mo   Nb   N    C    Zr   W 
     7     6     6    13    19     7     6
Direct configuration=     3
   0.99542306  0.00210438  0.00365977
   0.24223794  0.99903679  0.24919168
   0.25886447  0.49816858  0.25415658
   0.49784131  0.49894656  0.00098204
   0.49516373  0.25876804  0.75348031
   0.00640238  0.49631261  0.49628962
   0.50344443  0.74212609  0.75041172
   0.00130306  0.23235561  0.27009572
   0.77005735  0.75297501  0.98967210
   0.02128336  0.27463254  0.75202183
   0.75804832  0.27747089  0.47542883
   0.99020278  0.72477473  0.74962879
   0.26043381  0.49607052  0.74680098
   0.25638265  0.25850849  0.99410056
   0.50553157  0.25776530  0.24741378
   0.75976540  0.98767202  0.24438980
   0.73700680  0.25447434  0.99767490
   0.23657975  0.73930725  0.00120188
   0.24092020  0.24990525  0.50559727
   0.25103802  0.24783746  0.25107504
   0.24564016  0.00169571  0.00683484
   0.99921881  0.24067944  0.00596119
   0.76072461  0.24568237  0.24098453
   0.75788569  0.00478177  0.99753866
   0.50111253  0.00445874  0.24706663
   0.99795133  0.49656146  0.26159169
   0.49461768  0.74755044  0.98993971
   0.00022007  0.00507828  0.74917671
   0.74509808  0.25763173  0.75000584
   0.75646142  0.99646175  0.49107280
   0.50024040  0.25434220  0.50382239
   0.50241276  0.00200880  0.74887229
   0.00548250  0.99697681  0.24421769
   0.49800079  0.25845679  0.99594193
   0.24400758  0.74977235  0.24596236
   0.25324282  0.49947911  0.00452179
   0.99966643  0.75485394  0.00170052
   0.75620602  0.74034496  0.25084012
   0.74066456  0.50659431  0.00782911
   0.49350088  0.49757498  0.24905911
   0.25707955  0.25171823  0.74898935
   0.24597824  0.00359380  0.49229558
   0.98885804  0.25142131  0.51551356
   0.24851257  0.74337686  0.75559517
   0.25116306  0.49472773  0.49654378
   0.99126228  0.75446620  0.50131278
   0.99728745  0.49838894  0.74722988
   0.74417978  0.74659625  0.74585600
   0.75323210  0.49998412  0.50552044
   0.50545777  0.74352873  0.50580877
   0.50223187  0.50106092  0.75046150
   0.50173503  0.00224626  0.99842971
   0.99632736  0.49552451  0.01083423
   0.49993387  0.74574477  0.24556287
   0.24313941  0.99702887  0.75271980
   0.49896151  0.00094158  0.49805970
   0.75893109  0.00209913  0.74337466
   0.24661524  0.74834318  0.50137375
   0.00265932  0.76346547  0.25452509
   0.73195612  0.49541032  0.24760874
   0.00991773  0.01078670  0.48658586
   0.49280469  0.50334679  0.49966443
   0.73889936  0.51075737  0.77026913
   0.75259174  0.72524422  0.49965278
HECN                                    
           1
     8.889289   -0.015019    0.026855
    -0.015063    8.912336    0.009845
     0.026709    0.009765    8.853724
   Ti   Mo   Nb   N    C    Zr   W 
     7     6     6    13    19     7     6
Direct configuration=     4
   0.99542284  0.00210473  0.00365980
   0.24223813  0.99903690  0.24919123
   0.25886451  0.49816839  0.25415653
   0.49784110  0.49894682  0.00098187
   0.49516364  0.25876794  0.75347994
   0.00640263  0.49631274  0.49628930
   0.50344432  0.74212615  0.75041193
   0.00130292  0.23235585  0.27009546
   0.77005777  0.75297494  0.98967187
   0.02128319  0.27463285  0.75202218
   0.75804886  0.27747124  0.47542911
   0.99020268  0.72477513  0.74962893
   0.26043390  0.49607059  0.74680135
   0.25638250  0.25850810  0.99410105
   0.50553135  0.25776477  0.24741452
   0.75976520  0.98767183  0.24439003
   0.73700760  0.25447410  0.99767495
   0.23657976  0.73930744  0.00120204
   0.24092023  0.24990522  0.50559717
   0.25103804  0.24783720  0.25107497
   0.24564029  0.00169575  0.00683488
   0.99921896  0.24067933  0.00596127
   0.76072411  0.24568224  0.24098413
   0.75788564  0.00478164  0.99753897
   0.50111271  0.00445879  0.24706662
   0.99795149  0.49656149  0.26159177
   0.49461773  0.74755071  0.98993943
   0.00022000  0.00507831  0.74917675
   0.74509778  0.25763161  0.75000652
   0.75646130  0.99646203  0.49107246
   0.50024007  0.25434196  0.50382212
   0.50241272  0.00200898  0.74887230
   0.00548236  0.99697685  0.24421738
   0.49800068  0.25845682  0.99594204
   0.24400774  0.74977235  0.24596241
   0.25324306  0.49947919  0.00452197
   0.99966667  0.75485410  0.00170048
   0.75620576  0.74034465  0.25083999
   0.74066448  0.50659397  0.00782904
   0.49350055  0.49757510  0.24905884
   0.25707948  0.25171822  0.74898952
   0.24597826  0.00359380  0.49229543
   0.98885848  0.25142174  0.51551348
   0.24851266  0.74337685  0.75559526
   0.25116308  0.49472759  0.49654372
   0.99126221  0.75446657  0.50131311
   0.99728766  0.49838861  0.74722993
   0.74417966  0.74659643  0.74585589
   0.75323228  0.49998343  0.50552026
   0.50545783  0.74352871  0.50580869
   0.50223182  0.50106103  0.75046152
   0.50173528  0.00224634  0.99842956
   0.99632758  0.49552447  0.01083445
   0.49993384  0.74574474  0.24556254
   0.24313903  0.99702878  0.75272000
   0.49896152  0.00094172  0.49805975
   0.75893103  0.00209913  0.74337449
   0.24661514  0.74834307  0.50137376
   0.00265936  0.76346524  0.25452499
   0.73195589  0.49541021  0.24760889
   0.00991755  0.01078698  0.48658574
   0.49280483  0.50334673  0.49966413
   0.73889915  0.51075706  0.77026927
   0.75259176  0.72524443  0.49965269
HECN                                    
           1
     8.898430   -0.015014    0.026900
    -0.015057    8.921782    0.009841
     0.026753    0.009761    8.863313
   Ti   Mo   Nb   N    C    Zr   W 
     7     6     6    13    19     7     6
Direct configuration=     5
   0.99541585  0.00211565  0.00366103
   0.24224418  0.99904026  0.24917739
   0.25886563  0.49816245  0.25415478
   0.49783478  0.49895493  0.00097671
   0.49516095  0.25876495  0.75346858
   0.00641017  0.49631686  0.49627914
   0.50344102  0.74212782  0.75041833
   0.00129874  0.23236308  0.27008722
   0.77007087  0.75297271  0.98966501
   0.02127774  0.27464224  0.75203303
   0.75806560  0.27748200  0.47543796
   0.99019944  0.72478761  0.74963307
   0.26043689  0.49607258  0.74681268
   0.25637792  0.25849609  0.99411614
   0.50552479  0.25774829  0.24743753
   0.75975902  0.98766605  0.24439701
   0.73703226  0.25446681  0.99767640
   0.23657993  0.73931329  0.00120696
   0.24092119  0.24990433  0.50559388
   0.25103865  0.24782924  0.25107271
   0.24564434  0.00169685  0.00683595
   0.99922355  0.24067589  0.00596390
   0.76070865  0.24567800  0.24097185
   0.75788426  0.00477750  0.99754855
   0.50111830  0.00446027  0.24706625
   0.99795641  0.49656260  0.26159430
   0.49461942  0.74755892  0.98993094
   0.00021803  0.00507925  0.74917789
   0.74508861  0.25762794  0.75002752
   0.75645761  0.99647062  0.49106195
   0.50022991  0.25433437  0.50381406
   0.50241168  0.00201467  0.74887278
   0.00547819  0.99697818  0.24420782
   0.49799715  0.25845759  0.99594546
   0.24401274  0.74977238  0.24596393
   0.25325041  0.49948156  0.00452752
   0.99967415  0.75485919  0.00169941
   0.75619789  0.74033527  0.25083600
   0.74066179  0.50658347  0.00782667
   0.49349037  0.49757888  0.24905043
   0.25707744  0.25171803  0.74899481
   0.24597878  0.00359394  0.49229086
   0.98887188  0.25143501  0.51551092
   0.24851542  0.74337674  0.75559803
   0.25116371  0.49472327  0.49654201
   0.99126022  0.75447779  0.50132332
   0.99729412  0.49837830  0.74723166
   0.74417582  0.74660200  0.74585235
   0.75323789  0.49996213  0.50551476
   0.50545968  0.74352814  0.50580605
   0.50223037  0.50106425  0.75046205
   0.50174299  0.00224889  0.99842518
   0.99633429  0.49552340  0.01084112
   0.49993308  0.74574370  0.24555262
   0.24312738  0.99702577  0.75272615
   0.49896180  0.00094603  0.49806123
   0.75892914  0.00209901  0.74336915
   0.24661189  0.74833969  0.50137411
   0.00266060  0.76345826  0.25452198
   0.73194876  0.49540683  0.24761330
   0.00991205  0.01079558  0.48658194
   0.49280914  0.50334514  0.49965480
   0.73889265  0.51074728  0.77027370
   0.75259248  0.72525086  0.49964986
HECN                                    
           1
     8.889831   -0.015018    0.026857
    -0.015063    8.912896    0.009845
     0.026712    0.009765    8.854292
   Ti   Mo   Nb   N    C    Zr   W 
     7     6     6    13    19     7     6
Direct configuration=     6
   0.99542242  0.00210539  0.00365988
   0.24223850  0.99903710  0.24919039
   0.25886458  0.49816803  0.25415642
   0.49784072  0.49894731  0.00098156
   0.49516348  0.25876776  0.75347926
   0.00640308  0.49631299  0.49628868
   0.50344412  0.74212625  0.75041231
   0.00130267  0.23235628  0.27009496
   0.77005856  0.75297480  0.98967146
   0.02128286  0.27463341  0.75202283
   0.75804987  0.27747189  0.47542965
   0.99020248  0.72477588  0.74962918
   0.26043408  0.49607071  0.74680203
   0.25638223  0.25850738  0.99410196
   0.50553096  0.25776378  0.24741591
   0.75976483  0.98767148  0.24439045
   0.73700908  0.25447366  0.99767504
   0.23657977  0.73930779  0.00120234
   0.24092029  0.24990517  0.50559697
   0.25103807  0.24783672  0.25107483
   0.24564054  0.00169581  0.00683494
   0.99921923  0.24067912  0.00596143
   0.76072318  0.24568198  0.24098339
   0.75788556  0.00478139  0.99753955
   0.50111304  0.00445888  0.24706659
   0.99795178  0.49656156  0.26159192
   0.49461783  0.74755120  0.98993892
   0.00021989  0.00507836  0.74917682
   0.74509723  0.25763139  0.75000779
   0.75646108  0.99646254  0.49107182
   0.50023946  0.25434150  0.50382164
   0.50241266  0.00200932  0.74887233
   0.00548211  0.99697693  0.24421680
   0.49800046  0.25845686  0.99594225
   0.24400804  0.74977235  0.24596250
   0.25324350  0.49947933  0.00452231
   0.99966713  0.75485441  0.00170042
   0.75620529  0.74034409  0.25083975
   0.74066431  0.50659334  0.00782889
   0.49349994  0.49757533  0.24905833
   0.25707936  0.25171821  0.74898984
   0.24597829  0.00359381  0.49229516
   0.98885928  0.25142254  0.51551333
   0.24851282  0.74337685  0.75559542
   0.25116312  0.49472733  0.49654362
   0.99126209  0.75446724  0.50131373
   0.99728805  0.49838799  0.74723004
   0.74417943  0.74659677  0.74585568
   0.75323262  0.49998215  0.50551993
   0.50545794  0.74352867  0.50580853
   0.50223173  0.50106122  0.75046155
   0.50173574  0.00224650  0.99842930
   0.99632798  0.49552441  0.01083485
   0.49993380  0.74574467  0.24556195
   0.24313833  0.99702860  0.75272037
   0.49896153  0.00094198  0.49805984
   0.75893091  0.00209912  0.74337417
   0.24661494  0.74834287  0.50137378
   0.00265943  0.76346482  0.25452481
   0.73195546  0.49541001  0.24760915
   0.00991722  0.01078749  0.48658551
   0.49280509  0.50334664  0.49966357
   0.73889876  0.51075647  0.77026954
   0.75259181  0.72524481  0.49965252
HECN                                    
           1
     8.889622   -0.015018    0.026856
    -0.015063    8.912680    0.009845
     0.026711    0.009765    8.854073
   Ti   Mo   Nb   N    C    Zr   W 
     7     6     6    13    19     7     6
Direct configuration=     7
   0.99542258  0.00210514  0.00365985
   0.24223836  0.99903702  0.24919071
   0.25886455  0.49816816  0.25415646
   0.49784087  0.49894712  0.00098168
   0.49516354  0.25876783  0.75347952
   0.00640291  0.49631290  0.49628892
   0.50344420  0.74212621  0.75041217
   0.00130277  0.23235612  0.27009515
   0.77005826  0.75297486  0.98967162
   0.02128298  0.27463320  0.75202258
   0.75804949  0.27747164  0.47542944
   0.99020255  0.72477560  0.74962908
   0.26043402  0.49607066  0.74680177
   0.25638233  0.25850766  0.99410161
   0.50553111  0.25776415  0.24741538
   0.75976497  0.98767162  0.24439029
   0.73700852  0.25447383  0.99767500
   0.23657977  0.73930765  0.00120223
   0.24092026  0.24990519  0.50559704
   0.25103806  0.24783690  0.25107488
   0.24564044  0.00169579  0.00683492
   0.99921913  0.24067920  0.00596137
   0.76072354  0.24568208  0.24098368
   0.75788559  0.00478149  0.99753933
   0.50111292  0.00445885  0.24706660
   0.99795167  0.49656153  0.26159186
   0.49461780  0.74755101  0.98993911
   0.00021993  0.00507834  0.74917679
   0.74509744  0.25763148  0.75000731
   0.75646116  0.99646235  0.49107206
   0.50023969  0.25434167  0.50382182
   0.50241268  0.00200919  0.74887232
   0.00548221  0.99697690  0.24421702
   0.49800054  0.25845684  0.99594217
   0.24400793  0.74977235  0.24596247
   0.25324334  0.49947928  0.00452218
   0.99966695  0.75485429  0.00170044
   0.75620547  0.74034430  0.25083985
   0.74066438  0.50659358  0.00782895
   0.49350017  0.49757525  0.24905852
   0.25707941  0.25171822  0.74898972
   0.24597828  0.00359381  0.49229526
   0.98885898  0.25142224  0.51551339
   0.24851276  0.74337685  0.75559536
   0.25116310  0.49472743  0.49654366
   0.99126214  0.75446699  0.50131350
   0.99728790  0.49838822  0.74723000
   0.74417951  0.74659664  0.74585576
   0.75323249  0.49998263  0.50552005
   0.50545790  0.74352869  0.50580859
   0.50223177  0.50106115  0.75046154
   0.50173557  0.00224644  0.99842940
   0.99632783  0.49552443  0.01083470
   0.49993381  0.74574470  0.24556217
   0.24313860  0.99702866  0.75272023
   0.49896153  0.00094189  0.49805980
   0.75893096  0.00209912  0.74337429
   0.24661502  0.74834295  0.50137377
   0.00265940  0.76346498  0.25452488
   0.73195562  0.49541009  0.24760905
   0.00991735  0.01078730  0.48658560
   0.49280500  0.50334667  0.49966378
   0.73889891  0.51075669  0.77026944
   0.75259179  0.72524467  0.49965259
HECN                                    
           1
     8.889456   -0.015019    0.026856
    -0.015063    8.912508    0.009845
     0.026710    0.009765    8.853898
   Ti   Mo   Nb   N    C    Zr   W 
     7     6     6    13    19     7     6
Direct configuration=     8
   0.99542270  0.00210494  0.00365983
   0.24223825  0.99903696  0.24919096
   0.25886453  0.49816827  0.25415649
   0.49784098  0.49894698  0.00098177
   0.49516359  0.25876789  0.75347972
   0.00640277  0.49631282  0.49628910
   0.50344426  0.74212618  0.75041205
   0.00130284  0.23235598  0.27009530
   0.77005802  0.75297490  0.98967174
   0.02128308  0.27463303  0.75202239
   0.75804918  0.27747144  0.47542928
   0.99020261  0.72477537  0.74962901
   0.26043396  0.49607062  0.74680157
   0.25638241  0.25850787  0.99410134
   0.50553123  0.25776445  0.24741496
   0.75976508  0.98767172  0.24439016
   0.73700807  0.25447396  0.99767498
   0.23657976  0.73930755  0.00120214
   0.24092025  0.24990521  0.50559710
   0.25103805  0.24783704  0.25107492
   0.24564037  0.00169577  0.00683490
   0.99921905  0.24067926  0.00596133
   0.76072382  0.24568216  0.24098390
   0.75788562  0.00478156  0.99753916
   0.50111281  0.00445882  0.24706661
   0.99795158  0.49656151  0.26159182
   0.49461776  0.74755086  0.98993927
   0.00021997  0.00507832  0.74917677
   0.74509761  0.25763154  0.75000693
   0.75646123  0.99646219  0.49107226
   0.50023988  0.25434181  0.50382197
   0.50241270  0.00200909  0.74887231
   0.00548228  0.99697688  0.24421719
   0.49800061  0.25845683  0.99594211
   0.24400784  0.74977235  0.24596244
   0.25324320  0.49947924  0.00452208
   0.99966682  0.75485420  0.00170046
   0.75620561  0.74034447  0.25083992
   0.74066443  0.50659377  0.00782899
   0.49350036  0.49757518  0.24905867
   0.25707944  0.25171822  0.74898963
   0.24597827  0.00359381  0.49229534
   0.98885873  0.25142200  0.51551343
   0.24851271  0.74337685  0.75559531
   0.25116309  0.49472751  0.49654369
   0.99126217  0.75446678  0.50131331
   0.99728778  0.49838841  0.74722997
   0.74417958  0.74659654  0.74585582
   0.75323239  0.49998302  0.50552015
   0.50545786  0.74352870  0.50580863
   0.50223179  0.50106109  0.75046153
   0.50173543  0.00224639  0.99842948
   0.99632771  0.49552445  0.01083458
   0.49993383  0.74574472  0.24556235
   0.24313881  0.99702872  0.75272012
   0.49896152  0.00094181  0.49805978
   0.75893099  0.00209913  0.74337439
   0.24661507  0.74834301  0.50137377
   0.00265938  0.76346511  0.25452494
   0.73195575  0.49541015  0.24760897
   0.00991745  0.01078714  0.48658567
   0.49280492  0.50334670  0.49966395
   0.73889903  0.51075687  0.77026936
   0.75259178  0.72524455  0.49965264
HECN                                    
           1
     8.889373   -0.015019    0.026855
    -0.015063    8.912422    0.009845
     0.026710    0.009765    8.853811
   Ti   Mo   Nb   N    C    Zr   W 
     7     6     6    13    19     7     6
Direct configuration=     9
   0.99542277  0.00210484  0.00365982
   0.24223819  0.99903693  0.24919109
   0.25886452  0.49816833  0.25415651
   0.49784104  0.49894690  0.00098182
   0.49516361  0.25876791  0.75347983
   0.00640271  0.49631278  0.49628919
   0.50344429  0.74212616  0.75041199
   0.00130288  0.23235592  0.27009537
   0.77005791  0.75297492  0.98967180
   0.02128313  0.27463294  0.75202229
   0.75804903  0.27747135  0.47542920
   0.99020264  0.72477526  0.74962897
   0.26043393  0.49607061  0.74680146
   0.25638246  0.25850798  0.99410120
   0.50553129  0.25776460  0.24741475
   0.75976514  0.98767177  0.24439010
   0.73700785  0.25447403  0.99767496
   0.23657976  0.73930749  0.00120209
   0.24092024  0.24990521  0.50559713
   0.25103804  0.24783712  0.25107494
   0.24564033  0.00169576  0.00683489
   0.99921900  0.24067929  0.00596130
   0.76072396  0.24568219  0.24098401
   0.75788563  0.00478160  0.99753907
   0.50111276  0.00445880  0.24706661
   0.99795154  0.49656150  0.26159179
   0.49461775  0.74755079  0.98993935
   0.00021998  0.00507832  0.74917676
   0.74509769  0.25763158  0.75000674
   0.75646126  0.99646211  0.49107235
   0.50023997  0.25434188  0.50382204
   0.50241271  0.00200904  0.74887231
   0.00548232  0.99697687  0.24421728
   0.49800064  0.25845682  0.99594208
   0.24400779  0.74977235  0.24596243
   0.25324314  0.49947921  0.00452203
   0.99966675  0.75485415  0.00170047
   0.75620568  0.74034456  0.25083995
   0.74066445  0.50659386  0.00782901
   0.49350045  0.49757514  0.24905875
   0.25707946  0.25171822  0.74898958
   0.24597826  0.00359380  0.49229538
   0.98885861  0.25142188  0.51551346
   0.24851268  0.74337685  0.75559528
   0.25116309  0.49472755  0.49654371
   0.99126219  0.75446668  0.50131322
   0.99728772  0.49838851  0.74722995
   0.74417962  0.74659649  0.74585585
   0.75323234  0.49998322  0.50552020
   0.50545785  0.74352870  0.50580866
   0.50223181  0.50106106  0.75046152
   0.50173536  0.00224637  0.99842952
   0.99632765  0.49552446  0.01083451
   0.49993384  0.74574473  0.24556244
   0.24313892  0.99702875  0.75272006
   0.49896152  0.00094177  0.49805976
   0.75893101  0.00209913  0.74337444
   0.24661510  0.74834304  0.50137376
   0.00265937  0.76346517  0.25452496
   0.73195581  0.49541018  0.24760893
   0.00991750  0.01078706  0.48658570
   0.49280488  0.50334672  0.49966404
   0.73889908  0.51075696  0.77026932
   0.75259177  0.72524449  0.49965266
HECN                                    
           1
     8.889331   -0.015019    0.026855
    -0.015063    8.912379    0.009845
     0.026710    0.009765    8.853767
   Ti   Mo   Nb   N    C    Zr   W 
     7     6     6    13    19     7     6
Direct configuration=    10
   0.99542280  0.00210479  0.00365981
   0.24223817  0.99903692  0.24919115
   0.25886452  0.49816835  0.25415652
   0.49784107  0.49894687  0.00098184
   0.49516363  0.25876793  0.75347988
   0.00640267  0.49631277  0.49628924
   0.50344431  0.74212616  0.75041196
   0.00130290  0.23235589  0.27009541
   0.77005785  0.75297493  0.98967184
   0.02128316  0.27463290  0.75202224
   0.75804895  0.27747130  0.47542916
   0.99020266  0.72477520  0.74962895
   0.26043392  0.49607060  0.74680141
   0.25638248  0.25850804  0.99410113
   0.50553132  0.25776468  0.24741465
   0.75976517  0.98767180  0.24439007
   0.73700774  0.25447406  0.99767496
   0.23657976  0.73930747  0.00120207
   0.24092023  0.24990522  0.50559715
   0.25103804  0.24783715  0.25107496
   0.24564032  0.00169575  0.00683489
   0.99921898  0.24067931  0.00596129
   0.76072403  0.24568221  0.24098407
   0.75788563  0.00478162  0.99753903
   0.50111274  0.00445880  0.24706661
   0.99795151  0.49656150  0.26159178
   0.49461774  0.74755075  0.98993939
   0.00021999  0.00507831  0.74917675
   0.74509773  0.25763159  0.75000664
   0.75646128  0.99646207  0.49107240
   0.50024002  0.25434191  0.50382208
   0.50241272  0.00200901  0.74887230
   0.00548234  0.99697686  0.24421733
   0.49800066  0.25845682  0.99594206
   0.24400777  0.74977235  0.24596242
   0.25324310  0.49947920  0.00452200
   0.99966672  0.75485413  0.00170048
   0.75620572  0.74034460  0.25083997
   0.74066446  0.50659391  0.00782902
   0.49350050  0.49757513  0.24905879
   0.25707947  0.25171822  0.74898955
   0.24597826  0.00359380  0.49229541
   0.98885855  0.25142182  0.51551347
   0.24851267  0.74337685  0.75559527
   0.25116308  0.49472757  0.49654371
   0.99126220  0.75446663  0.50131317
   0.99728769  0.49838855  0.74722994
   0.74417964  0.74659646  0.74585587
   0.75323231  0.49998331  0.50552023
   0.50545784  0.74352870  0.50580867
   0.50223181  0.50106104  0.75046152
   0.50173532  0.00224636  0.99842954
   0.99632762  0.49552447  0.01083448
   0.49993384  0.74574473  0.24556249
   0.24313897  0.99702876  0.75272003
   0.49896152  0.00094175  0.49805976
   0.75893102  0.00209913  0.74337446
   0.24661512  0.74834305  0.50137376
   0.00265936  0.76346520  0.25452498
   0.73195585  0.49541020  0.24760891
   0.00991752  0.01078702  0.48658572
   0.49280486  0.50334673  0.49966408
   0.73889911  0.51075700  0.77026930
   0.75259177  0.72524446  0.49965268
HECN                                    
           1
     8.889173   -0.015330    0.026922
    -0.015377    8.911405    0.009937
     0.026780    0.009856    8.852291
   Ti   Mo   Nb   N    C    Zr   W 
     7     6     6    13    19     7     6
Direct configuration=    11
   0.99554214  0.00203012  0.00353588
   0.24236476  0.99903856  0.24922496
   0.25871183  0.49819487  0.25413241
   0.49784914  0.49898287  0.00100490
   0.49524597  0.25866116  0.75347408
   0.00634716  0.49635382  0.49639929
   0.50339392  0.74225306  0.75038466
   0.00140294  0.23252173  0.26992422
   0.76971416  0.75306996  0.98980912
   0.02110267  0.27430444  0.75209093
   0.75775794  0.27709409  0.47563544
   0.99032358  0.72502756  0.74961061
   0.26032069  0.49611053  0.74676688
   0.25623511  0.25839122  0.99418564
   0.50552777  0.25764861  0.24740632
   0.75960512  0.98786327  0.24436286
   0.73713055  0.25442998  0.99765008
   0.23674864  0.73944508  0.00117699
   0.24105387  0.24990111  0.50548311
   0.25105136  0.24788489  0.25106117
   0.24556632  0.00166940  0.00687957
   0.99917599  0.24065866  0.00597974
   0.76078118  0.24566540  0.24094462
   0.75790084  0.00480553  0.99747612
   0.50103082  0.00446555  0.24708447
   0.99793738  0.49655375  0.26160207
   0.49465101  0.74745384  0.98995457
   0.00025085  0.00505832  0.74918378
   0.74519498  0.25767496  0.74975619
   0.75648538  0.99643115  0.49113068
   0.50030275  0.25438265  0.50391285
   0.50240412  0.00197048  0.74886117
   0.00555303  0.99699525  0.24415555
   0.49797397  0.25847705  0.99588196
   0.24404958  0.74976736  0.24597710
   0.25323838  0.49947095  0.00451309
   0.99968900  0.75486993  0.00169311
   0.75621065  0.74040009  0.25080071
   0.74063938  0.50666129  0.00786774
   0.49345034  0.49760126  0.24904488
   0.25721183  0.25166205  0.74896012
   0.24607488  0.00356257  0.49229532
   0.98882026  0.25141760  0.51556626
   0.24852670  0.74338730  0.75555694
   0.25107062  0.49477295  0.49651033
   0.99134673  0.75437419  0.50130252
   0.99726189  0.49843046  0.74717239
   0.74413959  0.74669444  0.74585545
   0.75323988  0.50003886  0.50561961
   0.50540791  0.74362493  0.50585263
   0.50219778  0.50103740  0.75051498
   0.50166988  0.00218275  0.99843199
   0.99630014  0.49551205  0.01078149
   0.49991940  0.74583453  0.24559451
   0.24330763  0.99703594  0.75269939
   0.49900176  0.00091601  0.49806734
   0.75883332  0.00213519  0.74339897
   0.24667011  0.74838803  0.50135963
   0.00267189  0.76328219  0.25449414
   0.73219745  0.49542226  0.24762228
   0.00982186  0.01058854  0.48683837
   0.49284432  0.50329052  0.49974147
   0.73904153  0.51062523  0.77008734
   0.75250805  0.72554489  0.49965768
HECN                                    
           1
     8.889100   -0.015474    0.026953
    -0.015522    8.910955    0.009979
     0.026813    0.009898    8.851609
   Ti   Mo   Nb   N    C    Zr   W 