 running on   24 total cores
 distrk:  each k-point on   24 cores,    1 groups
 distr:  one band on    1 cores,   24 groups
 using from now: INCAR     
 vasp.5.4.4.18Apr17-6-g9f103f2a35 (build Oct 18 2021 20:38:43) complex          
  
 POSCAR found type information on POSCAR  V  Nb Zr N  C  Cr W 
 POSCAR found :  7 types and      64 ions
 scaLAPACK will be used

 ----------------------------------------------------------------------------- 
|                                                                             |
|           W    W    AA    RRRRR   N    N  II  N    N   GGGG   !!!           |
|           W    W   A  A   R    R  NN   N  II  NN   N  G    G  !!!           |
|           W    W  A    A  R    R  N N  N  II  N N  N  G       !!!           |
|           W WW W  AAAAAA  RRRRR   N  N N  II  N  N N  G  GGG   !            |
|           WW  WW  A    A  R   R   N   NN  II  N   NN  G    G                |
|           W    W  A    A  R    R  N    N  II  N    N   GGGG   !!!           |
|                                                                             |
|      For optimal performance we recommend to set                            |
|        NCORE= 4 - approx SQRT( number of cores)                             |
|      NCORE specifies how many cores store one orbital (NPAR=cpu/NCORE).     |
|      This setting can  greatly improve the performance of VASP for DFT.     |
|      The default,   NCORE=1            might be grossly inefficient         |
|      on modern multi-core architectures or massively parallel machines.     |
|      Do your own testing !!!!                                               |
|      Unfortunately you need to use the default for GW and RPA calculations. |
|      (for HF NCORE is supported but not extensively tested yet)             |
|                                                                             |
 ----------------------------------------------------------------------------- 


 ----------------------------------------------------------------------------- 
|                                                                             |
|  ADVICE TO THIS USER RUNNING 'VASP/VAMP'   (HEAR YOUR MASTER'S VOICE ...):  |
|                                                                             |
|      You have a (more or less) 'large supercell' and for larger cells       |
|      it might be more efficient to use real space projection operators      |
|      So try LREAL= Auto  in the INCAR   file.                               |
|      Mind: If you want to do a very accurate calculations keep the          |
|      reciprocal projection scheme          (i.e. LREAL=.FALSE.)             |
|                                                                             |
 ----------------------------------------------------------------------------- 

 LDA part: xc-table for Pade appr. of Perdew
 POSCAR, INCAR and KPOINTS ok, starting setup
 FFT: planning ...
 WAVECAR not read
 entering main loop
       N       E                     dE             d eps       ncg     rms          rms(c)
DAV:   1     0.720120219010E+04    0.72012E+04   -0.22795E+05  9672   0.153E+03
DAV:   2     0.424011952702E+03   -0.67772E+04   -0.65393E+04  9552   0.632E+02
DAV:   3    -0.635623532491E+03   -0.10596E+04   -0.97895E+03 14664   0.217E+02
DAV:   4    -0.766436144556E+03   -0.13081E+03   -0.12668E+03 16704   0.925E+01
DAV:   5    -0.783364092595E+03   -0.16928E+02   -0.16547E+02 18792   0.288E+01    0.800E+01
RMM:   6    -0.938162939677E+03   -0.15480E+03   -0.25186E+03 12368   0.127E+02    0.132E+02
RMM:   7    -0.640469512934E+03    0.29769E+03   -0.26548E+02 13502   0.484E+01    0.517E+01
RMM:   8    -0.653428763734E+03   -0.12959E+02   -0.81282E+01 15223   0.165E+01    0.493E+01
RMM:   9    -0.637467192120E+03    0.15962E+02   -0.35179E+01 13970   0.156E+01    0.381E+01
RMM:  10    -0.629331539307E+03    0.81357E+01   -0.13439E+01 15209   0.818E+00    0.192E+01
RMM:  11    -0.628812806973E+03    0.51873E+00   -0.57809E+00 15396   0.537E+00    0.202E+01
RMM:  12    -0.627870143347E+03    0.94266E+00   -0.55813E+00 14601   0.512E+00    0.170E+01
RMM:  13    -0.627614107436E+03    0.25604E+00   -0.48541E+00 14881   0.482E+00    0.177E+01
RMM:  14    -0.627196702444E+03    0.41740E+00   -0.31422E+00 14793   0.374E+00    0.127E+01
RMM:  15    -0.626965040546E+03    0.23166E+00   -0.18581E+00 15033   0.288E+00    0.115E+01
RMM:  16    -0.626625555436E+03    0.33949E+00   -0.10429E+00 14625   0.247E+00    0.810E+00
RMM:  17    -0.627141620594E+03   -0.51607E+00   -0.78011E-01 14310   0.240E+00    0.131E+01
RMM:  18    -0.626421054716E+03    0.72057E+00   -0.44804E-01 14430   0.182E+00    0.431E+00
RMM:  19    -0.626501622720E+03   -0.80568E-01   -0.30652E-01 15047   0.123E+00    0.631E+00
RMM:  20    -0.626510537980E+03   -0.89153E-02   -0.32635E-01 14901   0.117E+00    0.545E+00
RMM:  21    -0.626406572021E+03    0.10397E+00   -0.20389E-01 14890   0.980E-01    0.266E+00
RMM:  22    -0.626410022614E+03   -0.34506E-02   -0.13493E-01 14786   0.668E-01    0.259E+00
RMM:  23    -0.626400885217E+03    0.91374E-02   -0.74607E-02 14859   0.551E-01    0.209E+00
RMM:  24    -0.626386085516E+03    0.14800E-01   -0.45042E-02 14816   0.426E-01    0.103E+00
RMM:  25    -0.626382818647E+03    0.32669E-02   -0.30833E-02 15183   0.283E-01    0.541E-01
RMM:  26    -0.626383357452E+03   -0.53881E-03   -0.13942E-02 14661   0.243E-01    0.508E-01
RMM:  27    -0.626382531282E+03    0.82617E-03   -0.15309E-02 15042   0.186E-01    0.158E-01
RMM:  28    -0.626382884511E+03   -0.35323E-03   -0.62389E-03 13502   0.145E-01    0.999E-02
RMM:  29    -0.626383127284E+03   -0.24277E-03   -0.36809E-03 13161   0.963E-02    0.696E-02
RMM:  30    -0.626383328510E+03   -0.20123E-03   -0.25529E-03 12631   0.675E-02    0.325E-02
RMM:  31    -0.626383463354E+03   -0.13484E-03   -0.16008E-03 11860   0.483E-02    0.162E-02
RMM:  32    -0.626383592040E+03   -0.12869E-03   -0.14312E-03 11417   0.373E-02    0.831E-03
RMM:  33    -0.626383635419E+03   -0.43378E-04   -0.57688E-04 10833   0.316E-02    0.572E-03
WARNING in EDDRMM: call to ZHEGV failed, returncode =   6  3      8
RMM:  34    -0.626383678107E+03   -0.42689E-04   -0.47440E-04 10397   0.242E-02    0.458E-03
RMM:  35    -0.626383693941E+03   -0.15834E-04   -0.20509E-04  9815   0.216E-02    0.205E-03
RMM:  36    -0.626383708154E+03   -0.14213E-04   -0.15708E-04  9235   0.178E-02    0.162E-03
RMM:  37    -0.626383714903E+03   -0.67488E-05   -0.82963E-05  8580   0.163E-02
   1 F= -.62638371E+03 E0= -.62625125E+03  d E =-.626384E+03
 curvature:   0.00 expect dE= 0.000E+00 dE for cont linesearch  0.000E+00
 trial: gam= 0.00000 g(F)=  0.452E+01 g(S)=  0.108E+02 ort = 0.000E+00 (trialstep = 0.100E+01)
 search vector abs. value=  0.153E+02
 bond charge predicted
       N       E                     dE             d eps       ncg     rms          rms(c)
DAV:   1    -0.728312176276E+03   -0.10193E+03   -0.36903E+03 13104   0.274E+02    0.759E+01
RMM:   2    -0.804464859597E+03   -0.76153E+02   -0.12473E+03 11476   0.136E+02    0.936E+01
RMM:   3    -0.667934553333E+03    0.13653E+03   -0.11218E+02 13559   0.324E+01    0.617E+01
RMM:   4    -0.645678187526E+03    0.22256E+02   -0.47161E+01 13438   0.202E+01    0.337E+01
RMM:   5    -0.639882322822E+03    0.57959E+01   -0.44933E+01 12152   0.221E+01    0.399E+01
RMM:   6    -0.629424253974E+03    0.10458E+02   -0.17227E+01 12616   0.137E+01    0.224E+01
RMM:   7    -0.629356256960E+03    0.67997E-01   -0.84835E+00 13239   0.823E+00    0.226E+01
RMM:   8    -0.626374275962E+03    0.29820E+01   -0.29250E+00 13410   0.535E+00    0.777E+00
RMM:   9    -0.626602750670E+03   -0.22847E+00   -0.15673E+00 15031   0.302E+00    0.928E+00
RMM:  10    -0.626301853023E+03    0.30090E+00   -0.71580E-01 14838   0.233E+00    0.429E+00
RMM:  11    -0.626284405695E+03    0.17447E-01   -0.44635E-01 15632   0.148E+00    0.283E+00
RMM:  12    -0.626388171778E+03   -0.10377E+00   -0.30388E-01 15557   0.139E+00    0.424E+00
RMM:  13    -0.626357909709E+03    0.30262E-01   -0.20259E-01 15457   0.109E+00    0.236E+00
RMM:  14    -0.626427503609E+03   -0.69594E-01   -0.19104E-01 15487   0.989E-01    0.301E+00
RMM:  15    -0.626411614157E+03    0.15889E-01   -0.13495E-01 15591   0.888E-01    0.178E+00
RMM:  16    -0.626415440071E+03   -0.38259E-02   -0.86787E-02 15536   0.681E-01    0.150E+00
RMM:  17    -0.626425943514E+03   -0.10503E-01   -0.78095E-02 15528   0.620E-01    0.137E+00
RMM:  18    -0.626419204273E+03    0.67392E-02   -0.51380E-02 15628   0.471E-01    0.437E-01
RMM:  19    -0.626421414900E+03   -0.22106E-02   -0.32464E-02 15706   0.360E-01    0.319E-01
RMM:  20    -0.626422552713E+03   -0.11378E-02   -0.19840E-02 15545   0.264E-01    0.237E-01
RMM:  21    -0.626423125427E+03   -0.57271E-03   -0.11450E-02 15375   0.199E-01    0.141E-01
RMM:  22    -0.626423678578E+03   -0.55315E-03   -0.67620E-03 14957   0.151E-01    0.140E-01
RMM:  23    -0.626423910478E+03   -0.23190E-03   -0.45137E-03 14304   0.119E-01    0.422E-02
RMM:  24    -0.626424105265E+03   -0.19479E-03   -0.24730E-03 13277   0.887E-02    0.536E-02
RMM:  25    -0.626424220889E+03   -0.11562E-03   -0.16108E-03 12614   0.705E-02    0.351E-02
RMM:  26    -0.626424298456E+03   -0.77566E-04   -0.89719E-04 12665   0.587E-02    0.209E-02
RMM:  27    -0.626424365896E+03   -0.67440E-04   -0.78827E-04 12210   0.462E-02    0.301E-02
RMM:  28    -0.626424396293E+03   -0.30397E-04   -0.38548E-04 11983   0.360E-02    0.469E-03
RMM:  29    -0.626424417278E+03   -0.20985E-04   -0.25386E-04 11844   0.310E-02    0.125E-02
RMM:  30    -0.626424430831E+03   -0.13553E-04   -0.15915E-04 11306   0.236E-02    0.533E-03
RMM:  31    -0.626424440400E+03   -0.95694E-05   -0.99591E-05 10710   0.202E-02
   2 F= -.62642444E+03 E0= -.62632748E+03  d E =-.407255E-01
 trial-energy change:   -0.040725  1 .order    0.977150  -15.272588   17.226888
 step:   0.5169(harm=  0.4699)  dis= 0.04675  next Energy=  -630.471151 (dE=-0.409E+01)
 bond charge predicted
       N       E                     dE             d eps       ncg     rms          rms(c)
DAV:   1    -0.661345697081E+03   -0.34921E+02   -0.92624E+02 13032   0.129E+02    0.563E+01
RMM:   2    -0.813396199948E+03   -0.15205E+03   -0.29736E+02 13911   0.488E+01    0.833E+01
RMM:   3    -0.639051060083E+03    0.17435E+03   -0.75309E+01 12176   0.323E+01    0.236E+01
RMM:   4    -0.646167118179E+03   -0.71161E+01   -0.36983E+01 12212   0.213E+01    0.441E+01
RMM:   5    -0.631960127876E+03    0.14207E+02   -0.11393E+01 13176   0.108E+01    0.136E+01
RMM:   6    -0.635828413220E+03   -0.38683E+01   -0.63815E+00 12819   0.643E+00    0.302E+01
RMM:   7    -0.631154474912E+03    0.46739E+01   -0.30873E+00 12472   0.576E+00    0.117E+01
RMM:   8    -0.630969766491E+03    0.18471E+00   -0.15018E+00 14002   0.294E+00    0.959E+00
RMM:   9    -0.631090141691E+03   -0.12038E+00   -0.78411E-01 13403   0.275E+00    0.105E+01
RMM:  10    -0.630513538485E+03    0.57660E+00   -0.35418E-01 13669   0.199E+00    0.382E+00
RMM:  11    -0.630537952436E+03   -0.24414E-01   -0.24011E-01 15103   0.123E+00    0.420E+00
RMM:  12    -0.630491982148E+03    0.45970E-01   -0.14590E-01 15132   0.984E-01    0.229E+00
RMM:  13    -0.630475571505E+03    0.16411E-01   -0.87369E-02 15777   0.640E-01    0.113E+00
RMM:  14    -0.630498825162E+03   -0.23254E-01   -0.64472E-02 15638   0.532E-01    0.218E+00
RMM:  15    -0.630486078890E+03    0.12746E-01   -0.41784E-02 15354   0.449E-01    0.737E-01
RMM:  16    -0.630492429202E+03   -0.63503E-02   -0.29464E-02 15614   0.362E-01    0.106E+00
RMM:  17    -0.630499885578E+03   -0.74564E-02   -0.26406E-02 15455   0.330E-01    0.107E+00
RMM:  18    -0.630498795848E+03    0.10897E-02   -0.18900E-02 15438   0.298E-01    0.475E-01
RMM:  19    -0.630503078895E+03   -0.42830E-02   -0.17002E-02 15149   0.260E-01    0.606E-01
RMM:  20    -0.630501576541E+03    0.15024E-02   -0.97981E-03 14655   0.223E-01    0.200E-01
RMM:  21    -0.630502117608E+03   -0.54107E-03   -0.90366E-03 14724   0.151E-01    0.146E-01
RMM:  22    -0.630502368365E+03   -0.25076E-03   -0.41816E-03 13410   0.138E-01    0.972E-02
RMM:  23    -0.630502648001E+03   -0.27964E-03   -0.34809E-03 13068   0.868E-02    0.758E-02
RMM:  24    -0.630502733194E+03   -0.85193E-04   -0.17052E-03 12509   0.808E-02    0.302E-02
RMM:  25    -0.630502834563E+03   -0.10137E-03   -0.12894E-03 12312   0.530E-02    0.297E-02
RMM:  26    -0.630502876614E+03   -0.42051E-04   -0.60009E-04 12130   0.496E-02    0.213E-02
RMM:  27    -0.630502913045E+03   -0.36431E-04   -0.45830E-04 11855   0.344E-02    0.123E-02
RMM:  28    -0.630502932260E+03   -0.19215E-04   -0.26152E-04 11816   0.320E-02    0.856E-03
RMM:  29    -0.630502946141E+03   -0.13881E-04   -0.18297E-04 11161   0.232E-02    0.251E-03
RMM:  30    -0.630502954811E+03   -0.86699E-05   -0.11005E-04 11006   0.206E-02    0.570E-03
RMM:  31    -0.630502959154E+03   -0.43433E-05   -0.69253E-05 10111   0.161E-02
   3 F= -.63050296E+03 E0= -.63038961E+03  d E =-.411924E+01
 curvature:  -0.23 expect dE=-0.125E+01 dE for cont linesearch -0.480E-02
 trial: gam= 0.31374 g(F)=  0.415E+01 g(S)=  0.120E+01 ort = 0.561E+00 (trialstep = 0.903E+00)
 search vector abs. value=  0.721E+01
 bond charge predicted
       N       E                     dE             d eps       ncg     rms          rms(c)
DAV:   1    -0.618131684191E+03    0.12371E+02   -0.98211E+02 10464   0.137E+02    0.947E+00
RMM:   2    -0.643470667606E+03   -0.25339E+02   -0.16664E+02 14901   0.365E+01    0.360E+01
RMM:   3    -0.634545720901E+03    0.89249E+01   -0.14482E+01 11369   0.162E+01    0.143E+01
RMM:   4    -0.633701515434E+03    0.84421E+00   -0.57999E+00 14205   0.631E+00    0.106E+01
RMM:   5    -0.633505565018E+03    0.19595E+00   -0.16605E+00 13996   0.337E+00    0.788E+00
RMM:   6    -0.633219425512E+03    0.28614E+00   -0.62822E-01 14572   0.182E+00    0.454E+00
RMM:   7    -0.633163121633E+03    0.56304E-01   -0.32294E-01 15144   0.119E+00    0.389E+00
RMM:   8    -0.633243782740E+03   -0.80661E-01   -0.27982E-01 14290   0.127E+00    0.607E+00
RMM:   9    -0.633050301598E+03    0.19348E+00   -0.30213E-01 13706   0.148E+00    0.220E+00
RMM:  10    -0.633079407110E+03   -0.29106E-01   -0.14437E-01 14713   0.798E-01    0.320E+00
RMM:  11    -0.633051202743E+03    0.28204E-01   -0.73116E-02 14525   0.717E-01    0.197E+00
RMM:  12    -0.633033216842E+03    0.17986E-01   -0.37361E-02 14917   0.410E-01    0.610E-01
RMM:  13    -0.633036863066E+03   -0.36462E-02   -0.23639E-02 14990   0.285E-01    0.998E-01
RMM:  14    -0.633033090411E+03    0.37727E-02   -0.13116E-02 14930   0.243E-01    0.549E-01
RMM:  15    -0.633033502189E+03   -0.41178E-03   -0.88565E-03 15093   0.167E-01    0.475E-01
RMM:  16    -0.633032864905E+03    0.63728E-03   -0.49354E-03 14931   0.125E-01    0.174E-01
RMM:  17    -0.633033095729E+03   -0.23082E-03   -0.30856E-03 13917   0.830E-02    0.168E-01
RMM:  18    -0.633033122541E+03   -0.26812E-04   -0.15285E-03 13598   0.864E-02    0.144E-01
RMM:  19    -0.633033175455E+03   -0.52914E-04   -0.13835E-03 12454   0.549E-02    0.972E-02
RMM:  20    -0.633033232355E+03   -0.56900E-04   -0.67751E-04 12017   0.498E-02    0.910E-02
RMM:  21    -0.633033217008E+03    0.15347E-04   -0.49302E-04 10987   0.361E-02    0.226E-02
RMM:  22    -0.633033239126E+03   -0.22118E-04   -0.32064E-04 10504   0.287E-02    0.153E-02
RMM:  23    -0.633033256073E+03   -0.16947E-04   -0.17125E-04 10158   0.260E-02    0.247E-02
RMM:  24    -0.633033264832E+03   -0.87595E-05   -0.14283E-04  9416   0.186E-02    0.829E-03
RMM:  25    -0.633033271721E+03   -0.68887E-05   -0.89616E-05  9217   0.172E-02
   4 F= -.63303327E+03 E0= -.63293050E+03  d E =-.253031E+01
 trial-energy change:   -2.530313  1 .order   -2.617383   -4.994281   -0.240486
 step:   0.9551(harm=  0.9491)  dis= 0.08759  next Energy=  -633.040138 (dE=-0.254E+01)
 bond charge predicted
       N       E                     dE             d eps       ncg     rms          rms(c)
DAV:   1    -0.632989048245E+03    0.44217E-01   -0.31882E+00 10416   0.791E+00    0.512E-01
RMM:   2    -0.633071629176E+03   -0.82581E-01   -0.55126E-01 14902   0.214E+00    0.250E+00
RMM:   3    -0.633046433438E+03    0.25196E-01   -0.50481E-02 11419   0.901E-01    0.115E+00
RMM:   4    -0.633042724880E+03    0.37086E-02   -0.17926E-02 13894   0.367E-01    0.639E-01
RMM:   5    -0.633041678326E+03    0.10466E-02   -0.55715E-03 13869   0.200E-01    0.436E-01
RMM:   6    -0.633040881294E+03    0.79703E-03   -0.21610E-03 13362   0.113E-01    0.303E-01
RMM:   7    -0.633040527927E+03    0.35337E-03   -0.10837E-03 12975   0.711E-02    0.203E-01
RMM:   8    -0.633040804429E+03   -0.27650E-03   -0.10317E-03 13263   0.808E-02    0.320E-01
RMM:   9    -0.633040529238E+03    0.27519E-03   -0.92235E-04 12917   0.821E-02    0.281E-01
RMM:  10    -0.633040202972E+03    0.32627E-03   -0.42457E-04 11857   0.608E-02    0.874E-02
RMM:  11    -0.633040275225E+03   -0.72253E-04   -0.30069E-04 11112   0.400E-02    0.136E-01
RMM:  12    -0.633040197453E+03    0.77772E-04   -0.13557E-04  9195   0.310E-02    0.599E-02
RMM:  13    -0.633040190399E+03    0.70540E-05   -0.92390E-05  9178   0.204E-02
   5 F= -.63304019E+03 E0= -.63293809E+03  d E =-.253723E+01
 curvature:  -0.61 expect dE=-0.772E+00 dE for cont linesearch -0.176E-05
 trial: gam= 0.15856 g(F)=  0.116E+01 g(S)=  0.112E+00 ort =-0.457E-02 (trialstep = 0.914E+00)
 search vector abs. value=  0.145E+01
 bond charge predicted
       N       E                     dE             d eps       ncg     rms          rms(c)
DAV:   1    -0.629497464531E+03    0.35427E+01   -0.25890E+02 11976   0.928E+01    0.993E+00
RMM:   2    -0.641382140619E+03   -0.11885E+02   -0.65888E+01 14204   0.239E+01    0.278E+01
RMM:   3    -0.635157051760E+03    0.62251E+01   -0.75973E+00 12116   0.987E+00    0.148E+01
RMM:   4    -0.634441255083E+03    0.71580E+00   -0.25166E+00 13426   0.462E+00    0.104E+01
RMM:   5    -0.634097582929E+03    0.34367E+00   -0.81593E-01 13488   0.261E+00    0.705E+00
RMM:   6    -0.633877457316E+03    0.22013E+00   -0.34344E-01 12893   0.169E+00    0.488E+00
RMM:   7    -0.633808892464E+03    0.68565E-01   -0.18507E-01 13754   0.117E+00    0.327E+00
RMM:   8    -0.633839841437E+03   -0.30949E-01   -0.19209E-01 13574   0.112E+00    0.414E+00
RMM:   9    -0.633744378893E+03    0.95463E-01   -0.11565E-01 13766   0.989E-01    0.171E+00
RMM:  10    -0.633772317136E+03   -0.27938E-01   -0.70209E-02 14279   0.723E-01    0.288E+00
RMM:  11    -0.633739590857E+03    0.32726E-01   -0.33208E-02 13755   0.565E-01    0.127E+00
RMM:  12    -0.633733445853E+03    0.61450E-02   -0.22560E-02 15364   0.312E-01    0.551E-01
RMM:  13    -0.633736245862E+03   -0.28000E-02   -0.14098E-02 15055   0.255E-01    0.793E-01
RMM:  14    -0.633734339971E+03    0.19059E-02   -0.82999E-03 15371   0.184E-01    0.291E-01
RMM:  15    -0.633734765823E+03   -0.42585E-03   -0.51416E-03 15083   0.122E-01    0.263E-01
RMM:  16    -0.633735077285E+03   -0.31146E-03   -0.30951E-03 14980   0.101E-01    0.194E-01
RMM:  17    -0.633735630694E+03   -0.55341E-03   -0.18995E-03 14196   0.104E-01    0.328E-01
RMM:  18    -0.633735787974E+03   -0.15728E-03   -0.18675E-03 14646   0.961E-02    0.223E-01
RMM:  19    -0.633735568547E+03    0.21943E-03   -0.12771E-03 13884   0.788E-02    0.699E-02
RMM:  20    -0.633735602718E+03   -0.34171E-04   -0.86357E-04 13204   0.587E-02    0.518E-02
RMM:  21    -0.633735630683E+03   -0.27965E-04   -0.52195E-04 12600   0.446E-02    0.354E-02
RMM:  22    -0.633735646753E+03   -0.16071E-04   -0.30411E-04 12179   0.363E-02    0.222E-02
RMM:  23    -0.633735664066E+03   -0.17312E-04   -0.21269E-04 11629   0.274E-02    0.218E-02
RMM:  24    -0.633735670114E+03   -0.60481E-05   -0.12323E-04 11090   0.217E-02    0.108E-02
RMM:  25    -0.633735674096E+03   -0.39818E-05   -0.80342E-05 10354   0.179E-02
   6 F= -.63373567E+03 E0= -.63363973E+03  d E =-.695484E+00
 trial-energy change:   -0.695484  1 .order   -0.694459   -1.160126   -0.228793
 step:   1.1382(harm=  1.1382)  dis= 0.05412  next Energy=  -633.762752 (dE=-0.723E+00)
 bond charge predicted
       N       E                     dE             d eps       ncg     rms          rms(c)
DAV:   1    -0.633497807558E+03    0.23786E+00   -0.15376E+01 12384   0.231E+01    0.240E+00
RMM:   2    -0.634235906309E+03   -0.73810E+00   -0.42797E+00 13633   0.609E+00    0.753E+00
RMM:   3    -0.633907447449E+03    0.32846E+00   -0.49486E-01 12113   0.253E+00    0.516E+00
RMM:   4    -0.633807376611E+03    0.10007E+00   -0.15832E-01 13018   0.120E+00    0.267E+00
RMM:   5    -0.633790329322E+03    0.17047E-01   -0.53889E-02 13241   0.658E-01    0.193E+00
RMM:   6    -0.633779807140E+03    0.10522E-01   -0.23831E-02 12786   0.434E-01    0.160E+00
RMM:   7    -0.633768645684E+03    0.11161E-01   -0.11806E-02 12923   0.316E-01    0.721E-01
RMM:   8    -0.633774359542E+03   -0.57139E-02   -0.12300E-02 13453   0.286E-01    0.131E+00
RMM:   9    -0.633767800311E+03    0.65592E-02   -0.85274E-03 13189   0.290E-01    0.795E-01
RMM:  10    -0.633765470812E+03    0.23295E-02   -0.51141E-03 13878   0.201E-01    0.356E-01
RMM:  11    -0.633765288221E+03    0.18259E-03   -0.27980E-03 15074   0.117E-01    0.276E-01
RMM:  12    -0.633764903460E+03    0.38476E-03   -0.12128E-03 13883   0.856E-02    0.107E-01
RMM:  13    -0.633765067624E+03   -0.16416E-03   -0.85174E-04 13239   0.580E-02    0.176E-01
RMM:  14    -0.633764974502E+03    0.93122E-04   -0.45308E-04 12853   0.469E-02    0.664E-02
RMM:  15    -0.633765012605E+03   -0.38103E-04   -0.33311E-04 12538   0.311E-02    0.663E-02
RMM:  16    -0.633765020373E+03   -0.77679E-05   -0.17867E-04 12049   0.298E-02    0.404E-02
WARNING in EDDRMM: call to ZHEGV failed, returncode =   6  3      8
RMM:  17    -0.633765071478E+03   -0.51105E-04   -0.14873E-04 11661   0.299E-02    0.916E-02
RMM:  18    -0.633765056759E+03    0.14719E-04   -0.11154E-04 11012   0.304E-02    0.589E-02
RMM:  19    -0.633765041400E+03    0.15359E-04   -0.87713E-05 10874   0.227E-02    0.138E-02
RMM:  20    -0.633765044453E+03   -0.30530E-05   -0.58847E-05  8892   0.178E-02
   7 F= -.63376504E+03 E0= -.63367018E+03  d E =-.724854E+00
 curvature:  -0.65 expect dE=-0.576E+00 dE for cont linesearch -0.169E-04
 trial: gam= 0.67435 g(F)=  0.398E+00 g(S)=  0.488E+00 ort = 0.614E-02 (trialstep = 0.894E+00)
 search vector abs. value=  0.155E+01
 bond charge predicted
       N       E                     dE             d eps       ncg     rms          rms(c)
DAV:   1    -0.629140336562E+03    0.46247E+01   -0.28499E+02 12720   0.106E+02    0.112E+01
RMM:   2    -0.644336175625E+03   -0.15196E+02   -0.85906E+01 12600   0.301E+01    0.330E+01
RMM:   3    -0.636295844515E+03    0.80403E+01   -0.10667E+01 13098   0.112E+01    0.184E+01
RMM:   4    -0.634550375579E+03    0.17455E+01   -0.33705E+00 13947   0.525E+00    0.710E+00
RMM:   5    -0.634521493864E+03    0.28882E-01   -0.83646E-01 13394   0.280E+00    0.809E+00
RMM:   6    -0.634135752420E+03    0.38574E+00   -0.46599E-01 12981   0.197E+00    0.400E+00
RMM:   7    -0.634144696754E+03   -0.89443E-02   -0.31827E-01 13484   0.155E+00    0.440E+00
RMM:   8    -0.634182851669E+03   -0.38155E-01   -0.29004E-01 12660   0.169E+00    0.561E+00
RMM:   9    -0.634014302943E+03    0.16855E+00   -0.14288E-01 13348   0.123E+00    0.169E+00
RMM:  10    -0.634018726425E+03   -0.44235E-02   -0.73283E-02 15188   0.654E-01    0.188E+00
RMM:  11    -0.634008306207E+03    0.10420E-01   -0.31174E-02 14118   0.502E-01    0.101E+00
RMM:  12    -0.634004013759E+03    0.42924E-02   -0.18932E-02 15443   0.277E-01    0.415E-01
RMM:  13    -0.634005847626E+03   -0.18339E-02   -0.11395E-02 15340   0.232E-01    0.579E-01
RMM:  14    -0.634005667289E+03    0.18034E-03   -0.71278E-03 15615   0.150E-01    0.287E-01
RMM:  15    -0.634006210190E+03   -0.54290E-03   -0.38971E-03 15297   0.118E-01    0.279E-01
RMM:  16    -0.634007350256E+03   -0.11401E-02   -0.30509E-03 15035   0.125E-01    0.327E-01
RMM:  17    -0.634007409475E+03   -0.59219E-04   -0.21411E-03 14082   0.117E-01    0.233E-01
RMM:  18    -0.634007732605E+03   -0.32313E-03   -0.22256E-03 14713   0.100E-01    0.154E-01
RMM:  19    -0.634007660355E+03    0.72250E-04   -0.13646E-03 13902   0.814E-02    0.418E-02
RMM:  20    -0.634007733517E+03   -0.73161E-04   -0.96514E-04 13100   0.565E-02    0.232E-02
RMM:  21    -0.634007775007E+03   -0.41491E-04   -0.51636E-04 12420   0.483E-02    0.325E-02
RMM:  22    -0.634007799364E+03   -0.24356E-04   -0.36544E-04 11818   0.323E-02    0.218E-02
RMM:  23    -0.634007816984E+03   -0.17620E-04   -0.20279E-04 11778   0.280E-02    0.141E-02
RMM:  24    -0.634007828478E+03   -0.11494E-04   -0.12832E-04 11205   0.216E-02    0.124E-02
RMM:  25    -0.634007836754E+03   -0.82760E-05   -0.81379E-05 10701   0.195E-02
   8 F= -.63400784E+03 E0= -.63392174E+03  d E =-.242792E+00
 trial-energy change:   -0.242792  1 .order   -0.218131   -0.796602    0.360341
 step:   0.6392(harm=  0.6158)  dis= 0.04287  next Energy=  -634.058680 (dE=-0.294E+00)
 bond charge predicted
       N       E                     dE             d eps       ncg     rms          rms(c)
DAV:   1    -0.633662791236E+03    0.34504E+00   -0.23354E+01 12408   0.302E+01    0.344E+00
RMM:   2    -0.635178045585E+03   -0.15153E+01   -0.70133E+00 13599   0.803E+00    0.120E+01
RMM:   3    -0.634333616060E+03    0.84443E+00   -0.92463E-01 12419   0.350E+00    0.699E+00
RMM:   4    -0.634133958970E+03    0.19966E+00   -0.28899E-01 13126   0.171E+00    0.337E+00
RMM:   5    -0.634102687763E+03    0.31271E-01   -0.10374E-01 13543   0.908E-01    0.231E+00
RMM:   6    -0.634081482638E+03    0.21205E-01   -0.54859E-02 13301   0.590E-01    0.185E+00
RMM:   7    -0.634064936506E+03    0.16546E-01   -0.20461E-02 12566   0.484E-01    0.931E-01
RMM:   8    -0.634074262120E+03   -0.93256E-02   -0.25081E-02 13225   0.431E-01    0.156E+00
RMM:   9    -0.634060898918E+03    0.13363E-01   -0.12895E-02 13303   0.353E-01    0.740E-01
RMM:  10    -0.634059776860E+03    0.11221E-02   -0.59617E-03 13867   0.230E-01    0.547E-01
RMM:  11    -0.634059274159E+03    0.50270E-03   -0.37141E-03 14740   0.147E-01    0.362E-01
RMM:  12    -0.634058587796E+03    0.68636E-03   -0.16786E-03 14175   0.103E-01    0.178E-01
RMM:  13    -0.634058603540E+03   -0.15743E-04   -0.11164E-03 13656   0.662E-02    0.131E-01
RMM:  14    -0.634058631336E+03   -0.27797E-04   -0.59525E-04 13372   0.482E-02    0.926E-02
RMM:  15    -0.634058646902E+03   -0.15566E-04   -0.36203E-04 12773   0.380E-02    0.706E-02
RMM:  16    -0.634058763230E+03   -0.11633E-03   -0.26256E-04 12606   0.413E-02    0.137E-01
RMM:  17    -0.634058713322E+03    0.49908E-04   -0.20975E-04 12290   0.384E-02    0.419E-02
RMM:  18    -0.634058739890E+03   -0.26569E-04   -0.21669E-04 12540   0.309E-02    0.459E-02
RMM:  19    -0.634058730141E+03    0.97490E-05   -0.12313E-04 11876   0.274E-02    0.967E-03
WARNING in EDDRMM: call to ZHEGV failed, returncode =   6  3      8
RMM:  20    -0.634058734871E+03   -0.47295E-05   -0.70304E-05 10176   0.208E-02
   9 F= -.63405873E+03 E0= -.63397033E+03  d E =-.293690E+00
 curvature:  -0.53 expect dE=-0.261E+00 dE for cont linesearch -0.254E-05
 trial: gam= 0.48121 g(F)=  0.396E+00 g(S)=  0.939E-01 ort = 0.272E-02 (trialstep = 0.843E+00)
 search vector abs. value=  0.852E+00
 bond charge predicted
       N       E                     dE             d eps       ncg     rms          rms(c)
DAV:   1    -0.630933850748E+03    0.31249E+01   -0.13152E+02  9744   0.704E+01    0.347E+00
RMM:   2    -0.634693333520E+03   -0.37595E+01   -0.35375E+01 14882   0.158E+01    0.901E+00
RMM:   3    -0.634547673680E+03    0.14566E+00   -0.22774E+00 11502   0.599E+00    0.694E+00
RMM:   4    -0.634436140435E+03    0.11153E+00   -0.64956E-01 13757   0.240E+00    0.337E+00
RMM:   5    -0.634388759007E+03    0.47381E-01   -0.16141E-01 14352   0.114E+00    0.272E+00
RMM:   6    -0.634355332426E+03    0.33427E-01   -0.68308E-02 14913   0.591E-01    0.118E+00
RMM:   7    -0.634358001672E+03   -0.26692E-02   -0.40531E-02 14778   0.413E-01    0.143E+00
RMM:   8    -0.634358053891E+03   -0.52219E-04   -0.39847E-02 13865   0.507E-01    0.187E+00
RMM:   9    -0.634340997107E+03    0.17057E-01   -0.24781E-02 13869   0.409E-01    0.535E-01
RMM:  10    -0.634343693466E+03   -0.26964E-02   -0.14868E-02 15106   0.262E-01    0.814E-01
RMM:  11    -0.634340408129E+03    0.32853E-02   -0.59172E-03 14639   0.197E-01    0.286E-01
RMM:  12    -0.634340595526E+03   -0.18740E-03   -0.37088E-03 14535   0.113E-01    0.281E-01
RMM:  13    -0.634340438594E+03    0.15693E-03   -0.21550E-03 14465   0.993E-02    0.195E-01
RMM:  14    -0.634340342897E+03    0.95697E-04   -0.11750E-03 14283   0.680E-02    0.105E-01
RMM:  15    -0.634340442091E+03   -0.99194E-04   -0.83316E-04 13826   0.544E-02    0.120E-01
RMM:  16    -0.634340404617E+03    0.37473E-04   -0.38244E-04 12898   0.485E-02    0.788E-02
RMM:  17    -0.634340431773E+03   -0.27155E-04   -0.31351E-04 12231   0.352E-02    0.749E-02
RMM:  18    -0.634340425588E+03    0.61849E-05   -0.20025E-04 11803   0.285E-02    0.373E-02
RMM:  19    -0.634340427988E+03   -0.23997E-05   -0.12594E-04 10625   0.227E-02    0.237E-02
RMM:  20    -0.634340429625E+03   -0.16376E-05   -0.67022E-05  8689   0.204E-02
  10 F= -.63434043E+03 E0= -.63425534E+03  d E =-.281695E+00
 trial-energy change:   -0.281695  1 .order   -0.279858   -0.414291   -0.145426
 step:   1.2730(harm=  1.2995)  dis= 0.06334  next Energy=  -634.377711 (dE=-0.319E+00)
 bond charge predicted
       N       E                     dE             d eps       ncg     rms          rms(c)
DAV:   1    -0.633491209319E+03    0.84922E+00   -0.34098E+01  9744   0.360E+01    0.178E+00
RMM:   2    -0.634477378284E+03   -0.98617E+00   -0.92221E+00 14873   0.810E+00    0.492E+00
RMM:   3    -0.634440055543E+03    0.37323E-01   -0.60368E-01 11507   0.313E+00    0.376E+00
RMM:   4    -0.634402906747E+03    0.37149E-01   -0.17882E-01 13694   0.126E+00    0.165E+00
RMM:   5    -0.634392614558E+03    0.10292E-01   -0.43310E-02 14073   0.603E-01    0.149E+00
RMM:   6    -0.634382670969E+03    0.99436E-02   -0.18381E-02 14458   0.330E-01    0.622E-01
RMM:   7    -0.634382712997E+03   -0.42028E-04   -0.12262E-02 14539   0.203E-01    0.610E-01
RMM:   8    -0.634380066641E+03    0.26464E-02   -0.12847E-02 14396   0.255E-01    0.546E-01
RMM:   9    -0.634379297317E+03    0.76932E-03   -0.43448E-03 13858   0.181E-01    0.387E-01
RMM:  10    -0.634379321094E+03   -0.23778E-04   -0.29003E-03 14943   0.119E-01    0.335E-01
RMM:  11    -0.634378840618E+03    0.48048E-03   -0.12090E-03 13598   0.855E-02    0.157E-01
RMM:  12    -0.634378827648E+03    0.12970E-04   -0.79632E-04 13088   0.562E-02    0.111E-01
RMM:  13    -0.634378789556E+03    0.38092E-04   -0.54758E-04 13047   0.417E-02    0.508E-02
RMM:  14    -0.634378835626E+03   -0.46070E-04   -0.24770E-04 11899   0.374E-02    0.909E-02
RMM:  15    -0.634378829790E+03    0.58360E-05   -0.17314E-04 11109   0.321E-02    0.664E-02
RMM:  16    -0.634378814291E+03    0.15499E-04   -0.11283E-04 10005   0.237E-02    0.229E-02
RMM:  17    -0.634378823111E+03   -0.88204E-05   -0.82795E-05  8848   0.199E-02
  11 F= -.63437882E+03 E0= -.63429579E+03  d E =-.320088E+00
 curvature:  -1.12 expect dE=-0.267E+00 dE for cont linesearch -0.634E-05
 trial: gam= 0.33974 g(F)=  0.208E+00 g(S)=  0.294E-01 ort = 0.219E-02 (trialstep = 0.929E+00)
 search vector abs. value=  0.337E+00
 bond charge predicted
       N       E                     dE             d eps       ncg     rms          rms(c)
DAV:   1    -0.633518519026E+03    0.86030E+00   -0.61979E+01 11952   0.445E+01    0.442E+00
RMM:   2    -0.636090659877E+03   -0.25721E+01   -0.15454E+01 14015   0.110E+01    0.139E+01
RMM:   3    -0.634916768965E+03    0.11739E+01   -0.15968E+00 11745   0.481E+00    0.831E+00
RMM:   4    -0.634624812049E+03    0.29196E+00   -0.53197E-01 13342   0.220E+00    0.393E+00
RMM:   5    -0.634601719148E+03    0.23093E-01   -0.19311E-01 13460   0.127E+00    0.343E+00
RMM:   6    -0.634540400437E+03    0.61319E-01   -0.93346E-02 13364   0.780E-01    0.212E+00
RMM:   7    -0.634527902970E+03    0.12497E-01   -0.43187E-02 13256   0.604E-01    0.168E+00
RMM:   8    -0.634540316611E+03   -0.12414E-01   -0.44277E-02 13303   0.609E-01    0.219E+00
RMM:   9    -0.634513329172E+03    0.26987E-01   -0.26321E-02 13654   0.472E-01    0.827E-01
RMM:  10    -0.634513403893E+03   -0.74721E-04   -0.13575E-02 13992   0.334E-01    0.809E-01
RMM:  11    -0.634510866921E+03    0.25370E-02   -0.74658E-03 14717   0.213E-01    0.388E-01
RMM:  12    -0.634510119471E+03    0.74745E-03   -0.42028E-03 14449   0.129E-01    0.176E-01
RMM:  13    -0.634510531436E+03   -0.41196E-03   -0.22472E-03 13987   0.103E-01    0.281E-01
RMM:  14    -0.634510327093E+03    0.20434E-03   -0.15380E-03 13865   0.761E-02    0.107E-01
RMM:  15    -0.634510420554E+03   -0.93461E-04   -0.91722E-04 13239   0.559E-02    0.106E-01
RMM:  16    -0.634510503287E+03   -0.82733E-04   -0.53718E-04 13102   0.531E-02    0.121E-01
RMM:  17    -0.634510502371E+03    0.91608E-06   -0.40184E-04 12745   0.456E-02    0.873E-02
RMM:  18    -0.634510543011E+03   -0.40640E-04   -0.31112E-04 12630   0.396E-02    0.808E-02
RMM:  19    -0.634510510446E+03    0.32565E-04   -0.22517E-04 12361   0.321E-02    0.157E-02
RMM:  20    -0.634510518447E+03   -0.80008E-05   -0.13251E-04 11788   0.246E-02    0.172E-02
RMM:  21    -0.634510522587E+03   -0.41399E-05   -0.72763E-05  9953   0.208E-02
  12 F= -.63451052E+03 E0= -.63442821E+03  d E =-.131699E+00
 trial-energy change:   -0.131699  1 .order   -0.131588   -0.221344   -0.041831
 step:   1.1458(harm=  1.1458)  dis= 0.03910  next Energy=  -634.515284 (dE=-0.136E+00)
 bond charge predicted
       N       E                     dE             d eps       ncg     rms          rms(c)
DAV:   1    -0.634461848259E+03    0.48670E-01   -0.33493E+00 12480   0.103E+01    0.102E+00
RMM:   2    -0.634609858134E+03   -0.14801E+00   -0.85710E-01 13796   0.262E+00    0.373E+00
RMM:   3    -0.634544278986E+03    0.65579E-01   -0.87655E-02 11790   0.113E+00    0.229E+00
RMM:   4    -0.634522295014E+03    0.21984E-01   -0.30438E-02 12840   0.553E-01    0.926E-01
RMM:   5    -0.634520714962E+03    0.15801E-02   -0.11711E-02 13293   0.302E-01    0.805E-01
RMM:   6    -0.634517899202E+03    0.28158E-02   -0.55202E-03 13000   0.191E-01    0.581E-01
RMM:   7    -0.634516504760E+03    0.13944E-02   -0.24580E-03 12530   0.146E-01    0.345E-01
RMM:   8    -0.634517374755E+03   -0.86999E-03   -0.25997E-03 13252   0.145E-01    0.508E-01
RMM:   9    -0.634515977723E+03    0.13970E-02   -0.16124E-03 13211   0.117E-01    0.236E-01
RMM:  10    -0.634515837181E+03    0.14054E-03   -0.77969E-04 12463   0.853E-02    0.164E-01
RMM:  11    -0.634515753227E+03    0.83954E-04   -0.43479E-04 12884   0.486E-02    0.923E-02
RMM:  12    -0.634515708543E+03    0.44684E-04   -0.21906E-04 11877   0.356E-02    0.461E-02
RMM:  13    -0.634515721333E+03   -0.12789E-04   -0.13426E-04 10224   0.235E-02    0.520E-02
RMM:  14    -0.634515714690E+03    0.66429E-05   -0.82574E-05  9207   0.218E-02
  13 F= -.63451571E+03 E0= -.63443357E+03  d E =-.136892E+00
 curvature:  -0.81 expect dE=-0.166E+00 dE for cont linesearch -0.264E-05
 trial: gam= 0.85329 g(F)=  0.757E-01 g(S)=  0.129E+00 ort = 0.105E-02 (trialstep = 0.726E+00)
 search vector abs. value=  0.452E+00
 bond charge predicted
       N       E                     dE             d eps       ncg     rms          rms(c)
DAV:   1    -0.633686682368E+03    0.82904E+00   -0.54290E+01 12720   0.439E+01    0.457E+00
RMM:   2    -0.636151259471E+03   -0.24646E+01   -0.15119E+01 13162   0.121E+01    0.136E+01
RMM:   3    -0.635047099434E+03    0.11042E+01   -0.17506E+00 12493   0.476E+00    0.880E+00
RMM:   4    -0.634702073683E+03    0.34503E+00   -0.61689E-01 13310   0.234E+00    0.382E+00
RMM:   5    -0.634676033921E+03    0.26040E-01   -0.17762E-01 13542   0.117E+00    0.331E+00
RMM:   6    -0.634612260564E+03    0.63773E-01   -0.87780E-02 12824   0.818E-01    0.168E+00
RMM:   7    -0.634610268828E+03    0.19917E-02   -0.49798E-02 13458   0.610E-01    0.178E+00
RMM:   8    -0.634617720120E+03   -0.74513E-02   -0.43793E-02 12762   0.644E-01    0.214E+00
RMM:   9    -0.634591276073E+03    0.26444E-01   -0.25626E-02 13369   0.486E-01    0.671E-01
RMM:  10    -0.634593418481E+03   -0.21424E-02   -0.12232E-02 14103   0.323E-01    0.886E-01
RMM:  11    -0.634590026519E+03    0.33920E-02   -0.61880E-03 14497   0.207E-01    0.317E-01
RMM:  12    -0.634589702126E+03    0.32439E-03   -0.34587E-03 14712   0.117E-01    0.183E-01
RMM:  13    -0.634589983054E+03   -0.28093E-03   -0.18832E-03 14217   0.960E-02    0.226E-01
RMM:  14    -0.634589948404E+03    0.34650E-04   -0.12300E-03 13900   0.666E-02    0.114E-01
RMM:  15    -0.634590049760E+03   -0.10136E-03   -0.68975E-04 13577   0.515E-02    0.112E-01
RMM:  16    -0.634590225522E+03   -0.17576E-03   -0.49809E-04 13303   0.547E-02    0.149E-01
RMM:  17    -0.634590215989E+03    0.95335E-05   -0.37994E-04 12817   0.494E-02    0.633E-02
RMM:  18    -0.634590287567E+03   -0.71578E-04   -0.37396E-04 13047   0.396E-02    0.411E-02
RMM:  19    -0.634590293576E+03   -0.60096E-05   -0.19899E-04 12492   0.352E-02    0.231E-02
RMM:  20    -0.634590299865E+03   -0.62886E-05   -0.12476E-04 11514   0.251E-02    0.136E-02
RMM:  21    -0.634590306797E+03   -0.69322E-05   -0.88465E-05 10735   0.209E-02
  14 F= -.63459031E+03 E0= -.63451089E+03  d E =-.745921E-01
 trial-energy change:   -0.074592  1 .order   -0.072782   -0.149173    0.003609
 step:   0.7098(harm=  0.7086)  dis= 0.03479  next Energy=  -634.590347 (dE=-0.746E-01)
 bond charge predicted
       N       E                     dE             d eps       ncg     rms          rms(c)
DAV:   1    -0.634589930456E+03    0.36941E-03   -0.26591E-02 13488   0.978E-01    0.104E-01
RMM:   2    -0.634591076624E+03   -0.11462E-02   -0.73496E-03 13758   0.255E-01    0.290E-01
RMM:   3    -0.634590603721E+03    0.47290E-03   -0.84738E-04 11604   0.111E-01    0.205E-01
RMM:   4    -0.634590439787E+03    0.16393E-03   -0.30976E-04 12106   0.581E-02    0.100E-01
RMM:   5    -0.634590416197E+03    0.23589E-04   -0.97809E-05  9522   0.349E-02    0.747E-02
RMM:   6    -0.634590387242E+03    0.28955E-04   -0.46852E-05  7615   0.227E-02    0.486E-02
RMM:   7    -0.634590381021E+03    0.62211E-05   -0.22728E-05  6039   0.205E-02
  15 F= -.63459038E+03 E0= -.63451090E+03  d E =-.746663E-01
 curvature:  -0.78 expect dE=-0.834E-01 dE for cont linesearch -0.755E-05
 trial: gam= 0.52258 g(F)=  0.749E-01 g(S)=  0.326E-01 ort =-0.210E-02 (trialstep = 0.723E+00)
 search vector abs. value=  0.229E+00
 bond charge predicted
       N       E                     dE             d eps       ncg     rms          rms(c)
DAV:   1    -0.633887113846E+03    0.70327E+00   -0.27206E+01  9768   0.330E+01    0.169E+00
RMM:   2    -0.634692434200E+03   -0.80532E+00   -0.80236E+00 14812   0.692E+00    0.322E+00
RMM:   3    -0.634692015737E+03    0.41846E-03   -0.46026E-01 11569   0.264E+00    0.316E+00
RMM:   4    -0.634665483984E+03    0.26532E-01   -0.14554E-01 13322   0.110E+00    0.154E+00
RMM:   5    -0.634654043128E+03    0.11441E-01   -0.35401E-02 14237   0.500E-01    0.114E+00
RMM:   6    -0.634648149373E+03    0.58938E-02   -0.14489E-02 14151   0.283E-01    0.584E-01
RMM:   7    -0.634649591783E+03   -0.14424E-02   -0.10730E-02 14267   0.236E-01    0.759E-01
RMM:   8    -0.634646636202E+03    0.29556E-02   -0.99903E-03 14426   0.228E-01    0.625E-01
RMM:   9    -0.634645316451E+03    0.13198E-02   -0.32673E-03 13487   0.172E-01    0.355E-01
RMM:  10    -0.634645255169E+03    0.61282E-04   -0.23751E-03 14589   0.111E-01    0.253E-01
RMM:  11    -0.634644952400E+03    0.30277E-03   -0.10380E-03 13355   0.767E-02    0.151E-01
RMM:  12    -0.634644938625E+03    0.13774E-04   -0.71937E-04 12949   0.535E-02    0.108E-01
RMM:  13    -0.634644944039E+03   -0.54133E-05   -0.43280E-04 12659   0.405E-02    0.916E-02
RMM:  14    -0.634644921079E+03    0.22960E-04   -0.21988E-04 11489   0.357E-02    0.550E-02
RMM:  15    -0.634644945636E+03   -0.24557E-04   -0.15240E-04 11121   0.270E-02    0.679E-02
RMM:  16    -0.634644924383E+03    0.21253E-04   -0.90620E-05  9821   0.222E-02    0.180E-02
RMM:  17    -0.634644936582E+03   -0.12199E-04   -0.65754E-05  8726   0.197E-02    0.376E-02
RMM:  18    -0.634644929604E+03    0.69777E-05   -0.31738E-05  6925   0.193E-02
  16 F= -.63464493E+03 E0= -.63456632E+03  d E =-.545486E-01
 trial-energy change:   -0.054549  1 .order   -0.054581   -0.076843   -0.032319
 step:   1.2471(harm=  1.2471)  dis= 0.04655  next Energy=  -634.656692 (dE=-0.663E-01)
 bond charge predicted
       N       E                     dE             d eps       ncg     rms          rms(c)
DAV:   1    -0.634254581835E+03    0.39035E+00   -0.14291E+01  9768   0.238E+01    0.122E+00
RMM:   2    -0.634673964639E+03   -0.41938E+00   -0.42287E+00 14801   0.504E+00    0.204E+00
RMM:   3    -0.634683820641E+03   -0.98560E-02   -0.24316E-01 11534   0.193E+00    0.242E+00
RMM:   4    -0.634667566003E+03    0.16255E-01   -0.77100E-02 13326   0.812E-01    0.115E+00
RMM:   5    -0.634661625243E+03    0.59408E-02   -0.18941E-02 14170   0.370E-01    0.851E-01
RMM:   6    -0.634658454334E+03    0.31709E-02   -0.78283E-03 14133   0.201E-01    0.461E-01
RMM:   7    -0.634659288879E+03   -0.83455E-03   -0.49792E-03 14107   0.166E-01    0.624E-01
RMM:   8    -0.634659131908E+03    0.15697E-03   -0.51703E-03 13488   0.193E-01    0.686E-01
RMM:   9    -0.634656670430E+03    0.24615E-02   -0.28385E-03 13681   0.151E-01    0.185E-01
RMM:  10    -0.634656892752E+03   -0.22232E-03   -0.16373E-03 14186   0.889E-02    0.237E-01
RMM:  11    -0.634656625977E+03    0.26678E-03   -0.73344E-04 12851   0.669E-02    0.106E-01
RMM:  12    -0.634656614424E+03    0.11553E-04   -0.45410E-04 12298   0.407E-02    0.759E-02
RMM:  13    -0.634656641224E+03   -0.26800E-04   -0.25345E-04 11142   0.345E-02    0.921E-02
RMM:  14    -0.634656607292E+03    0.33932E-04   -0.16417E-04 10813   0.278E-02    0.319E-02
RMM:  15    -0.634656622639E+03   -0.15347E-04   -0.11118E-04  9899   0.212E-02    0.443E-02
RMM:  16    -0.634656618109E+03    0.45297E-05   -0.51656E-05  7484   0.218E-02
  17 F= -.63465662E+03 E0= -.63457874E+03  d E =-.662371E-01
 curvature:  -1.34 expect dE=-0.924E-01 dE for cont linesearch -0.225E-04
 trial: gam= 0.52459 g(F)=  0.508E-01 g(S)=  0.181E-01 ort =-0.196E-02 (trialstep = 0.827E+00)
 search vector abs. value=  0.130E+00
 bond charge predicted
       N       E                     dE             d eps       ncg     rms          rms(c)
DAV:   1    -0.634164927219E+03    0.49170E+00   -0.19404E+01 10080   0.274E+01    0.179E+00
RMM:   2    -0.634835542275E+03   -0.67062E+00   -0.60282E+00 14975   0.583E+00    0.504E+00
RMM:   3    -0.634745849003E+03    0.89693E-01   -0.38828E-01 11511   0.233E+00    0.299E+00
RMM:   4    -0.634719716331E+03    0.26133E-01   -0.13335E-01 13415   0.997E-01    0.154E+00
RMM:   5    -0.634717218599E+03    0.24977E-02   -0.35823E-02 13617   0.535E-01    0.176E+00
RMM:   6    -0.634701816743E+03    0.15402E-01   -0.15455E-02 12992   0.360E-01    0.767E-01
RMM:   7    -0.634702830835E+03   -0.10141E-02   -0.12441E-02 14291   0.251E-01    0.873E-01
RMM:   8    -0.634701982848E+03    0.84799E-03   -0.10121E-02 13390   0.283E-01    0.886E-01
RMM:   9    -0.634697532284E+03    0.44506E-02   -0.46947E-03 13543   0.201E-01    0.235E-01
RMM:  10    -0.634698039210E+03   -0.50693E-03   -0.29935E-03 14370   0.119E-01    0.354E-01
RMM:  11    -0.634697414474E+03    0.62474E-03   -0.12644E-03 13320   0.817E-02    0.959E-02
RMM:  12    -0.634697512762E+03   -0.98287E-04   -0.95574E-04 12741   0.483E-02    0.121E-01
RMM:  13    -0.634697485206E+03    0.27555E-04   -0.39028E-04 12150   0.414E-02    0.704E-02
RMM:  14    -0.634697482143E+03    0.30639E-05   -0.26473E-04 11951   0.280E-02    0.377E-02
RMM:  15    -0.634697490316E+03   -0.81738E-05   -0.13392E-04 11175   0.255E-02    0.299E-02
RMM:  16    -0.634697492134E+03   -0.18178E-05   -0.86360E-05  9907   0.210E-02
  18 F= -.63469749E+03 E0= -.63462004E+03  d E =-.408740E-01
 trial-energy change:   -0.040874  1 .order   -0.040358   -0.056160   -0.024556
 step:   1.3801(harm=  1.4704)  dis= 0.03472  next Energy=  -634.705845 (dE=-0.492E-01)
 bond charge predicted
       N       E                     dE             d eps       ncg     rms          rms(c)
DAV:   1    -0.634467546894E+03    0.22994E+00   -0.86004E+00 10056   0.183E+01    0.119E+00
RMM:   2    -0.634756370568E+03   -0.28882E+00   -0.26802E+00 14968   0.388E+00    0.300E+00
RMM:   3    -0.634730588157E+03    0.25782E-01   -0.17401E-01 11503   0.156E+00    0.212E+00
RMM:   4    -0.634717018914E+03    0.13569E-01   -0.58372E-02 13393   0.669E-01    0.103E+00
RMM:   5    -0.634715504919E+03    0.15140E-02   -0.15970E-02 13505   0.364E-01    0.113E+00
RMM:   6    -0.634709223762E+03    0.62812E-02   -0.75003E-03 13322   0.235E-01    0.535E-01
RMM:   7    -0.634709588154E+03   -0.36439E-03   -0.51936E-03 13903   0.173E-01    0.598E-01
RMM:   8    -0.634709280613E+03    0.30754E-03   -0.45815E-03 13432   0.191E-01    0.592E-01
RMM:   9    -0.634707225276E+03    0.20553E-02   -0.22494E-03 13548   0.132E-01    0.166E-01
RMM:  10    -0.634707498170E+03   -0.27289E-03   -0.13696E-03 13375   0.874E-02    0.261E-01
RMM:  11    -0.634707155035E+03    0.34313E-03   -0.61884E-04 12369   0.577E-02    0.647E-02
RMM:  12    -0.634707202089E+03   -0.47054E-04   -0.47183E-04 11828   0.348E-02    0.820E-02
RMM:  13    -0.634707187760E+03    0.14329E-04   -0.18251E-04 11205   0.286E-02    0.449E-02
RMM:  14    -0.634707187784E+03   -0.23429E-07   -0.13149E-04 10425   0.210E-02    0.251E-02
RMM:  15    -0.634707191798E+03   -0.40145E-05   -0.59152E-05  8177   0.195E-02
  19 F= -.63470719E+03 E0= -.63463013E+03  d E =-.505737E-01
 curvature:  -1.38 expect dE=-0.869E-01 dE for cont linesearch -0.166E-03
 trial: gam= 0.81834 g(F)=  0.351E-01 g(S)=  0.280E-01 ort = 0.395E-02 (trialstep = 0.778E+00)
 search vector abs. value=  0.156E+00
 bond charge predicted
       N       E                     dE             d eps       ncg     rms          rms(c)
DAV:   1    -0.634255659539E+03    0.45153E+00   -0.21536E+01 12120   0.282E+01    0.266E+00
RMM:   2    -0.635415020140E+03   -0.11594E+01   -0.71458E+00 14008   0.689E+00    0.974E+00
RMM:   3    -0.634904018265E+03    0.51100E+00   -0.66096E-01 12095   0.280E+00    0.522E+00
RMM:   4    -0.634769100145E+03    0.13492E+00   -0.23115E-01 13086   0.141E+00    0.193E+00
RMM:   5    -0.634767171919E+03    0.19282E-02   -0.78333E-02 13542   0.715E-01    0.186E+00
RMM:   6    -0.634744699633E+03    0.22472E-01   -0.30982E-02 13492   0.435E-01    0.837E-01
RMM:   7    -0.634745298176E+03   -0.59854E-03   -0.13711E-02 13450   0.325E-01    0.100E+00
RMM:   8    -0.634746128444E+03   -0.83027E-03   -0.14888E-02 12804   0.376E-01    0.106E+00
RMM:   9    -0.634739470097E+03    0.66583E-02   -0.83135E-03 13848   0.251E-01    0.410E-01
RMM:  10    -0.634739346054E+03    0.12404E-03   -0.36201E-03 14295   0.167E-01    0.358E-01
RMM:  11    -0.634739001422E+03    0.34463E-03   -0.18280E-03 13712   0.112E-01    0.197E-01
RMM:  12    -0.634738824033E+03    0.17739E-03   -0.97401E-04 13606   0.640E-02    0.738E-02
RMM:  13    -0.634738934491E+03   -0.11046E-03   -0.56778E-04 13244   0.491E-02    0.110E-01
RMM:  14    -0.634738936043E+03   -0.15523E-05   -0.31503E-04 12592   0.380E-02    0.675E-02
RMM:  15    -0.634738987814E+03   -0.51770E-04   -0.21300E-04 12451   0.323E-02    0.723E-02
RMM:  16    -0.634739032740E+03   -0.44926E-04   -0.17351E-04 12223   0.330E-02    0.669E-02
RMM:  17    -0.634739034874E+03   -0.21339E-05   -0.11521E-04 11845   0.297E-02    0.413E-02
RMM:  18    -0.634739049204E+03   -0.14329E-04   -0.10540E-04 11624   0.234E-02    0.314E-02
RMM:  19    -0.634739047652E+03    0.15520E-05   -0.59007E-05  9762   0.201E-02
  20 F= -.63473905E+03 E0= -.63466292E+03  d E =-.318559E-01
 trial-energy change:   -0.031856  1 .order   -0.031692   -0.051595   -0.011789
 step:   1.0014(harm=  1.0085)  dis= 0.02649  next Energy=  -634.740743 (dE=-0.336E-01)
 bond charge predicted
       N       E                     dE             d eps       ncg     rms          rms(c)
DAV:   1    -0.634699927801E+03    0.39121E-01   -0.17627E+00 12216   0.812E+00    0.761E-01
RMM:   2    -0.634788760173E+03   -0.88832E-01   -0.57980E-01 14095   0.191E+00    0.256E+00
RMM:   3    -0.634754631677E+03    0.34128E-01   -0.53670E-02 11968   0.812E-01    0.157E+00
RMM:   4    -0.634743210318E+03    0.11421E-01   -0.18438E-02 12851   0.399E-01    0.573E-01
RMM:   5    -0.634742985066E+03    0.22525E-03   -0.62179E-03 13012   0.211E-01    0.551E-01
RMM:   6    -0.634741136421E+03    0.18486E-02   -0.25683E-03 12983   0.128E-01    0.258E-01
RMM:   7    -0.634741082131E+03    0.54290E-04   -0.11039E-03 12520   0.936E-02    0.269E-01
RMM:   8    -0.634741195075E+03   -0.11294E-03   -0.12070E-03 12619   0.104E-01    0.289E-01
RMM:   9    -0.634740707505E+03    0.48757E-03   -0.68360E-04 12991   0.760E-02    0.130E-01
RMM:  10    -0.634740674959E+03    0.32546E-04   -0.30494E-04 11894   0.528E-02    0.933E-02
RMM:  11    -0.634740662258E+03    0.12701E-04   -0.17555E-04 11651   0.331E-02    0.560E-02
RMM:  12    -0.634740650845E+03    0.11413E-04   -0.82098E-05  9120   0.217E-02    0.276E-02
RMM:  13    -0.634740659434E+03   -0.85894E-05   -0.46988E-05  7446   0.193E-02
  21 F= -.63474066E+03 E0= -.63466484E+03  d E =-.334676E-01
 curvature:  -1.19 expect dE=-0.925E-01 dE for cont linesearch -0.125E-05
 trial: gam= 1.29164 g(F)=  0.312E-01 g(S)=  0.466E-01 ort =-0.405E-03 (trialstep = 0.381E+00)
 search vector abs. value=  0.338E+00
 bond charge predicted
       N       E                     dE             d eps       ncg     rms          rms(c)
DAV:   1    -0.634459165939E+03    0.28148E+00   -0.10867E+01  9744   0.201E+01    0.104E+00
RMM:   2    -0.634791045924E+03   -0.33188E+00   -0.31856E+00 14827   0.423E+00    0.247E+00
RMM:   3    -0.634783473704E+03    0.75722E-02   -0.20463E-01 11530   0.162E+00    0.198E+00
RMM:   4    -0.634772689518E+03    0.10784E-01   -0.61006E-02 13507   0.647E-01    0.848E-01
RMM:   5    -0.634769502890E+03    0.31866E-02   -0.13546E-02 13766   0.321E-01    0.690E-01
RMM:   6    -0.634767280876E+03    0.22220E-02   -0.54506E-03 14060   0.167E-01    0.379E-01
RMM:   7    -0.634767998662E+03   -0.71779E-03   -0.35205E-03 13839   0.137E-01    0.541E-01
RMM:   8    -0.634766921861E+03    0.10768E-02   -0.32648E-03 13037   0.160E-01    0.367E-01
RMM:   9    -0.634766162377E+03    0.75948E-03   -0.19165E-03 14096   0.102E-01    0.174E-01
RMM:  10    -0.634766424827E+03   -0.26245E-03   -0.10225E-03 13405   0.815E-02    0.274E-01
RMM:  11    -0.634766059071E+03    0.36576E-03   -0.44364E-04 11986   0.577E-02    0.671E-02
RMM:  12    -0.634766069780E+03   -0.10709E-04   -0.30604E-04 11869   0.340E-02    0.649E-02
RMM:  13    -0.634766075279E+03   -0.54989E-05   -0.15112E-04  9273   0.281E-02    0.640E-02
RMM:  14    -0.634766057419E+03    0.17861E-04   -0.84093E-05  8709   0.222E-02    0.205E-02
RMM:  15    -0.634766068124E+03   -0.10705E-04   -0.65786E-05  7945   0.181E-02    0.355E-02
RMM:  16    -0.634766062094E+03    0.60302E-05   -0.28851E-05  6441   0.193E-02
  22 F= -.63476606E+03 E0= -.63469025E+03  d E =-.254027E-01
 trial-energy change:   -0.025403  1 .order   -0.024911   -0.029458   -0.020364
 step:   0.8711(harm=  1.2344)  dis= 0.03197  next Energy=  -634.780202 (dE=-0.395E-01)
 bond charge predicted
       N       E                     dE             d eps       ncg     rms          rms(c)
DAV:   1    -0.634278639377E+03    0.48743E+00   -0.18006E+01  9840   0.258E+01    0.135E+00
RMM:   2    -0.634833420033E+03   -0.55478E+00   -0.52750E+00 14820   0.542E+00    0.336E+00
RMM:   3    -0.634812303440E+03    0.21117E-01   -0.34159E-01 11516   0.211E+00    0.246E+00
RMM:   4    -0.634795705612E+03    0.16598E-01   -0.10191E-01 13503   0.836E-01    0.104E+00
RMM:   5    -0.634789611369E+03    0.60942E-02   -0.22264E-02 14028   0.393E-01    0.742E-01
RMM:   6    -0.634787110641E+03    0.25007E-02   -0.81683E-03 14335   0.202E-01    0.456E-01
RMM:   7    -0.634788827708E+03   -0.17171E-02   -0.61873E-03 13941   0.187E-01    0.757E-01
RMM:   8    -0.634786562264E+03    0.22654E-02   -0.49660E-03 13240   0.204E-01    0.479E-01
RMM:   9    -0.634785438895E+03    0.11234E-02   -0.28598E-03 14403   0.125E-01    0.216E-01
RMM:  10    -0.634785759558E+03   -0.32066E-03   -0.15768E-03 14001   0.952E-02    0.318E-01
RMM:  11    -0.634785300823E+03    0.45874E-03   -0.70385E-04 12511   0.705E-02    0.946E-02
RMM:  12    -0.634785302496E+03   -0.16730E-05   -0.49124E-04 12939   0.407E-02    0.708E-02
RMM:  13    -0.634785324561E+03   -0.22066E-04   -0.25370E-04 11399   0.347E-02    0.832E-02
RMM:  14    -0.634785299040E+03    0.25521E-04   -0.14484E-04 10921   0.259E-02    0.300E-02
RMM:  15    -0.634785318887E+03   -0.19846E-04   -0.10393E-04 10053   0.214E-02    0.489E-02
RMM:  16    -0.634785307992E+03    0.10894E-04   -0.46694E-05  7553   0.209E-02    0.254E-02
RMM:  17    -0.634785310677E+03   -0.26846E-05   -0.36691E-05  7060   0.196E-02
  23 F= -.63478531E+03 E0= -.63470963E+03  d E =-.446512E-01
 curvature:  -2.21 expect dE=-0.907E-01 dE for cont linesearch -0.333E-02
 ZBRENT: increasing intervall
 opt :   1.8512  next Energy=  -634.777195 (dE=-0.365E-01)
 bond charge predicted
       N       E                     dE             d eps       ncg     rms          rms(c)
DAV:   1    -0.632784827760E+03    0.20005E+01   -0.73022E+01  9816   0.513E+01    0.279E+00
RMM:   2    -0.635175522378E+03   -0.23907E+01   -0.21346E+01 14845   0.110E+01    0.902E+00
RMM:   3    -0.634845651429E+03    0.32987E+00   -0.14179E+00 11575   0.424E+00    0.383E+00
RMM:   4    -0.634818309305E+03    0.27342E-01   -0.42774E-01 13965   0.160E+00    0.205E+00
RMM:   5    -0.634793641076E+03    0.24668E-01   -0.81250E-02 14448   0.724E-01    0.161E+00
RMM:   6    -0.634782829139E+03    0.10812E-01   -0.29480E-02 14494   0.416E-01    0.900E-01
RMM:   7    -0.634787480806E+03   -0.46517E-02   -0.24131E-02 14072   0.343E-01    0.127E+00
RMM:   8    -0.634780749090E+03    0.67317E-02   -0.19036E-02 13602   0.377E-01    0.966E-01
RMM:   9    -0.634776352962E+03    0.43961E-02   -0.98457E-03 14400   0.265E-01    0.425E-01
RMM:  10    -0.634776855390E+03   -0.50243E-03   -0.63404E-03 15171   0.174E-01    0.446E-01
RMM:  11    -0.634775864262E+03    0.99113E-03   -0.26192E-03 14076   0.129E-01    0.186E-01
RMM:  12    -0.634775909325E+03   -0.45063E-04   -0.17674E-03 13863   0.741E-02    0.150E-01
RMM:  13    -0.634775940540E+03   -0.31216E-04   -0.91581E-04 13434   0.637E-02    0.136E-01
RMM:  14    -0.634775898279E+03    0.42261E-04   -0.52679E-04 12939   0.465E-02    0.758E-02
RMM:  15    -0.634775974426E+03   -0.76146E-04   -0.35137E-04 12718   0.417E-02    0.111E-01
RMM:  16    -0.634775942796E+03    0.31630E-04   -0.22005E-04 12146   0.359E-02    0.642E-02
RMM:  17    -0.634775940044E+03    0.27521E-05   -0.14747E-04 11601   0.276E-02    0.394E-02
WARNING in EDDRMM: call to ZHEGV failed, returncode =   6  3      7
RMM:  18    -0.634775942144E+03   -0.21006E-05   -0.11836E-04 10986   0.218E-02    0.188E-02
RMM:  19    -0.634775944974E+03   -0.28294E-05   -0.58566E-05  9034   0.188E-02
  24 F= -.63477594E+03 E0= -.63470076E+03  d E =-.352855E-01
 curvature:   5.38 expect dE= 0.624E+00 dE for cont linesearch  0.313E-01
 ZBRENT: bracketing found
 ZBRENT: interpolating
 opt :   1.2016  next Energy=  -634.789043 (dE=-0.484E-01)
 bond charge predicted
       N       E                     dE             d eps       ncg     rms          rms(c)
DAV:   1    -0.633913150150E+03    0.86279E+00   -0.31830E+01  9840   0.343E+01    0.177E+00
RMM:   2    -0.634889862159E+03   -0.97671E+00   -0.91027E+00 14800   0.729E+00    0.432E+00
RMM:   3    -0.634833112009E+03    0.56750E-01   -0.64042E-01 11599   0.288E+00    0.303E+00
RMM:   4    -0.634815662624E+03    0.17449E-01   -0.18068E-01 13353   0.113E+00    0.192E+00
RMM:   5    -0.634803205108E+03    0.12458E-01   -0.43344E-02 13049   0.623E-01    0.129E+00
RMM:   6    -0.634792600315E+03    0.10605E-01   -0.18315E-02 14217   0.302E-01    0.548E-01
RMM:   7    -0.634795335695E+03   -0.27354E-02   -0.11269E-02 14058   0.244E-01    0.946E-01
RMM:   8    -0.634792813531E+03    0.25222E-02   -0.10609E-02 12755   0.296E-01    0.755E-01
RMM:   9    -0.634789816611E+03    0.29969E-02   -0.64008E-03 14289   0.190E-01    0.338E-01
RMM:  10    -0.634789996597E+03   -0.17999E-03   -0.27850E-03 13953   0.136E-01    0.342E-01
RMM:  11    -0.634789452072E+03    0.54453E-03   -0.13634E-03 13755   0.877E-02    0.134E-01
RMM:  12    -0.634789442556E+03    0.95152E-05   -0.74904E-04 13008   0.554E-02    0.116E-01
RMM:  13    -0.634789486007E+03   -0.43451E-04   -0.44820E-04 12268   0.461E-02    0.118E-01
RMM:  14    -0.634789443402E+03    0.42605E-04   -0.25779E-04 12048   0.325E-02    0.395E-02
RMM:  15    -0.634789498151E+03   -0.54749E-04   -0.16376E-04 11143   0.293E-02    0.872E-02
RMM:  16    -0.634789479275E+03    0.18876E-04   -0.94834E-05  9435   0.262E-02    0.415E-02
RMM:  17    -0.634789478451E+03    0.82371E-06   -0.67177E-05  8663   0.210E-02
  25 F= -.63478948E+03 E0= -.63471395E+03  d E =-.488190E-01
 curvature:  -0.64 expect dE=-0.337E-01 dE for cont linesearch -0.942E-05
 trial: gam= 0.44718 g(F)=  0.463E-01 g(S)=  0.641E-02 ort = 0.223E-02 (trialstep = 0.545E+00)
 search vector abs. value=  0.122E+00
 bond charge predicted
       N       E                     dE             d eps       ncg     rms          rms(c)
DAV:   1    -0.634619712770E+03    0.16977E+00   -0.76677E+00  9744   0.167E+01    0.109E+00
RMM:   2    -0.634855334202E+03   -0.23562E+00   -0.21476E+00 14867   0.379E+00    0.244E+00
RMM:   3    -0.634834347207E+03    0.20987E-01   -0.17503E-01 11674   0.142E+00    0.199E+00
RMM:   4    -0.634820025502E+03    0.14322E-01   -0.44109E-02 13295   0.620E-01    0.914E-01
RMM:   5    -0.634818735897E+03    0.12896E-02   -0.13132E-02 13446   0.339E-01    0.878E-01
RMM:   6    -0.634814114420E+03    0.46215E-02   -0.57747E-03 13643   0.188E-01    0.348E-01
RMM:   7    -0.634815111747E+03   -0.99733E-03   -0.36707E-03 13582   0.154E-01    0.582E-01
RMM:   8    -0.634814370814E+03    0.74093E-03   -0.34287E-03 12934   0.177E-01    0.473E-01
RMM:   9    -0.634813058835E+03    0.13120E-02   -0.21549E-03 14065   0.110E-01    0.158E-01
RMM:  10    -0.634813215127E+03   -0.15629E-03   -0.91708E-04 12857   0.835E-02    0.227E-01
RMM:  11    -0.634812980286E+03    0.23484E-03   -0.44017E-04 11707   0.582E-02    0.876E-02
RMM:  12    -0.634812950366E+03    0.29920E-04   -0.28808E-04 12066   0.326E-02    0.357E-02
RMM:  13    -0.634812961990E+03   -0.11624E-04   -0.15721E-04 10657   0.235E-02    0.428E-02
RMM:  14    -0.634812960960E+03    0.10302E-05   -0.61296E-05  7974   0.217E-02
  26 F= -.63481296E+03 E0= -.63473750E+03  d E =-.234825E-01
 trial-energy change:   -0.023483  1 .order   -0.023287   -0.029257   -0.017317
 step:   1.1958(harm=  1.3359)  dis= 0.02891  next Energy=  -634.823627 (dE=-0.341E-01)
 bond charge predicted
       N       E                     dE             d eps       ncg     rms          rms(c)
DAV:   1    -0.634548682957E+03    0.26428E+00   -0.10918E+01  9672   0.199E+01    0.131E+00
RMM:   2    -0.634886504105E+03   -0.33782E+00   -0.30645E+00 14801   0.455E+00    0.295E+00
RMM:   3    -0.634856758411E+03    0.29746E-01   -0.26140E-01 11652   0.170E+00    0.240E+00
RMM:   4    -0.634835621318E+03    0.21137E-01   -0.62994E-02 13153   0.753E-01    0.107E+00
RMM:   5    -0.634833873077E+03    0.17482E-02   -0.19268E-02 13536   0.403E-01    0.103E+00
RMM:   6    -0.634827482121E+03    0.63910E-02   -0.84510E-03 13904   0.219E-01    0.410E-01
RMM:   7    -0.634829017680E+03   -0.15356E-02   -0.54868E-03 13841   0.184E-01    0.697E-01
RMM:   8    -0.634827896564E+03    0.11211E-02   -0.48003E-03 13102   0.209E-01    0.565E-01
RMM:   9    -0.634826075940E+03    0.18206E-02   -0.30432E-03 14409   0.133E-01    0.189E-01
RMM:  10    -0.634826348158E+03   -0.27222E-03   -0.13848E-03 13475   0.990E-02    0.283E-01
RMM:  11    -0.634825987795E+03    0.36036E-03   -0.70991E-04 12370   0.692E-02    0.974E-02
RMM:  12    -0.634825965428E+03    0.22367E-04   -0.44459E-04 12738   0.397E-02    0.532E-02
RMM:  13    -0.634826004940E+03   -0.39512E-04   -0.21892E-04 11421   0.331E-02    0.916E-02
RMM:  14    -0.634825979799E+03    0.25142E-04   -0.14186E-04 10868   0.248E-02    0.340E-02
RMM:  15    -0.634825994747E+03   -0.14948E-04   -0.96030E-05 10139   0.215E-02    0.431E-02
RMM:  16    -0.634825988232E+03    0.65152E-05   -0.53535E-05  8039   0.206E-02
  27 F= -.63482599E+03 E0= -.63475063E+03  d E =-.365098E-01
 curvature:  -1.47 expect dE=-0.715E-01 dE for cont linesearch -0.543E-03
 trial: gam= 0.77138 g(F)=  0.241E-01 g(S)=  0.244E-01 ort = 0.671E-02 (trialstep = 0.627E+00)
 search vector abs. value=  0.132E+00
 bond charge predicted
       N       E                     dE             d eps       ncg     rms          rms(c)
DAV:   1    -0.634642341163E+03    0.18365E+00   -0.11018E+01 10992   0.193E+01    0.196E+00
RMM:   2    -0.635133971851E+03   -0.49163E+00   -0.33049E+00 13574   0.521E+00    0.573E+00
RMM:   3    -0.634933041894E+03    0.20093E+00   -0.33672E-01 12207   0.196E+00    0.373E+00
RMM:   4    -0.634865271989E+03    0.67770E-01   -0.10546E-01 13018   0.984E-01    0.141E+00
RMM:   5    -0.634865472072E+03   -0.20008E-03   -0.36645E-02 13067   0.555E-01    0.146E+00
RMM:   6    -0.634852387347E+03    0.13085E-01   -0.16587E-02 13268   0.329E-01    0.672E-01
RMM:   7    -0.634852707717E+03   -0.32037E-03   -0.75286E-03 12720   0.258E-01    0.790E-01
RMM:   8    -0.634852606769E+03    0.10095E-03   -0.80972E-03 12855   0.276E-01    0.788E-01
RMM:   9    -0.634849332000E+03    0.32748E-02   -0.41439E-03 13505   0.185E-01    0.326E-01
RMM:  10    -0.634849377454E+03   -0.45454E-04   -0.21684E-03 13423   0.130E-01    0.311E-01
RMM:  11    -0.634849014930E+03    0.36252E-03   -0.10947E-03 13230   0.836E-02    0.142E-01
RMM:  12    -0.634848941457E+03    0.73472E-04   -0.54707E-04 13212   0.536E-02    0.775E-02
RMM:  13    -0.634848983709E+03   -0.42252E-04   -0.36432E-04 12402   0.372E-02    0.801E-02
RMM:  14    -0.634848992607E+03   -0.88981E-05   -0.18802E-04 12034   0.287E-02    0.476E-02
RMM:  15    -0.634849016703E+03   -0.24096E-04   -0.11114E-04 10871   0.248E-02    0.570E-02
RMM:  16    -0.634849047036E+03   -0.30334E-04   -0.10012E-04 10973   0.254E-02    0.432E-02
RMM:  17    -0.634849056591E+03   -0.95544E-05   -0.89108E-05 11412   0.218E-02
  28 F= -.63484906E+03 E0= -.63477414E+03  d E =-.230684E-01
 trial-energy change:   -0.023068  1 .order   -0.022994   -0.033680   -0.012308
 step:   0.9769(harm=  0.9882)  dis= 0.02594  next Energy=  -634.852502 (dE=-0.265E-01)
 bond charge predicted
       N       E                     dE             d eps       ncg     rms          rms(c)
DAV:   1    -0.634788915634E+03    0.60131E-01   -0.34418E+00 11184   0.108E+01    0.109E+00
RMM:   2    -0.634937791735E+03   -0.14888E+00   -0.10156E+00 13484   0.285E+00    0.311E+00
RMM:   3    -0.634877660079E+03    0.60132E-01   -0.10231E-01 12109   0.109E+00    0.206E+00
RMM:   4    -0.634857328163E+03    0.20332E-01   -0.32010E-02 12810   0.546E-01    0.801E-01
RMM:   5    -0.634857308467E+03    0.19695E-04   -0.11143E-02 12748   0.311E-01    0.818E-01
RMM:   6    -0.634853259214E+03    0.40493E-02   -0.51372E-03 13000   0.184E-01    0.380E-01
RMM:   7    -0.634853334761E+03   -0.75547E-04   -0.22944E-03 12474   0.143E-01    0.436E-01
RMM:   8    -0.634853247435E+03    0.87326E-04   -0.24615E-03 12971   0.150E-01    0.415E-01
RMM:   9    -0.634852356578E+03    0.89086E-03   -0.12883E-03 13212   0.103E-01    0.183E-01
RMM:  10    -0.634852357582E+03   -0.10043E-05   -0.66020E-04 12408   0.731E-02    0.163E-01
RMM:  11    -0.634852263148E+03    0.94435E-04   -0.35317E-04 12416   0.466E-02    0.723E-02
RMM:  12    -0.634852249731E+03    0.13417E-04   -0.17610E-04 11774   0.307E-02    0.412E-02
RMM:  13    -0.634852265723E+03   -0.15992E-04   -0.10737E-04  9681   0.213E-02    0.457E-02
RMM:  14    -0.634852271064E+03   -0.53412E-05   -0.60069E-05  8610   0.216E-02
  29 F= -.63485227E+03 E0= -.63477760E+03  d E =-.262828E-01
 curvature:  -1.21 expect dE=-0.654E-01 dE for cont linesearch -0.228E-05
 trial: gam= 1.25989 g(F)=  0.235E-01 g(S)=  0.305E-01 ort =-0.498E-03 (trialstep = 0.351E+00)
 search vector abs. value=  0.262E+00
 bond charge predicted
       N       E                     dE             d eps       ncg     rms          rms(c)
DAV:   1    -0.634708968518E+03    0.14330E+00   -0.68030E+00  9936   0.148E+01    0.724E-01
RMM:   2    -0.634874458568E+03   -0.16549E+00   -0.16571E+00 14581   0.335E+00    0.124E+00
RMM:   3    -0.634877193148E+03   -0.27346E-02   -0.11575E-01 11748   0.113E+00    0.133E+00
RMM:   4    -0.634873399074E+03    0.37941E-02   -0.26764E-02 13221   0.493E-01    0.802E-01
RMM:   5    -0.634870402009E+03    0.29971E-02   -0.78874E-03 13886   0.239E-01    0.455E-01
RMM:   6    -0.634869531069E+03    0.87094E-03   -0.30470E-03 13687   0.121E-01    0.303E-01
RMM:   7    -0.634869543123E+03   -0.12053E-04   -0.16634E-03 12990   0.979E-02    0.301E-01
RMM:   8    -0.634869570699E+03   -0.27576E-04   -0.19816E-03 13200   0.114E-01    0.351E-01
RMM:   9    -0.634868890307E+03    0.68039E-03   -0.90266E-04 12388   0.877E-02    0.110E-01
RMM:  10    -0.634868966059E+03   -0.75752E-04   -0.56612E-04 12695   0.566E-02    0.130E-01
RMM:  11    -0.634868892276E+03    0.73783E-04   -0.23802E-04  9768   0.411E-02    0.744E-02
RMM:  12    -0.634868869097E+03    0.23179E-04   -0.13838E-04  9321   0.260E-02    0.290E-02
RMM:  13    -0.634868881880E+03   -0.12783E-04   -0.90360E-05  8108   0.216E-02    0.472E-02
RMM:  14    -0.634868872486E+03    0.93941E-05   -0.46108E-05  6954   0.199E-02
  30 F= -.63486887E+03 E0= -.63479384E+03  d E =-.166014E-01
 trial-energy change:   -0.016601  1 .order   -0.016100   -0.018722   -0.013478
 step:   0.7539(harm=  1.2514)  dis= 0.03367  next Energy=  -634.877391 (dE=-0.251E-01)
 bond charge predicted
       N       E                     dE             d eps       ncg     rms          rms(c)
DAV:   1    -0.634666339477E+03    0.20254E+00   -0.89856E+00  9792   0.170E+01    0.841E-01
RMM:   2    -0.634887213248E+03   -0.22087E+00   -0.22222E+00 14599   0.387E+00    0.129E+00
RMM:   3    -0.634892469591E+03   -0.52563E-02   -0.15466E-01 11742   0.129E+00    0.152E+00
RMM:   4    -0.634887833480E+03    0.46361E-02   -0.34414E-02 13071   0.576E-01    0.973E-01
RMM:   5    -0.634883379850E+03    0.44536E-02   -0.10471E-02 13858   0.275E-01    0.496E-01
RMM:   6    -0.634882360486E+03    0.10194E-02   -0.40601E-03 13796   0.136E-01    0.354E-01
RMM:   7    -0.634882389723E+03   -0.29237E-04   -0.21479E-03 13056   0.112E-01    0.348E-01
RMM:   8    -0.634882220738E+03    0.16899E-03   -0.26900E-03 13841   0.125E-01    0.349E-01
RMM:   9    -0.634881552415E+03    0.66832E-03   -0.10895E-03 12986   0.945E-02    0.126E-01
RMM:  10    -0.634881652900E+03   -0.10049E-03   -0.66782E-04 12843   0.635E-02    0.151E-01
RMM:  11    -0.634881547920E+03    0.10498E-03   -0.30462E-04 10970   0.444E-02    0.767E-02
RMM:  12    -0.634881527860E+03    0.20060E-04   -0.18615E-04 10605   0.281E-02    0.345E-02
RMM:  13    -0.634881546125E+03   -0.18265E-04   -0.11452E-04  9059   0.240E-02    0.594E-02
RMM:  14    -0.634881532812E+03    0.13313E-04   -0.60656E-05  7874   0.218E-02    0.248E-02
RMM:  15    -0.634881536438E+03   -0.36255E-05   -0.43990E-05  7405   0.179E-02
  31 F= -.63488154E+03 E0= -.63480615E+03  d E =-.292654E-01
 curvature:  -2.13 expect dE=-0.727E-01 dE for cont linesearch -0.367E-02
 ZBRENT: increasing intervall
 opt :   1.5607  next Energy=  -634.884766 (dE=-0.325E-01)
 bond charge predicted
       N       E                     dE             d eps       ncg     rms          rms(c)
DAV:   1    -0.634051025676E+03    0.83051E+00   -0.36286E+01  9984   0.340E+01    0.168E+00
RMM:   2    -0.634911729522E+03   -0.86070E+00   -0.86763E+00 14614   0.756E+00    0.260E+00
RMM:   3    -0.634925650885E+03   -0.13921E-01   -0.55954E-01 11682   0.265E+00    0.298E+00
RMM:   4    -0.634910027622E+03    0.15623E-01   -0.14427E-01 13321   0.114E+00    0.198E+00
RMM:   5    -0.634892439767E+03    0.17588E-01   -0.41158E-02 13921   0.539E-01    0.109E+00
RMM:   6    -0.634887806546E+03    0.46332E-02   -0.16290E-02 14263   0.277E-01    0.731E-01
RMM:   7    -0.634887210882E+03    0.59566E-03   -0.87719E-03 14263   0.210E-01    0.616E-01
RMM:   8    -0.634887974255E+03   -0.76337E-03   -0.10251E-02 13827   0.250E-01    0.842E-01
RMM:   9    -0.634884206742E+03    0.37675E-02   -0.43836E-03 13444   0.187E-01    0.218E-01
RMM:  10    -0.634884649864E+03   -0.44312E-03   -0.28392E-03 14621   0.113E-01    0.277E-01
RMM:  11    -0.634884237687E+03    0.41218E-03   -0.11734E-03 13407   0.851E-02    0.134E-01
RMM:  12    -0.634884214633E+03    0.23054E-04   -0.76348E-04 12875   0.542E-02    0.800E-02
RMM:  13    -0.634884266299E+03   -0.51666E-04   -0.44526E-04 12393   0.419E-02    0.106E-01
RMM:  14    -0.634884230469E+03    0.35830E-04   -0.23421E-04 11560   0.351E-02    0.504E-02
RMM:  15    -0.634884249489E+03   -0.19020E-04   -0.16224E-04 10864   0.267E-02    0.553E-02
RMM:  16    -0.634884246154E+03    0.33345E-05   -0.89676E-05  9311   0.251E-02
  32 F= -.63488425E+03 E0= -.63480847E+03  d E =-.319751E-01
 curvature:  -1.88 expect dE=-0.116E+00 dE for cont linesearch -0.235E-02
 ZBRENT: bracketing found
 ZBRENT: interpolating
 opt :   1.1894  next Energy=  -634.887607 (dE=-0.353E-01)
 bond charge predicted
       N       E                     dE             d eps       ncg     rms          rms(c)
DAV:   1    -0.634707510563E+03    0.17674E+00   -0.76452E+00 10056   0.157E+01    0.785E-01
RMM:   2    -0.634896916497E+03   -0.18941E+00   -0.18748E+00 14505   0.364E+00    0.135E+00
RMM:   3    -0.634895503762E+03    0.14127E-02   -0.13396E-01 11758   0.118E+00    0.134E+00
RMM:   4    -0.634892831544E+03    0.26722E-02   -0.30060E-02 12622   0.547E-01    0.927E-01
RMM:   5    -0.634888513122E+03    0.43184E-02   -0.90490E-03 13497   0.263E-01    0.407E-01
RMM:   6    -0.634887589143E+03    0.92398E-03   -0.32665E-03 13610   0.126E-01    0.277E-01
RMM:   7    -0.634887976447E+03   -0.38730E-03   -0.16421E-03 11943   0.113E-01    0.411E-01
RMM:   8    -0.634887591267E+03    0.38518E-03   -0.20329E-03 12602   0.123E-01    0.336E-01
RMM:   9    -0.634886968206E+03    0.62306E-03   -0.10106E-03 12846   0.827E-02    0.113E-01
RMM:  10    -0.634887034622E+03   -0.66416E-04   -0.53432E-04 12604   0.524E-02    0.132E-01
RMM:  11    -0.634886973984E+03    0.60638E-04   -0.22811E-04 10018   0.398E-02    0.889E-02
RMM:  12    -0.634886939909E+03    0.34074E-04   -0.11504E-04  8546   0.261E-02    0.311E-02
RMM:  13    -0.634886956637E+03   -0.16728E-04   -0.75230E-05  7515   0.222E-02    0.527E-02
RMM:  14    -0.634886948391E+03    0.82465E-05   -0.41630E-05  6814   0.210E-02
  33 F= -.63488695E+03 E0= -.63481128E+03  d E =-.346773E-01
 curvature:  -2.68 expect dE=-0.115E+00 dE for cont linesearch -0.126E-03
 trial: gam= 0.37478 g(F)=  0.325E-01 g(S)=  0.104E-01 ort = 0.350E-02 (trialstep = 0.518E+00)
 search vector abs. value=  0.823E-01
 bond charge predicted
       N       E                     dE             d eps       ncg     rms          rms(c)
DAV:   1    -0.634825664132E+03    0.61293E-01   -0.47953E+00 12096   0.125E+01    0.144E+00
RMM:   2    -0.635044933073E+03   -0.21927E+00   -0.13946E+00 13313   0.343E+00    0.392E+00
RMM:   3    -0.634942019194E+03    0.10291E+00   -0.16292E-01 12046   0.139E+00    0.244E+00
RMM:   4    -0.634913474299E+03    0.28545E-01   -0.47704E-02 12964   0.675E-01    0.113E+00
RMM:   5    -0.634913304270E+03    0.17003E-03   -0.16935E-02 13014   0.390E-01    0.115E+00
RMM:   6    -0.634906385903E+03    0.69184E-02   -0.82736E-03 12702   0.257E-01    0.606E-01
RMM:   7    -0.634905626375E+03    0.75953E-03   -0.41876E-03 12654   0.192E-01    0.536E-01
RMM:   8    -0.634906023900E+03   -0.39753E-03   -0.41200E-03 13242   0.185E-01    0.563E-01
RMM:   9    -0.634904214913E+03    0.18090E-02   -0.23471E-03 13465   0.132E-01    0.246E-01
RMM:  10    -0.634904119468E+03    0.95445E-04   -0.10082E-03 12440   0.984E-02    0.197E-01
RMM:  11    -0.634903961588E+03    0.15788E-03   -0.57652E-04 13250   0.564E-02    0.908E-02
RMM:  12    -0.634903929523E+03    0.32065E-04   -0.27793E-04 12399   0.392E-02    0.539E-02
WARNING in EDDRMM: call to ZHEGV failed, returncode =   6  3      6
RMM:  13    -0.634903943984E+03   -0.14461E-04   -0.17152E-04 11225   0.263E-02    0.563E-02
RMM:  14    -0.634903939857E+03    0.41263E-05   -0.99534E-05 10492   0.229E-02
  34 F= -.63490394E+03 E0= -.63482792E+03  d E =-.169915E-01
 trial-energy change:   -0.016991  1 .order   -0.017098   -0.022930   -0.011265
 step:   1.0835(harm=  1.0189)  dis= 0.02553  next Energy=  -634.909944 (dE=-0.230E-01)
 bond charge predicted
       N       E                     dE             d eps       ncg     rms          rms(c)
DAV:   1    -0.634815543523E+03    0.88400E-01   -0.57000E+00 12024   0.136E+01    0.157E+00
RMM:   2    -0.635082269907E+03   -0.26673E+00   -0.16494E+00 13178   0.376E+00    0.440E+00
RMM:   3    -0.634955581146E+03    0.12669E+00   -0.20034E-01 12003   0.152E+00    0.268E+00
RMM:   4    -0.634921015889E+03    0.34565E-01   -0.57441E-02 12768   0.741E-01    0.126E+00
RMM:   5    -0.634920451281E+03    0.56461E-03   -0.20724E-02 12969   0.426E-01    0.126E+00
RMM:   6    -0.634912644570E+03    0.78067E-02   -0.99923E-03 12612   0.281E-01    0.687E-01
RMM:   7    -0.634911461432E+03    0.11831E-02   -0.50599E-03 12654   0.209E-01    0.565E-01
RMM:   8    -0.634912109062E+03   -0.64763E-03   -0.49329E-03 13491   0.201E-01    0.615E-01
RMM:   9    -0.634909933121E+03    0.21759E-02   -0.29057E-03 13795   0.144E-01    0.263E-01
RMM:  10    -0.634909846154E+03    0.86967E-04   -0.12745E-03 12824   0.108E-01    0.216E-01
RMM:  11    -0.634909662592E+03    0.18356E-03   -0.74028E-04 13430   0.630E-02    0.967E-02
RMM:  12    -0.634909636447E+03    0.26145E-04   -0.36860E-04 12697   0.438E-02    0.605E-02
RMM:  13    -0.634909658524E+03   -0.22077E-04   -0.24565E-04 12037   0.298E-02    0.621E-02
RMM:  14    -0.634909657346E+03    0.11774E-05   -0.14321E-04 11575   0.249E-02    0.359E-02
RMM:  15    -0.634909682287E+03   -0.24941E-04   -0.81725E-05  9606   0.237E-02    0.680E-02
RMM:  16    -0.634909670289E+03    0.11998E-04   -0.73683E-05  9744   0.251E-02    0.217E-02
RMM:  17    -0.634909677395E+03   -0.71056E-05   -0.69122E-05 10159   0.196E-02
  35 F= -.63490968E+03 E0= -.63483339E+03  d E =-.227290E-01
 curvature:  -0.93 expect dE=-0.572E-01 dE for cont linesearch -0.329E-04
 trial: gam= 1.45986 g(F)=  0.206E-01 g(S)=  0.407E-01 ort =-0.170E-02 (trialstep = 0.224E+00)
 search vector abs. value=  0.232E+00
 bond charge predicted
       N       E                     dE             d eps       ncg     rms          rms(c)
DAV:   1    -0.634860769121E+03    0.48901E-01   -0.24654E+00 10224   0.916E+00    0.544E-01
RMM:   2    -0.634929864398E+03   -0.69095E-01   -0.66735E-01 14675   0.215E+00    0.104E+00
RMM:   3    -0.634926674969E+03    0.31894E-02   -0.48617E-02 11694   0.778E-01    0.104E+00
RMM:   4    -0.634923787649E+03    0.28873E-02   -0.12837E-02 13561   0.344E-01    0.569E-01
RMM:   5    -0.634922891884E+03    0.89576E-03   -0.36030E-03 13091   0.186E-01    0.445E-01
RMM:   6    -0.634921826907E+03    0.10650E-02   -0.16664E-03 13272   0.101E-01    0.202E-01
RMM:   7    -0.634921835657E+03   -0.87499E-05   -0.85678E-04 12565   0.727E-02    0.216E-01
RMM:   8    -0.634921958871E+03   -0.12321E-03   -0.96574E-04 12667   0.913E-02    0.280E-01
RMM:   9    -0.634921514092E+03    0.44478E-03   -0.61888E-04 13211   0.722E-02    0.972E-02
RMM:  10    -0.634921558910E+03   -0.44818E-04   -0.30761E-04 11718   0.476E-02    0.120E-01
RMM:  11    -0.634921495069E+03    0.63840E-04   -0.14663E-04 10361   0.320E-02    0.343E-02
RMM:  12    -0.634921496384E+03   -0.13147E-05   -0.91935E-05  8425   0.197E-02
  36 F= -.63492150E+03 E0= -.63484550E+03  d E =-.118190E-01
 trial-energy change:   -0.011819  1 .order   -0.011724   -0.013197   -0.010251
 step:   0.7089(harm=  1.0042)  dis= 0.02782  next Energy=  -634.933535 (dE=-0.239E-01)
 bond charge predicted
       N       E                     dE             d eps       ncg     rms          rms(c)
DAV:   1    -0.634666350763E+03    0.25514E+00   -0.11671E+01 10464   0.198E+01    0.115E+00
RMM:   2    -0.634983052073E+03   -0.31670E+00   -0.30139E+00 14568   0.437E+00    0.238E+00
RMM:   3    -0.634961119422E+03    0.21933E-01   -0.19680E-01 11606   0.172E+00    0.227E+00
RMM:   4    -0.634946073499E+03    0.15046E-01   -0.61819E-02 13617   0.717E-01    0.113E+00
RMM:   5    -0.634943065207E+03    0.30083E-02   -0.17015E-02 12836   0.398E-01    0.937E-01
RMM:   6    -0.634938122069E+03    0.49431E-02   -0.73521E-03 13777   0.209E-01    0.415E-01
RMM:   7    -0.634938405362E+03   -0.28329E-03   -0.39250E-03 13661   0.157E-01    0.491E-01
RMM:   8    -0.634938583045E+03   -0.17768E-03   -0.43894E-03 13291   0.196E-01    0.549E-01
RMM:   9    -0.634936783880E+03    0.17992E-02   -0.27069E-03 13979   0.139E-01    0.189E-01
RMM:  10    -0.634936968498E+03   -0.18462E-03   -0.13128E-03 13634   0.952E-02    0.240E-01
RMM:  11    -0.634936716721E+03    0.25178E-03   -0.64451E-04 13085   0.582E-02    0.725E-02
RMM:  12    -0.634936724659E+03   -0.79380E-05   -0.37979E-04 12298   0.386E-02    0.558E-02
RMM:  13    -0.634936751687E+03   -0.27027E-04   -0.17867E-04 11088   0.298E-02    0.730E-02
RMM:  14    -0.634936743128E+03    0.85587E-05   -0.13164E-04 10588   0.234E-02    0.272E-02
RMM:  15    -0.634936766634E+03   -0.23506E-04   -0.88560E-05 10007   0.202E-02    0.385E-02
RMM:  16    -0.634936765826E+03    0.80831E-06   -0.45747E-05  7864   0.203E-02
  37 F= -.63493677E+03 E0= -.63486157E+03  d E =-.270884E-01
 curvature:  -1.69 expect dE=-0.549E-01 dE for cont linesearch -0.176E-02
 ZBRENT: increasing intervall
 opt :   1.6783  next Energy=  -634.922504 (dE=-0.128E-01)
 bond charge predicted
       N       E                     dE             d eps       ncg     rms          rms(c)
DAV:   1    -0.633828384183E+03    0.11084E+01   -0.46669E+01 10176   0.396E+01    0.230E+00
RMM:   2    -0.635140358812E+03   -0.13120E+01   -0.12176E+01 14551   0.907E+00    0.554E+00
RMM:   3    -0.635019038387E+03    0.12132E+00   -0.87168E-01 11717   0.351E+00    0.451E+00
RMM:   4    -0.634953157273E+03    0.65881E-01   -0.25242E-01 13448   0.148E+00    0.208E+00
RMM:   5    -0.634943289215E+03    0.98681E-02   -0.71466E-02 12777   0.819E-01    0.177E+00
RMM:   6    -0.634924587500E+03    0.18702E-01   -0.29389E-02 14072   0.414E-01    0.778E-01
RMM:   7    -0.634927162888E+03   -0.25754E-02   -0.16169E-02 14021   0.312E-01    0.107E+00
RMM:   8    -0.634925008775E+03    0.21541E-02   -0.18035E-02 13299   0.396E-01    0.948E-01
RMM:   9    -0.634919388209E+03    0.56206E-02   -0.10533E-02 14497   0.253E-01    0.341E-01
RMM:  10    -0.634920239325E+03   -0.85112E-03   -0.46915E-03 14598   0.177E-01    0.481E-01
RMM:  11    -0.634919157600E+03    0.10817E-02   -0.22169E-03 13970   0.109E-01    0.134E-01
RMM:  12    -0.634919222168E+03   -0.64567E-04   -0.13391E-03 13430   0.712E-02    0.130E-01
RMM:  13    -0.634919285365E+03   -0.63197E-04   -0.72119E-04 13104   0.574E-02    0.128E-01
[...]
RMM:   5    -0.635035594021E+03    0.19768E-03   -0.97178E-04 12622   0.860E-02    0.202E-01
RMM:   6    -0.635035399038E+03    0.19498E-03   -0.43195E-04 11815   0.528E-02    0.119E-01
RMM:   7    -0.635035392567E+03    0.64706E-05   -0.26549E-04 11071   0.406E-02    0.118E-01
RMM:   8    -0.635035428939E+03   -0.36372E-04   -0.28291E-04 11096   0.518E-02    0.140E-01
RMM:   9    -0.635035304175E+03    0.12476E-03   -0.19220E-04 11683   0.402E-02    0.456E-02
RMM:  10    -0.635035312097E+03   -0.79218E-05   -0.73906E-05  7367   0.262E-02
  77 F= -.63503531E+03 E0= -.63496456E+03  d E =-.223773E-03
 curvature:  -2.89 expect dE=-0.351E-02 dE for cont linesearch -0.376E-03
 ZBRENT: interpolating
 opt :   1.2263  next Energy=  -635.035472 (dE=-0.384E-03)
 bond charge predicted
       N       E                     dE             d eps       ncg     rms          rms(c)
DAV:   1    -0.635032548838E+03    0.27553E-02   -0.15817E-01 10224   0.215E+00    0.127E-01
RMM:   2    -0.635036121004E+03   -0.35722E-02   -0.33014E-02 14822   0.471E-01    0.297E-01
RMM:   3    -0.635035751304E+03    0.36970E-03   -0.21673E-03 11234   0.197E-01    0.210E-01
RMM:   4    -0.635035636406E+03    0.11490E-03   -0.79111E-04 12540   0.799E-02    0.127E-01
RMM:   5    -0.635035596612E+03    0.39794E-04   -0.18342E-04  9239   0.472E-02    0.109E-01
RMM:   6    -0.635035527992E+03    0.68620E-04   -0.70341E-05  7410   0.294E-02    0.462E-02
RMM:   7    -0.635035535802E+03   -0.78100E-05   -0.54139E-05  7094   0.240E-02
  78 F= -.63503554E+03 E0= -.63496470E+03  d E =-.447478E-03
 curvature:  -1.23 expect dE=-0.871E-03 dE for cont linesearch -0.130E-04
 ZBRENT: interpolating
 opt :   1.0086  next Energy=  -635.035553 (dE=-0.465E-03)
 bond charge predicted
       N       E                     dE             d eps       ncg     rms          rms(c)
DAV:   1    -0.635035251878E+03    0.27611E-03   -0.15570E-02 11616   0.675E-01    0.744E-02
RMM:   2    -0.635036737570E+03   -0.14857E-02   -0.43961E-03 13296   0.171E-01    0.457E-01
RMM:   3    -0.635035585575E+03    0.11520E-02   -0.58008E-04  9687   0.986E-02    0.115E-01
RMM:   4    -0.635035513299E+03    0.72276E-04   -0.19182E-04  9726   0.390E-02    0.372E-02
RMM:   5    -0.635035522058E+03   -0.87586E-05   -0.37156E-05  6358   0.226E-02
  79 F= -.63503552E+03 E0= -.63496465E+03  d E =-.433734E-03
 curvature:  -1.64 expect dE=-0.609E-03 dE for cont linesearch -0.246E-04
 ZBRENT: interpolating
 opt :   1.1269  next Energy=  -635.035542 (dE=-0.454E-03)
 bond charge predicted
       N       E                     dE             d eps       ncg     rms          rms(c)
DAV:   1    -0.635035420424E+03    0.92875E-04   -0.47482E-03 11376   0.374E-01    0.248E-02
RMM:   2    -0.635035563172E+03   -0.14275E-03   -0.96451E-04 13593   0.819E-02    0.109E-01
RMM:   3    -0.635035508767E+03    0.54405E-04   -0.71158E-05  7341   0.432E-02    0.292E-02
RMM:   4    -0.635035510024E+03   -0.12568E-05   -0.21838E-05  5948   0.194E-02
  80 F= -.63503551E+03 E0= -.63496467E+03  d E =-.421700E-03
 curvature:  -0.44 expect dE=-0.168E-03 dE for cont linesearch -0.278E-05
 ZBRENT: bisectioning
 opt :   1.0677  next Energy=  -635.035516 (dE=-0.427E-03)
 bond charge predicted
       N       E                     dE             d eps       ncg     rms          rms(c)
DAV:   1    -0.635035487010E+03    0.21756E-04   -0.11507E-03 11616   0.189E-01    0.234E-02
RMM:   2    -0.635035673651E+03   -0.18664E-03   -0.33342E-04 10364   0.511E-02    0.182E-01
RMM:   3    -0.635035507028E+03    0.16662E-03   -0.59564E-05  6649   0.364E-02    0.218E-02
RMM:   4    -0.635035504855E+03    0.21736E-05   -0.11835E-05  5131   0.134E-02
  81 F= -.63503550E+03 E0= -.63496466E+03  d E =-.416531E-03
 curvature:  -0.87 expect dE=-0.286E-03 dE for cont linesearch -0.187E-04
 ZBRENT: interpolating
 opt :   1.1060  next Energy=  -635.035511 (dE=-0.423E-03)
 bond charge predicted
       N       E                     dE             d eps       ncg     rms          rms(c)
DAV:   1    -0.635035498037E+03    0.89917E-05   -0.47827E-04 11616   0.122E-01    0.140E-02
RMM:   2    -0.635035542244E+03   -0.44207E-04   -0.11808E-04  8525   0.304E-02    0.801E-02
RMM:   3    -0.635035508060E+03    0.34184E-04   -0.17373E-05  6012   0.207E-02    0.237E-02
RMM:   4    -0.635035504783E+03    0.32763E-05   -0.59602E-06  4864   0.111E-02
  82 F= -.63503550E+03 E0= -.63496466E+03  d E =-.416460E-03
 curvature:  -0.05 expect dE=-0.142E-04 dE for cont linesearch -0.207E-06
 ZBRENT: bisectioning
 opt :   1.0869  next Energy=  -635.035506 (dE=-0.418E-03)
 bond charge predicted
       N       E                     dE             d eps       ncg     rms          rms(c)
DAV:   1    -0.635035503577E+03    0.44823E-05   -0.11573E-04 10872   0.615E-02    0.106E-02
RMM:   2    -0.635035540913E+03   -0.37335E-04   -0.31529E-05  6273   0.201E-02    0.867E-02
RMM:   3    -0.635035505143E+03    0.35769E-04   -0.14349E-05  5710   0.207E-02    0.946E-03
RMM:   4    -0.635035504760E+03    0.38341E-06   -0.27351E-06  4734   0.585E-03
  83 F= -.63503550E+03 E0= -.63496466E+03  d E =-.416436E-03
 curvature:  -0.34 expect dE=-0.103E-03 dE for cont linesearch -0.274E-05
 ZBRENT: interpolating
 opt :   1.0980  next Energy=  -635.035505 (dE=-0.417E-03)
 bond charge predicted
       N       E                     dE             d eps       ncg     rms          rms(c)
DAV:   1    -0.635035504418E+03    0.72547E-06   -0.37670E-05  9024   0.365E-02    0.501E-03
RMM:   2    -0.635035509778E+03   -0.53598E-05   -0.84150E-06  5162   0.108E-02
  84 F= -.63503551E+03 E0= -.63496467E+03  d E =-.421454E-03
 curvature:  -0.04 expect dE=-0.113E-04 dE for cont linesearch -0.253E-06
 ZBRENT: bisectioning
 opt :   1.0925  next Energy=  -635.035510 (dE=-0.422E-03)
 bond charge predicted
       N       E                     dE             d eps       ncg     rms          rms(c)
DAV:   1    -0.635035505012E+03   -0.59429E-06   -0.25017E-05  6384   0.315E-02    0.794E-03
RMM:   2    -0.635035521471E+03   -0.16459E-04   -0.98792E-06  5583   0.126E-02    0.565E-02
RMM:   3    -0.635035505720E+03    0.15751E-04   -0.62336E-06  4753   0.119E-02    0.128E-02
RMM:   4    -0.635035504719E+03    0.10016E-05   -0.13191E-06  4174   0.422E-03
  85 F= -.63503550E+03 E0= -.63496466E+03  d E =-.416395E-03
 curvature:  -0.10 expect dE=-0.294E-04 dE for cont linesearch -0.716E-06
 ZBRENT: interpolating
 opt :   1.0954  next Energy=  -635.035510 (dE=-0.422E-03)
 bond charge predicted
       N       E                     dE             d eps       ncg     rms          rms(c)
DAV:   1    -0.635035504756E+03    0.96372E-06   -0.19117E-06  5712   0.108E-02    0.254E-03
RMM:   2    -0.635035506714E+03   -0.19575E-05   -0.14484E-06  4552   0.489E-03
  86 F= -.63503551E+03 E0= -.63496465E+03  d E =-.418390E-03
 curvature:  -0.02 expect dE=-0.525E-05 dE for cont linesearch -0.798E-08
 trial: gam= 0.45412 g(F)=  0.269E-03 g(S)=  0.199E-04 ort =-0.270E-04 (trialstep = 0.602E+00)
 search vector abs. value=  0.606E-03
 bond charge predicted
       N       E                     dE             d eps       ncg     rms          rms(c)
DAV:   1    -0.635034629177E+03    0.87558E-03   -0.47177E-02 10800   0.129E+00    0.972E-02
RMM:   2    -0.635036131364E+03   -0.15022E-02   -0.12893E-02 14216   0.289E-01    0.229E-01
RMM:   3    -0.635035810041E+03    0.32132E-03   -0.95338E-04 10794   0.120E-01    0.172E-01
RMM:   4    -0.635035675393E+03    0.13465E-03   -0.30986E-04 10836   0.565E-02    0.654E-02
RMM:   5    -0.635035676338E+03   -0.94491E-06   -0.78540E-05  7164   0.341E-02
  87 F= -.63503568E+03 E0= -.63496486E+03  d E =-.169624E-03
 trial-energy change:   -0.000170  1 .order   -0.000128   -0.000166   -0.000090
 step:   0.7445(harm=  1.3189)  dis= 0.00126  next Energy=  -635.035688 (dE=-0.181E-03)
 bond charge predicted
       N       E                     dE             d eps       ncg     rms          rms(c)
DAV:   1    -0.635035627349E+03    0.48044E-04   -0.29189E-03 14616   0.315E-01    0.463E-02
RMM:   2    -0.635035999794E+03   -0.37244E-03   -0.76077E-04 10299   0.881E-02    0.255E-01
RMM:   3    -0.635035677788E+03    0.32201E-03   -0.15315E-04  7840   0.549E-02    0.544E-02
RMM:   4    -0.635035665743E+03    0.12044E-04   -0.36044E-05  6330   0.247E-02    0.459E-02
RMM:   5    -0.635035659715E+03    0.60284E-05   -0.17208E-05  5868   0.200E-02
  88 F= -.63503566E+03 E0= -.63496484E+03  d E =-.153001E-03
 curvature:  -0.52 expect dE=-0.603E-04 dE for cont linesearch -0.132E-04
 ZBRENT: increasing intervall
 opt :   1.0293  next Energy=  -635.035688 (dE=-0.181E-03)
 bond charge predicted
       N       E                     dE             d eps       ncg     rms          rms(c)
DAV:   1    -0.635035453336E+03    0.21241E-03   -0.10422E-02 10680   0.610E-01    0.541E-02
RMM:   2    -0.635035976381E+03   -0.52304E-03   -0.32132E-03 13187   0.144E-01    0.203E-01
RMM:   3    -0.635035723388E+03    0.25299E-03   -0.27384E-04  9438   0.649E-02    0.826E-02
RMM:   4    -0.635035686351E+03    0.37037E-04   -0.87726E-05  7987   0.327E-02    0.360E-02
RMM:   5    -0.635035688515E+03   -0.21641E-05   -0.25549E-05  6141   0.203E-02
  89 F= -.63503569E+03 E0= -.63496488E+03  d E =-.181801E-03
 curvature:  -1.10 expect dE=-0.131E-03 dE for cont linesearch -0.734E-05
 ZBRENT: increasing intervall
 opt :   1.5989  next Energy=  -635.035690 (dE=-0.184E-03)
 bond charge predicted
       N       E                     dE             d eps       ncg     rms          rms(c)
DAV:   1    -0.635034755372E+03    0.93098E-03   -0.42056E-02 10344   0.122E+00    0.101E-01
RMM:   2    -0.635036385940E+03   -0.16306E-02   -0.12204E-02 13873   0.282E-01    0.303E-01
RMM:   3    -0.635035851887E+03    0.53405E-03   -0.95948E-04 10569   0.120E-01    0.182E-01
RMM:   4    -0.635035700027E+03    0.15186E-03   -0.34161E-04 10663   0.601E-02    0.794E-02
RMM:   5    -0.635035706608E+03   -0.65810E-05   -0.10913E-04  7865   0.339E-02    0.890E-02
RMM:   6    -0.635035664051E+03    0.42557E-04   -0.41243E-05  6458   0.239E-02    0.383E-02
RMM:   7    -0.635035665707E+03   -0.16569E-05   -0.28960E-05  6284   0.201E-02
  90 F= -.63503567E+03 E0= -.63496487E+03  d E =-.158994E-03
 curvature:  -0.27 expect dE=-0.693E-04 dE for cont linesearch -0.401E-06
 trial: gam= 0.93986 g(F)=  0.189E-03 g(S)=  0.662E-04 ort =-0.299E-04 (trialstep = 0.661E+00)
 search vector abs. value=  0.734E-03
 bond charge predicted
       N       E                     dE             d eps       ncg     rms          rms(c)
DAV:   1    -0.635034351706E+03    0.13123E-02   -0.67989E-02 10104   0.149E+00    0.819E-02
RMM:   2    -0.635036329666E+03   -0.19780E-02   -0.16040E-02 14404   0.317E-01    0.298E-01
RMM:   3    -0.635035893507E+03    0.43616E-03   -0.10897E-03 10394   0.131E-01    0.113E-01
RMM:   4    -0.635035863913E+03    0.29595E-04   -0.36942E-04 11715   0.536E-02    0.665E-02
RMM:   5    -0.635035858080E+03    0.58327E-05   -0.79828E-05  7565   0.310E-02
  91 F= -.63503586E+03 E0= -.63496499E+03  d E =-.192373E-03
 trial-energy change:   -0.000192  1 .order   -0.000124   -0.000150   -0.000097
 step:   1.8639(harm=  1.8639)  dis= 0.00350  next Energy=  -635.035878 (dE=-0.212E-03)
 bond charge predicted
       N       E                     dE             d eps       ncg     rms          rms(c)
DAV:   1    -0.635031182657E+03    0.46813E-02   -0.22681E-01 10296   0.271E+00    0.135E-01
RMM:   2    -0.635036400275E+03   -0.52176E-02   -0.50809E-02 14452   0.560E-01    0.251E-01
RMM:   3    -0.635036216520E+03    0.18376E-03   -0.32119E-03 11051   0.225E-01    0.229E-01
RMM:   4    -0.635036087280E+03    0.12924E-03   -0.10618E-03 12469   0.895E-02    0.124E-01
RMM:   5    -0.635036037600E+03    0.49680E-04   -0.25245E-04  9830   0.490E-02    0.991E-02
RMM:   6    -0.635035986888E+03    0.50712E-04   -0.12159E-04  9425   0.277E-02    0.491E-02
RMM:   7    -0.635036011779E+03   -0.24891E-04   -0.88027E-05  8440   0.273E-02    0.845E-02
RMM:   8    -0.635035996476E+03    0.15303E-04   -0.83144E-05  8170   0.285E-02    0.750E-02
RMM:   9    -0.635035968057E+03    0.28419E-04   -0.51099E-05  7480   0.217E-02    0.253E-02
RMM:  10    -0.635035969512E+03   -0.14555E-05   -0.19132E-05  6085   0.167E-02
  92 F= -.63503597E+03 E0= -.63496507E+03  d E =-.303805E-03
 curvature:  -3.01 expect dE=-0.116E-02 dE for cont linesearch -0.196E-05
 trial: gam= 1.20935 g(F)=  0.260E-03 g(S)=  0.124E-03 ort = 0.219E-04 (trialstep = 0.438E+00)
 search vector abs. value=  0.151E-02
 bond charge predicted
       N       E                     dE             d eps       ncg     rms          rms(c)
DAV:   1    -0.635035046107E+03    0.92195E-03   -0.64607E-02 11832   0.148E+00    0.147E-01
RMM:   2    -0.635037626969E+03   -0.25809E-02   -0.17660E-02 13105   0.354E-01    0.408E-01
RMM:   3    -0.635036513452E+03    0.11135E-02   -0.17072E-03 11114   0.152E-01    0.260E-01
RMM:   4    -0.635036229908E+03    0.28354E-03   -0.56738E-04 11150   0.739E-02    0.133E-01
RMM:   5    -0.635036199385E+03    0.30523E-04   -0.19250E-04  9115   0.455E-02    0.107E-01
RMM:   6    -0.635036127525E+03    0.71860E-04   -0.89673E-05  8265   0.286E-02    0.489E-02
RMM:   7    -0.635036131295E+03   -0.37693E-05   -0.38294E-05  6267   0.246E-02
  93 F= -.63503613E+03 E0= -.63496519E+03  d E =-.161782E-03
 ZBRENT: can't locate minimum, use default step
 trial-energy change:   -0.000162  1 .order   -0.000158   -0.000180   -0.000136
 step:   1.7533(harm=  1.7939)  dis= 0.00453  next Energy=  -635.036338 (dE=-0.368E-03)
 bond charge predicted
       N       E                     dE             d eps       ncg     rms          rms(c)
DAV:   1    -0.635026356878E+03    0.97706E-02   -0.57934E-01 11592   0.442E+00    0.445E-01
RMM:   2    -0.635050583561E+03   -0.24227E-01   -0.16070E-01 13262   0.106E+00    0.128E+00
RMM:   3    -0.635039559786E+03    0.11024E-01   -0.15407E-02 11889   0.458E-01    0.774E-01
RMM:   4    -0.635036834420E+03    0.27254E-02   -0.51600E-03 12265   0.218E-01    0.360E-01
RMM:   5    -0.635036751283E+03    0.83138E-04   -0.19046E-03 11923   0.125E-01    0.345E-01
RMM:   6    -0.635036124097E+03    0.62719E-03   -0.90757E-04 12037   0.840E-02    0.198E-01
RMM:   7    -0.635036035457E+03    0.88640E-04   -0.41442E-04 10467   0.634E-02    0.168E-01
RMM:   8    -0.635036051959E+03   -0.16503E-04   -0.45711E-04 12187   0.614E-02    0.158E-01
RMM:   9    -0.635035906738E+03    0.14522E-03   -0.25907E-04 11799   0.461E-02    0.847E-02
RMM:  10    -0.635035883480E+03    0.23258E-04   -0.10799E-04  8881   0.338E-02    0.504E-02
RMM:  11    -0.635035874750E+03    0.87305E-05   -0.53265E-05  7766   0.217E-02
  94 F= -.63503587E+03 E0= -.63496487E+03  d E =0.947630E-04
 curvature:  -3.30 expect dE=-0.840E-02 dE for cont linesearch -0.771E-03
 ZBRENT: interpolating
 opt :   0.8892  next Energy=  -635.036201 (dE=-0.232E-03)
 bond charge predicted
       N       E                     dE             d eps       ncg     rms          rms(c)
DAV:   1    -0.635032079879E+03    0.38036E-02   -0.25178E-01 11688   0.291E+00    0.290E-01
RMM:   2    -0.635042057069E+03   -0.99772E-02   -0.67906E-02 13457   0.704E-01    0.807E-01
RMM:   3    -0.635037664891E+03    0.43922E-02   -0.65759E-03 12040   0.300E-01    0.491E-01
RMM:   4    -0.635036599019E+03    0.10659E-02   -0.21672E-03 12517   0.141E-01    0.253E-01
RMM:   5    -0.635036517184E+03    0.81836E-04   -0.74689E-04 11310   0.872E-02    0.225E-01
RMM:   6    -0.635036222586E+03    0.29460E-03   -0.36806E-04 11370   0.581E-02    0.118E-01
RMM:   7    -0.635036210857E+03    0.11728E-04   -0.16451E-04  8977   0.449E-02    0.118E-01
RMM:   8    -0.635036176062E+03    0.34795E-04   -0.20302E-04 11090   0.414E-02    0.824E-02
RMM:   9    -0.635036139000E+03    0.37063E-04   -0.74498E-05  7763   0.307E-02    0.503E-02
RMM:  10    -0.635036135379E+03    0.36205E-05   -0.32611E-05  6212   0.230E-02
  95 F= -.63503614E+03 E0= -.63496518E+03  d E =-.165867E-03
 curvature:  -0.30 expect dE=-0.124E-03 dE for cont linesearch -0.432E-06
 trial: gam= 0.98264 g(F)=  0.212E-03 g(S)=  0.203E-03 ort =-0.467E-04 (trialstep = 0.448E+00)
 search vector abs. value=  0.178E-02
 bond charge predicted
       N       E                     dE             d eps       ncg     rms          rms(c)
DAV:   1    -0.635034234167E+03    0.19048E-02   -0.80957E-02 10104   0.173E+00    0.791E-02
RMM:   2    -0.635036463286E+03   -0.22291E-02   -0.20883E-02 14319   0.363E-01    0.220E-01
RMM:   3    -0.635036302146E+03    0.16114E-03   -0.12844E-03 10208   0.142E-01    0.110E-01
RMM:   4    -0.635036312018E+03   -0.98722E-05   -0.41876E-04 11127   0.573E-02    0.843E-02
RMM:   5    -0.635036278770E+03    0.33248E-04   -0.69960E-05  7061   0.294E-02    0.586E-02
RMM:   6    -0.635036263711E+03    0.15059E-04   -0.24892E-05  6152   0.205E-02    0.266E-02
RMM:   7    -0.635036265560E+03   -0.18493E-05   -0.16461E-05  5920   0.156E-02
  96 F= -.63503627E+03 E0= -.63496532E+03  d E =-.130181E-03
 trial-energy change:   -0.000130  1 .order   -0.000112   -0.000165   -0.000058
 step:   0.6923(harm=  0.6923)  dis= 0.00203  next Energy=  -635.036263 (dE=-0.128E-03)
 bond charge predicted
       N       E                     dE             d eps       ncg     rms          rms(c)
DAV:   1    -0.635035683472E+03    0.58024E-03   -0.23772E-02 10128   0.941E-01    0.503E-02
RMM:   2    -0.635036580110E+03   -0.89664E-03   -0.64151E-03 14162   0.199E-01    0.230E-01
RMM:   3    -0.635036302076E+03    0.27803E-03   -0.47235E-04  9378   0.917E-02    0.611E-02
RMM:   4    -0.635036307162E+03   -0.50861E-05   -0.15858E-04  9669   0.354E-02    0.499E-02
RMM:   5    -0.635036300462E+03    0.67009E-05   -0.29610E-05  6230   0.220E-02
  97 F= -.63503630E+03 E0= -.63496535E+03  d E =-.165082E-03
 curvature:  -1.67 expect dE=-0.466E-03 dE for cont linesearch -0.909E-06
 trial: gam= 0.20574 g(F)=  0.162E-03 g(S)=  0.117E-03 ort =-0.311E-04 (trialstep = 0.497E+00)
 search vector abs. value=  0.342E-03
 bond charge predicted
       N       E                     dE             d eps       ncg     rms          rms(c)
DAV:   1    -0.635036464801E+03   -0.15764E-03   -0.18191E-02 13536   0.698E-01    0.151E-01
RMM:   2    -0.635037728868E+03   -0.12641E-02   -0.50177E-03 12065   0.256E-01    0.382E-01
RMM:   3    -0.635036715317E+03    0.10136E-02   -0.11034E-03 10861   0.131E-01    0.230E-01
RMM:   4    -0.635036410222E+03    0.30509E-03   -0.33333E-04 11154   0.621E-02    0.836E-02
RMM:   5    -0.635036449686E+03   -0.39464E-04   -0.13924E-04  8906   0.434E-02    0.125E-01
RMM:   6    -0.635036353068E+03    0.96618E-04   -0.71189E-05  7860   0.299E-02    0.374E-02
RMM:   7    -0.635036373891E+03   -0.20823E-04   -0.44696E-05  6681   0.264E-02    0.738E-02
RMM:   8    -0.635036352022E+03    0.21869E-04   -0.28663E-05  6034   0.242E-02    0.305E-02
RMM:   9    -0.635036349566E+03    0.24567E-05   -0.14729E-05  5757   0.170E-02
  98 F= -.63503635E+03 E0= -.63496543E+03  d E =-.491042E-04
 trial-energy change:   -0.000049  1 .order   -0.000075   -0.000135   -0.000014
 step:   0.5546(harm=  0.5546)  dis= 0.00046  next Energy=  -635.036376 (dE=-0.756E-04)
 bond charge predicted
       N       E                     dE             d eps       ncg     rms          rms(c)
DAV:   1    -0.635036349116E+03    0.29066E-05   -0.25523E-04 14136   0.868E-02    0.259E-02
RMM:   2    -0.635036494127E+03   -0.14501E-03   -0.13209E-04  8054   0.393E-02    0.163E-01
RMM:   3    -0.635036360897E+03    0.13323E-03   -0.45960E-05  6532   0.302E-02    0.396E-02
RMM:   4    -0.635036351501E+03    0.93955E-05   -0.95500E-06  5627   0.138E-02
  99 F= -.63503635E+03 E0= -.63496543E+03  d E =-.510397E-04
 curvature:  -0.35 expect dE=-0.328E-04 dE for cont linesearch -0.269E-06
 trial: gam= 0.39952 g(F)=  0.416E-04 g(S)=  0.527E-04 ort =-0.162E-04 (trialstep = 0.508E+00)
 search vector abs. value=  0.136E-03
 reached required accuracy - stopping structural energy minimisation
