<?xml version="1.0" encoding="ISO-8859-1"?>
<modeling>
 <generator>
  <i name="program" type="string">vasp </i>
  <i name="version" type="string">5.4.4.18Apr17-6-g9f103f2a35  </i>
  <i name="subversion" type="string">(build Oct 18 2021 20:38:43) complex            parallel </i>
  <i name="platform" type="string">LinuxIFC </i>
  <i name="date" type="string">2024 06 18 </i>
  <i name="time" type="string">15:45:26 </i>
 </generator>
 <incar>
  <i type="string" name="SYSTEM">HECN</i>
  <i type="int" name="ISTART">     0</i>
  <i type="string" name="PREC">normal</i>
  <i type="string" name="ALGO">Fast</i>
  <i type="int" name="ICHARG">     2</i>
  <i type="int" name="NELM">    60</i>
  <i type="int" name="IBRION">     2</i>
  <i name="EDIFF">      0.00001000</i>
  <i name="EDIFFG">     -0.01000000</i>
  <i type="int" name="NSW">   100</i>
  <i type="int" name="ISIF">     3</i>
  <i name="ENCUT">    400.00000000</i>
  <i name="POTIM">      0.50000000</i>
  <i type="logical" name="LREAL"> F  </i>
  <i type="int" name="ISMEAR">     0</i>
  <i name="SIGMA">      0.10000000</i>
  <i type="logical" name="LWAVE"> F  </i>
  <i type="logical" name="LCHARG"> F  </i>
  <v type="int" name="KPOINT_BSE">    -1     0     0     0</v>
  <i type="int" name="NELM">    60</i>
 </incar>
 <structure name="primitive_cell" >
  <crystal>
   <varray name="basis" >
    <v>       8.93249989       0.00000000       0.00000000 </v>
    <v>       0.00575300       9.05559834       0.00000000 </v>
    <v>       0.03210180      -0.01574346       8.93712807 </v>
   </varray>
   <i name="volume">    722.91652451 </i>
   <varray name="rec_basis" >
    <v>       0.11195074      -0.00007112      -0.00040225 </v>
    <v>       0.00000000       0.11042893       0.00019453 </v>
    <v>       0.00000000       0.00000000       0.11189277 </v>
   </varray>
  </crystal>
  <varray name="positions" >
   <v>      -0.00311999      -0.00795003      -0.00075998 </v>
   <v>      -0.25232999      -0.00252000       0.01202000 </v>
   <v>      -0.00162995      -0.25686004       0.00460000 </v>
   <v>      -0.00280000      -0.00228008       0.25899999 </v>
   <v>       0.00281000       0.25024000       0.00130000 </v>
   <v>      -0.01103011       0.00202000      -0.26291001 </v>
   <v>       0.26146999      -0.00015998      -0.00704004 </v>
   <v>      -0.00135002      -0.22426001       0.26102000 </v>
   <v>      -0.25720997      -0.02130006      -0.23549005 </v>
   <v>       0.23780002       0.01082000      -0.25392002 </v>
   <v>      -0.24282000      -0.25897003       0.01100000 </v>
   <v>       0.24762001      -0.25026001      -0.00025994 </v>
   <v>      -0.00485996      -0.25507996      -0.25488003 </v>
   <v>      -0.24281000       0.25603001      -0.00408003 </v>
   <v>       0.25398003      -0.00285005       0.24912000 </v>
   <v>       0.24788999       0.24839000      -0.00342003 </v>
   <v>      -0.00562996       0.23617001       0.26379999 </v>
   <v>      -0.25120996      -0.01212001       0.26967001 </v>
   <v>       0.00201000       0.25541000      -0.26105999 </v>
   <v>       0.24177002      -0.24659003      -0.24981998 </v>
   <v>      -0.24963995      -0.25112000      -0.25243996 </v>
   <v>      -0.24255004       0.24437997      -0.25103001 </v>
   <v>       0.25133999      -0.25041998       0.24910999 </v>
   <v>      -0.24367000      -0.26108997       0.25767000 </v>
   <v>      -0.24686002       0.24616999       0.25492002 </v>
   <v>       0.24982001       0.24942998       0.24825000 </v>
   <v>       0.24900999       0.25315000      -0.25146000 </v>
   <v>      -0.48411003       0.01358000      -0.01924992 </v>
   <v>      -0.00158006      -0.49023002      -0.01386996 </v>
   <v>       0.02362000      -0.00216999       0.49557002 </v>
   <v>      -0.49480995      -0.23869001       0.00855000 </v>
   <v>      -0.49285006      -0.00023001       0.24673000 </v>
   <v>      -0.24160996      -0.49684002       0.00288000 </v>
   <v>      -0.00999997      -0.23784997       0.49746000 </v>
   <v>      -0.00948001       0.48088003       0.24100999 </v>
   <v>       0.24446000      -0.00176004      -0.49712002 </v>
   <v>      -0.26367999       0.00417000      -0.48937000 </v>
   <v>       0.24328000      -0.49927003      -0.00489006 </v>
   <v>      -0.49572003       0.24673000       0.00262000 </v>
   <v>      -0.00796004      -0.49944001      -0.24861998 </v>
   <v>      -0.00195991       0.24229999      -0.49871997 </v>
   <v>      -0.49991002       0.00061000      -0.26528002 </v>
   <v>      -0.26123997      -0.47171998      -0.26185001 </v>
   <v>       0.49950005      -0.24518001      -0.25182996 </v>
   <v>       0.24457999      -0.24951001       0.49983999 </v>
   <v>      -0.24599997      -0.27062001       0.49116997 </v>
   <v>      -0.49520997       0.24631001      -0.25289998 </v>
   <v>       0.24803003      -0.49835000       0.24955001 </v>
   <v>      -0.26448999      -0.48531996       0.26666001 </v>
   <v>      -0.49167000       0.25676999       0.25376001 </v>
   <v>      -0.49620997      -0.26073003       0.25905001 </v>
   <v>      -0.24692999       0.26163001      -0.49466998 </v>
   <v>       0.25272001       0.24823001      -0.49984997 </v>
   <v>       0.25679999       0.49462002      -0.25454998 </v>
   <v>       0.47957999      -0.01691999       0.49717999 </v>
   <v>      -0.49498994       0.49745998      -0.00165997 </v>
   <v>      -0.00572008      -0.49550001       0.49779000 </v>
   <v>      -0.49436004       0.23264998       0.49544997 </v>
   <v>      -0.49424994      -0.25041998       0.49720000 </v>
   <v>      -0.49299998      -0.49666998       0.25878999 </v>
   <v>      -0.49498997      -0.49782002      -0.26087997 </v>
   <v>      -0.25963999      -0.49803000      -0.49932997 </v>
   <v>       0.25841001      -0.49937998      -0.49870999 </v>
   <v>      -0.49461000      -0.47166995       0.49917999 </v>
  </varray>
 </structure>
 <varray name="primitive_index" >
  <v type="int" >        1 </v>
  <v type="int" >       25 </v>
  <v type="int" >       38 </v>
  <v type="int" >       34 </v>
  <v type="int" >       23 </v>
  <v type="int" >       29 </v>
  <v type="int" >       22 </v>
  <v type="int" >       59 </v>
  <v type="int" >       58 </v>
  <v type="int" >       56 </v>
  <v type="int" >        9 </v>
  <v type="int" >       18 </v>
  <v type="int" >       12 </v>
  <v type="int" >       17 </v>
  <v type="int" >        2 </v>
  <v type="int" >       14 </v>
  <v type="int" >        8 </v>
  <v type="int" >       16 </v>
  <v type="int" >       10 </v>
  <v type="int" >       45 </v>
  <v type="int" >       49 </v>
  <v type="int" >       30 </v>
  <v type="int" >       36 </v>
  <v type="int" >       39 </v>
  <v type="int" >       24 </v>
  <v type="int" >       21 </v>
  <v type="int" >       42 </v>
  <v type="int" >       53 </v>
  <v type="int" >       54 </v>
  <v type="int" >       61 </v>
  <v type="int" >       28 </v>
  <v type="int" >       26 </v>
  <v type="int" >       40 </v>
  <v type="int" >       47 </v>
  <v type="int" >       27 </v>
  <v type="int" >       43 </v>
  <v type="int" >       31 </v>
  <v type="int" >       37 </v>
  <v type="int" >       35 </v>
  <v type="int" >       48 </v>
  <v type="int" >       44 </v>
  <v type="int" >       33 </v>
  <v type="int" >       63 </v>
  <v type="int" >        7 </v>
  <v type="int" >       20 </v>
  <v type="int" >       64 </v>
  <v type="int" >        5 </v>
  <v type="int" >        3 </v>
  <v type="int" >       60 </v>
  <v type="int" >       15 </v>
  <v type="int" >       55 </v>
  <v type="int" >       11 </v>
  <v type="int" >       19 </v>
  <v type="int" >       13 </v>
  <v type="int" >       57 </v>
  <v type="int" >        4 </v>
  <v type="int" >        6 </v>
  <v type="int" >       32 </v>
  <v type="int" >       51 </v>
  <v type="int" >       41 </v>
  <v type="int" >       52 </v>
  <v type="int" >       50 </v>
  <v type="int" >       46 </v>
  <v type="int" >       62 </v>
 </varray>
 <kpoints>
  <generation param="Gamma">
   <v type="int" name="divisions">       3        3        3 </v>
   <v name="usershift">      0.00000000       0.00000000       0.00000000 </v>
   <v name="genvec1">      0.33333333      -0.00000000      -0.00000000 </v>
   <v name="genvec2">      0.00000000       0.33333333       0.00000000 </v>
   <v name="genvec3">      0.00000000       0.00000000       0.33333333 </v>
   <v name="shift">      0.00000000       0.00000000       0.00000000 </v>
  </generation>
  <varray name="kpointlist" >
   <v>       0.00000000       0.00000000       0.00000000 </v>
   <v>       0.33333333       0.00000000       0.00000000 </v>
   <v>       0.00000000       0.33333333       0.00000000 </v>
   <v>       0.33333333       0.33333333       0.00000000 </v>
   <v>      -0.33333333       0.33333333       0.00000000 </v>
   <v>       0.00000000       0.00000000       0.33333333 </v>
   <v>       0.33333333       0.00000000       0.33333333 </v>
   <v>      -0.33333333       0.00000000       0.33333333 </v>
   <v>       0.00000000       0.33333333       0.33333333 </v>
   <v>       0.33333333       0.33333333       0.33333333 </v>
   <v>      -0.33333333       0.33333333       0.33333333 </v>
   <v>       0.00000000      -0.33333333       0.33333333 </v>
   <v>       0.33333333      -0.33333333       0.33333333 </v>
   <v>      -0.33333333      -0.33333333       0.33333333 </v>
  </varray>
  <varray name="weights" >
   <v>       0.03703704 </v>
   <v>       0.07407407 </v>
   <v>       0.07407407 </v>
   <v>       0.07407407 </v>
   <v>       0.07407407 </v>
   <v>       0.07407407 </v>
   <v>       0.07407407 </v>
   <v>       0.07407407 </v>
   <v>       0.07407407 </v>
   <v>       0.07407407 </v>
   <v>       0.07407407 </v>
   <v>       0.07407407 </v>
   <v>       0.07407407 </v>
   <v>       0.07407407 </v>
  </varray>
 </kpoints>
 <parameters>
  <separator name="general" >
   <i type="string" name="SYSTEM">HECN</i>
   <i type="logical" name="LCOMPAT"> F  </i>
  </separator>
  <separator name="electronic" >
   <i type="string" name="PREC">normal</i>
   <i name="ENMAX">    400.00000000</i>
   <i name="ENAUG">    644.87300000</i>
   <i name="EDIFF">      0.00001000</i>
   <i type="int" name="IALGO">    68</i>
   <i type="int" name="IWAVPR">    11</i>
   <i type="int" name="NBANDS">   312</i>
   <i name="NELECT">    482.00000000</i>
   <i type="int" name="TURBO">     0</i>
   <i type="int" name="IRESTART">     0</i>
   <i type="int" name="NREBOOT">     0</i>
   <i type="int" name="NMIN">     0</i>
   <i name="EREF">      0.00000000</i>
   <separator name="electronic smearing" >
    <i type="int" name="ISMEAR">     0</i>
    <i name="SIGMA">      0.10000000</i>
    <i name="KSPACING">      0.50000000</i>
    <i type="logical" name="KGAMMA"> T  </i>
   </separator>
   <separator name="electronic projectors" >
    <i type="logical" name="LREAL"> F  </i>
    <v name="ROPT">      0.00000000      0.00000000      0.00000000      0.00000000      0.00000000      0.00000000      0.00000000</v>
    <i type="int" name="LMAXPAW">  -100</i>
    <i type="int" name="LMAXMIX">     2</i>
    <i type="logical" name="NLSPLINE"> F  </i>
   </separator>
   <separator name="electronic startup" >
    <i type="int" name="ISTART">     0</i>
    <i type="int" name="ICHARG">     2</i>
    <i type="int" name="INIWAV">     1</i>
   </separator>
   <separator name="electronic spin" >
    <i type="int" name="ISPIN">     1</i>
    <i type="logical" name="LNONCOLLINEAR"> F  </i>
    <v name="MAGMOM">      1.00000000      1.00000000      1.00000000      1.00000000      1.00000000      1.00000000      1.00000000      1.00000000      1.00000000      1.00000000      1.00000000      1.00000000      1.00000000      1.00000000      1.00000000      1.00000000      1.00000000      1.00000000      1.00000000      1.00000000
      1.00000000      1.00000000      1.00000000      1.00000000      1.00000000      1.00000000      1.00000000      1.00000000      1.00000000      1.00000000      1.00000000      1.00000000      1.00000000      1.00000000      1.00000000      1.00000000      1.00000000      1.00000000      1.00000000      1.00000000
      1.00000000      1.00000000      1.00000000      1.00000000      1.00000000      1.00000000      1.00000000      1.00000000      1.00000000      1.00000000      1.00000000      1.00000000      1.00000000      1.00000000      1.00000000      1.00000000      1.00000000      1.00000000      1.00000000      1.00000000
      1.00000000      1.00000000      1.00000000      1.00000000</v>
    <i name="NUPDOWN">     -1.00000000</i>
    <i type="logical" name="LSORBIT"> F  </i>
    <v name="SAXIS">      0.00000000      0.00000000      1.00000000</v>
    <i type="logical" name="LSPIRAL"> F  </i>
    <v name="QSPIRAL">      0.00000000      0.00000000      0.00000000</v>
    <i type="logical" name="LZEROZ"> F  </i>
   </separator>
   <separator name="electronic exchange-correlation" >
    <i type="logical" name="LASPH"> F  </i>
    <i type="logical" name="LMETAGGA"> F  </i>
   </separator>
   <separator name="electronic convergence" >
    <i type="int" name="NELM">    60</i>
    <i type="int" name="NELMDL">    -5</i>
    <i type="int" name="NELMIN">     2</i>
    <i name="ENINI">    400.00000000</i>
    <separator name="electronic convergence detail" >
     <i type="logical" name="LDIAG"> T  </i>
     <i type="logical" name="LSUBROT"> F  </i>
     <i name="WEIMIN">      0.00100000</i>
     <i name="EBREAK">      0.00000001</i>
     <i name="DEPER">      0.30000000</i>
     <i type="int" name="NRMM">     4</i>
     <i name="TIME">      0.40000000</i>
    </separator>
   </separator>
   <separator name="electronic mixer" >
    <i name="AMIX">      0.40000000</i>
    <i name="BMIX">      1.00000000</i>
    <i name="AMIN">      0.10000000</i>
    <i name="AMIX_MAG">      1.60000000</i>
    <i name="BMIX_MAG">      1.00000000</i>
    <separator name="electronic mixer details" >
     <i type="int" name="IMIX">     4</i>
     <i type="logical" name="MIXFIRST"> F  </i>
     <i type="int" name="MAXMIX">   -45</i>
     <i name="WC">    100.00000000</i>
     <i type="int" name="INIMIX">     1</i>
     <i type="int" name="MIXPRE">     1</i>
     <i type="int" name="MREMOVE">     5</i>
    </separator>
   </separator>
   <separator name="electronic dipolcorrection" >
    <i type="logical" name="LDIPOL"> F  </i>
    <i type="logical" name="LMONO"> F  </i>
    <i type="int" name="IDIPOL">     0</i>
    <i name="EPSILON">      1.00000000</i>
    <v name="DIPOL">   -100.00000000   -100.00000000   -100.00000000</v>
    <i name="EFIELD">      0.00000000</i>
   </separator>
  </separator>
  <separator name="grids" >
   <i type="int" name="NGX">    48</i>
   <i type="int" name="NGY">    48</i>
   <i type="int" name="NGZ">    48</i>
   <i type="int" name="NGXF">    96</i>
   <i type="int" name="NGYF">    96</i>
   <i type="int" name="NGZF">    96</i>
   <i type="logical" name="ADDGRID"> F  </i>
  </separator>
  <separator name="ionic" >
   <i type="int" name="NSW">   100</i>
   <i type="int" name="IBRION">     2</i>
   <i type="int" name="MDALGO">     0</i>
   <i type="int" name="ISIF">     3</i>
   <i name="PSTRESS">      0.00000000</i>
   <i name="EDIFFG">     -0.01000000</i>
   <i type="int" name="NFREE">     1</i>
   <i name="POTIM">      0.50000000</i>
   <i name="SMASS">     -3.00000000</i>
   <i name="SCALEE">      1.00000000</i>
  </separator>
  <separator name="ionic md" >
   <i name="TEBEG">      0.00010000</i>
   <i name="TEEND">      0.00010000</i>
   <i type="int" name="NBLOCK">     1</i>
   <i type="int" name="KBLOCK">   100</i>
   <i type="int" name="NPACO">   256</i>
   <i name="APACO">     16.00000000</i>
  </separator>
  <separator name="symmetry" >
   <i type="int" name="ISYM">     2</i>
   <i name="SYMPREC">      0.00001000</i>
  </separator>
  <separator name="dos" >
   <i type="int" name="LORBIT">     0</i>
   <v name="RWIGS">     -1.00000000     -1.00000000     -1.00000000     -1.00000000     -1.00000000     -1.00000000     -1.00000000</v>
   <i type="int" name="NEDOS">   301</i>
   <i name="EMIN">     10.00000000</i>
   <i name="EMAX">    -10.00000000</i>
   <i name="EFERMI">      0.00000000</i>
  </separator>
  <separator name="writing" >
   <i type="int" name="NWRITE">     2</i>
   <i type="logical" name="LWAVE"> F  </i>
   <i type="logical" name="LDOWNSAMPLE"> F  </i>
   <i type="logical" name="LCHARG"> F  </i>
   <i type="logical" name="LPARD"> F  </i>
   <i type="logical" name="LVTOT"> F  </i>
   <i type="logical" name="LVHAR"> F  </i>
   <i type="logical" name="LELF"> F  </i>
   <i type="logical" name="LOPTICS"> F  </i>
   <v name="STM">      0.00000000      0.00000000      0.00000000      0.00000000      0.00000000      0.00000000      0.00000000</v>
  </separator>
  <separator name="performance" >
   <i type="int" name="NPAR">    24</i>
   <i type="int" name="NSIM">     4</i>
   <i type="int" name="NBLK">    -1</i>
   <i type="logical" name="LPLANE"> T  </i>
   <i type="logical" name="LSCALAPACK"> T  </i>
   <i type="logical" name="LSCAAWARE"> F  </i>
   <i type="logical" name="LSCALU"> F  </i>
   <i type="logical" name="LASYNC"> F  </i>
   <i type="logical" name="LORBITALREAL"> F  </i>
  </separator>
  <separator name="miscellaneous" >
   <i type="int" name="IDIOT">     3</i>
   <i type="int" name="ISPECIAL">     0</i>
   <i type="logical" name="LMUSIC"> F  </i>
   <v name="POMASS">     50.94100000    183.85000000    178.49000000     14.00100000     12.01100000     51.99600000     95.94000000</v>
   <v name="DARWINR">      0.00000000      0.00000000      0.00000000      0.00000000      0.00000000      0.00000000      0.00000000</v>
   <v name="DARWINV">      1.00000000      1.00000000      1.00000000      1.00000000      1.00000000      1.00000000      1.00000000</v>
   <i type="logical" name="LCORR"> T  </i>
  </separator>
  <i type="logical" name="GGA_COMPAT"> T  </i>
  <i type="logical" name="LBERRY"> F  </i>
  <i type="int" name="ICORELEVEL">     0</i>
  <i type="logical" name="LDAU"> F  </i>
  <i type="int" name="I_CONSTRAINED_M">     0</i>
  <separator name="electronic exchange-correlation" >
   <i type="string" name="GGA">--</i>
   <i type="int" name="VOSKOWN">     0</i>
   <i type="logical" name="LHFCALC"> F  </i>
   <i type="string" name="PRECFOCK"></i>
   <i type="logical" name="LSYMGRAD"> F  </i>
   <i type="logical" name="LHFONE"> F  </i>
   <i type="logical" name="LRHFCALC"> F  </i>
   <i type="logical" name="LTHOMAS"> F  </i>
   <i type="logical" name="LMODELHF"> F  </i>
   <i name="ENCUT4O">     -1.00000000</i>
   <i type="int" name="EXXOEP">     0</i>
   <i type="int" name="FOURORBIT">     0</i>
   <i name="AEXX">      0.00000000</i>
   <i name="HFALPHA">      0.00000000</i>
   <i name="MCALPHA">      0.00000000</i>
   <i name="ALDAX">      1.00000000</i>
   <i name="AGGAX">      1.00000000</i>
   <i name="ALDAC">      1.00000000</i>
   <i name="AGGAC">      1.00000000</i>
   <i type="int" name="NKREDX">     1</i>
   <i type="int" name="NKREDY">     1</i>
   <i type="int" name="NKREDZ">     1</i>
   <i type="logical" name="SHIFTRED"> F  </i>
   <i type="logical" name="ODDONLY"> F  </i>
   <i type="logical" name="EVENONLY"> F  </i>
   <i type="int" name="LMAXFOCK">     0</i>
   <i type="int" name="NMAXFOCKAE">     0</i>
   <i type="logical" name="LFOCKAEDFT"> F  </i>
   <i name="HFSCREEN">      0.00000000</i>
   <i name="HFSCREENC">      0.00000000</i>
   <i type="int" name="NBANDSGWLOW">     0</i>
  </separator>
  <separator name="vdW DFT" >
   <i type="logical" name="LUSE_VDW"> F  </i>
   <i name="Zab_VDW">     -0.84910000</i>
   <i name="PARAM1">      0.12340000</i>
   <i name="PARAM2">      1.00000000</i>
   <i name="PARAM3">      0.00000000</i>
  </separator>
  <separator name="model GW" >
   <i type="int" name="MODEL_GW">     0</i>
   <i name="MODEL_EPS0">      6.77734242</i>
   <i name="MODEL_ALPHA">      1.00000000</i>
  </separator>
  <separator name="linear response parameters" >
   <i type="logical" name="LEPSILON"> F  </i>
   <i type="logical" name="LRPA"> F  </i>
   <i type="logical" name="LNABLA"> F  </i>
   <i type="logical" name="LVEL"> F  </i>
   <i type="int" name="KINTER">     0</i>
   <i name="CSHIFT">      0.10000000</i>
   <i name="OMEGAMAX">     -1.00000000</i>
   <i name="DEG_THRESHOLD">      0.00200000</i>
   <i name="RTIME">     -0.10000000</i>
   <i name="WPLASMAI">      0.00000000</i>
   <v name="DFIELD">      0.00000000      0.00000000      0.00000000</v>
   <v name="WPLASMA">      0.00000000      0.00000000      0.00000000      0.00000000      0.00000000      0.00000000      0.00000000      0.00000000      0.00000000</v>
  </separator>
  <separator name="orbital magnetization" >
   <i type="logical" name="NUCIND"> F  </i>
   <v name="MAGPOS">      0.00000000      0.00000000      0.00000000</v>
   <i type="logical" name="LNICSALL"> T  </i>
   <i type="logical" name="ORBITALMAG"> F  </i>
   <i type="logical" name="LMAGBLOCH"> F  </i>
   <i type="logical" name="LCHIMAG"> F  </i>
   <i type="logical" name="LGAUGE"> T  </i>
   <i type="int" name="MAGATOM">     0</i>
   <v name="MAGDIPOL">      0.00000000      0.00000000      0.00000000</v>
   <v name="AVECCONST">      0.00000000      0.00000000      0.00000000</v>
  </separator>
  <separator name="response functions" >
   <i type="logical" name="LADDER"> F  </i>
   <i type="logical" name="LRPAFORCE"> F  </i>
   <i type="logical" name="LFXC"> F  </i>
   <i type="logical" name="LHARTREE"> T  </i>
   <i type="int" name="IBSE">     0</i>
   <v type="int" name="KPOINT">    -1     0     0     0</v>
   <i type="logical" name="LTCTE"> F  </i>
   <i type="logical" name="LTETE"> F  </i>
   <i type="logical" name="LTRIPLET"> F  </i>
   <i type="logical" name="LFXCEPS"> F  </i>
   <i type="logical" name="LFXHEG"> F  </i>
   <i type="int" name="NATURALO">     2</i>
   <i type="logical" name="L2ORDER"> F  </i>
   <i type="logical" name="LMP2LT"> F  </i>
   <i type="logical" name="LUSEW"> F  </i>
   <i name="ENCUTGW">     -2.00000000</i>
   <i name="ENCUTGWSOFT">     -2.00000000</i>
   <i name="ENCUTLF">     -1.00000000</i>
   <i type="int" name="LMAXMP2">    -1</i>
   <i name="SCISSOR">      0.00000000</i>
   <i type="int" name="NOMEGA">     0</i>
   <i type="int" name="NOMEGAR">     0</i>
   <i type="int" name="NBANDSGW">    -1</i>
   <i type="int" name="NBANDSO">    -1</i>
   <i type="int" name="NBANDSV">    -1</i>
   <i type="int" name="NELM">    60</i>
   <i type="int" name="NELMHF">     1</i>
   <i type="int" name="DIM">     3</i>
   <i type="int" name="ANTIRES">     0</i>
   <i name="OMEGAMAX">    -30.00000000</i>
   <i name="OMEGAMIN">    -30.00000000</i>
   <i name="OMEGATL">   -200.00000000</i>
   <i type="int" name="OMEGAGRID">   140</i>
   <i name="CSHIFT">     -0.10000000</i>
   <i type="logical" name="SELFENERGY"> F  </i>
   <i type="logical" name="LSPECTRAL"> F  </i>
   <i type="logical" name="LSPECTRALGW"> F  </i>
   <i type="logical" name="LSINGLES"> F  </i>
   <i type="logical" name="LFERMIGW"> F  </i>
   <i type="logical" name="ODDONLYGW"> F  </i>
   <i type="logical" name="EVENONLYGW"> F  </i>
   <i type="int" name="NKREDLFX">     1</i>
   <i type="int" name="NKREDLFY">     1</i>
   <i type="int" name="NKREDLFZ">     1</i>
   <i type="int" name="MAXMEM">  2800</i>
   <i type="int" name="TELESCOPE">     0</i>
   <i type="int" name="TAUPAR">     1</i>
   <i type="int" name="OMEGAPAR">    -1</i>
   <i name="LAMBDA">      1.00000000</i>
  </separator>
  <separator name="External order field" >
   <i name="OFIELD_KAPPA">      0.00000000</i>
   <v name="OFIELD_K">      0.00000000      0.00000000      0.00000000</v>
   <i name="OFIELD_Q6_NEAR">      0.00000000</i>
   <i name="OFIELD_Q6_FAR">      0.00000000</i>
   <i name="OFIELD_A">      0.00000000</i>
  </separator>
 </parameters>
 <atominfo>
  <atoms>      64 </atoms>
  <types>       7 </types>
  <array name="atoms" >
   <dimension dim="1">ion</dimension>
   <field type="string">element</field>
   <field type="int">atomtype</field>
   <set>
    <rc><c>V </c><c>   1</c></rc>
    <rc><c>V </c><c>   1</c></rc>
    <rc><c>V </c><c>   1</c></rc>
    <rc><c>V </c><c>   1</c></rc>
    <rc><c>V </c><c>   1</c></rc>
    <rc><c>V </c><c>   1</c></rc>
    <rc><c>V </c><c>   1</c></rc>
    <rc><c>W </c><c>   2</c></rc>
    <rc><c>W </c><c>   2</c></rc>
    <rc><c>W </c><c>   2</c></rc>
    <rc><c>W </c><c>   2</c></rc>
    <rc><c>W </c><c>   2</c></rc>
    <rc><c>W </c><c>   2</c></rc>
    <rc><c>Hf</c><c>   3</c></rc>
    <rc><c>Hf</c><c>   3</c></rc>
    <rc><c>Hf</c><c>   3</c></rc>
    <rc><c>Hf</c><c>   3</c></rc>
    <rc><c>Hf</c><c>   3</c></rc>
    <rc><c>Hf</c><c>   3</c></rc>
    <rc><c>Hf</c><c>   3</c></rc>
    <rc><c>N </c><c>   4</c></rc>
    <rc><c>N </c><c>   4</c></rc>
    <rc><c>N </c><c>   4</c></rc>
    <rc><c>N </c><c>   4</c></rc>
    <rc><c>N </c><c>   4</c></rc>
    <rc><c>N </c><c>   4</c></rc>
    <rc><c>N </c><c>   4</c></rc>
    <rc><c>N </c><c>   4</c></rc>
    <rc><c>N </c><c>   4</c></rc>
    <rc><c>N </c><c>   4</c></rc>
    <rc><c>N </c><c>   4</c></rc>
    <rc><c>N </c><c>   4</c></rc>
    <rc><c>N </c><c>   4</c></rc>
    <rc><c>C </c><c>   5</c></rc>
    <rc><c>C </c><c>   5</c></rc>
    <rc><c>C </c><c>   5</c></rc>
    <rc><c>C </c><c>   5</c></rc>
    <rc><c>C </c><c>   5</c></rc>
    <rc><c>C </c><c>   5</c></rc>
    <rc><c>C </c><c>   5</c></rc>
    <rc><c>C </c><c>   5</c></rc>
    <rc><c>C </c><c>   5</c></rc>
    <rc><c>C </c><c>   5</c></rc>
    <rc><c>C </c><c>   5</c></rc>
    <rc><c>C </c><c>   5</c></rc>
    <rc><c>C </c><c>   5</c></rc>
    <rc><c>C </c><c>   5</c></rc>
    <rc><c>C </c><c>   5</c></rc>
    <rc><c>C </c><c>   5</c></rc>
    <rc><c>C </c><c>   5</c></rc>
    <rc><c>C </c><c>   5</c></rc>
    <rc><c>C </c><c>   5</c></rc>
    <rc><c>Cr</c><c>   6</c></rc>
    <rc><c>Cr</c><c>   6</c></rc>
    <rc><c>Cr</c><c>   6</c></rc>
    <rc><c>Cr</c><c>   6</c></rc>
    <rc><c>Cr</c><c>   6</c></rc>
    <rc><c>Cr</c><c>   6</c></rc>
    <rc><c>Mo</c><c>   7</c></rc>
    <rc><c>Mo</c><c>   7</c></rc>
    <rc><c>Mo</c><c>   7</c></rc>
    <rc><c>Mo</c><c>   7</c></rc>
    <rc><c>Mo</c><c>   7</c></rc>
    <rc><c>Mo</c><c>   7</c></rc>
   </set>
  </array>
  <array name="atomtypes" >
   <dimension dim="1">type</dimension>
   <field type="int">atomspertype</field>
   <field type="string">element</field>
   <field>mass</field>
   <field>valence</field>
   <field type="string">pseudopotential</field>
   <set>
    <rc><c>   7</c><c>V </c><c>     50.94100000</c><c>     13.00000000</c><c> PAW_PBE V_sv 07Sep2000                 </c></rc>
    <rc><c>   6</c><c>W </c><c>    183.85000000</c><c>     12.00000000</c><c> PAW_PBE W_pv 06Sep2000                 </c></rc>
    <rc><c>   7</c><c>Hf</c><c>    178.49000000</c><c>     10.00000000</c><c> PAW_PBE Hf_pv 06Sep2000                </c></rc>
    <rc><c>  13</c><c>N </c><c>     14.00100000</c><c>      5.00000000</c><c> PAW_PBE N 08Apr2002                    </c></rc>
    <rc><c>  19</c><c>C </c><c>     12.01100000</c><c>      4.00000000</c><c> PAW_PBE C 08Apr2002                    </c></rc>
    <rc><c>   6</c><c>Cr</c><c>     51.99600000</c><c>     12.00000000</c><c> PAW_PBE Cr_pv 07Sep2000                </c></rc>
    <rc><c>   6</c><c>Mo</c><c>     95.94000000</c><c>      6.00000000</c><c> PAW_PBE Mo 08Apr2002                   </c></rc>
   </set>
  </array>
 </atominfo>
 <structure name="initialpos" >
  <crystal>
   <varray name="basis" >
    <v>       8.93249989       0.00000000       0.00000000 </v>
    <v>       0.00575300       9.05559834       0.00000000 </v>
    <v>       0.03210180      -0.01574346       8.93712807 </v>
   </varray>
   <i name="volume">    722.91652451 </i>
   <varray name="rec_basis" >
    <v>       0.11195074      -0.00007112      -0.00040225 </v>
    <v>       0.00000000       0.11042893       0.00019453 </v>
    <v>       0.00000000       0.00000000       0.11189277 </v>
   </varray>
  </crystal>
  <varray name="positions" >
   <v>       0.99688001       0.99204997       0.99924002 </v>
   <v>       0.25398003       0.99714995       0.24912000 </v>
   <v>       0.24803003       0.50165000       0.24955001 </v>
   <v>       0.50501006       0.49745998       0.99834003 </v>
   <v>       0.50479003       0.24631001       0.74710002 </v>
   <v>       0.99427992       0.50449999       0.49779000 </v>
   <v>       0.49950005       0.75481999       0.74817004 </v>
   <v>       0.99437004       0.23617001       0.26379999 </v>
   <v>       0.75718000       0.74102998       0.01100000 </v>
   <v>       0.00201000       0.25541000       0.73894001 </v>
   <v>       0.75307001       0.26163001       0.50533002 </v>
   <v>       0.99514004       0.74492004       0.74511997 </v>
   <v>       0.25679999       0.49462002       0.74545002 </v>
   <v>       0.24788999       0.24839000       0.99657997 </v>
   <v>       0.50833000       0.25676999       0.25376001 </v>
   <v>       0.74879004       0.98787999       0.26967001 </v>
   <v>       0.75719000       0.25603001       0.99591997 </v>
   <v>       0.24762001       0.74973999       0.99974006 </v>
   <v>       0.25272001       0.24823001       0.50015003 </v>
   <v>       0.24457999       0.75048999       0.49983999 </v>
   <v>       0.24982001       0.24942998       0.24825000 </v>
   <v>       0.26146999       0.99984002       0.99295996 </v>
   <v>       0.00281000       0.25024000       0.00130000 </v>
   <v>       0.75313998       0.24617000       0.25492002 </v>
   <v>       0.74767001       0.99748000       0.01202000 </v>
   <v>       0.50714994       0.99977000       0.24673000 </v>
   <v>       0.99051999       0.48088002       0.24100998 </v>
   <v>       0.50519005       0.76130999       0.00855000 </v>
   <v>       0.98896989       0.00202000       0.73708999 </v>
   <v>       0.75744996       0.24437997       0.74896999 </v>
   <v>       0.73632001       0.00417000       0.51063000 </v>
   <v>       0.50563996       0.23264999       0.49544997 </v>
   <v>       0.50008998       0.00061000       0.73471998 </v>
   <v>       0.99720000       0.99771992       0.25899999 </v>
   <v>       0.50427997       0.24673000       0.00262000 </v>
   <v>       0.25133999       0.74958002       0.24910999 </v>
   <v>       0.24328000       0.50072997       0.99510994 </v>
   <v>       0.99837005       0.74313996       0.00460000 </v>
   <v>       0.75633000       0.73891003       0.25767000 </v>
   <v>       0.75839004       0.50315998       0.00288000 </v>
   <v>       0.50700002       0.50333002       0.25878999 </v>
   <v>       0.24900999       0.25315000       0.74854000 </v>
   <v>       0.24446000       0.99823996       0.50287998 </v>
   <v>       0.99804009       0.24229999       0.50128003 </v>
   <v>       0.24177002       0.75340997       0.75018002 </v>
   <v>       0.25841001       0.50062002       0.50129001 </v>
   <v>       0.99000004       0.76215003       0.49746000 </v>
   <v>       0.99203996       0.50055999       0.75138002 </v>
   <v>       0.75036005       0.74888000       0.74756004 </v>
   <v>       0.74036002       0.50197000       0.50067003 </v>
   <v>       0.50575006       0.74958002       0.49720000 </v>
   <v>       0.50501003       0.50217998       0.73912003 </v>
   <v>       0.51588997       0.01358000       0.98075008 </v>
   <v>       0.99841994       0.50976998       0.98613004 </v>
   <v>       0.50379003       0.73926997       0.25905001 </v>
   <v>       0.23780002       0.01082000       0.74607998 </v>
   <v>       0.47957999       0.98308000       0.49717999 </v>
   <v>       0.74279003       0.97869994       0.76450995 </v>
   <v>       0.99864998       0.77573999       0.26102000 </v>
   <v>       0.73551001       0.51468004       0.26666001 </v>
   <v>       0.02362000       0.99783001       0.49557002 </v>
   <v>       0.50539000       0.52833005       0.49917999 </v>
   <v>       0.73876003       0.52828003       0.73814999 </v>
   <v>       0.75400003       0.72937999       0.49116997 </v>
  </varray>
 </structure>
 <calculation>
  <scstep>
   <time name="dav">   22.17   22.24</time>
   <time name="total">   22.21   22.29</time>
   <energy>
    <i name="alphaZ">   3862.93366050 </i>
    <i name="ewald"> -37008.89564716 </i>
    <i name="hartreedc">  -8937.83229027 </i>
    <i name="XCdc">   1339.11412280 </i>
    <i name="pawpsdc">  28803.68308603 </i>
    <i name="pawaedc"> -28648.73714096 </i>
    <i name="eentropy">     -0.06907119 </i>
    <i name="bandstr">   1494.55849016 </i>
    <i name="atom">  44660.94296287 </i>
    <i name="e_fr_energy">   5565.69817278 </i>
    <i name="e_wo_entrp">   5565.76724397 </i>
    <i name="e_0_energy">   5565.73270837 </i>
   </energy>
  </scstep>
  <scstep>
   <time name="dav">   23.28   23.39</time>
   <time name="total">   23.28   23.39</time>
   <energy>
    <i name="e_fr_energy">     76.47098651 </i>
    <i name="e_wo_entrp">     76.65411995 </i>
    <i name="e_0_energy">     76.56255323 </i>
   </energy>
  </scstep>
  <scstep>
   <time name="dav">   30.29   30.32</time>
   <time name="total">   30.29   30.32</time>
   <energy>
    <i name="e_fr_energy">   -707.16706515 </i>
    <i name="e_wo_entrp">   -707.00543183 </i>
    <i name="e_0_energy">   -707.08624849 </i>
   </energy>
  </scstep>
  <scstep>
   <time name="dav">   33.23   33.31</time>
   <time name="total">   33.23   33.31</time>
   <energy>
    <i name="e_fr_energy">   -783.65451801 </i>
    <i name="e_wo_entrp">   -783.50115090 </i>
    <i name="e_0_energy">   -783.57783446 </i>
   </energy>
  </scstep>
  <scstep>
   <time name="dav">   32.95   32.99</time>
   <time name="total">   33.20   33.24</time>
   <energy>
    <i name="e_fr_energy">   -788.02207081 </i>
    <i name="e_wo_entrp">   -787.85961237 </i>
    <i name="e_0_energy">   -787.94084159 </i>
   </energy>
  </scstep>
  <scstep>
   <time name="diag">    1.99    1.99</time>
   <time name="diis">   18.08   18.15</time>
   <time name="orth">    0.48    0.48</time>
   <time name="total">   20.83   20.91</time>
   <energy>
    <i name="e_fr_energy">   -963.12108832 </i>
    <i name="e_wo_entrp">   -962.93497771 </i>
    <i name="e_0_energy">   -963.02803302 </i>
   </energy>
  </scstep>
  <scstep>
   <time name="diag">    1.97    1.98</time>
   <time name="diis">   19.94   19.99</time>
   <time name="orth">    0.50    0.50</time>
   <time name="total">   22.71   22.77</time>
   <energy>
    <i name="e_fr_energy">   -652.79995203 </i>
    <i name="e_wo_entrp">   -652.61136337 </i>
    <i name="e_0_energy">   -652.70565770 </i>
   </energy>
  </scstep>
  <scstep>
   <time name="diag">    1.95    1.96</time>
   <time name="diis">   19.19   19.23</time>
   <time name="orth">    0.48    0.48</time>
   <time name="total">   21.91   21.96</time>
   <energy>
    <i name="e_fr_energy">   -661.63343690 </i>
    <i name="e_wo_entrp">   -661.48725587 </i>
    <i name="e_0_energy">   -661.56034639 </i>
   </energy>
  </scstep>
  <scstep>
   <time name="diag">    1.95    1.96</time>
   <time name="diis">   18.79   18.87</time>
   <time name="orth">    0.48    0.48</time>
   <time name="total">   21.51   21.60</time>
   <energy>
    <i name="e_fr_energy">   -647.09932336 </i>
    <i name="e_wo_entrp">   -646.89535975 </i>
    <i name="e_0_energy">   -646.99734156 </i>
   </energy>
  </scstep>
  <scstep>
   <time name="diag">    1.99    2.00</time>
   <time name="diis">   18.95   19.00</time>
   <time name="orth">    0.48    0.48</time>
   <time name="total">   21.71   21.76</time>
   <energy>
    <i name="e_fr_energy">   -636.36307173 </i>
    <i name="e_wo_entrp">   -636.10694129 </i>
    <i name="e_0_energy">   -636.23500651 </i>
   </energy>
  </scstep>
  <scstep>
   <time name="diag">    1.96    1.96</time>
   <time name="diis">   19.23   19.29</time>
   <time name="orth">    0.48    0.48</time>
   <time name="total">   21.96   22.03</time>
   <energy>
    <i name="e_fr_energy">   -635.54762581 </i>
    <i name="e_wo_entrp">   -635.29049451 </i>
    <i name="e_0_energy">   -635.41906016 </i>
   </energy>
  </scstep>
  <scstep>
   <time name="diag">    1.97    1.97</time>
   <time name="diis">   19.17   19.20</time>
   <time name="orth">    0.48    0.48</time>
   <time name="total">   21.91   21.94</time>
   <energy>
    <i name="e_fr_energy">   -634.68623363 </i>
    <i name="e_wo_entrp">   -634.42316019 </i>
    <i name="e_0_energy">   -634.55469691 </i>
   </energy>
  </scstep>
  <scstep>
   <time name="diag">    1.94    1.94</time>
   <time name="diis">   19.23   19.24</time>
   <time name="orth">    0.48    0.48</time>
   <time name="total">   21.94   21.95</time>
   <energy>
    <i name="e_fr_energy">   -634.69955325 </i>
    <i name="e_wo_entrp">   -634.43496959 </i>
    <i name="e_0_energy">   -634.56726142 </i>
   </energy>
  </scstep>
  <scstep>
   <time name="diag">    1.95    1.95</time>
   <time name="diis">   19.06   19.08</time>
   <time name="orth">    0.49    0.49</time>
   <time name="total">   21.78   21.81</time>
   <energy>
    <i name="e_fr_energy">   -633.80149027 </i>
    <i name="e_wo_entrp">   -633.51036256 </i>
    <i name="e_0_energy">   -633.65592642 </i>
   </energy>
  </scstep>
  <scstep>
   <time name="diag">    1.95    1.95</time>
   <time name="diis">   18.85   18.87</time>
   <time name="orth">    0.48    0.48</time>
   <time name="total">   21.58   21.60</time>
   <energy>
    <i name="e_fr_energy">   -634.01453850 </i>
    <i name="e_wo_entrp">   -633.73588968 </i>
    <i name="e_0_energy">   -633.87521409 </i>
   </energy>
  </scstep>
  <scstep>
   <time name="diag">    1.96    1.96</time>
   <time name="diis">   18.58   18.60</time>
   <time name="orth">    0.49    0.49</time>
   <time name="total">   21.30   21.34</time>
   <energy>
    <i name="e_fr_energy">   -633.69168791 </i>
    <i name="e_wo_entrp">   -633.41248668 </i>
    <i name="e_0_energy">   -633.55208730 </i>
   </energy>
  </scstep>
  <scstep>
   <time name="diag">    1.96    1.96</time>
   <time name="diis">   17.32   17.38</time>
   <time name="orth">    0.48    0.48</time>
   <time name="total">   20.06   20.13</time>
   <energy>
    <i name="e_fr_energy">   -633.43353687 </i>
    <i name="e_wo_entrp">   -633.16254682 </i>
    <i name="e_0_energy">   -633.29804184 </i>
   </energy>
  </scstep>
  <scstep>
   <time name="diag">    1.94    1.94</time>
   <time name="diis">   18.74   18.78</time>
   <time name="orth">    0.48    0.48</time>
   <time name="total">   21.46   21.50</time>
   <energy>
    <i name="e_fr_energy">   -633.11532138 </i>
    <i name="e_wo_entrp">   -632.82627426 </i>
    <i name="e_0_energy">   -632.97079782 </i>
   </energy>
  </scstep>
  <scstep>
   <time name="diag">    1.96    1.98</time>
   <time name="diis">   18.94   18.98</time>
   <time name="orth">    0.48    0.48</time>
   <time name="total">   21.68   21.73</time>
   <energy>
    <i name="e_fr_energy">   -633.07784641 </i>
    <i name="e_wo_entrp">   -632.79501629 </i>
    <i name="e_0_energy">   -632.93643135 </i>
   </energy>
  </scstep>
  <scstep>
   <time name="diag">    1.96    1.97</time>
   <time name="diis">   19.10   19.15</time>
   <time name="orth">    0.48    0.48</time>
   <time name="total">   21.83   21.90</time>
   <energy>
    <i name="e_fr_energy">   -633.05604740 </i>
    <i name="e_wo_entrp">   -632.76917737 </i>
    <i name="e_0_energy">   -632.91261238 </i>
   </energy>
  </scstep>
  <scstep>
   <time name="diag">    1.97    1.97</time>
   <time name="diis">   19.28   19.30</time>
   <time name="orth">    0.48    0.48</time>
   <time name="total">   22.01   22.05</time>
   <energy>
    <i name="e_fr_energy">   -633.01432647 </i>
    <i name="e_wo_entrp">   -632.72518392 </i>
    <i name="e_0_energy">   -632.86975519 </i>
   </energy>
  </scstep>
  <scstep>
   <time name="diag">    1.97    1.97</time>
   <time name="diis">   19.37   19.40</time>
   <time name="orth">    0.48    0.48</time>
   <time name="total">   22.11   22.15</time>
   <energy>
    <i name="e_fr_energy">   -633.01948475 </i>
    <i name="e_wo_entrp">   -632.73385480 </i>
    <i name="e_0_energy">   -632.87666977 </i>
   </energy>
  </scstep>
  <scstep>
   <time name="diag">    1.97    1.99</time>
   <time name="diis">   19.19   19.24</time>
   <time name="orth">    0.48    0.48</time>
   <time name="total">   21.93   22.00</time>
   <energy>
    <i name="e_fr_energy">   -633.00827479 </i>
    <i name="e_wo_entrp">   -632.72056066 </i>
    <i name="e_0_energy">   -632.86441772 </i>
   </energy>
  </scstep>
  <scstep>
   <time name="diag">    1.94    1.95</time>
   <time name="diis">   18.71   18.76</time>
   <time name="orth">    0.48    0.49</time>
   <time name="total">   21.43   21.48</time>
   <energy>
    <i name="e_fr_energy">   -633.01064203 </i>
    <i name="e_wo_entrp">   -632.72290856 </i>
    <i name="e_0_energy">   -632.86677530 </i>
   </energy>
  </scstep>
  <scstep>
   <time name="diag">    1.97    1.97</time>
   <time name="diis">   19.82   19.85</time>
   <time name="orth">    0.48    0.48</time>
   <time name="total">   22.56   22.60</time>
   <energy>
    <i name="e_fr_energy">   -633.00581063 </i>
    <i name="e_wo_entrp">   -632.71810906 </i>
    <i name="e_0_energy">   -632.86195984 </i>
   </energy>
  </scstep>
  <scstep>
   <time name="diag">    1.95    1.95</time>
   <time name="diis">   19.88   19.89</time>
   <time name="orth">    0.48    0.48</time>
   <time name="total">   22.60   22.61</time>
   <energy>
    <i name="e_fr_energy">   -633.00530408 </i>
    <i name="e_wo_entrp">   -632.71768136 </i>
    <i name="e_0_energy">   -632.86149272 </i>
   </energy>
  </scstep>
  <scstep>
   <time name="diag">    1.95    1.95</time>
   <time name="diis">   17.82   17.84</time>
   <time name="orth">    0.48    0.48</time>
   <time name="total">   20.52   20.58</time>
   <energy>
    <i name="e_fr_energy">   -633.00487385 </i>
    <i name="e_wo_entrp">   -632.71726839 </i>
    <i name="e_0_energy">   -632.86107112 </i>
   </energy>
  </scstep>
  <scstep>
   <time name="diag">    1.96    1.97</time>
   <time name="diis">   17.00   17.04</time>
   <time name="orth">    0.48    0.48</time>
   <time name="total">   19.74   19.79</time>
   <energy>
    <i name="e_fr_energy">   -633.00461233 </i>
    <i name="e_wo_entrp">   -632.71708185 </i>
    <i name="e_0_energy">   -632.86084709 </i>
   </energy>
  </scstep>
  <scstep>
   <time name="diag">    1.95    1.95</time>
   <time name="diis">   15.61   15.63</time>
   <time name="orth">    0.48    0.48</time>
   <time name="total">   18.33   18.35</time>
   <energy>
    <i name="e_fr_energy">   -633.00464618 </i>
    <i name="e_wo_entrp">   -632.71713911 </i>
    <i name="e_0_energy">   -632.86089264 </i>
   </energy>
  </scstep>
  <scstep>
   <time name="diag">    1.95    1.95</time>
   <time name="diis">   11.73   11.74</time>
   <time name="orth">    0.48    0.48</time>
   <time name="total">   14.45   14.46</time>
   <energy>
    <i name="e_fr_energy">   -633.00464578 </i>
    <i name="e_wo_entrp">   -632.71712330 </i>
    <i name="e_0_energy">   -632.86088454 </i>
   </energy>
  </scstep>
  <scstep>
   <time name="diag">    1.95    1.95</time>
   <time name="diis">   11.09   11.10</time>
   <time name="orth">    0.48    0.48</time>
   <time name="total">   13.55   13.57</time>
   <energy>
    <i name="alphaZ">   3862.93366050 </i>
    <i name="ewald"> -37008.89564716 </i>
    <i name="hartreedc">  -8376.10408765 </i>
    <i name="XCdc">   1330.20128910 </i>
    <i name="pawpsdc">  29888.19867051 </i>
    <i name="pawaedc"> -29801.06082438 </i>
    <i name="eentropy">     -0.28751262 </i>
    <i name="bandstr">  -5188.93315794 </i>
    <i name="atom">  44660.94296287 </i>
    <i name="e_fr_energy">   -633.00464679 </i>
    <i name="e_wo_entrp">   -632.71713417 </i>
    <i name="e_0_energy">   -632.86089048 </i>
   </energy>
  </scstep>
  <structure>
   <crystal>
    <varray name="basis" >
     <v>       8.93249989       0.00000000       0.00000000 </v>
     <v>       0.00575300       9.05559834       0.00000000 </v>
     <v>       0.03210180      -0.01574346       8.93712807 </v>
    </varray>
    <i name="volume">    722.91652451 </i>
    <varray name="rec_basis" >
     <v>       0.11195074      -0.00007112      -0.00040225 </v>
     <v>       0.00000000       0.11042893       0.00019453 </v>
     <v>       0.00000000       0.00000000       0.11189277 </v>
    </varray>
   </crystal>
   <varray name="positions" >
    <v>       0.99688001       0.99204997       0.99924002 </v>
    <v>       0.25398003       0.99714995       0.24912000 </v>
    <v>       0.24803003       0.50165000       0.24955001 </v>
    <v>       0.50501006       0.49745998       0.99834003 </v>
    <v>       0.50479003       0.24631001       0.74710002 </v>
    <v>       0.99427992       0.50449999       0.49779000 </v>
    <v>       0.49950005       0.75481999       0.74817004 </v>
    <v>       0.99437004       0.23617001       0.26379999 </v>
    <v>       0.75718000       0.74102998       0.01100000 </v>
    <v>       0.00201000       0.25541000       0.73894001 </v>
    <v>       0.75307001       0.26163001       0.50533002 </v>
    <v>       0.99514004       0.74492004       0.74511997 </v>
    <v>       0.25679999       0.49462002       0.74545002 </v>
    <v>       0.24788999       0.24839000       0.99657997 </v>
    <v>       0.50833000       0.25676999       0.25376001 </v>
    <v>       0.74879004       0.98787999       0.26967001 </v>
    <v>       0.75719000       0.25603001       0.99591997 </v>
    <v>       0.24762001       0.74973999       0.99974006 </v>
    <v>       0.25272001       0.24823001       0.50015003 </v>
    <v>       0.24457999       0.75048999       0.49983999 </v>
    <v>       0.24982001       0.24942998       0.24825000 </v>
    <v>       0.26146999       0.99984002       0.99295996 </v>
    <v>       0.00281000       0.25024000       0.00130000 </v>
    <v>       0.75313998       0.24617000       0.25492002 </v>
    <v>       0.74767001       0.99748000       0.01202000 </v>
    <v>       0.50714994       0.99977000       0.24673000 </v>
    <v>       0.99051999       0.48088002       0.24100998 </v>
    <v>       0.50519005       0.76130999       0.00855000 </v>
    <v>       0.98896989       0.00202000       0.73708999 </v>
    <v>       0.75744996       0.24437997       0.74896999 </v>
    <v>       0.73632001       0.00417000       0.51063000 </v>
    <v>       0.50563996       0.23264999       0.49544997 </v>
    <v>       0.50008998       0.00061000       0.73471998 </v>
    <v>       0.99720000       0.99771992       0.25899999 </v>
    <v>       0.50427997       0.24673000       0.00262000 </v>
    <v>       0.25133999       0.74958002       0.24910999 </v>
    <v>       0.24328000       0.50072997       0.99510994 </v>
    <v>       0.99837005       0.74313996       0.00460000 </v>
    <v>       0.75633000       0.73891003       0.25767000 </v>
    <v>       0.75839004       0.50315998       0.00288000 </v>
    <v>       0.50700002       0.50333002       0.25878999 </v>
    <v>       0.24900999       0.25315000       0.74854000 </v>
    <v>       0.24446000       0.99823996       0.50287998 </v>
    <v>       0.99804009       0.24229999       0.50128003 </v>
    <v>       0.24177002       0.75340997       0.75018002 </v>
    <v>       0.25841001       0.50062002       0.50129001 </v>
    <v>       0.99000004       0.76215003       0.49746000 </v>
    <v>       0.99203996       0.50055999       0.75138002 </v>
    <v>       0.75036005       0.74888000       0.74756004 </v>
    <v>       0.74036002       0.50197000       0.50067003 </v>
    <v>       0.50575006       0.74958002       0.49720000 </v>
    <v>       0.50501003       0.50217998       0.73912003 </v>
    <v>       0.51588997       0.01358000       0.98075008 </v>
    <v>       0.99841994       0.50976998       0.98613004 </v>
    <v>       0.50379003       0.73926997       0.25905001 </v>
    <v>       0.23780002       0.01082000       0.74607998 </v>
    <v>       0.47957999       0.98308000       0.49717999 </v>
    <v>       0.74279003       0.97869994       0.76450995 </v>
    <v>       0.99864998       0.77573999       0.26102000 </v>
    <v>       0.73551001       0.51468004       0.26666001 </v>
    <v>       0.02362000       0.99783001       0.49557002 </v>
    <v>       0.50539000       0.52833005       0.49917999 </v>
    <v>       0.73876003       0.52828003       0.73814999 </v>
    <v>       0.75400003       0.72937999       0.49116997 </v>
   </varray>
  </structure>
  <varray name="forces" >
   <v>      -0.02840552      -0.52935295      -0.26309841 </v>
   <v>      -0.27964025      -0.88499660       0.07232269 </v>
   <v>       0.61093467       0.96844409      -0.11713182 </v>
   <v>      -0.10670456      -0.67206735      -0.21711766 </v>
   <v>      -0.70304745      -0.39730870       0.75062711 </v>
   <v>       0.06752807      -0.54990703       0.45191072 </v>
   <v>      -0.10046666       0.54448417      -0.13830538 </v>
   <v>       0.62872376      -0.31549069       0.62124443 </v>
   <v>       0.14897664      -0.26384756      -0.14579662 </v>
   <v>       1.04382538       0.51749956      -1.05990927 </v>
   <v>       0.27041783       0.04416965       0.70373074 </v>
   <v>       0.64368688      -0.45257058       0.36774642 </v>
   <v>       0.47231694       0.23577680       0.60434217 </v>
   <v>       0.17616319      -0.44635564       0.40580057 </v>
   <v>      -0.82840622      -0.93064209      -0.31602776 </v>
   <v>      -1.45655244       0.66031836      -0.44961389 </v>
   <v>      -0.25130459      -0.35509936      -0.74380967 </v>
   <v>       1.11152874       0.73503394       0.13438884 </v>
   <v>       0.68312422       0.26645086      -0.23311923 </v>
   <v>       0.69347102      -0.21763380      -0.14887521 </v>
   <v>      -0.10453778       0.03509451       0.17383133 </v>
   <v>      -0.52586437       0.12789720       0.35932842 </v>
   <v>      -0.14494990      -0.45115378       0.13960306 </v>
   <v>       0.11476954      -0.11027727      -0.06180723 </v>
   <v>       0.27384300      -0.31527861      -0.97534247 </v>
   <v>      -1.07054427      -0.03999465       0.41028038 </v>
   <v>       0.70532796      -0.67875085       0.59984923 </v>
   <v>       0.34145796      -0.51049643      -0.54208554 </v>
   <v>      -0.23586910       0.21798870       1.12063079 </v>
   <v>      -0.48596364      -0.22288048      -0.23368943 </v>
   <v>       0.05242323       0.45836345      -0.00589018 </v>
   <v>       0.10528813      -0.10171646       0.80922318 </v>
   <v>       0.69218697      -0.02565857       0.63810346 </v>
   <v>       1.11198136       0.94963225      -1.64997947 </v>
   <v>       0.00560126       0.34579779      -1.18631605 </v>
   <v>       0.26978498      -0.07880811       0.14384518 </v>
   <v>       0.46501728      -0.15299367       0.37537790 </v>
   <v>      -0.70086728       0.34152945      -0.34969898 </v>
   <v>      -0.95420575       0.60216870      -1.49676960 </v>
   <v>      -0.53692287       0.73724056      -0.04052935 </v>
   <v>      -1.68877644       0.76823534      -1.43381328 </v>
   <v>       0.40030158      -0.42986386      -0.03962512 </v>
   <v>       1.75279510      -0.05945425      -0.09603128 </v>
   <v>      -0.43984979       1.13864474       0.19098850 </v>
   <v>       0.48015287      -0.13509954      -0.04569215 </v>
   <v>      -1.14498918      -0.11411925      -0.47409423 </v>
   <v>       0.65141780      -1.41688066       0.96629196 </v>
   <v>       0.41049952      -0.15159968      -0.28491159 </v>
   <v>      -0.84872967       1.65521897       0.69162417 </v>
   <v>       1.79818908      -1.28807587       0.48225128 </v>
   <v>      -0.65049916       1.29890932       0.22718096 </v>
   <v>      -0.97930841      -0.27449198       1.41902093 </v>
   <v>       0.09944341       0.65124641      -1.00212414 </v>
   <v>      -0.06453276       1.11254905      -0.67344712 </v>
   <v>       0.01279410      -0.64979763      -0.06494041 </v>
   <v>      -0.32529170       0.04167916       0.26916297 </v>
   <v>      -0.65806159      -0.32452630       0.49904563 </v>
   <v>      -0.91646977      -1.00087359       0.43611209 </v>
   <v>       0.79414554       0.13641413      -0.66269359 </v>
   <v>       0.36290338      -0.19873547      -1.13790834 </v>
   <v>      -0.17551551       0.20392538       0.59212822 </v>
   <v>      -1.06463781      -0.06619440       0.01088512 </v>
   <v>      -0.30971477      -0.88290435       1.20486317 </v>
   <v>       0.32960782       0.90118553       0.41845284 </v>
  </varray>
  <varray name="stress" >
   <v>    -223.16345827       0.18846995      -1.09688752 </v>
   <v>       0.18846941    -233.52350348       1.51548236 </v>
   <v>      -1.09688712       1.51548523    -217.80775500 </v>
  </varray>
  <energy>
   <i name="e_fr_energy">   -633.00464679 </i>
   <i name="e_wo_entrp">   -632.86089048 </i>
   <i name="e_0_energy">     -0.28751262 </i>
  </energy>
  <time name="totalsc">  729.63  731.17</time>
 </calculation>
 <calculation>
  <scstep>
   <time name="dav">   29.95   30.06</time>
   <time name="total">   30.24   30.35</time>
   <energy>
    <i name="alphaZ">   4904.18623724 </i>
    <i name="ewald"> -39860.35124894 </i>
    <i name="hartreedc">  -9274.29910857 </i>
    <i name="XCdc">   1481.41791982 </i>
    <i name="pawpsdc">  29888.04673033 </i>
    <i name="pawaedc"> -29800.90169735 </i>
    <i name="eentropy">     -0.10161853 </i>
    <i name="bandstr">  -2829.14364767 </i>
    <i name="atom">  44660.94296287 </i>
    <i name="e_fr_energy">   -830.20347079 </i>
    <i name="e_wo_entrp">   -830.10185227 </i>
    <i name="e_0_energy">   -830.15266153 </i>
   </energy>
  </scstep>
  <scstep>
   <time name="diag">    1.96    1.96</time>
   <time name="diis">   16.78   16.80</time>
   <time name="orth">    0.48    0.48</time>
   <time name="total">   19.50   19.53</time>
   <energy>
    <i name="e_fr_energy">   -909.54502736 </i>
    <i name="e_wo_entrp">   -909.36017290 </i>
    <i name="e_0_energy">   -909.45260013 </i>
   </energy>
  </scstep>
  <scstep>
   <time name="diag">    1.95    1.95</time>
   <time name="diis">   20.24   20.29</time>
   <time name="orth">    0.48    0.48</time>
   <time name="total">   22.95   23.00</time>
   <energy>
    <i name="e_fr_energy">   -681.90468868 </i>
    <i name="e_wo_entrp">   -681.76524278 </i>
    <i name="e_0_energy">   -681.83496573 </i>
   </energy>
  </scstep>
  <scstep>
   <time name="diag">    1.95    1.95</time>
   <time name="diis">   19.96   19.98</time>
   <time name="orth">    0.48    0.48</time>
   <time name="total">   22.67   22.70</time>
   <energy>
    <i name="e_fr_energy">   -652.29331753 </i>
    <i name="e_wo_entrp">   -652.12579173 </i>
    <i name="e_0_energy">   -652.20955463 </i>
   </energy>
  </scstep>
  <scstep>
   <time name="diag">    1.97    1.97</time>
   <time name="diis">   17.41   17.44</time>
   <time name="orth">    0.48    0.48</time>
   <time name="total">   20.15   20.18</time>
   <energy>
    <i name="e_fr_energy">   -636.49290221 </i>
    <i name="e_wo_entrp">   -636.35066595 </i>
    <i name="e_0_energy">   -636.42178408 </i>
   </energy>
  </scstep>
  <scstep>
   <time name="diag">    1.95    1.95</time>
   <time name="diis">   18.22   18.23</time>
   <time name="orth">    0.48    0.48</time>
   <time name="total">   20.94   20.95</time>
   <energy>
    <i name="e_fr_energy">   -629.97966570 </i>
    <i name="e_wo_entrp">   -629.81060500 </i>
    <i name="e_0_energy">   -629.89513535 </i>
   </energy>
  </scstep>
  <scstep>
   <time name="diag">    1.95    1.95</time>
   <time name="diis">   18.64   19.22</time>
   <time name="orth">    0.48    0.48</time>
   <time name="total">   21.36   21.94</time>
   <energy>
    <i name="e_fr_energy">   -628.00774702 </i>
    <i name="e_wo_entrp">   -627.84627905 </i>
    <i name="e_0_energy">   -627.92701304 </i>
   </energy>
  </scstep>
  <scstep>
   <time name="diag">    1.99    2.00</time>
   <time name="diis">   18.17   18.20</time>
   <time name="orth">    0.48    0.48</time>
   <time name="total">   20.93   20.97</time>
   <energy>
    <i name="e_fr_energy">   -626.08514181 </i>
    <i name="e_wo_entrp">   -625.90929458 </i>
    <i name="e_0_energy">   -625.99721820 </i>
   </energy>
  </scstep>
  <scstep>
   <time name="diag">    1.96    1.96</time>
   <time name="diis">   19.26   19.27</time>
   <time name="orth">    0.49    0.49</time>
   <time name="total">   21.99   22.01</time>
   <energy>
    <i name="e_fr_energy">   -625.79262121 </i>
    <i name="e_wo_entrp">   -625.60925736 </i>
    <i name="e_0_energy">   -625.70093928 </i>
   </energy>
  </scstep>
  <scstep>
   <time name="diag">    2.02    2.03</time>
   <time name="diis">   18.75   18.79</time>
   <time name="orth">    0.48    0.48</time>
   <time name="total">   21.54   21.59</time>
   <energy>
    <i name="e_fr_energy">   -625.44526360 </i>
    <i name="e_wo_entrp">   -625.26593700 </i>
    <i name="e_0_energy">   -625.35560030 </i>
   </energy>
  </scstep>
  <scstep>
   <time name="diag">    1.95    1.96</time>
   <time name="diis">   18.83   18.86</time>
   <time name="orth">    0.48    0.48</time>
   <time name="total">   21.56   21.58</time>
   <energy>
    <i name="e_fr_energy">   -625.41501554 </i>
    <i name="e_wo_entrp">   -625.23174978 </i>
    <i name="e_0_energy">   -625.32338266 </i>
   </energy>
  </scstep>
  <scstep>
   <time name="diag">    1.96    1.96</time>
   <time name="diis">   18.70   18.76</time>
   <time name="orth">    0.49    0.49</time>
   <time name="total">   21.45   21.52</time>
   <energy>
    <i name="e_fr_energy">   -625.33776158 </i>
    <i name="e_wo_entrp">   -625.15326830 </i>
    <i name="e_0_energy">   -625.24551494 </i>
   </energy>
  </scstep>
  <scstep>
   <time name="diag">    1.97    2.00</time>
   <time name="diis">   19.98   20.02</time>
   <time name="orth">    0.48    0.48</time>
   <time name="total">   22.73   22.80</time>
   <energy>
    <i name="e_fr_energy">   -625.34718517 </i>
    <i name="e_wo_entrp">   -625.16097324 </i>
    <i name="e_0_energy">   -625.25407920 </i>
   </energy>
  </scstep>
  <scstep>
   <time name="diag">    1.95    1.95</time>
   <time name="diis">   18.82   18.86</time>
   <time name="orth">    0.50    0.50</time>
   <time name="total">   21.55   21.59</time>
   <energy>
    <i name="e_fr_energy">   -625.33311297 </i>
    <i name="e_wo_entrp">   -625.14668601 </i>
    <i name="e_0_energy">   -625.23989949 </i>
   </energy>
  </scstep>
  <scstep>
   <time name="diag">    1.95    1.95</time>
   <time name="diis">   18.56   18.59</time>
   <time name="orth">    0.48    0.48</time>
   <time name="total">   21.29   21.32</time>
   <energy>
    <i name="e_fr_energy">   -625.30954748 </i>
    <i name="e_wo_entrp">   -625.12344658 </i>
    <i name="e_0_energy">   -625.21649703 </i>
   </energy>
  </scstep>
  <scstep>
   <time name="diag">    1.96    1.96</time>
   <time name="diis">   19.11   19.13</time>
   <time name="orth">    0.48    0.48</time>
   <time name="total">   21.84   21.86</time>
   <energy>
    <i name="e_fr_energy">   -625.31010354 </i>
    <i name="e_wo_entrp">   -625.12391851 </i>
    <i name="e_0_energy">   -625.21701103 </i>
   </energy>
  </scstep>
  <scstep>
   <time name="diag">    1.99    1.99</time>
   <time name="diis">   17.32   17.33</time>
   <time name="orth">    0.49    0.49</time>
   <time name="total">   20.07   20.10</time>
   <energy>
    <i name="e_fr_energy">   -625.30532557 </i>
    <i name="e_wo_entrp">   -625.11911607 </i>
    <i name="e_0_energy">   -625.21222082 </i>
   </energy>
  </scstep>
  <scstep>
   <time name="diag">    1.96    1.96</time>
   <time name="diis">   18.42   18.53</time>
   <time name="orth">    0.48    0.48</time>
   <time name="total">   21.15   21.26</time>
   <energy>
    <i name="e_fr_energy">   -625.30533136 </i>
    <i name="e_wo_entrp">   -625.11940094 </i>
    <i name="e_0_energy">   -625.21236615 </i>
   </energy>
  </scstep>
  <scstep>
   <time name="diag">    1.95    1.96</time>
   <time name="diis">   19.34   19.36</time>
   <time name="orth">    0.48    0.48</time>
   <time name="total">   22.06   22.09</time>
   <energy>
    <i name="e_fr_energy">   -625.30480244 </i>
    <i name="e_wo_entrp">   -625.11888917 </i>
    <i name="e_0_energy">   -625.21184580 </i>
   </energy>
  </scstep>
  <scstep>
   <time name="diag">    1.94    1.94</time>
   <time name="diis">   15.96   15.98</time>
   <time name="orth">    0.48    0.48</time>
   <time name="total">   18.67   18.69</time>
   <energy>
    <i name="e_fr_energy">   -625.30476028 </i>
    <i name="e_wo_entrp">   -625.11873794 </i>
    <i name="e_0_energy">   -625.21174911 </i>
   </energy>
  </scstep>
  <scstep>
   <time name="diag">    1.98    2.00</time>
   <time name="diis">   14.74   14.78</time>
   <time name="orth">    0.48    0.48</time>
   <time name="total">   17.49   17.55</time>
   <energy>
    <i name="e_fr_energy">   -625.30464352 </i>
    <i name="e_wo_entrp">   -625.11868838 </i>
    <i name="e_0_energy">   -625.21166595 </i>
   </energy>
  </scstep>
  <scstep>
   <time name="diag">    1.95    1.95</time>
   <time name="diis">   12.95   12.97</time>
   <time name="orth">    0.48    0.48</time>
   <time name="total">   15.66   15.70</time>
   <energy>
    <i name="e_fr_energy">   -625.30464520 </i>
    <i name="e_wo_entrp">   -625.11868921 </i>
    <i name="e_0_energy">   -625.21166721 </i>
   </energy>
  </scstep>
  <scstep>
   <time name="diag">    1.94    1.94</time>
   <time name="diis">   10.40   10.42</time>
   <time name="orth">    0.49    0.49</time>
   <time name="total">   12.86   12.89</time>
   <energy>
    <i name="alphaZ">   4904.18623724 </i>
    <i name="ewald"> -39860.35124894 </i>
    <i name="hartreedc">  -7612.47078986 </i>
    <i name="XCdc">   1390.38882958 </i>
    <i name="pawpsdc">  32942.50772303 </i>
    <i name="pawaedc"> -32880.56955250 </i>
    <i name="eentropy">     -0.18597214 </i>
    <i name="bandstr">  -4169.75283161 </i>
    <i name="atom">  44660.94296287 </i>
    <i name="e_fr_energy">   -625.30464233 </i>
    <i name="e_wo_entrp">   -625.11867019 </i>
    <i name="e_0_energy">   -625.21165626 </i>
   </energy>
  </scstep>
  <structure>
   <crystal>
    <varray name="basis" >
     <v>       8.25450738       0.00057259      -0.00333245 </v>
     <v>       0.00589681       8.33635423       0.00466549 </v>
     <v>       0.02633003      -0.00988440       8.27504377 </v>
    </varray>
    <i name="volume">    569.42751379 </i>
    <varray name="rec_basis" >
     <v>       0.12114578      -0.00008548      -0.00038557 </v>
     <v>      -0.00000826       0.11995644       0.00014331 </v>
     <v>       0.00004879      -0.00006767       0.12084505 </v>
    </varray>
   </crystal>
   <varray name="positions" >
    <v>       0.99673352       0.98922743       0.99781981 </v>
    <v>       0.25247138       0.99243592       0.24951039 </v>
    <v>       0.25132851       0.50680818       0.24891773 </v>
    <v>       0.50444029       0.49387758       0.99716803 </v>
    <v>       0.50097981       0.24420044       0.75115190 </v>
    <v>       0.99463774       0.50157467       0.50022941 </v>
    <v>       0.49895827       0.75771937       0.74742347 </v>
    <v>       0.99775468       0.23449510       0.26715347 </v>
    <v>       0.75798832       0.73962299       0.01021299 </v>
    <v>       0.00766629       0.25815697       0.73321862 </v>
    <v>       0.75451668       0.26187192       0.50912876 </v>
    <v>       0.99861089       0.74251247       0.74710507 </v>
    <v>       0.25933835       0.49588177       0.74871226 </v>
    <v>       0.24883507       0.24601590       0.99877048 </v>
    <v>       0.50386527       0.25180914       0.25205409 </v>
    <v>       0.74092995       0.99139354       0.26724299 </v>
    <v>       0.75584840       0.25413128       0.99190488 </v>
    <v>       0.25361803       0.75365706       0.00046549 </v>
    <v>       0.25641303       0.24964731       0.49889165 </v>
    <v>       0.24832893       0.74932917       0.49903636 </v>
    <v>       0.24925193       0.24961857       0.24918834 </v>
    <v>       0.25862249       0.00052475       0.99489962 </v>
    <v>       0.00202599       0.24783784       0.00205358 </v>
    <v>       0.75376141       0.24558193       0.25458638 </v>
    <v>       0.74916899       0.99579123       0.00675510 </v>
    <v>       0.50136032       0.99956078       0.24894470 </v>
    <v>       0.99432002       0.47726969       0.24424797 </v>
    <v>       0.50704647       0.75858529       0.00562382 </v>
    <v>       0.98767351       0.00319183       0.74313916 </v>
    <v>       0.75483066       0.24319041       0.74770853 </v>
    <v>       0.73660168       0.00661182       0.51059821 </v>
    <v>       0.50619324       0.23211570       0.49981816 </v>
    <v>       0.50381605       0.00047930       0.73816447 </v>
    <v>       0.00323435       0.00276349       0.25009340 </v>
    <v>       0.50433205       0.24856106      -0.00378374 </v>
    <v>       0.25279452       0.74916152       0.24988647 </v>
    <v>       0.24578471       0.49991844       0.99713623 </v>
    <v>       0.99459042       0.74495614       0.00271232 </v>
    <v>       0.75120350       0.74210397       0.24959043 </v>
    <v>       0.75548848       0.50708716       0.00266122 </v>
    <v>       0.49790446       0.50740925       0.25105026 </v>
    <v>       0.25117418       0.25085958       0.74832611 </v>
    <v>       0.25392857       0.99792232       0.50236160 </v>
    <v>       0.99565693       0.24836778       0.50231099 </v>
    <v>       0.24436458       0.75268982       0.74993337 </v>
    <v>       0.25223574       0.50000761       0.49873085 </v>
    <v>       0.99350432       0.75461083       0.50267605 </v>
    <v>       0.99426304       0.49974969       0.74984206 </v>
    <v>       0.74575713       0.75770448       0.75129343 </v>
    <v>       0.75006674       0.49511245       0.50327322 </v>
    <v>       0.50222797       0.75650194       0.49842633 </v>
    <v>       0.49969439       0.50073098       0.74677991 </v>
    <v>       0.51644425       0.01704003       0.97534061 </v>
    <v>       0.99808066       0.51569064       0.98249477 </v>
    <v>       0.50386262       0.73580763       0.25869946 </v>
    <v>       0.23603782       0.01104457       0.74753292 </v>
    <v>       0.47601736       0.98135581       0.49987384 </v>
    <v>       0.73783533       0.97337199       0.76686409 </v>
    <v>       0.00295139       0.77646050       0.25744278 </v>
    <v>       0.73749274       0.51361062       0.26051758 </v>
    <v>       0.02265988       0.99892196       0.49876633 </v>
    <v>       0.49964011       0.52797751       0.49923875 </v>
    <v>       0.73706697       0.52358776       0.74465385 </v>
    <v>       0.75576897       0.73418488       0.49342878 </v>
   </varray>
  </structure>
  <varray name="forces" >
   <v>       0.58575132       0.04672531      -0.81164313 </v>
   <v>       0.02914307      -0.22961988      -0.12950250 </v>
   <v>       0.36563077       0.49205535      -0.49924979 </v>
   <v>      -0.69380336      -0.41515128      -0.04342646 </v>
   <v>      -0.79222317      -0.09479661       0.52003252 </v>
   <v>       1.18027337      -0.51553587      -0.09116291 </v>
   <v>      -0.44527179       0.67843919       0.16431413 </v>
   <v>       0.99730054       1.26291155      -1.84283771 </v>
   <v>      -1.64087731       2.18624375      -1.14360073 </v>
   <v>       0.22693112      -0.41178774       2.24007225 </v>
   <v>      -1.26181537      -1.25917332       0.00580957 </v>
   <v>       0.24854614       0.80805291       1.20673236 </v>
   <v>      -0.87453691       0.78935116       0.84251442 </v>
   <v>      -0.02067607      -0.15732029       0.39419271 </v>
   <v>      -0.93089857       0.11140016      -0.73413903 </v>
   <v>       0.67658121       0.55975282      -1.30100971 </v>
   <v>      -0.01312632      -0.46719608       0.05364738 </v>
   <v>       1.01624101       0.34880816       0.03420755 </v>
   <v>       0.34874621       0.11651618      -0.32561938 </v>
   <v>      -0.11199975      -0.01550830       0.06968232 </v>
   <v>      -0.12488124       0.14132353      -0.04906297 </v>
   <v>      -0.06288619      -0.11825676       0.35356452 </v>
   <v>       0.04326256      -0.18563052       0.17536305 </v>
   <v>      -0.19230856       0.47191621      -0.45387336 </v>
   <v>       0.28209563      -0.08841847      -0.93002648 </v>
   <v>      -2.40442109      -1.02411351      -0.39747507 </v>
   <v>       0.96797040       1.39638962      -0.03867164 </v>
   <v>       0.01890240      -0.11404468      -0.53425219 </v>
   <v>      -0.52518995       0.19413835       1.74999803 </v>
   <v>      -0.93320459      -0.30642500       0.01570737 </v>
   <v>       0.29401997      -0.49049435       1.64113274 </v>
   <v>       0.30497442       0.20755416       1.37590083 </v>
   <v>       0.02498697       0.07419226       0.49410409 </v>
   <v>       0.40042327       0.18768712      -1.84358362 </v>
   <v>      -0.42946783       0.63370606      -0.93812214 </v>
   <v>       1.13329306      -0.14470823      -0.16827829 </v>
   <v>       0.27579056       0.15059344       1.38261328 </v>
   <v>       1.92644668       0.66382581       0.16851375 </v>
   <v>      -1.01714890       1.42127755       0.06989085 </v>
   <v>      -0.37922452      -1.62912941       0.11910370 </v>
   <v>      -2.10658055       0.12637483      -1.68865323 </v>
   <v>       1.69940582      -1.25473103       0.28951399 </v>
   <v>       1.31904142       0.09196112       0.24467072 </v>
   <v>       1.38797773       1.21903525      -0.52290338 </v>
   <v>       1.63276698       0.79531966       0.20443783 </v>
   <v>      -1.52728169      -0.06467702      -1.15663551 </v>
   <v>       1.03451822      -1.61744744       0.00731057 </v>
   <v>       0.32338460      -0.28725381      -0.33086797 </v>
   <v>      -0.91651836       0.61442111      -0.00001026 </v>
   <v>       0.76027010       0.34257580      -0.14283857 </v>
   <v>       0.17573340       1.98960559       0.18246607 </v>
   <v>      -0.23471888      -0.40935792       1.38984198 </v>
   <v>      -0.74300208      -0.16814337      -0.46241496 </v>
   <v>       0.28611576      -0.04508920       0.31079759 </v>
   <v>      -0.67598912       0.57627430      -0.64921586 </v>
   <v>      -0.13535606      -0.77141227       0.59319565 </v>
   <v>       1.13782905       0.82992691       0.36090499 </v>
   <v>      -0.78478790       1.42986629       0.38986983 </v>
   <v>       0.34132712      -2.90167717      -1.39903300 </v>
   <v>       0.89156836      -2.74519491      -1.98026434 </v>
   <v>      -1.93360756       0.43447666       0.54085178 </v>
   <v>      -0.20025247      -3.13927976      -0.38326301 </v>
   <v>       0.56098939      -2.40685502       2.38707325 </v>
   <v>      -0.78618250       2.08573110       1.01360548 </v>
  </varray>
  <varray name="stress" >
   <v>     635.07079817      -3.92134735       0.43489349 </v>
   <v>      -3.92134634     624.07880177       0.05500980 </v>
   <v>       0.43489406       0.05500845     630.59349660 </v>
  </varray>
  <energy>
   <i name="e_fr_energy">   -625.30464233 </i>
   <i name="e_wo_entrp">   -625.21165626 </i>
   <i name="e_0_energy">     -0.18597214 </i>
  </energy>
  <time name="totalsc">  524.76  526.51</time>
 </calculation>
 <calculation>
  <scstep>
   <time name="dav">   27.71   27.84</time>
   <time name="total">   27.99   28.12</time>
   <energy>
    <i name="alphaZ">   4258.15682655 </i>
    <i name="ewald"> -38164.96278069 </i>
    <i name="hartreedc">  -7127.33632017 </i>
    <i name="XCdc">   1304.55691326 </i>
    <i name="pawpsdc">  32942.41094475 </i>
    <i name="pawaedc"> -32880.45233068 </i>
    <i name="eentropy">     -0.21843168 </i>
    <i name="bandstr">  -5749.71183596 </i>
    <i name="atom">  44660.94296287 </i>
    <i name="e_fr_energy">   -756.61405175 </i>
    <i name="e_wo_entrp">   -756.39562007 </i>
    <i name="e_0_energy">   -756.50483591 </i>
   </energy>
  </scstep>
  <scstep>
   <time name="diag">    1.96    1.96</time>
   <time name="diis">   19.45   19.50</time>
   <time name="orth">    0.48    0.48</time>
   <time name="total">   22.18   22.23</time>
   <energy>
    <i name="e_fr_energy">  -1233.10332660 </i>
    <i name="e_wo_entrp">  -1232.99643261 </i>
    <i name="e_0_energy">  -1233.04987961 </i>
   </energy>
  </scstep>
  <scstep>
   <time name="diag">    1.97    1.97</time>
   <time name="diis">   18.75   18.83</time>
   <time name="orth">    0.48    0.48</time>
   <time name="total">   21.48   21.57</time>
   <energy>
    <i name="e_fr_energy">   -725.25534684 </i>
    <i name="e_wo_entrp">   -725.11771549 </i>
    <i name="e_0_energy">   -725.18653117 </i>
   </energy>
  </scstep>
  <scstep>
   <time name="diag">    1.94    1.95</time>
   <time name="diis">   17.16   17.18</time>
   <time name="orth">    0.48    0.48</time>
   <time name="total">   19.87   19.90</time>
   <energy>
    <i name="e_fr_energy">   -665.18782122 </i>
    <i name="e_wo_entrp">   -665.04261679 </i>
    <i name="e_0_energy">   -665.11521901 </i>
   </energy>
  </scstep>
  <scstep>
   <time name="diag">    1.95    1.95</time>
   <time name="diis">   18.28   18.33</time>
   <time name="orth">    0.48    0.48</time>
   <time name="total">   20.99   21.05</time>
   <energy>
    <i name="e_fr_energy">   -643.44928892 </i>
    <i name="e_wo_entrp">   -643.19884025 </i>
    <i name="e_0_energy">   -643.32406458 </i>
   </energy>
  </scstep>
  <scstep>
   <time name="diag">    2.00    2.01</time>
   <time name="diis">   18.77   18.78</time>
   <time name="orth">    0.48    0.48</time>
   <time name="total">   21.53   21.56</time>
   <energy>
    <i name="e_fr_energy">   -646.83641507 </i>
    <i name="e_wo_entrp">   -646.61800116 </i>
    <i name="e_0_energy">   -646.72720812 </i>
   </energy>
  </scstep>
  <scstep>
   <time name="diag">    1.95    1.95</time>
   <time name="diis">   18.32   18.32</time>
   <time name="orth">    0.50    0.50</time>
   <time name="total">   21.05   21.07</time>
   <energy>
    <i name="e_fr_energy">   -643.80220704 </i>
    <i name="e_wo_entrp">   -643.58021489 </i>
    <i name="e_0_energy">   -643.69121097 </i>
   </energy>
  </scstep>
  <scstep>
   <time name="diag">    1.99    2.02</time>
   <time name="diis">   18.88   18.90</time>
   <time name="orth">    0.48    0.48</time>
   <time name="total">   21.63   21.69</time>
   <energy>
    <i name="e_fr_energy">   -641.02837102 </i>
    <i name="e_wo_entrp">   -640.80656977 </i>
    <i name="e_0_energy">   -640.91747040 </i>
   </energy>
  </scstep>
  <scstep>
   <time name="diag">    1.95    1.95</time>
   <time name="diis">   19.01   19.02</time>
   <time name="orth">    0.48    0.48</time>
   <time name="total">   21.73   21.74</time>
   <energy>
    <i name="e_fr_energy">   -639.80296487 </i>
    <i name="e_wo_entrp">   -639.56619542 </i>
    <i name="e_0_energy">   -639.68458015 </i>
   </energy>
  </scstep>
  <scstep>
   <time name="diag">    1.95    1.95</time>
   <time name="diis">   19.57   19.59</time>
   <time name="orth">    0.49    0.49</time>
   <time name="total">   22.31   22.33</time>
   <energy>
    <i name="e_fr_energy">   -639.79742654 </i>
    <i name="e_wo_entrp">   -639.55928190 </i>
    <i name="e_0_energy">   -639.67835422 </i>
   </energy>
  </scstep>
  <scstep>
   <time name="diag">    1.99    2.00</time>
   <time name="diis">   19.07   19.16</time>
   <time name="orth">    0.48    0.48</time>
   <time name="total">   21.84   21.94</time>
   <energy>
    <i name="e_fr_energy">   -639.48079138 </i>
    <i name="e_wo_entrp">   -639.23717877 </i>
    <i name="e_0_energy">   -639.35898508 </i>
   </energy>
  </scstep>
  <scstep>
   <time name="diag">    1.96    1.96</time>
   <time name="diis">   18.78   18.85</time>
   <time name="orth">    0.48    0.48</time>
   <time name="total">   21.52   21.59</time>
   <energy>
    <i name="e_fr_energy">   -639.30822017 </i>
    <i name="e_wo_entrp">   -639.06578547 </i>
    <i name="e_0_energy">   -639.18700282 </i>
   </energy>
  </scstep>
  <scstep>
   <time name="diag">    1.97    1.97</time>
   <time name="diis">   19.48   19.51</time>
   <time name="orth">    0.48    0.48</time>
   <time name="total">   22.22   22.26</time>
   <energy>
    <i name="e_fr_energy">   -639.22697136 </i>
    <i name="e_wo_entrp">   -638.99518043 </i>
    <i name="e_0_energy">   -639.11107590 </i>
   </energy>
  </scstep>
  <scstep>
   <time name="diag">    1.95    1.95</time>
   <time name="diis">   18.69   18.70</time>
   <time name="orth">    0.49    0.51</time>
   <time name="total">   21.42   21.46</time>
   <energy>
    <i name="e_fr_energy">   -639.19003612 </i>
    <i name="e_wo_entrp">   -638.95058387 </i>
    <i name="e_0_energy">   -639.07031000 </i>
   </energy>
  </scstep>
  <scstep>
   <time name="diag">    1.94    1.95</time>
   <time name="diis">   18.17   18.19</time>
   <time name="orth">    0.48    0.48</time>
   <time name="total">   20.89   20.91</time>
   <energy>
    <i name="e_fr_energy">   -639.17239659 </i>
    <i name="e_wo_entrp">   -638.93466076 </i>
    <i name="e_0_energy">   -639.05352868 </i>
   </energy>
  </scstep>
  <scstep>
   <time name="diag">    1.95    1.95</time>
   <time name="diis">   18.31   18.42</time>
   <time name="orth">    0.48    0.48</time>
   <time name="total">   21.04   21.15</time>
   <energy>
    <i name="e_fr_energy">   -639.12444771 </i>
    <i name="e_wo_entrp">   -638.88546055 </i>
    <i name="e_0_energy">   -639.00495413 </i>
   </energy>
  </scstep>
  <scstep>
   <time name="diag">    1.97    1.97</time>
   <time name="diis">   18.48   18.54</time>
   <time name="orth">    0.49    0.49</time>
   <time name="total">   21.22   21.29</time>
   <energy>
    <i name="e_fr_energy">   -639.11586001 </i>
    <i name="e_wo_entrp">   -638.87649654 </i>
    <i name="e_0_energy">   -638.99617827 </i>
   </energy>
  </scstep>
  <scstep>
   <time name="diag">    1.95    1.95</time>
   <time name="diis">   18.61   18.65</time>
   <time name="orth">    0.48    0.48</time>
   <time name="total">   21.32   21.37</time>
   <energy>
    <i name="e_fr_energy">   -639.10045787 </i>
    <i name="e_wo_entrp">   -638.86039713 </i>
    <i name="e_0_energy">   -638.98042750 </i>
   </energy>
  </scstep>
  <scstep>
   <time name="diag">    1.94    1.95</time>
   <time name="diis">   19.63   19.67</time>
   <time name="orth">    0.48    0.48</time>
   <time name="total">   22.34   22.39</time>
   <energy>
    <i name="e_fr_energy">   -639.09964725 </i>
    <i name="e_wo_entrp">   -638.85927735 </i>
    <i name="e_0_energy">   -638.97946230 </i>
   </energy>
  </scstep>
  <scstep>
   <time name="diag">    1.97    1.97</time>
   <time name="diis">   20.19   20.21</time>
   <time name="orth">    0.48    0.48</time>
   <time name="total">   22.92   22.95</time>
   <energy>
    <i name="e_fr_energy">   -639.09776319 </i>
    <i name="e_wo_entrp">   -638.85725818 </i>
    <i name="e_0_energy">   -638.97751068 </i>
   </energy>
  </scstep>
  <scstep>
   <time name="diag">    1.95    1.95</time>
   <time name="diis">   18.78   18.82</time>
   <time name="orth">    0.48    0.48</time>
   <time name="total">   21.50   21.54</time>
   <energy>
    <i name="e_fr_energy">   -639.09766962 </i>
    <i name="e_wo_entrp">   -638.85711773 </i>
    <i name="e_0_energy">   -638.97739368 </i>
   </energy>
  </scstep>
  <scstep>
   <time name="diag">    2.03    2.05</time>
   <time name="diis">   18.01   18.07</time>
   <time name="orth">    0.48    0.48</time>
[...]
      </set>
     </set>
    </set>
   </array>
  </eigenvalues>
  <separator name="orbital magnetization" >
   <v name="MAGDIPOLOUT">      0.00000000      0.00000000      0.00000000</v>
  </separator>
  <dos>
   <i name="efermi">      7.97232518 </i>
   <total>
    <array>
     <dimension dim="1">gridpoints</dimension>
     <dimension dim="2">spin</dimension>
     <field>energy</field>
     <field>total</field>
     <field>integrated</field>
     <set>
      <set comment="spin 1">
       <r>   -60.4630     0.0000     0.0000 </r>
       <r>   -60.2128     0.0000     0.0000 </r>
       <r>   -59.9626     0.0000     0.0000 </r>
       <r>   -59.7123     0.0000     0.0000 </r>
       <r>   -59.4621     0.0000     0.0000 </r>
       <r>   -59.2118     0.0000     0.0000 </r>
       <r>   -58.9616     0.0000     0.0000 </r>
       <r>   -58.7114     0.0000     0.0000 </r>
       <r>   -58.4611     0.0000     0.0000 </r>
       <r>   -58.2109     0.0000     0.0000 </r>
       <r>   -57.9606     0.0000     0.0000 </r>
       <r>   -57.7104     0.0000     0.0000 </r>
       <r>   -57.4602     0.0000     0.0000 </r>
       <r>   -57.2099     0.1075     0.0269 </r>
       <r>   -56.9597    20.4365     5.1409 </r>
       <r>   -56.7094    29.7682    12.5901 </r>
       <r>   -56.4592     5.6287    13.9986 </r>
       <r>   -56.2090     0.0054    14.0000 </r>
       <r>   -55.9587     0.0000    14.0000 </r>
       <r>   -55.7085     0.0000    14.0000 </r>
       <r>   -55.4582     0.0000    14.0000 </r>
       <r>   -55.2080     0.0000    14.0000 </r>
       <r>   -54.9578     0.0000    14.0000 </r>
       <r>   -54.7075     0.0000    14.0000 </r>
       <r>   -54.4573     0.0000    14.0000 </r>
       <r>   -54.2070     0.0000    14.0000 </r>
       <r>   -53.9568     0.0000    14.0000 </r>
       <r>   -53.7066     0.0000    14.0000 </r>
       <r>   -53.4563     0.0000    14.0000 </r>
       <r>   -53.2061     0.0000    14.0000 </r>
       <r>   -52.9559     0.0000    14.0000 </r>
       <r>   -52.7056     0.0000    14.0000 </r>
       <r>   -52.4554     0.0000    14.0000 </r>
       <r>   -52.2051     0.0000    14.0000 </r>
       <r>   -51.9549     0.0000    14.0000 </r>
       <r>   -51.7047     0.0000    14.0000 </r>
       <r>   -51.4544     0.0000    14.0000 </r>
       <r>   -51.2042     0.0000    14.0000 </r>
       <r>   -50.9539     0.0000    14.0000 </r>
       <r>   -50.7037     0.0000    14.0000 </r>
       <r>   -50.4535     0.0000    14.0000 </r>
       <r>   -50.2032     0.0000    14.0000 </r>
       <r>   -49.9530     0.0000    14.0000 </r>
       <r>   -49.7027     0.0000    14.0000 </r>
       <r>   -49.4525     0.0000    14.0000 </r>
       <r>   -49.2023     0.0000    14.0000 </r>
       <r>   -48.9520     0.0000    14.0000 </r>
       <r>   -48.7018     0.0000    14.0000 </r>
       <r>   -48.4515     0.0000    14.0000 </r>
       <r>   -48.2013     0.0000    14.0000 </r>
       <r>   -47.9511     0.0000    14.0000 </r>
       <r>   -47.7008     0.0000    14.0000 </r>
       <r>   -47.4506     0.0000    14.0000 </r>
       <r>   -47.2003     0.0000    14.0000 </r>
       <r>   -46.9501     0.0000    14.0000 </r>
       <r>   -46.6999     0.0000    14.0000 </r>
       <r>   -46.4496     0.0000    14.0000 </r>
       <r>   -46.1994     0.0000    14.0000 </r>
       <r>   -45.9491     0.0000    14.0000 </r>
       <r>   -45.6989     0.0000    14.0000 </r>
       <r>   -45.4487     0.0000    14.0000 </r>
       <r>   -45.1984     0.0000    14.0000 </r>
       <r>   -44.9482     0.0000    14.0000 </r>
       <r>   -44.6979     0.0000    14.0000 </r>
       <r>   -44.4477     0.0000    14.0000 </r>
       <r>   -44.1975     0.0000    14.0000 </r>
       <r>   -43.9472     0.0000    14.0000 </r>
       <r>   -43.6970     0.0000    14.0000 </r>
       <r>   -43.4467     0.0000    14.0000 </r>
       <r>   -43.1965     0.0000    14.0000 </r>
       <r>   -42.9463     0.0000    14.0000 </r>
       <r>   -42.6960     0.0000    14.0000 </r>
       <r>   -42.4458     0.0000    14.0000 </r>
       <r>   -42.1955     0.0000    14.0000 </r>
       <r>   -41.9453     0.0000    14.0000 </r>
       <r>   -41.6951     0.0000    14.0000 </r>
       <r>   -41.4448     0.0000    14.0000 </r>
       <r>   -41.1946     0.0000    14.0000 </r>
       <r>   -40.9443     0.0000    14.0000 </r>
       <r>   -40.6941     0.0000    14.0000 </r>
       <r>   -40.4439     0.0000    14.0000 </r>
       <r>   -40.1936     0.0000    14.0000 </r>
       <r>   -39.9434     0.0000    14.0000 </r>
       <r>   -39.6931     0.0000    14.0000 </r>
       <r>   -39.4429     0.0000    14.0000 </r>
       <r>   -39.1927     0.0000    14.0000 </r>
       <r>   -38.9424     0.0000    14.0000 </r>
       <r>   -38.6922     0.0000    14.0000 </r>
       <r>   -38.4419     0.0000    14.0000 </r>
       <r>   -38.1917     0.0000    14.0000 </r>
       <r>   -37.9415     0.0000    14.0000 </r>
       <r>   -37.6912     0.0000    14.0000 </r>
       <r>   -37.4410     0.0000    14.0000 </r>
       <r>   -37.1907     0.0000    14.0000 </r>
       <r>   -36.9405     0.0000    14.0000 </r>
       <r>   -36.6903     0.0000    14.0000 </r>
       <r>   -36.4400     0.0000    14.0000 </r>
       <r>   -36.1898     0.0000    14.0000 </r>
       <r>   -35.9395     0.7491    14.1875 </r>
       <r>   -35.6893    29.6546    21.6082 </r>
       <r>   -35.4391    98.7116    46.3098 </r>
       <r>   -35.1888    14.7444    49.9995 </r>
       <r>   -34.9386     0.0022    50.0000 </r>
       <r>   -34.6883     0.0000    50.0000 </r>
       <r>   -34.4381     0.0000    50.0000 </r>
       <r>   -34.1879     0.0000    50.0000 </r>
       <r>   -33.9376     0.0000    50.0000 </r>
       <r>   -33.6874     0.0000    50.0000 </r>
       <r>   -33.4371     0.0000    50.0000 </r>
       <r>   -33.1869     0.0000    50.0000 </r>
       <r>   -32.9367     0.0000    50.0000 </r>
       <r>   -32.6864     0.0000    50.0000 </r>
       <r>   -32.4362     0.0000    50.0000 </r>
       <r>   -32.1859     0.0000    50.0000 </r>
       <r>   -31.9357     0.1431    50.0358 </r>
       <r>   -31.6855    15.4238    53.8955 </r>
       <r>   -31.4352    41.8432    64.3663 </r>
       <r>   -31.1850    56.1570    78.4190 </r>
       <r>   -30.9347    83.7844    99.3852 </r>
       <r>   -30.6845    92.5591   122.5472 </r>
       <r>   -30.4343    21.6346   127.9610 </r>
       <r>   -30.1840     0.1558   128.0000 </r>
       <r>   -29.9338     0.0000   128.0000 </r>
       <r>   -29.6836     0.0000   128.0000 </r>
       <r>   -29.4333     0.0000   128.0000 </r>
       <r>   -29.1831     0.0000   128.0000 </r>
       <r>   -28.9328     0.0000   128.0000 </r>
       <r>   -28.6826     0.0000   128.0000 </r>
       <r>   -28.4324     0.0000   128.0000 </r>
       <r>   -28.1821     0.0000   128.0000 </r>
       <r>   -27.9319     0.0000   128.0000 </r>
       <r>   -27.6816     0.0000   128.0000 </r>
       <r>   -27.4314     0.0000   128.0000 </r>
       <r>   -27.1812     0.0000   128.0000 </r>
       <r>   -26.9309     0.0000   128.0000 </r>
       <r>   -26.6807     0.0000   128.0000 </r>
       <r>   -26.4304     0.0000   128.0000 </r>
       <r>   -26.1802     0.0000   128.0000 </r>
       <r>   -25.9300     0.0000   128.0000 </r>
       <r>   -25.6797     0.0000   128.0000 </r>
       <r>   -25.4295     0.0000   128.0000 </r>
       <r>   -25.1792     0.0000   128.0000 </r>
       <r>   -24.9290     0.0000   128.0000 </r>
       <r>   -24.6788     0.0000   128.0000 </r>
       <r>   -24.4285     0.0000   128.0000 </r>
       <r>   -24.1783     0.0000   128.0000 </r>
       <r>   -23.9280     0.0000   128.0000 </r>
       <r>   -23.6778     0.0001   128.0000 </r>
       <r>   -23.4276     2.0086   128.5027 </r>
       <r>   -23.1773    17.8949   132.9807 </r>
       <r>   -22.9271    40.9595   143.2304 </r>
       <r>   -22.6768    15.8611   147.1994 </r>
       <r>   -22.4266    55.7531   161.1511 </r>
       <r>   -22.1764    14.2949   164.7282 </r>
       <r>   -21.9261    20.7942   169.9318 </r>
       <r>   -21.6759     0.2727   170.0000 </r>
       <r>   -21.4256     0.0000   170.0000 </r>
       <r>   -21.1754     0.0000   170.0000 </r>
       <r>   -20.9252     0.0000   170.0000 </r>
       <r>   -20.6749     0.0000   170.0000 </r>
       <r>   -20.4247     0.0000   170.0000 </r>
       <r>   -20.1744     0.0000   170.0000 </r>
       <r>   -19.9242     0.0000   170.0000 </r>
       <r>   -19.6740     0.0000   170.0000 </r>
       <r>   -19.4237     0.0000   170.0000 </r>
       <r>   -19.1735     0.0000   170.0000 </r>
       <r>   -18.9232     0.0000   170.0000 </r>
       <r>   -18.6730     0.0000   170.0000 </r>
       <r>   -18.4228     0.0000   170.0000 </r>
       <r>   -18.1725     0.0000   170.0000 </r>
       <r>   -17.9223     0.0000   170.0000 </r>
       <r>   -17.6720     0.0000   170.0000 </r>
       <r>   -17.4218     0.0000   170.0000 </r>
       <r>   -17.1716     0.0000   170.0000 </r>
       <r>   -16.9213     0.0000   170.0000 </r>
       <r>   -16.6711     0.0000   170.0000 </r>
       <r>   -16.4208     0.0000   170.0000 </r>
       <r>   -16.1706     0.0000   170.0000 </r>
       <r>   -15.9204     0.0000   170.0000 </r>
       <r>   -15.6701     0.0000   170.0000 </r>
       <r>   -15.4199     0.0000   170.0000 </r>
       <r>   -15.1696     0.0000   170.0000 </r>
       <r>   -14.9194     0.0000   170.0000 </r>
       <r>   -14.6692     0.0000   170.0000 </r>
       <r>   -14.4189     0.0000   170.0000 </r>
       <r>   -14.1687     0.0000   170.0000 </r>
       <r>   -13.9184     0.0000   170.0000 </r>
       <r>   -13.6682     0.0000   170.0000 </r>
       <r>   -13.4180     0.0000   170.0000 </r>
       <r>   -13.1677     0.0000   170.0000 </r>
       <r>   -12.9175     0.0000   170.0000 </r>
       <r>   -12.6672     0.0000   170.0000 </r>
       <r>   -12.4170     0.0000   170.0000 </r>
       <r>   -12.1668     0.0000   170.0000 </r>
       <r>   -11.9165     0.0000   170.0000 </r>
       <r>   -11.6663     0.0000   170.0000 </r>
       <r>   -11.4160     0.0000   170.0000 </r>
       <r>   -11.1658     0.0000   170.0000 </r>
       <r>   -10.9156     0.0000   170.0000 </r>
       <r>   -10.6653     0.0000   170.0000 </r>
       <r>   -10.4151     0.0000   170.0000 </r>
       <r>   -10.1648     0.0000   170.0000 </r>
       <r>    -9.9146     0.0000   170.0000 </r>
       <r>    -9.6644     0.0000   170.0000 </r>
       <r>    -9.4141     0.0000   170.0000 </r>
       <r>    -9.1639     0.0000   170.0000 </r>
       <r>    -8.9136     0.0001   170.0000 </r>
       <r>    -8.6634     0.4260   170.1066 </r>
       <r>    -8.4132     4.7813   171.3031 </r>
       <r>    -8.1629     3.7884   172.2511 </r>
       <r>    -7.9127     7.6092   174.1552 </r>
       <r>    -7.6624    14.6732   177.8270 </r>
       <r>    -7.4122    21.4650   183.1984 </r>
       <r>    -7.1620    11.3293   186.0334 </r>
       <r>    -6.9117    13.1814   189.3319 </r>
       <r>    -6.6615    16.0583   193.3504 </r>
       <r>    -6.4113    10.1289   195.8850 </r>
       <r>    -6.1610     0.4595   196.0000 </r>
       <r>    -5.9108     0.0000   196.0000 </r>
       <r>    -5.6605     0.0000   196.0000 </r>
       <r>    -5.4103     0.0161   196.0040 </r>
       <r>    -5.1601     3.3730   196.8481 </r>
       <r>    -4.9098     4.6494   198.0115 </r>
       <r>    -4.6596     6.8206   199.7183 </r>
       <r>    -4.4093    10.4456   202.3322 </r>
       <r>    -4.1591    14.3308   205.9184 </r>
       <r>    -3.9089    18.5376   210.5572 </r>
       <r>    -3.6586    23.1199   216.3428 </r>
       <r>    -3.4084    22.5099   221.9756 </r>
       <r>    -3.1581    21.2672   227.2975 </r>
       <r>    -2.9079    15.8055   231.2527 </r>
       <r>    -2.6577     9.2544   233.5685 </r>
       <r>    -2.4074     1.7201   233.9990 </r>
       <r>    -2.1572     0.0041   234.0000 </r>
       <r>    -1.9069     0.0000   234.0000 </r>
       <r>    -1.6567     0.0000   234.0000 </r>
       <r>    -1.4065     0.0000   234.0000 </r>
       <r>    -1.1562     0.0000   234.0000 </r>
       <r>    -0.9060     0.0000   234.0000 </r>
       <r>    -0.6557     0.0001   234.0000 </r>
       <r>    -0.4055     0.2064   234.0517 </r>
       <r>    -0.1553     1.2966   234.3762 </r>
       <r>     0.0950     5.8160   235.8316 </r>
       <r>     0.3452     9.5520   238.2218 </r>
       <r>     0.5955    14.6666   241.8920 </r>
       <r>     0.8457    18.4216   246.5018 </r>
       <r>     1.0959    28.3903   253.6062 </r>
       <r>     1.3462    28.1217   260.6434 </r>
       <r>     1.5964    28.2158   267.7041 </r>
       <r>     1.8467    31.6936   275.6351 </r>
       <r>     2.0969    33.5972   284.0425 </r>
       <r>     2.3471    35.9026   293.0267 </r>
       <r>     2.5974    49.5180   305.4181 </r>
       <r>     2.8476    56.5657   319.5731 </r>
       <r>     3.0979    62.9583   335.3277 </r>
       <r>     3.3481    63.5668   351.2347 </r>
       <r>     3.5983    59.6223   366.1546 </r>
       <r>     3.8486    52.9318   379.4002 </r>
       <r>     4.0988    41.1906   389.7077 </r>
       <r>     4.3491    37.4027   399.0674 </r>
       <r>     4.5993    33.5770   407.4697 </r>
       <r>     4.8495    27.9120   414.4544 </r>
       <r>     5.0998    23.0942   420.2335 </r>
       <r>     5.3500    15.6931   424.1605 </r>
       <r>     5.6003     9.1715   426.4556 </r>
       <r>     5.8505    13.3937   429.8072 </r>
       <r>     6.1007    19.6867   434.7336 </r>
       <r>     6.3510    19.1772   439.5325 </r>
       <r>     6.6012    15.8337   443.4948 </r>
       <r>     6.8515    18.7682   448.1913 </r>
       <r>     7.1017    29.8067   455.6502 </r>
       <r>     7.3519    29.5733   463.0506 </r>
       <r>     7.6022    30.0477   470.5697 </r>
       <r>     7.8524    31.1707   478.3698 </r>
       <r>     8.1027    31.3506   486.2150 </r>
       <r>     8.3529    39.7458   496.1610 </r>
       <r>     8.6031    52.0043   509.1746 </r>
       <r>     8.8534    56.7662   523.3797 </r>
       <r>     9.1036    57.0270   537.6501 </r>
       <r>     9.3539    52.8760   550.8818 </r>
       <r>     9.6041    48.6234   563.0493 </r>
       <r>     9.8543    45.7937   574.5088 </r>
       <r>    10.1046    44.2736   585.5878 </r>
       <r>    10.3548    41.8707   596.0655 </r>
       <r>    10.6051    38.9599   605.8148 </r>
       <r>    10.8553    35.5719   614.7163 </r>
       <r>    11.1055    30.1737   622.2669 </r>
       <r>    11.3558     6.9081   623.9956 </r>
       <r>    11.6060     0.0176   624.0000 </r>
       <r>    11.8563     0.0000   624.0000 </r>
       <r>    12.1065     0.0000   624.0000 </r>
       <r>    12.3567     0.0000   624.0000 </r>
       <r>    12.6070     0.0000   624.0000 </r>
       <r>    12.8572     0.0000   624.0000 </r>
       <r>    13.1075     0.0000   624.0000 </r>
       <r>    13.3577     0.0000   624.0000 </r>
       <r>    13.6079     0.0000   624.0000 </r>
       <r>    13.8582     0.0000   624.0000 </r>
       <r>    14.1084     0.0000   624.0000 </r>
       <r>    14.3587     0.0000   624.0000 </r>
       <r>    14.6089     0.0000   624.0000 </r>
      </set>
     </set>
    </array>
   </total>
  </dos>
 </calculation>
 <structure name="finalpos" >
  <crystal>
   <varray name="basis" >
    <v>       8.68061171      -0.00923783      -0.01400836 </v>
    <v>      -0.00371404       8.78189132      -0.01009600 </v>
    <v>       0.01714690      -0.02554484       8.69698040 </v>
   </varray>
   <i name="volume">    662.98942309 </i>
   <varray name="rec_basis" >
    <v>       0.11519894       0.00004846      -0.00022698 </v>
    <v>       0.00012172       0.11387112       0.00033422 </v>
    <v>       0.00018569       0.00013227       0.11498246 </v>
   </varray>
  </crystal>
  <varray name="positions" >
   <v>       0.00317259       0.97434880       0.97835215 </v>
   <v>       0.24869421       0.98546495       0.26881120 </v>
   <v>       0.26440274       0.52319467       0.23937732 </v>
   <v>       0.49860047       0.47016887       0.99393384 </v>
   <v>       0.48492372       0.26004261       0.75424730 </v>
   <v>       0.01422394       0.50054257       0.46630416 </v>
   <v>       0.51347087       0.77038800       0.73681395 </v>
   <v>      -0.00058232       0.22490536       0.26634054 </v>
   <v>       0.75825812       0.74869615      -0.00396990 </v>
   <v>       0.01223992       0.27542545       0.73660500 </v>
   <v>       0.75320915       0.26959403       0.51009801 </v>
   <v>      -0.00335680       0.73386937       0.75178283 </v>
   <v>       0.26099749       0.50772999       0.76420182 </v>
   <v>       0.24076818       0.23997623       0.00277325 </v>
   <v>       0.49686574       0.24513393       0.25029442 </v>
   <v>       0.73612422       0.98993735       0.26500598 </v>
   <v>       0.75604383       0.24261197       0.98739946 </v>
   <v>       0.27751075       0.76136351       0.00266826 </v>
   <v>       0.25472476       0.25225974       0.50209949 </v>
   <v>       0.24930837       0.74968357       0.50478104 </v>
   <v>       0.24660332       0.24296412       0.25244238 </v>
   <v>       0.24840883      -0.00080245      -0.00144810 </v>
   <v>      -0.00180269       0.22902633       0.00126325 </v>
   <v>       0.75220692       0.24379964       0.25116941 </v>
   <v>       0.74697335       0.99358719      -0.00442984 </v>
   <v>       0.49052508       0.99539091       0.26943217 </v>
   <v>       0.00500070       0.48428226       0.24517709 </v>
   <v>       0.51705963       0.77453717      -0.01703733 </v>
   <v>       0.98416237       0.01612828       0.75336919 </v>
   <v>       0.75009300       0.24609523       0.74340733 </v>
   <v>       0.75370596       0.01130824       0.50914645 </v>
   <v>       0.50831322       0.24871368       0.50720860 </v>
   <v>       0.51419187       0.01077673       0.73610534 </v>
   <v>       0.00170344      -0.00467786       0.24389681 </v>
   <v>       0.49921122       0.24255373      -0.00773810 </v>
   <v>       0.26284145       0.75190494       0.25359287 </v>
   <v>       0.24981249       0.50294439       0.00486266 </v>
   <v>       0.00880303       0.74981364       0.00241095 </v>
   <v>       0.73917309       0.74346835       0.24399889 </v>
   <v>       0.75389255       0.50288110      -0.00901070 </v>
   <v>       0.49411254       0.50725801       0.23911617 </v>
   <v>       0.25292481       0.24644354       0.75204894 </v>
   <v>       0.25401795       0.99887415       0.51833984 </v>
   <v>       0.00020601       0.25792266       0.50195479 </v>
   <v>       0.25768546       0.75654398       0.75413823 </v>
   <v>       0.24736262       0.50174531       0.49527281 </v>
   <v>       0.99546118       0.74625465       0.50296751 </v>
   <v>       0.99890374       0.50287071       0.76126119 </v>
   <v>       0.75106768       0.75722622       0.74353454 </v>
   <v>       0.76020458       0.49653962       0.49341311 </v>
   <v>       0.50684903       0.76335072       0.50029069 </v>
   <v>       0.49486690       0.51014312       0.75473004 </v>
   <v>       0.51020402       0.01742663       0.95188077 </v>
   <v>      -0.00440709       0.53582322       0.02888916 </v>
   <v>       0.50513900       0.73234241       0.28295312 </v>
   <v>       0.20726752      -0.01947712       0.75252592 </v>
   <v>       0.47114774       0.99124407       0.51490795 </v>
   <v>       0.72972040       0.97653456       0.76386953 </v>
   <v>      -0.00126661       0.76674896       0.25372601 </v>
   <v>       0.73175142       0.51316657       0.22989218 </v>
   <v>       0.01191572       0.00064913       0.50430224 </v>
   <v>       0.49672412       0.50782059       0.49298211 </v>
   <v>       0.72496118       0.50019971       0.75059776 </v>
   <v>       0.75270164       0.72231559       0.50066610 </v>
  </varray>
 </structure>
</modeling>
