  64  64   0   0
  0.2218804E+02  0.1124000E-08  0.1124000E-08  0.1124000E-08  0.5000000E-15
  1.000000000000000E-004
  CAR 
 HECN                                    
     15.26499982    -60.01669989  301      8.33324593      1.00000000
    -60.017  0.0000E+00  0.0000E+00
    -59.766  0.0000E+00  0.0000E+00
    -59.515  0.0000E+00  0.0000E+00
    -59.264  0.0000E+00  0.0000E+00
    -59.013  0.0000E+00  0.0000E+00
    -58.762  0.0000E+00  0.0000E+00
    -58.511  0.0000E+00  0.0000E+00
    -58.260  0.0000E+00  0.0000E+00
    -58.009  0.0000E+00  0.0000E+00
    -57.758  0.0000E+00  0.0000E+00
    -57.507  0.0000E+00  0.0000E+00
    -57.256  0.0000E+00  0.0000E+00
    -57.005  0.2556E-09  0.6413E-10
    -56.754  0.1096E-02  0.2750E-03
    -56.504  0.2433E+00  0.6133E-01
    -56.253  0.2333E+00  0.1199E+00
    -56.002  0.5313E-03  0.1200E+00
    -55.751  0.3219E-10  0.1200E+00
    -55.500  0.0000E+00  0.1200E+00
    -55.249  0.0000E+00  0.1200E+00
    -54.998  0.0000E+00  0.1200E+00
    -54.747  0.0000E+00  0.1200E+00
    -54.496  0.0000E+00  0.1200E+00
    -54.245  0.0000E+00  0.1200E+00
    -53.994  0.0000E+00  0.1200E+00
    -53.743  0.0000E+00  0.1200E+00
    -53.492  0.0000E+00  0.1200E+00
    -53.241  0.0000E+00  0.1200E+00
    -52.990  0.0000E+00  0.1200E+00
    -52.739  0.0000E+00  0.1200E+00
    -52.489  0.0000E+00  0.1200E+00
    -52.238  0.0000E+00  0.1200E+00
    -51.987  0.0000E+00  0.1200E+00
    -51.736  0.0000E+00  0.1200E+00
    -51.485  0.0000E+00  0.1200E+00
    -51.234  0.0000E+00  0.1200E+00
    -50.983  0.0000E+00  0.1200E+00
    -50.732  0.0000E+00  0.1200E+00
    -50.481  0.0000E+00  0.1200E+00
    -50.230  0.0000E+00  0.1200E+00
    -49.979  0.0000E+00  0.1200E+00
    -49.728  0.0000E+00  0.1200E+00
    -49.477  0.0000E+00  0.1200E+00
    -49.226  0.0000E+00  0.1200E+00
    -48.975  0.0000E+00  0.1200E+00
    -48.724  0.0000E+00  0.1200E+00
    -48.474  0.0000E+00  0.1200E+00
    -48.223  0.3052E-07  0.1200E+00
    -47.972  0.6529E-02  0.1216E+00
    -47.721  0.1418E+00  0.1572E+00
    -47.470  0.1742E+00  0.2009E+00
    -47.219  0.1494E+00  0.2384E+00
    -46.968  0.6219E-02  0.2400E+00
    -46.717  0.2079E-07  0.2400E+00
    -46.466  0.0000E+00  0.2400E+00
    -46.215  0.0000E+00  0.2400E+00
    -45.964  0.0000E+00  0.2400E+00
    -45.713  0.0000E+00  0.2400E+00
    -45.462  0.0000E+00  0.2400E+00
    -45.211  0.0000E+00  0.2400E+00
    -44.960  0.0000E+00  0.2400E+00
    -44.709  0.0000E+00  0.2400E+00
    -44.458  0.0000E+00  0.2400E+00
    -44.208  0.0000E+00  0.2400E+00
    -43.957  0.0000E+00  0.2400E+00
    -43.706  0.0000E+00  0.2400E+00
    -43.455  0.0000E+00  0.2400E+00
    -43.204  0.0000E+00  0.2400E+00
    -42.953  0.0000E+00  0.2400E+00
    -42.702  0.0000E+00  0.2400E+00
    -42.451  0.0000E+00  0.2400E+00
    -42.200  0.0000E+00  0.2400E+00
    -41.949  0.0000E+00  0.2400E+00
    -41.698  0.0000E+00  0.2400E+00
    -41.447  0.4212E-14  0.2400E+00
    -41.196  0.4082E-05  0.2400E+00
    -40.945  0.2936E-01  0.2474E+00
    -40.694  0.6451E-01  0.2636E+00
    -40.443  0.1319E+00  0.2966E+00
    -40.193  0.3151E+00  0.3757E+00
    -39.942  0.1712E-01  0.3800E+00
    -39.691  0.2204E-06  0.3800E+00
    -39.440  0.0000E+00  0.3800E+00
    -39.189  0.0000E+00  0.3800E+00
    -38.938  0.0000E+00  0.3800E+00
    -38.687  0.0000E+00  0.3800E+00
    -38.436  0.0000E+00  0.3800E+00
    -38.185  0.0000E+00  0.3800E+00
    -37.934  0.0000E+00  0.3800E+00
    -37.683  0.0000E+00  0.3800E+00
    -37.432  0.0000E+00  0.3800E+00
    -37.181  0.0000E+00  0.3800E+00
    -36.930  0.0000E+00  0.3800E+00
    -36.679  0.0000E+00  0.3800E+00
    -36.428  0.0000E+00  0.3800E+00
    -36.177  0.0000E+00  0.3800E+00
    -35.927  0.0000E+00  0.3800E+00
    -35.676  0.0000E+00  0.3800E+00
    -35.425  0.0000E+00  0.3800E+00
    -35.174  0.0000E+00  0.3800E+00
    -34.923  0.0000E+00  0.3800E+00
    -34.672  0.0000E+00  0.3800E+00
    -34.421  0.0000E+00  0.3800E+00
    -34.170  0.0000E+00  0.3800E+00
    -33.919  0.0000E+00  0.3800E+00
    -33.668  0.0000E+00  0.3800E+00
    -33.417  0.0000E+00  0.3800E+00
    -33.166  0.0000E+00  0.3800E+00
    -32.915  0.0000E+00  0.3800E+00
    -32.664  0.0000E+00  0.3800E+00
    -32.413  0.0000E+00  0.3800E+00
    -32.162  0.0000E+00  0.3800E+00
    -31.912  0.0000E+00  0.3800E+00
    -31.661  0.0000E+00  0.3800E+00
    -31.410  0.0000E+00  0.3800E+00
    -31.159  0.1195E-15  0.3800E+00
    -30.908  0.7671E-06  0.3800E+00
    -30.657  0.4195E-01  0.3905E+00
    -30.406  0.8888E+00  0.6136E+00
    -30.155  0.5018E+00  0.7395E+00
    -29.904  0.2034E-02  0.7400E+00
    -29.653  0.4713E-09  0.7400E+00
    -29.402  0.0000E+00  0.7400E+00
    -29.151  0.0000E+00  0.7400E+00
    -28.900  0.0000E+00  0.7400E+00
    -28.649  0.0000E+00  0.7400E+00
    -28.398  0.0000E+00  0.7400E+00
    -28.147  0.0000E+00  0.7400E+00
    -27.897  0.0000E+00  0.7400E+00
    -27.646  0.0000E+00  0.7400E+00
    -27.395  0.0000E+00  0.7400E+00
    -27.144  0.0000E+00  0.7400E+00
    -26.893  0.0000E+00  0.7400E+00
    -26.642  0.0000E+00  0.7400E+00
    -26.391  0.0000E+00  0.7400E+00
    -26.140  0.0000E+00  0.7400E+00
    -25.889  0.0000E+00  0.7400E+00
    -25.638  0.0000E+00  0.7400E+00
    -25.387  0.0000E+00  0.7400E+00
    -25.136  0.0000E+00  0.7400E+00
    -24.885  0.0000E+00  0.7400E+00
    -24.634  0.4211E-14  0.7400E+00
    -24.383  0.4208E-05  0.7400E+00
    -24.132  0.4300E-01  0.7508E+00
    -23.881  0.3803E+00  0.8462E+00
    -23.631  0.5201E+00  0.9767E+00
    -23.380  0.4351E+00  0.1086E+01
    -23.129  0.5608E-01  0.1100E+01
    -22.878  0.3339E-01  0.1108E+01
    -22.627  0.3686E+00  0.1201E+01
    -22.376  0.3557E+00  0.1290E+01
    -22.125  0.4973E+00  0.1415E+01
    -21.874  0.1918E+00  0.1463E+01
    -21.623  0.2196E+00  0.1518E+01
    -21.372  0.7382E-02  0.1520E+01
    -21.121  0.9603E-08  0.1520E+01
    -20.870  0.0000E+00  0.1520E+01
    -20.619  0.0000E+00  0.1520E+01
    -20.368  0.0000E+00  0.1520E+01
    -20.117  0.0000E+00  0.1520E+01
    -19.866  0.0000E+00  0.1520E+01
    -19.616  0.1747E-07  0.1520E+01
    -19.365  0.8057E-02  0.1522E+01
    -19.114  0.2221E+00  0.1578E+01
    -18.863  0.3134E+00  0.1656E+01
    -18.612  0.7063E+00  0.1834E+01
    -18.361  0.3777E+00  0.1928E+01
    -18.110  0.4618E-01  0.1940E+01
    -17.859  0.2464E-04  0.1940E+01
    -17.608  0.1243E-12  0.1940E+01
    -17.357  0.0000E+00  0.1940E+01
    -17.106  0.0000E+00  0.1940E+01
    -16.855  0.0000E+00  0.1940E+01
    -16.604  0.0000E+00  0.1940E+01
    -16.353  0.0000E+00  0.1940E+01
    -16.102  0.0000E+00  0.1940E+01
    -15.851  0.0000E+00  0.1940E+01
    -15.600  0.0000E+00  0.1940E+01
    -15.350  0.0000E+00  0.1940E+01
    -15.099  0.0000E+00  0.1940E+01
    -14.848  0.0000E+00  0.1940E+01
    -14.597  0.0000E+00  0.1940E+01
    -14.346  0.0000E+00  0.1940E+01
    -14.095  0.0000E+00  0.1940E+01
    -13.844  0.0000E+00  0.1940E+01
    -13.593  0.0000E+00  0.1940E+01
    -13.342  0.0000E+00  0.1940E+01
    -13.091  0.0000E+00  0.1940E+01
    -12.840  0.0000E+00  0.1940E+01
    -12.589  0.0000E+00  0.1940E+01
    -12.338  0.0000E+00  0.1940E+01
    -12.087  0.0000E+00  0.1940E+01
    -11.836  0.0000E+00  0.1940E+01
    -11.585  0.0000E+00  0.1940E+01
    -11.335  0.0000E+00  0.1940E+01
    -11.084  0.0000E+00  0.1940E+01
    -10.833  0.0000E+00  0.1940E+01
    -10.582  0.0000E+00  0.1940E+01
    -10.331  0.0000E+00  0.1940E+01
    -10.080  0.0000E+00  0.1940E+01
     -9.829  0.0000E+00  0.1940E+01
     -9.578  0.0000E+00  0.1940E+01
     -9.327  0.0000E+00  0.1940E+01
     -9.076  0.0000E+00  0.1940E+01
     -8.825  0.0000E+00  0.1940E+01
     -8.574  0.0000E+00  0.1940E+01
     -8.323  0.0000E+00  0.1940E+01
     -8.072  0.4724E-09  0.1940E+01
     -7.821  0.3109E-03  0.1940E+01
     -7.570  0.3223E-01  0.1948E+01
     -7.320  0.6955E-01  0.1966E+01
     -7.069  0.1226E+00  0.1996E+01
     -6.818  0.1721E+00  0.2040E+01
     -6.567  0.2218E+00  0.2095E+01
     -6.316  0.2222E+00  0.2151E+01
     -6.065  0.1732E+00  0.2194E+01
     -5.814  0.2205E-01  0.2200E+01
     -5.563  0.1410E-05  0.2200E+01
     -5.312  0.6777E-15  0.2200E+01
     -5.061  0.0000E+00  0.2200E+01
     -4.810  0.0000E+00  0.2200E+01
     -4.559  0.6510E-15  0.2200E+01
     -4.308  0.4735E-06  0.2200E+01
     -4.057  0.4585E-02  0.2201E+01
     -3.806  0.5846E-01  0.2216E+01
     -3.555  0.3850E-01  0.2225E+01
     -3.304  0.1163E+00  0.2255E+01
     -3.054  0.1569E+00  0.2294E+01
     -2.803  0.2534E+00  0.2358E+01
     -2.552  0.2611E+00  0.2423E+01
     -2.301  0.2696E+00  0.2491E+01
     -2.050  0.2031E+00  0.2542E+01
     -1.799  0.1002E+00  0.2567E+01
     -1.548  0.4960E-01  0.2579E+01
     -1.297  0.2561E-02  0.2580E+01
     -1.046  0.3929E-06  0.2580E+01
     -0.795  0.7357E-15  0.2580E+01
     -0.544  0.0000E+00  0.2580E+01
     -0.293  0.0000E+00  0.2580E+01
     -0.042  0.0000E+00  0.2580E+01
      0.209  0.5295E-10  0.2580E+01
      0.460  0.7363E-04  0.2580E+01
      0.711  0.4065E-02  0.2581E+01
      0.961  0.2614E-01  0.2588E+01
      1.212  0.9712E-01  0.2612E+01
      1.463  0.1226E+00  0.2643E+01
      1.714  0.1679E+00  0.2685E+01
      1.965  0.2549E+00  0.2749E+01
      2.216  0.3137E+00  0.2828E+01
      2.467  0.2815E+00  0.2898E+01
      2.718  0.3386E+00  0.2983E+01
      2.969  0.3582E+00  0.3073E+01
      3.220  0.4418E+00  0.3184E+01
      3.471  0.5288E+00  0.3317E+01
      3.722  0.5912E+00  0.3465E+01
      3.973  0.6278E+00  0.3623E+01
      4.224  0.6010E+00  0.3773E+01
      4.475  0.6142E+00  0.3927E+01
      4.726  0.5529E+00  0.4066E+01
      4.977  0.4715E+00  0.4185E+01
      5.227  0.3767E+00  0.4279E+01
      5.478  0.3055E+00  0.4356E+01
      5.729  0.2299E+00  0.4413E+01
      5.980  0.1767E+00  0.4458E+01
      6.231  0.1420E+00  0.4493E+01
      6.482  0.7266E-01  0.4512E+01
      6.733  0.1686E+00  0.4554E+01
      6.984  0.1658E+00  0.4596E+01
      7.235  0.1712E+00  0.4639E+01
      7.486  0.1921E+00  0.4687E+01
      7.737  0.2037E+00  0.4738E+01
      7.988  0.1912E+00  0.4786E+01
      8.239  0.2434E+00  0.4847E+01
      8.490  0.2475E+00  0.4909E+01
      8.741  0.2989E+00  0.4984E+01
      8.992  0.3849E+00  0.5081E+01
      9.242  0.4148E+00  0.5185E+01
      9.493  0.4613E+00  0.5300E+01
      9.744  0.4758E+00  0.5420E+01
      9.995  0.4796E+00  0.5540E+01
     10.246  0.4209E+00  0.5646E+01
     10.497  0.4068E+00  0.5748E+01
     10.748  0.4016E+00  0.5849E+01
     10.999  0.4249E+00  0.5955E+01
     11.250  0.3977E+00  0.6055E+01
     11.501  0.3800E+00  0.6150E+01
     11.752  0.2914E+00  0.6224E+01
     12.003  0.6533E-01  0.6240E+01
     12.254  0.2477E-03  0.6240E+01
     12.505  0.4475E-10  0.6240E+01
     12.756  0.0000E+00  0.6240E+01
     13.007  0.0000E+00  0.6240E+01
     13.257  0.0000E+00  0.6240E+01
     13.508  0.0000E+00  0.6240E+01
     13.759  0.0000E+00  0.6240E+01
     14.010  0.0000E+00  0.6240E+01
     14.261  0.0000E+00  0.6240E+01
     14.512  0.0000E+00  0.6240E+01
     14.763  0.0000E+00  0.6240E+01
     15.014  0.0000E+00  0.6240E+01
     15.265  0.0000E+00  0.6240E+01
