<?xml version="1.0" encoding="ISO-8859-1"?>
<modeling>
 <generator>
  <i name="program" type="string">vasp </i>
  <i name="version" type="string">5.4.4.18Apr17-6-g9f103f2a35  </i>
  <i name="subversion" type="string">(build Oct 18 2021 20:38:43) complex            parallel </i>
  <i name="platform" type="string">LinuxIFC </i>
  <i name="date" type="string">2024 05 30 </i>
  <i name="time" type="string">10:55:13 </i>
 </generator>
 <incar>
  <i type="string" name="SYSTEM">HECN</i>
  <i type="int" name="ISTART">     0</i>
  <i type="string" name="PREC">normal</i>
  <i type="string" name="ALGO">Fast</i>
  <i type="int" name="ICHARG">     2</i>
  <i type="int" name="NELM">    60</i>
  <i type="int" name="IBRION">     2</i>
  <i name="EDIFF">      0.00001000</i>
  <i name="EDIFFG">     -0.01000000</i>
  <i type="int" name="NSW">   100</i>
  <i type="int" name="ISIF">     3</i>
  <i name="ENCUT">    400.00000000</i>
  <i name="POTIM">      0.50000000</i>
  <i type="logical" name="LREAL"> F  </i>
  <i type="int" name="ISMEAR">     0</i>
  <i name="SIGMA">      0.10000000</i>
  <i type="logical" name="LWAVE"> F  </i>
  <i type="logical" name="LCHARG"> F  </i>
  <v type="int" name="KPOINT_BSE">    -1     0     0     0</v>
  <i type="int" name="NELM">    60</i>
 </incar>
 <structure name="primitive_cell" >
  <crystal>
   <varray name="basis" >
    <v>      11.23999977       0.00000000       0.00000000 </v>
    <v>       0.00000000      11.23999977       0.00000000 </v>
    <v>       0.00000000       0.00000000      11.23999977 </v>
   </varray>
   <i name="volume">   1420.03453724 </i>
   <varray name="rec_basis" >
    <v>       0.08896797       0.00000000       0.00000000 </v>
    <v>       0.00000000       0.08896797       0.00000000 </v>
    <v>       0.00000000       0.00000000       0.08896797 </v>
   </varray>
  </crystal>
  <varray name="positions" >
   <v>       0.00000000       0.00000000       0.00000000 </v>
   <v>      -0.24999996       0.00000000       0.00000000 </v>
   <v>       0.00000000       0.00000000      -0.24999996 </v>
   <v>       0.00000000      -0.24999996       0.00000000 </v>
   <v>       0.25000000       0.00000000       0.00000000 </v>
   <v>       0.00000000       0.25000000       0.00000000 </v>
   <v>       0.00000000       0.00000000       0.25000000 </v>
   <v>      -0.24999996      -0.24999996       0.00000000 </v>
   <v>       0.00000000      -0.24999996      -0.24999996 </v>
   <v>      -0.24999996       0.00000000      -0.24999996 </v>
   <v>       0.00000000       0.25000000      -0.24999996 </v>
   <v>      -0.24999996       0.00000000       0.25000000 </v>
   <v>      -0.24999996       0.25000000       0.00000000 </v>
   <v>       0.25000000      -0.24999996       0.00000000 </v>
   <v>       0.25000000       0.00000000      -0.24999996 </v>
   <v>       0.00000000      -0.24999996       0.25000000 </v>
   <v>       0.25000000       0.00000000       0.25000000 </v>
   <v>       0.00000000       0.25000000       0.25000000 </v>
   <v>       0.25000000       0.25000000       0.00000000 </v>
   <v>      -0.24999996      -0.24999996      -0.24999996 </v>
   <v>      -0.24999996       0.25000000      -0.24999996 </v>
   <v>       0.25000000      -0.24999996      -0.24999996 </v>
   <v>      -0.24999996      -0.24999996       0.25000000 </v>
   <v>      -0.24999996       0.25000000       0.25000000 </v>
   <v>       0.25000000      -0.24999996       0.25000000 </v>
   <v>       0.25000000       0.25000000      -0.24999996 </v>
   <v>       0.25000000       0.25000000       0.25000000 </v>
   <v>      -0.50000000       0.00000000       0.00000000 </v>
   <v>       0.00000000      -0.50000000       0.00000000 </v>
   <v>       0.00000000       0.00000000      -0.50000000 </v>
   <v>      -0.50000000      -0.24999996       0.00000000 </v>
   <v>      -0.24999996       0.00000000      -0.50000000 </v>
   <v>      -0.50000000       0.00000000      -0.24999996 </v>
   <v>      -0.24999996      -0.50000000       0.00000000 </v>
   <v>       0.00000000      -0.24999996      -0.50000000 </v>
   <v>       0.00000000      -0.50000000      -0.24999996 </v>
   <v>      -0.50000000       0.00000000       0.25000000 </v>
   <v>       0.00000000      -0.50000000       0.25000000 </v>
   <v>      -0.50000000       0.25000000       0.00000000 </v>
   <v>       0.25000000      -0.50000000       0.00000000 </v>
   <v>       0.25000000       0.00000000      -0.50000000 </v>
   <v>       0.00000000       0.25000000      -0.50000000 </v>
   <v>      -0.24999996      -0.24999996      -0.50000000 </v>
   <v>      -0.50000000      -0.24999996      -0.24999996 </v>
   <v>      -0.24999996      -0.50000000      -0.24999996 </v>
   <v>      -0.50000000       0.25000000      -0.24999996 </v>
   <v>      -0.24999996       0.25000000      -0.50000000 </v>
   <v>       0.25000000      -0.50000000      -0.24999996 </v>
   <v>       0.25000000      -0.24999996      -0.50000000 </v>
   <v>      -0.50000000      -0.24999996       0.25000000 </v>
   <v>      -0.24999996      -0.50000000       0.25000000 </v>
   <v>       0.25000000      -0.50000000       0.25000000 </v>
   <v>      -0.50000000       0.25000000       0.25000000 </v>
   <v>       0.25000000       0.25000000      -0.50000000 </v>
   <v>      -0.50000000      -0.50000000       0.00000000 </v>
   <v>       0.00000000      -0.50000000      -0.50000000 </v>
   <v>      -0.50000000       0.00000000      -0.50000000 </v>
   <v>      -0.24999996      -0.50000000      -0.50000000 </v>
   <v>      -0.50000000      -0.24999996      -0.50000000 </v>
   <v>      -0.50000000      -0.50000000      -0.24999996 </v>
   <v>      -0.50000000       0.25000000      -0.50000000 </v>
   <v>      -0.50000000      -0.50000000       0.25000000 </v>
   <v>       0.25000000      -0.50000000      -0.50000000 </v>
   <v>      -0.50000000      -0.50000000      -0.50000000 </v>
  </varray>
 </structure>
 <varray name="primitive_index" >
  <v type="int" >        1 </v>
  <v type="int" >       25 </v>
  <v type="int" >       29 </v>
  <v type="int" >       38 </v>
  <v type="int" >       22 </v>
  <v type="int" >       23 </v>
  <v type="int" >       34 </v>
  <v type="int" >        9 </v>
  <v type="int" >       12 </v>
  <v type="int" >       58 </v>
  <v type="int" >       10 </v>
  <v type="int" >       16 </v>
  <v type="int" >       17 </v>
  <v type="int" >       18 </v>
  <v type="int" >       56 </v>
  <v type="int" >       59 </v>
  <v type="int" >        2 </v>
  <v type="int" >        8 </v>
  <v type="int" >       14 </v>
  <v type="int" >       49 </v>
  <v type="int" >       30 </v>
  <v type="int" >       45 </v>
  <v type="int" >       39 </v>
  <v type="int" >       24 </v>
  <v type="int" >       36 </v>
  <v type="int" >       42 </v>
  <v type="int" >       21 </v>
  <v type="int" >       53 </v>
  <v type="int" >       54 </v>
  <v type="int" >       61 </v>
  <v type="int" >       28 </v>
  <v type="int" >       31 </v>
  <v type="int" >       33 </v>
  <v type="int" >       40 </v>
  <v type="int" >       47 </v>
  <v type="int" >       48 </v>
  <v type="int" >       26 </v>
  <v type="int" >       27 </v>
  <v type="int" >       35 </v>
  <v type="int" >       37 </v>
  <v type="int" >       43 </v>
  <v type="int" >       44 </v>
  <v type="int" >       64 </v>
  <v type="int" >        7 </v>
  <v type="int" >       63 </v>
  <v type="int" >        5 </v>
  <v type="int" >       11 </v>
  <v type="int" >       13 </v>
  <v type="int" >       20 </v>
  <v type="int" >       55 </v>
  <v type="int" >       60 </v>
  <v type="int" >        3 </v>
  <v type="int" >       15 </v>
  <v type="int" >       19 </v>
  <v type="int" >        4 </v>
  <v type="int" >        6 </v>
  <v type="int" >       57 </v>
  <v type="int" >       50 </v>
  <v type="int" >       51 </v>
  <v type="int" >       52 </v>
  <v type="int" >       32 </v>
  <v type="int" >       41 </v>
  <v type="int" >       46 </v>
  <v type="int" >       62 </v>
 </varray>
 <kpoints>
  <generation param="Gamma">
   <v type="int" name="divisions">       3        3        3 </v>
   <v name="usershift">      0.00000000       0.00000000       0.00000000 </v>
   <v name="genvec1">      0.33333333       0.00000000       0.00000000 </v>
   <v name="genvec2">      0.00000000       0.33333333       0.00000000 </v>
   <v name="genvec3">      0.00000000       0.00000000       0.33333333 </v>
   <v name="shift">      0.00000000       0.00000000       0.00000000 </v>
  </generation>
  <varray name="kpointlist" >
   <v>       0.00000000       0.00000000       0.00000000 </v>
   <v>       0.33333333       0.00000000       0.00000000 </v>
   <v>       0.00000000       0.33333333       0.00000000 </v>
   <v>       0.33333333       0.33333333       0.00000000 </v>
   <v>      -0.33333333       0.33333333       0.00000000 </v>
   <v>       0.00000000       0.00000000       0.33333333 </v>
   <v>       0.33333333       0.00000000       0.33333333 </v>
   <v>      -0.33333333       0.00000000       0.33333333 </v>
   <v>       0.00000000       0.33333333       0.33333333 </v>
   <v>       0.33333333       0.33333333       0.33333333 </v>
   <v>      -0.33333333       0.33333333       0.33333333 </v>
   <v>       0.00000000      -0.33333333       0.33333333 </v>
   <v>       0.33333333      -0.33333333       0.33333333 </v>
   <v>      -0.33333333      -0.33333333       0.33333333 </v>
  </varray>
  <varray name="weights" >
   <v>       0.03703704 </v>
   <v>       0.07407407 </v>
   <v>       0.07407407 </v>
   <v>       0.07407407 </v>
   <v>       0.07407407 </v>
   <v>       0.07407407 </v>
   <v>       0.07407407 </v>
   <v>       0.07407407 </v>
   <v>       0.07407407 </v>
   <v>       0.07407407 </v>
   <v>       0.07407407 </v>
   <v>       0.07407407 </v>
   <v>       0.07407407 </v>
   <v>       0.07407407 </v>
  </varray>
 </kpoints>
 <parameters>
  <separator name="general" >
   <i type="string" name="SYSTEM">HECN</i>
   <i type="logical" name="LCOMPAT"> F  </i>
  </separator>
  <separator name="electronic" >
   <i type="string" name="PREC">normal</i>
   <i name="ENMAX">    400.00000000</i>
   <i name="ENAUG">    644.87300000</i>
   <i name="EDIFF">      0.00001000</i>
   <i type="int" name="IALGO">    68</i>
   <i type="int" name="IWAVPR">    11</i>
   <i type="int" name="NBANDS">   312</i>
   <i name="NELECT">    487.00000000</i>
   <i type="int" name="TURBO">     0</i>
   <i type="int" name="IRESTART">     0</i>
   <i type="int" name="NREBOOT">     0</i>
   <i type="int" name="NMIN">     0</i>
   <i name="EREF">      0.00000000</i>
   <separator name="electronic smearing" >
    <i type="int" name="ISMEAR">     0</i>
    <i name="SIGMA">      0.10000000</i>
    <i name="KSPACING">      0.50000000</i>
    <i type="logical" name="KGAMMA"> T  </i>
   </separator>
   <separator name="electronic projectors" >
    <i type="logical" name="LREAL"> F  </i>
    <v name="ROPT">      0.00000000      0.00000000      0.00000000      0.00000000      0.00000000      0.00000000      0.00000000</v>
    <i type="int" name="LMAXPAW">  -100</i>
    <i type="int" name="LMAXMIX">     2</i>
    <i type="logical" name="NLSPLINE"> F  </i>
   </separator>
   <separator name="electronic startup" >
    <i type="int" name="ISTART">     0</i>
    <i type="int" name="ICHARG">     2</i>
    <i type="int" name="INIWAV">     1</i>
   </separator>
   <separator name="electronic spin" >
    <i type="int" name="ISPIN">     1</i>
    <i type="logical" name="LNONCOLLINEAR"> F  </i>
    <v name="MAGMOM">      1.00000000      1.00000000      1.00000000      1.00000000      1.00000000      1.00000000      1.00000000      1.00000000      1.00000000      1.00000000      1.00000000      1.00000000      1.00000000      1.00000000      1.00000000      1.00000000      1.00000000      1.00000000      1.00000000      1.00000000
      1.00000000      1.00000000      1.00000000      1.00000000      1.00000000      1.00000000      1.00000000      1.00000000      1.00000000      1.00000000      1.00000000      1.00000000      1.00000000      1.00000000      1.00000000      1.00000000      1.00000000      1.00000000      1.00000000      1.00000000
      1.00000000      1.00000000      1.00000000      1.00000000      1.00000000      1.00000000      1.00000000      1.00000000      1.00000000      1.00000000      1.00000000      1.00000000      1.00000000      1.00000000      1.00000000      1.00000000      1.00000000      1.00000000      1.00000000      1.00000000
      1.00000000      1.00000000      1.00000000      1.00000000</v>
    <i name="NUPDOWN">     -1.00000000</i>
    <i type="logical" name="LSORBIT"> F  </i>
    <v name="SAXIS">      0.00000000      0.00000000      1.00000000</v>
    <i type="logical" name="LSPIRAL"> F  </i>
    <v name="QSPIRAL">      0.00000000      0.00000000      0.00000000</v>
    <i type="logical" name="LZEROZ"> F  </i>
   </separator>
   <separator name="electronic exchange-correlation" >
    <i type="logical" name="LASPH"> F  </i>
    <i type="logical" name="LMETAGGA"> F  </i>
   </separator>
   <separator name="electronic convergence" >
    <i type="int" name="NELM">    60</i>
    <i type="int" name="NELMDL">    -5</i>
    <i type="int" name="NELMIN">     2</i>
    <i name="ENINI">    400.00000000</i>
    <separator name="electronic convergence detail" >
     <i type="logical" name="LDIAG"> T  </i>
     <i type="logical" name="LSUBROT"> F  </i>
     <i name="WEIMIN">      0.00100000</i>
     <i name="EBREAK">      0.00000001</i>
     <i name="DEPER">      0.30000000</i>
     <i type="int" name="NRMM">     4</i>
     <i name="TIME">      0.40000000</i>
    </separator>
   </separator>
   <separator name="electronic mixer" >
    <i name="AMIX">      0.40000000</i>
    <i name="BMIX">      1.00000000</i>
    <i name="AMIN">      0.10000000</i>
    <i name="AMIX_MAG">      1.60000000</i>
    <i name="BMIX_MAG">      1.00000000</i>
    <separator name="electronic mixer details" >
     <i type="int" name="IMIX">     4</i>
     <i type="logical" name="MIXFIRST"> F  </i>
     <i type="int" name="MAXMIX">   -45</i>
     <i name="WC">    100.00000000</i>
     <i type="int" name="INIMIX">     1</i>
     <i type="int" name="MIXPRE">     1</i>
     <i type="int" name="MREMOVE">     5</i>
    </separator>
   </separator>
   <separator name="electronic dipolcorrection" >
    <i type="logical" name="LDIPOL"> F  </i>
    <i type="logical" name="LMONO"> F  </i>
    <i type="int" name="IDIPOL">     0</i>
    <i name="EPSILON">      1.00000000</i>
    <v name="DIPOL">   -100.00000000   -100.00000000   -100.00000000</v>
    <i name="EFIELD">      0.00000000</i>
   </separator>
  </separator>
  <separator name="grids" >
   <i type="int" name="NGX">    56</i>
   <i type="int" name="NGY">    56</i>
   <i type="int" name="NGZ">    56</i>
   <i type="int" name="NGXF">   112</i>
   <i type="int" name="NGYF">   112</i>
   <i type="int" name="NGZF">   112</i>
   <i type="logical" name="ADDGRID"> F  </i>
  </separator>
  <separator name="ionic" >
   <i type="int" name="NSW">   100</i>
   <i type="int" name="IBRION">     2</i>
   <i type="int" name="MDALGO">     0</i>
   <i type="int" name="ISIF">     3</i>
   <i name="PSTRESS">      0.00000000</i>
   <i name="EDIFFG">     -0.01000000</i>
   <i type="int" name="NFREE">     1</i>
   <i name="POTIM">      0.50000000</i>
   <i name="SMASS">     -3.00000000</i>
   <i name="SCALEE">      1.00000000</i>
  </separator>
  <separator name="ionic md" >
   <i name="TEBEG">      0.00010000</i>
   <i name="TEEND">      0.00010000</i>
   <i type="int" name="NBLOCK">     1</i>
   <i type="int" name="KBLOCK">   100</i>
   <i type="int" name="NPACO">   256</i>
   <i name="APACO">     16.00000000</i>
  </separator>
  <separator name="symmetry" >
   <i type="int" name="ISYM">     2</i>
   <i name="SYMPREC">      0.00001000</i>
  </separator>
  <separator name="dos" >
   <i type="int" name="LORBIT">     0</i>
   <v name="RWIGS">     -1.00000000     -1.00000000     -1.00000000     -1.00000000     -1.00000000     -1.00000000     -1.00000000</v>
   <i type="int" name="NEDOS">   301</i>
   <i name="EMIN">     10.00000000</i>
   <i name="EMAX">    -10.00000000</i>
   <i name="EFERMI">      0.00000000</i>
  </separator>
  <separator name="writing" >
   <i type="int" name="NWRITE">     2</i>
   <i type="logical" name="LWAVE"> F  </i>
   <i type="logical" name="LDOWNSAMPLE"> F  </i>
   <i type="logical" name="LCHARG"> F  </i>
   <i type="logical" name="LPARD"> F  </i>
   <i type="logical" name="LVTOT"> F  </i>
   <i type="logical" name="LVHAR"> F  </i>
   <i type="logical" name="LELF"> F  </i>
   <i type="logical" name="LOPTICS"> F  </i>
   <v name="STM">      0.00000000      0.00000000      0.00000000      0.00000000      0.00000000      0.00000000      0.00000000</v>
  </separator>
  <separator name="performance" >
   <i type="int" name="NPAR">    24</i>
   <i type="int" name="NSIM">     4</i>
   <i type="int" name="NBLK">    -1</i>
   <i type="logical" name="LPLANE"> T  </i>
   <i type="logical" name="LSCALAPACK"> T  </i>
   <i type="logical" name="LSCAAWARE"> F  </i>
   <i type="logical" name="LSCALU"> F  </i>
   <i type="logical" name="LASYNC"> F  </i>
   <i type="logical" name="LORBITALREAL"> F  </i>
  </separator>
  <separator name="miscellaneous" >
   <i type="int" name="IDIOT">     3</i>
   <i type="int" name="ISPECIAL">     0</i>
   <i type="logical" name="LMUSIC"> F  </i>
   <v name="POMASS">     91.22400000     95.94000000    178.49000000     14.00100000     12.01100000     92.91000000     50.94100000</v>
   <v name="DARWINR">      0.00000000      0.00000000      0.00000000      0.00000000      0.00000000      0.00000000      0.00000000</v>
   <v name="DARWINV">      1.00000000      1.00000000      1.00000000      1.00000000      1.00000000      1.00000000      1.00000000</v>
   <i type="logical" name="LCORR"> T  </i>
  </separator>
  <i type="logical" name="GGA_COMPAT"> T  </i>
  <i type="logical" name="LBERRY"> F  </i>
  <i type="int" name="ICORELEVEL">     0</i>
  <i type="logical" name="LDAU"> F  </i>
  <i type="int" name="I_CONSTRAINED_M">     0</i>
  <separator name="electronic exchange-correlation" >
   <i type="string" name="GGA">--</i>
   <i type="int" name="VOSKOWN">     0</i>
   <i type="logical" name="LHFCALC"> F  </i>
   <i type="string" name="PRECFOCK"></i>
   <i type="logical" name="LSYMGRAD"> F  </i>
   <i type="logical" name="LHFONE"> F  </i>
   <i type="logical" name="LRHFCALC"> F  </i>
   <i type="logical" name="LTHOMAS"> F  </i>
   <i type="logical" name="LMODELHF"> F  </i>
   <i name="ENCUT4O">     -1.00000000</i>
   <i type="int" name="EXXOEP">     0</i>
   <i type="int" name="FOURORBIT">     0</i>
   <i name="AEXX">      0.00000000</i>
   <i name="HFALPHA">      0.00000000</i>
   <i name="MCALPHA">      0.00000000</i>
   <i name="ALDAX">      1.00000000</i>
   <i name="AGGAX">      1.00000000</i>
   <i name="ALDAC">      1.00000000</i>
   <i name="AGGAC">      1.00000000</i>
   <i type="int" name="NKREDX">     1</i>
   <i type="int" name="NKREDY">     1</i>
   <i type="int" name="NKREDZ">     1</i>
   <i type="logical" name="SHIFTRED"> F  </i>
   <i type="logical" name="ODDONLY"> F  </i>
   <i type="logical" name="EVENONLY"> F  </i>
   <i type="int" name="LMAXFOCK">     0</i>
   <i type="int" name="NMAXFOCKAE">     0</i>
   <i type="logical" name="LFOCKAEDFT"> F  </i>
   <i name="HFSCREEN">      0.00000000</i>
   <i name="HFSCREENC">      0.00000000</i>
   <i type="int" name="NBANDSGWLOW">     0</i>
  </separator>
  <separator name="vdW DFT" >
   <i type="logical" name="LUSE_VDW"> F  </i>
   <i name="Zab_VDW">     -0.84910000</i>
   <i name="PARAM1">      0.12340000</i>
   <i name="PARAM2">      1.00000000</i>
   <i name="PARAM3">      0.00000000</i>
  </separator>
  <separator name="model GW" >
   <i type="int" name="MODEL_GW">     0</i>
   <i name="MODEL_EPS0">     13.31282379</i>
   <i name="MODEL_ALPHA">      1.00000000</i>
  </separator>
  <separator name="linear response parameters" >
   <i type="logical" name="LEPSILON"> F  </i>
   <i type="logical" name="LRPA"> F  </i>
   <i type="logical" name="LNABLA"> F  </i>
   <i type="logical" name="LVEL"> F  </i>
   <i type="int" name="KINTER">     0</i>
   <i name="CSHIFT">      0.10000000</i>
   <i name="OMEGAMAX">     -1.00000000</i>
   <i name="DEG_THRESHOLD">      0.00200000</i>
   <i name="RTIME">     -0.10000000</i>
   <i name="WPLASMAI">      0.00000000</i>
   <v name="DFIELD">      0.00000000      0.00000000      0.00000000</v>
   <v name="WPLASMA">      0.00000000      0.00000000      0.00000000      0.00000000      0.00000000      0.00000000      0.00000000      0.00000000      0.00000000</v>
  </separator>
  <separator name="orbital magnetization" >
   <i type="logical" name="NUCIND"> F  </i>
   <v name="MAGPOS">      0.00000000      0.00000000      0.00000000</v>
   <i type="logical" name="LNICSALL"> T  </i>
   <i type="logical" name="ORBITALMAG"> F  </i>
   <i type="logical" name="LMAGBLOCH"> F  </i>
   <i type="logical" name="LCHIMAG"> F  </i>
   <i type="logical" name="LGAUGE"> T  </i>
   <i type="int" name="MAGATOM">     0</i>
   <v name="MAGDIPOL">      0.00000000      0.00000000      0.00000000</v>
   <v name="AVECCONST">      0.00000000      0.00000000      0.00000000</v>
  </separator>
  <separator name="response functions" >
   <i type="logical" name="LADDER"> F  </i>
   <i type="logical" name="LRPAFORCE"> F  </i>
   <i type="logical" name="LFXC"> F  </i>
   <i type="logical" name="LHARTREE"> T  </i>
   <i type="int" name="IBSE">     0</i>
   <v type="int" name="KPOINT">    -1     0     0     0</v>
   <i type="logical" name="LTCTE"> F  </i>
   <i type="logical" name="LTETE"> F  </i>
   <i type="logical" name="LTRIPLET"> F  </i>
   <i type="logical" name="LFXCEPS"> F  </i>
   <i type="logical" name="LFXHEG"> F  </i>
   <i type="int" name="NATURALO">     2</i>
   <i type="logical" name="L2ORDER"> F  </i>
   <i type="logical" name="LMP2LT"> F  </i>
   <i type="logical" name="LUSEW"> F  </i>
   <i name="ENCUTGW">     -2.00000000</i>
   <i name="ENCUTGWSOFT">     -2.00000000</i>
   <i name="ENCUTLF">     -1.00000000</i>
   <i type="int" name="LMAXMP2">    -1</i>
   <i name="SCISSOR">      0.00000000</i>
   <i type="int" name="NOMEGA">     0</i>
   <i type="int" name="NOMEGAR">     0</i>
   <i type="int" name="NBANDSGW">    -1</i>
   <i type="int" name="NBANDSO">    -1</i>
   <i type="int" name="NBANDSV">    -1</i>
   <i type="int" name="NELM">    60</i>
   <i type="int" name="NELMHF">     1</i>
   <i type="int" name="DIM">     3</i>
   <i type="int" name="ANTIRES">     0</i>
   <i name="OMEGAMAX">    -30.00000000</i>
   <i name="OMEGAMIN">    -30.00000000</i>
   <i name="OMEGATL">   -200.00000000</i>
   <i type="int" name="OMEGAGRID">   140</i>
   <i name="CSHIFT">     -0.10000000</i>
   <i type="logical" name="SELFENERGY"> F  </i>
   <i type="logical" name="LSPECTRAL"> F  </i>
   <i type="logical" name="LSPECTRALGW"> F  </i>
   <i type="logical" name="LSINGLES"> F  </i>
   <i type="logical" name="LFERMIGW"> F  </i>
   <i type="logical" name="ODDONLYGW"> F  </i>
   <i type="logical" name="EVENONLYGW"> F  </i>
   <i type="int" name="NKREDLFX">     1</i>
   <i type="int" name="NKREDLFY">     1</i>
   <i type="int" name="NKREDLFZ">     1</i>
   <i type="int" name="MAXMEM">  2800</i>
   <i type="int" name="TELESCOPE">     0</i>
   <i type="int" name="TAUPAR">     1</i>
   <i type="int" name="OMEGAPAR">    -1</i>
   <i name="LAMBDA">      1.00000000</i>
  </separator>
  <separator name="External order field" >
   <i name="OFIELD_KAPPA">      0.00000000</i>
   <v name="OFIELD_K">      0.00000000      0.00000000      0.00000000</v>
   <i name="OFIELD_Q6_NEAR">      0.00000000</i>
   <i name="OFIELD_Q6_FAR">      0.00000000</i>
   <i name="OFIELD_A">      0.00000000</i>
  </separator>
 </parameters>
 <atominfo>
  <atoms>      64 </atoms>
  <types>       7 </types>
  <array name="atoms" >
   <dimension dim="1">ion</dimension>
   <field type="string">element</field>
   <field type="int">atomtype</field>
   <set>
    <rc><c>Zr</c><c>   1</c></rc>
    <rc><c>Zr</c><c>   1</c></rc>
    <rc><c>Zr</c><c>   1</c></rc>
    <rc><c>Zr</c><c>   1</c></rc>
    <rc><c>Zr</c><c>   1</c></rc>
    <rc><c>Zr</c><c>   1</c></rc>
    <rc><c>Zr</c><c>   1</c></rc>
    <rc><c>Mo</c><c>   2</c></rc>
    <rc><c>Mo</c><c>   2</c></rc>
    <rc><c>Mo</c><c>   2</c></rc>
    <rc><c>Mo</c><c>   2</c></rc>
    <rc><c>Mo</c><c>   2</c></rc>
    <rc><c>Mo</c><c>   2</c></rc>
    <rc><c>Hf</c><c>   3</c></rc>
    <rc><c>Hf</c><c>   3</c></rc>
    <rc><c>Hf</c><c>   3</c></rc>
    <rc><c>Hf</c><c>   3</c></rc>
    <rc><c>Hf</c><c>   3</c></rc>
    <rc><c>Hf</c><c>   3</c></rc>
    <rc><c>Hf</c><c>   3</c></rc>
    <rc><c>N </c><c>   4</c></rc>
    <rc><c>N </c><c>   4</c></rc>
    <rc><c>N </c><c>   4</c></rc>
    <rc><c>N </c><c>   4</c></rc>
    <rc><c>N </c><c>   4</c></rc>
    <rc><c>N </c><c>   4</c></rc>
    <rc><c>N </c><c>   4</c></rc>
    <rc><c>N </c><c>   4</c></rc>
    <rc><c>N </c><c>   4</c></rc>
    <rc><c>N </c><c>   4</c></rc>
    <rc><c>N </c><c>   4</c></rc>
    <rc><c>N </c><c>   4</c></rc>
    <rc><c>N </c><c>   4</c></rc>
    <rc><c>C </c><c>   5</c></rc>
    <rc><c>C </c><c>   5</c></rc>
    <rc><c>C </c><c>   5</c></rc>
    <rc><c>C </c><c>   5</c></rc>
    <rc><c>C </c><c>   5</c></rc>
    <rc><c>C </c><c>   5</c></rc>
    <rc><c>C </c><c>   5</c></rc>
    <rc><c>C </c><c>   5</c></rc>
    <rc><c>C </c><c>   5</c></rc>
    <rc><c>C </c><c>   5</c></rc>
    <rc><c>C </c><c>   5</c></rc>
    <rc><c>C </c><c>   5</c></rc>
    <rc><c>C </c><c>   5</c></rc>
    <rc><c>C </c><c>   5</c></rc>
    <rc><c>C </c><c>   5</c></rc>
    <rc><c>C </c><c>   5</c></rc>
    <rc><c>C </c><c>   5</c></rc>
    <rc><c>C </c><c>   5</c></rc>
    <rc><c>C </c><c>   5</c></rc>
    <rc><c>Nb</c><c>   6</c></rc>
    <rc><c>Nb</c><c>   6</c></rc>
    <rc><c>Nb</c><c>   6</c></rc>
    <rc><c>Nb</c><c>   6</c></rc>
    <rc><c>Nb</c><c>   6</c></rc>
    <rc><c>Nb</c><c>   6</c></rc>
    <rc><c>V </c><c>   7</c></rc>
    <rc><c>V </c><c>   7</c></rc>
    <rc><c>V </c><c>   7</c></rc>
    <rc><c>V </c><c>   7</c></rc>
    <rc><c>V </c><c>   7</c></rc>
    <rc><c>V </c><c>   7</c></rc>
   </set>
  </array>
  <array name="atomtypes" >
   <dimension dim="1">type</dimension>
   <field type="int">atomspertype</field>
   <field type="string">element</field>
   <field>mass</field>
   <field>valence</field>
   <field type="string">pseudopotential</field>
   <set>
    <rc><c>   7</c><c>Zr</c><c>     91.22400000</c><c>     12.00000000</c><c> PAW_PBE Zr_sv 07Sep2000                </c></rc>
    <rc><c>   6</c><c>Mo</c><c>     95.94000000</c><c>      6.00000000</c><c> PAW_PBE Mo 08Apr2002                   </c></rc>
    <rc><c>   7</c><c>Hf</c><c>    178.49000000</c><c>     10.00000000</c><c> PAW_PBE Hf_pv 06Sep2000                </c></rc>
    <rc><c>  13</c><c>N </c><c>     14.00100000</c><c>      5.00000000</c><c> PAW_PBE N 08Apr2002                    </c></rc>
    <rc><c>  19</c><c>C </c><c>     12.01100000</c><c>      4.00000000</c><c> PAW_PBE C 08Apr2002                    </c></rc>
    <rc><c>   6</c><c>Nb</c><c>     92.91000000</c><c>     13.00000000</c><c> PAW_PBE Nb_sv 17Jan2003                </c></rc>
    <rc><c>   6</c><c>V </c><c>     50.94100000</c><c>     13.00000000</c><c> PAW_PBE V_sv 07Sep2000                 </c></rc>
   </set>
  </array>
 </atominfo>
 <structure name="initialpos" >
  <crystal>
   <varray name="basis" >
    <v>      11.23999977       0.00000000       0.00000000 </v>
    <v>       0.00000000      11.23999977       0.00000000 </v>
    <v>       0.00000000       0.00000000      11.23999977 </v>
   </varray>
   <i name="volume">   1420.03453724 </i>
   <varray name="rec_basis" >
    <v>       0.08896797       0.00000000       0.00000000 </v>
    <v>       0.00000000       0.08896797       0.00000000 </v>
    <v>       0.00000000       0.00000000       0.08896797 </v>
   </varray>
  </crystal>
  <varray name="positions" >
   <v>       0.00000000       0.00000000       0.00000000 </v>
   <v>       0.25000000       0.00000000       0.25000000 </v>
   <v>       0.25000000       0.50000000       0.25000000 </v>
   <v>       0.50000000       0.50000000       0.00000000 </v>
   <v>       0.50000000       0.25000000       0.75000004 </v>
   <v>       0.00000000       0.50000000       0.50000000 </v>
   <v>       0.50000000       0.75000004       0.75000004 </v>
   <v>       0.00000000       0.25000000       0.25000000 </v>
   <v>       0.75000004       0.75000004       0.00000000 </v>
   <v>       0.00000000       0.25000000       0.75000004 </v>
   <v>       0.75000004       0.25000000       0.50000000 </v>
   <v>       0.00000000       0.75000004       0.75000004 </v>
   <v>       0.25000000       0.50000000       0.75000004 </v>
   <v>       0.25000000       0.25000000       0.00000000 </v>
   <v>       0.50000000       0.25000000       0.25000000 </v>
   <v>       0.75000004       0.00000000       0.25000000 </v>
   <v>       0.75000004       0.25000000       0.00000000 </v>
   <v>       0.25000000       0.75000004       0.00000000 </v>
   <v>       0.25000000       0.25000000       0.50000000 </v>
   <v>       0.25000000       0.75000004       0.50000000 </v>
   <v>       0.25000000       0.25000000       0.25000000 </v>
   <v>       0.25000000       0.00000000       0.00000000 </v>
   <v>       0.00000000       0.25000000       0.00000000 </v>
   <v>       0.75000004       0.25000000       0.25000000 </v>
   <v>       0.75000004       0.00000000       0.00000000 </v>
   <v>       0.50000000       0.00000000       0.25000000 </v>
   <v>       0.00000000       0.50000000       0.25000000 </v>
   <v>       0.50000000       0.75000004       0.00000000 </v>
   <v>       0.00000000       0.00000000       0.75000004 </v>
   <v>       0.75000004       0.25000000       0.75000004 </v>
   <v>       0.75000004       0.00000000       0.50000000 </v>
   <v>       0.50000000       0.25000000       0.50000000 </v>
   <v>       0.50000000       0.00000000       0.75000004 </v>
   <v>       0.00000000       0.00000000       0.25000000 </v>
   <v>       0.50000000       0.25000000       0.00000000 </v>
   <v>       0.25000000       0.75000004       0.25000000 </v>
   <v>       0.25000000       0.50000000       0.00000000 </v>
   <v>       0.00000000       0.75000004       0.00000000 </v>
   <v>       0.75000004       0.75000004       0.25000000 </v>
   <v>       0.75000004       0.50000000       0.00000000 </v>
   <v>       0.50000000       0.50000000       0.25000000 </v>
   <v>       0.25000000       0.25000000       0.75000004 </v>
   <v>       0.25000000       0.00000000       0.50000000 </v>
   <v>       0.00000000       0.25000000       0.50000000 </v>
   <v>       0.25000000       0.75000004       0.75000004 </v>
   <v>       0.25000000       0.50000000       0.50000000 </v>
   <v>       0.00000000       0.75000004       0.50000000 </v>
   <v>       0.00000000       0.50000000       0.75000004 </v>
   <v>       0.75000004       0.75000004       0.75000004 </v>
   <v>       0.75000004       0.50000000       0.50000000 </v>
   <v>       0.50000000       0.75000004       0.50000000 </v>
   <v>       0.50000000       0.50000000       0.75000004 </v>
   <v>       0.50000000       0.00000000       0.00000000 </v>
   <v>       0.00000000       0.50000000       0.00000000 </v>
   <v>       0.50000000       0.75000004       0.25000000 </v>
   <v>       0.25000000       0.00000000       0.75000004 </v>
   <v>       0.50000000       0.00000000       0.50000000 </v>
   <v>       0.75000004       0.00000000       0.75000004 </v>
   <v>       0.00000000       0.75000004       0.25000000 </v>
   <v>       0.75000004       0.50000000       0.25000000 </v>
   <v>       0.00000000       0.00000000       0.50000000 </v>
   <v>       0.50000000       0.50000000       0.50000000 </v>
   <v>       0.75000004       0.50000000       0.75000004 </v>
   <v>       0.75000004       0.75000004       0.50000000 </v>
  </varray>
 </structure>
 <calculation>
  <scstep>
   <time name="dav">   86.63   86.86</time>
   <time name="total">   86.69   86.92</time>
   <energy>
    <i name="alphaZ">   1971.87592737 </i>
    <i name="ewald"> -30280.78326647 </i>
    <i name="hartreedc"> -11098.94073819 </i>
    <i name="XCdc">   1323.08311822 </i>
    <i name="pawpsdc">  27219.11098885 </i>
    <i name="pawaedc"> -26593.06312644 </i>
    <i name="eentropy">     -0.10790280 </i>
    <i name="bandstr">  -2504.24649980 </i>
    <i name="atom">  43578.90104482 </i>
    <i name="e_fr_energy">   3615.82954557 </i>
    <i name="e_wo_entrp">   3615.93744837 </i>
    <i name="e_0_energy">   3615.88349697 </i>
   </energy>
  </scstep>
  <scstep>
   <time name="dav">   96.72   96.91</time>
   <time name="total">   96.72   96.91</time>
   <energy>
    <i name="e_fr_energy">    -58.92137831 </i>
    <i name="e_wo_entrp">    -58.71147329 </i>
    <i name="e_0_energy">    -58.81642580 </i>
   </energy>
  </scstep>
  <scstep>
   <time name="dav">  131.18  132.01</time>
   <time name="total">  131.18  132.01</time>
   <energy>
    <i name="e_fr_energy">   -587.95995072 </i>
    <i name="e_wo_entrp">   -587.74317760 </i>
    <i name="e_0_energy">   -587.85156416 </i>
   </energy>
  </scstep>
  <scstep>
   <time name="dav">  124.89  125.21</time>
   <time name="total">  124.89  125.21</time>
   <energy>
    <i name="e_fr_energy">   -628.14387737 </i>
    <i name="e_wo_entrp">   -627.88513382 </i>
    <i name="e_0_energy">   -628.01450560 </i>
   </energy>
  </scstep>
  <scstep>
   <time name="dav">  146.36  146.81</time>
   <time name="total">  147.02  147.47</time>
   <energy>
    <i name="e_fr_energy">   -634.98870843 </i>
    <i name="e_wo_entrp">   -634.72045174 </i>
    <i name="e_0_energy">   -634.85458008 </i>
   </energy>
  </scstep>
  <scstep>
   <time name="diag">    2.98    2.99</time>
   <time name="diis">   85.32   85.70</time>
   <time name="orth">    0.70    0.70</time>
   <time name="total">   89.70   90.11</time>
   <energy>
    <i name="e_fr_energy">   -828.92815823 </i>
    <i name="e_wo_entrp">   -828.65112198 </i>
    <i name="e_0_energy">   -828.78964011 </i>
   </energy>
  </scstep>
  <scstep>
   <time name="diag">    2.99    3.00</time>
   <time name="diis">   91.71   92.07</time>
   <time name="orth">    0.70    0.70</time>
   <time name="total">   96.11   96.47</time>
   <energy>
    <i name="e_fr_energy">   -506.43230253 </i>
    <i name="e_wo_entrp">   -506.15590781 </i>
    <i name="e_0_energy">   -506.29410517 </i>
   </energy>
  </scstep>
  <scstep>
   <time name="diag">    2.98    2.98</time>
   <time name="diis">   89.57   89.72</time>
   <time name="orth">    0.69    0.69</time>
   <time name="total">   93.95   94.11</time>
   <energy>
    <i name="e_fr_energy">   -481.86985721 </i>
    <i name="e_wo_entrp">   -481.45126405 </i>
    <i name="e_0_energy">   -481.66056063 </i>
   </energy>
  </scstep>
  <scstep>
   <time name="diag">    2.96    2.97</time>
   <time name="diis">   91.15   91.43</time>
   <time name="orth">    0.71    0.72</time>
   <time name="total">   95.55   95.85</time>
   <energy>
    <i name="e_fr_energy">   -479.51032393 </i>
    <i name="e_wo_entrp">   -479.15328289 </i>
    <i name="e_0_energy">   -479.33180341 </i>
   </energy>
  </scstep>
  <scstep>
   <time name="diag">    2.96    2.97</time>
   <time name="diis">   91.86   92.13</time>
   <time name="orth">    0.69    0.69</time>
   <time name="total">   96.27   96.55</time>
   <energy>
    <i name="e_fr_energy">   -476.92631457 </i>
    <i name="e_wo_entrp">   -476.43225019 </i>
    <i name="e_0_energy">   -476.67928238 </i>
   </energy>
  </scstep>
  <scstep>
   <time name="diag">    2.98    2.99</time>
   <time name="diis">   94.16   94.33</time>
   <time name="orth">    0.69    0.69</time>
   <time name="total">   98.56   98.74</time>
   <energy>
    <i name="e_fr_energy">   -477.77315733 </i>
    <i name="e_wo_entrp">   -477.35304415 </i>
    <i name="e_0_energy">   -477.56310074 </i>
   </energy>
  </scstep>
  <scstep>
   <time name="diag">    2.97    2.97</time>
   <time name="diis">   91.55   91.85</time>
   <time name="orth">    0.69    0.69</time>
   <time name="total">   95.94   96.24</time>
   <energy>
    <i name="e_fr_energy">   -477.77436138 </i>
    <i name="e_wo_entrp">   -477.41672288 </i>
    <i name="e_0_energy">   -477.59554213 </i>
   </energy>
  </scstep>
  <scstep>
   <time name="diag">    2.95    2.96</time>
   <time name="diis">   89.89   90.05</time>
   <time name="orth">    0.69    0.69</time>
   <time name="total">   94.26   94.43</time>
   <energy>
    <i name="e_fr_energy">   -479.57145668 </i>
    <i name="e_wo_entrp">   -479.21087031 </i>
    <i name="e_0_energy">   -479.39116349 </i>
   </energy>
  </scstep>
  <scstep>
   <time name="diag">    3.05    3.06</time>
   <time name="diis">   91.89   92.04</time>
   <time name="orth">    0.69    0.69</time>
   <time name="total">   96.40   96.55</time>
   <energy>
    <i name="e_fr_energy">   -474.30943801 </i>
    <i name="e_wo_entrp">   -473.80037984 </i>
    <i name="e_0_energy">   -474.05490892 </i>
   </energy>
  </scstep>
  <scstep>
   <time name="diag">    3.00    3.00</time>
   <time name="diis">   89.38   89.62</time>
   <time name="orth">    0.68    0.69</time>
   <time name="total">   93.80   94.05</time>
   <energy>
    <i name="e_fr_energy">   -474.09214899 </i>
    <i name="e_wo_entrp">   -473.61958765 </i>
    <i name="e_0_energy">   -473.85586832 </i>
   </energy>
  </scstep>
  <scstep>
   <time name="diag">    2.96    2.97</time>
   <time name="diis">   89.97   90.32</time>
   <time name="orth">    0.69    0.69</time>
   <time name="total">   94.38   94.75</time>
   <energy>
    <i name="e_fr_energy">   -473.45951340 </i>
    <i name="e_wo_entrp">   -472.90979633 </i>
    <i name="e_0_energy">   -473.18465487 </i>
   </energy>
  </scstep>
  <scstep>
   <time name="diag">    2.96    3.00</time>
   <time name="diis">   92.67   93.08</time>
   <time name="orth">    0.69    0.69</time>
   <time name="total">   97.06   97.51</time>
   <energy>
    <i name="e_fr_energy">   -472.82446338 </i>
    <i name="e_wo_entrp">   -472.30610366 </i>
    <i name="e_0_energy">   -472.56528352 </i>
   </energy>
  </scstep>
  <scstep>
   <time name="diag">    2.99    3.01</time>
   <time name="diis">   91.04   91.32</time>
   <time name="orth">    0.68    0.69</time>
   <time name="total">   95.45   95.76</time>
   <energy>
    <i name="e_fr_energy">   -472.61098897 </i>
    <i name="e_wo_entrp">   -472.08314208 </i>
    <i name="e_0_energy">   -472.34706553 </i>
   </energy>
  </scstep>
  <scstep>
   <time name="diag">    3.03    3.04</time>
   <time name="diis">   92.40   92.69</time>
   <time name="orth">    0.69    0.69</time>
   <time name="total">   96.86   97.16</time>
   <energy>
    <i name="e_fr_energy">   -472.33841152 </i>
    <i name="e_wo_entrp">   -471.79827661 </i>
    <i name="e_0_energy">   -472.06834406 </i>
   </energy>
  </scstep>
  <scstep>
   <time name="diag">    2.99    3.00</time>
   <time name="diis">   93.30   93.55</time>
   <time name="orth">    0.69    0.69</time>
   <time name="total">   97.73   97.98</time>
   <energy>
    <i name="e_fr_energy">   -472.33233899 </i>
    <i name="e_wo_entrp">   -471.79813005 </i>
    <i name="e_0_energy">   -472.06523452 </i>
   </energy>
  </scstep>
  <scstep>
   <time name="diag">    2.98    2.98</time>
   <time name="diis">   92.68   92.89</time>
   <time name="orth">    0.69    0.69</time>
   <time name="total">   97.09   97.31</time>
   <energy>
    <i name="e_fr_energy">   -472.21137774 </i>
    <i name="e_wo_entrp">   -471.64805124 </i>
    <i name="e_0_energy">   -471.92971449 </i>
   </energy>
  </scstep>
  <scstep>
   <time name="diag">    2.97    2.97</time>
   <time name="diis">   92.72   92.95</time>
   <time name="orth">    0.69    0.69</time>
   <time name="total">   97.14   97.39</time>
   <energy>
    <i name="e_fr_energy">   -472.25094447 </i>
    <i name="e_wo_entrp">   -471.69256645 </i>
    <i name="e_0_energy">   -471.97175546 </i>
   </energy>
  </scstep>
  <scstep>
   <time name="diag">    2.97    2.97</time>
   <time name="diis">   91.92   92.15</time>
   <time name="orth">    0.69    0.69</time>
   <time name="total">   96.32   96.56</time>
   <energy>
    <i name="e_fr_energy">   -472.22035014 </i>
    <i name="e_wo_entrp">   -471.66008559 </i>
    <i name="e_0_energy">   -471.94021786 </i>
   </energy>
  </scstep>
  <scstep>
   <time name="diag">    3.08    3.08</time>
   <time name="diis">   94.08   94.27</time>
   <time name="orth">    0.69    0.69</time>
   <time name="total">   98.59   98.79</time>
   <energy>
    <i name="e_fr_energy">   -472.20273864 </i>
    <i name="e_wo_entrp">   -471.64943101 </i>
    <i name="e_0_energy">   -471.92608483 </i>
   </energy>
  </scstep>
  <scstep>
   <time name="diag">    2.98    2.98</time>
   <time name="diis">   94.05   94.35</time>
   <time name="orth">    0.68    0.68</time>
   <time name="total">   98.46   98.76</time>
   <energy>
    <i name="e_fr_energy">   -472.19231395 </i>
    <i name="e_wo_entrp">   -471.63396771 </i>
    <i name="e_0_energy">   -471.91314083 </i>
   </energy>
  </scstep>
  <scstep>
   <time name="diag">    2.99    2.99</time>
   <time name="diis">   93.43   93.71</time>
   <time name="orth">    0.69    0.69</time>
   <time name="total">   97.87   98.16</time>
   <energy>
    <i name="e_fr_energy">   -472.18932054 </i>
    <i name="e_wo_entrp">   -471.62034645 </i>
    <i name="e_0_energy">   -471.90483349 </i>
   </energy>
  </scstep>
  <scstep>
   <time name="diag">    2.99    3.01</time>
   <time name="diis">   94.99   95.25</time>
   <time name="orth">    0.69    0.69</time>
   <time name="total">   99.43   99.71</time>
   <energy>
    <i name="e_fr_energy">   -472.18209081 </i>
    <i name="e_wo_entrp">   -471.61777143 </i>
    <i name="e_0_energy">   -471.89993112 </i>
   </energy>
  </scstep>
  <scstep>
   <time name="diag">    2.98    2.99</time>
   <time name="diis">   93.61   93.89</time>
   <time name="orth">    0.69    0.71</time>
   <time name="total">   98.03   98.35</time>
   <energy>
    <i name="e_fr_energy">   -472.18229389 </i>
    <i name="e_wo_entrp">   -471.62225937 </i>
    <i name="e_0_energy">   -471.90227663 </i>
   </energy>
  </scstep>
  <scstep>
   <time name="diag">    2.96    2.97</time>
   <time name="diis">   91.25   91.51</time>
   <time name="orth">    0.69    0.69</time>
   <time name="total">   95.67   95.93</time>
   <energy>
    <i name="e_fr_energy">   -472.18258065 </i>
    <i name="e_wo_entrp">   -471.62280736 </i>
    <i name="e_0_energy">   -471.90269401 </i>
   </energy>
  </scstep>
  <scstep>
   <time name="diag">    2.96    2.96</time>
   <time name="diis">   90.65   90.91</time>
   <time name="orth">    0.69    0.69</time>
   <time name="total">   95.06   95.33</time>
   <energy>
    <i name="e_fr_energy">   -472.18022265 </i>
    <i name="e_wo_entrp">   -471.61762429 </i>
    <i name="e_0_energy">   -471.89892347 </i>
   </energy>
  </scstep>
  <scstep>
   <time name="diag">    2.98    2.99</time>
   <time name="diis">   91.84   92.13</time>
   <time name="orth">    0.69    0.69</time>
   <time name="total">   96.25   96.55</time>
   <energy>
    <i name="e_fr_energy">   -472.17970915 </i>
    <i name="e_wo_entrp">   -471.61643838 </i>
    <i name="e_0_energy">   -471.89807377 </i>
   </energy>
  </scstep>
  <scstep>
   <time name="diag">    2.97    2.98</time>
   <time name="diis">   90.68   90.91</time>
   <time name="orth">    0.69    0.69</time>
   <time name="total">   95.09   95.32</time>
   <energy>
    <i name="e_fr_energy">   -472.18001880 </i>
    <i name="e_wo_entrp">   -471.61761068 </i>
    <i name="e_0_energy">   -471.89881474 </i>
   </energy>
  </scstep>
  <scstep>
   <time name="diag">    2.98    2.98</time>
   <time name="diis">   87.02   87.26</time>
   <time name="orth">    0.69    0.69</time>
   <time name="total">   91.47   91.71</time>
   <energy>
    <i name="e_fr_energy">   -472.18086729 </i>
    <i name="e_wo_entrp">   -471.61787683 </i>
    <i name="e_0_energy">   -471.89937206 </i>
   </energy>
  </scstep>
  <scstep>
   <time name="diag">    2.97    2.98</time>
   <time name="diis">   80.23   80.32</time>
   <time name="orth">    0.70    0.70</time>
   <time name="total">   84.68   84.77</time>
   <energy>
    <i name="e_fr_energy">   -472.18139597 </i>
    <i name="e_wo_entrp">   -471.61816121 </i>
    <i name="e_0_energy">   -471.89977859 </i>
   </energy>
  </scstep>
  <scstep>
   <time name="diag">    2.96    2.96</time>
   <time name="diis">   82.36   82.53</time>
   <time name="orth">    0.70    0.70</time>
   <time name="total">   86.75   86.94</time>
   <energy>
    <i name="e_fr_energy">   -472.18157455 </i>
    <i name="e_wo_entrp">   -471.61872819 </i>
    <i name="e_0_energy">   -471.90015137 </i>
   </energy>
  </scstep>
  <scstep>
   <time name="diag">    2.98    2.98</time>
   <time name="diis">   82.04   82.21</time>
   <time name="orth">    0.69    0.69</time>
   <time name="total">   86.46   86.63</time>
   <energy>
    <i name="e_fr_energy">   -472.18193444 </i>
    <i name="e_wo_entrp">   -471.61881478 </i>
    <i name="e_0_energy">   -471.90037461 </i>
   </energy>
  </scstep>
  <scstep>
   <time name="diag">    2.99    3.00</time>
   <time name="diis">   60.02   60.12</time>
   <time name="orth">    0.69    0.69</time>
   <time name="total">   64.45   64.55</time>
   <energy>
    <i name="e_fr_energy">   -472.18219464 </i>
    <i name="e_wo_entrp">   -471.61890931 </i>
    <i name="e_0_energy">   -471.90055198 </i>
   </energy>
  </scstep>
  <scstep>
   <time name="diag">    2.98    2.99</time>
   <time name="diis">   49.96   50.06</time>
   <time name="orth">    0.68    0.68</time>
   <time name="total">   54.37   54.48</time>
   <energy>
    <i name="e_fr_energy">   -472.18241569 </i>
    <i name="e_wo_entrp">   -471.61912445 </i>
    <i name="e_0_energy">   -471.90077007 </i>
   </energy>
  </scstep>
  <scstep>
   <time name="diag">    2.99    3.01</time>
   <time name="diis">   49.69   49.83</time>
   <time name="orth">    0.69    0.69</time>
   <time name="total">   54.13   54.30</time>
   <energy>
    <i name="e_fr_energy">   -472.18258886 </i>
    <i name="e_wo_entrp">   -471.61917105 </i>
    <i name="e_0_energy">   -471.90087996 </i>
   </energy>
  </scstep>
  <scstep>
   <time name="diag">    2.97    2.97</time>
   <time name="diis">   49.44   49.60</time>
   <time name="orth">    0.70    0.72</time>
   <time name="total">   53.85   54.05</time>
   <energy>
    <i name="e_fr_energy">   -472.18273658 </i>
    <i name="e_wo_entrp">   -471.61928681 </i>
    <i name="e_0_energy">   -471.90101169 </i>
   </energy>
  </scstep>
  <scstep>
   <time name="diag">    2.97    2.98</time>
   <time name="diis">   49.05   49.17</time>
   <time name="orth">    0.69    0.69</time>
   <time name="total">   53.46   53.59</time>
   <energy>
    <i name="e_fr_energy">   -472.18284951 </i>
    <i name="e_wo_entrp">   -471.61935587 </i>
    <i name="e_0_energy">   -471.90110269 </i>
   </energy>
  </scstep>
  <scstep>
   <time name="diag">    2.98    2.98</time>
   <time name="diis">   48.63   48.73</time>
   <time name="orth">    0.69    0.69</time>
   <time name="total">   53.07   53.17</time>
   <energy>
    <i name="e_fr_energy">   -472.18294558 </i>
    <i name="e_wo_entrp">   -471.61939495 </i>
    <i name="e_0_energy">   -471.90117026 </i>
   </energy>
  </scstep>
  <scstep>
   <time name="diag">    2.99    2.99</time>
   <time name="diis">   46.77   48.03</time>
   <time name="orth">    0.72    0.74</time>
   <time name="total">   51.25   52.54</time>
   <energy>
    <i name="e_fr_energy">   -472.18301936 </i>
    <i name="e_wo_entrp">   -471.61944273 </i>
    <i name="e_0_energy">   -471.90123104 </i>
   </energy>
  </scstep>
  <scstep>
   <time name="diag">    2.99    3.00</time>
   <time name="diis">   47.84   47.88</time>
   <time name="orth">    0.69    0.69</time>
   <time name="total">   52.29   52.34</time>
   <energy>
    <i name="e_fr_energy">   -472.18308092 </i>
    <i name="e_wo_entrp">   -471.61947074 </i>
    <i name="e_0_energy">   -471.90127583 </i>
   </energy>
  </scstep>
  <scstep>
   <time name="diag">    2.99    2.99</time>
   <time name="diis">   47.48   47.71</time>
   <time name="orth">    0.69    0.69</time>
   <time name="total">   51.92   52.16</time>
   <energy>
    <i name="e_fr_energy">   -472.18312934 </i>
    <i name="e_wo_entrp">   -471.61949074 </i>
    <i name="e_0_energy">   -471.90131004 </i>
   </energy>
  </scstep>
  <scstep>
   <time name="diag">    2.97    2.97</time>
   <time name="diis">   47.91   48.12</time>
   <time name="orth">    0.69    0.69</time>
   <time name="total">   52.32   52.54</time>
   <energy>
    <i name="e_fr_energy">   -472.18316970 </i>
    <i name="e_wo_entrp">   -471.61951097 </i>
    <i name="e_0_energy">   -471.90134033 </i>
   </energy>
  </scstep>
  <scstep>
   <time name="diag">    2.98    2.99</time>
   <time name="diis">   48.19   48.36</time>
   <time name="orth">    0.69    0.69</time>
   <time name="total">   52.62   52.78</time>
   <energy>
    <i name="e_fr_energy">   -472.18320122 </i>
    <i name="e_wo_entrp">   -471.61952501 </i>
    <i name="e_0_energy">   -471.90136312 </i>
   </energy>
  </scstep>
  <scstep>
   <time name="diag">    2.96    2.96</time>
   <time name="diis">   47.63   47.75</time>
   <time name="orth">    0.69    0.69</time>
   <time name="total">   52.04   52.16</time>
   <energy>
    <i name="e_fr_energy">   -472.18322730 </i>
    <i name="e_wo_entrp">   -471.61953461 </i>
    <i name="e_0_energy">   -471.90138096 </i>
   </energy>
  </scstep>
  <scstep>
   <time name="diag">    2.96    2.96</time>
   <time name="diis">   48.01   48.16</time>
   <time name="orth">    0.69    0.69</time>
   <time name="total">   52.42   52.57</time>
   <energy>
    <i name="e_fr_energy">   -472.18324809 </i>
    <i name="e_wo_entrp">   -471.61954137 </i>
    <i name="e_0_energy">   -471.90139473 </i>
   </energy>
  </scstep>
  <scstep>
   <time name="diag">    2.97    2.97</time>
   <time name="diis">   47.82   47.97</time>
   <time name="orth">    0.70    0.70</time>
   <time name="total">   52.26   52.41</time>
   <energy>
    <i name="e_fr_energy">   -472.18326529 </i>
    <i name="e_wo_entrp">   -471.61954727 </i>
    <i name="e_0_energy">   -471.90140628 </i>
   </energy>
  </scstep>
  <scstep>
   <time name="diag">    2.98    2.98</time>
   <time name="diis">   48.11   48.22</time>
   <time name="orth">    0.69    0.69</time>
   <time name="total">   52.55   52.67</time>
   <energy>
    <i name="e_fr_energy">   -472.18327896 </i>
    <i name="e_wo_entrp">   -471.61955239 </i>
    <i name="e_0_energy">   -471.90141567 </i>
   </energy>
  </scstep>
  <scstep>
   <time name="diag">    3.04    3.05</time>
   <time name="diis">   47.59   47.82</time>
   <time name="orth">    0.69    0.69</time>
   <time name="total">   52.08   52.33</time>
   <energy>
    <i name="e_fr_energy">   -472.18329040 </i>
    <i name="e_wo_entrp">   -471.61955606 </i>
    <i name="e_0_energy">   -471.90142323 </i>
   </energy>
  </scstep>
  <scstep>
   <time name="diag">    2.96    2.96</time>
   <time name="diis">   47.13   47.22</time>
   <time name="orth">    0.69    0.69</time>
   <time name="total">   50.83   50.92</time>
   <energy>
    <i name="alphaZ">   1971.87592737 </i>
    <i name="ewald"> -30280.78326647 </i>
    <i name="hartreedc"> -10405.04584267 </i>
    <i name="XCdc">   1303.45256034 </i>
    <i name="pawpsdc">  25470.00869671 </i>
    <i name="pawaedc"> -24890.30634848 </i>
    <i name="eentropy">     -0.56374088 </i>
    <i name="bandstr">  -7219.72233003 </i>
    <i name="atom">  43578.90104482 </i>
    <i name="e_fr_energy">   -472.18329927 </i>
    <i name="e_wo_entrp">   -471.61955839 </i>
    <i name="e_0_energy">   -471.90142883 </i>
   </energy>
  </scstep>
  <structure>
   <crystal>
    <varray name="basis" >
     <v>      11.23999977       0.00000000       0.00000000 </v>
     <v>       0.00000000      11.23999977       0.00000000 </v>
     <v>       0.00000000       0.00000000      11.23999977 </v>
    </varray>
    <i name="volume">   1420.03453724 </i>
    <varray name="rec_basis" >
     <v>       0.08896797       0.00000000       0.00000000 </v>
     <v>       0.00000000       0.08896797       0.00000000 </v>
     <v>       0.00000000       0.00000000       0.08896797 </v>
    </varray>
   </crystal>
   <varray name="positions" >
    <v>       0.00000000       0.00000000       0.00000000 </v>
    <v>       0.25000000       0.00000000       0.25000000 </v>
    <v>       0.25000000       0.50000000       0.25000000 </v>
    <v>       0.50000000       0.50000000       0.00000000 </v>
    <v>       0.50000000       0.25000000       0.75000004 </v>
    <v>       0.00000000       0.50000000       0.50000000 </v>
    <v>       0.50000000       0.75000004       0.75000004 </v>
    <v>       0.00000000       0.25000000       0.25000000 </v>
    <v>       0.75000004       0.75000004       0.00000000 </v>
    <v>       0.00000000       0.25000000       0.75000004 </v>
    <v>       0.75000004       0.25000000       0.50000000 </v>
    <v>       0.00000000       0.75000004       0.75000004 </v>
    <v>       0.25000000       0.50000000       0.75000004 </v>
    <v>       0.25000000       0.25000000       0.00000000 </v>
    <v>       0.50000000       0.25000000       0.25000000 </v>
    <v>       0.75000004       0.00000000       0.25000000 </v>
    <v>       0.75000004       0.25000000       0.00000000 </v>
    <v>       0.25000000       0.75000004       0.00000000 </v>
    <v>       0.25000000       0.25000000       0.50000000 </v>
    <v>       0.25000000       0.75000004       0.50000000 </v>
    <v>       0.25000000       0.25000000       0.25000000 </v>
    <v>       0.25000000       0.00000000       0.00000000 </v>
    <v>       0.00000000       0.25000000       0.00000000 </v>
    <v>       0.75000004       0.25000000       0.25000000 </v>
    <v>       0.75000004       0.00000000       0.00000000 </v>
    <v>       0.50000000       0.00000000       0.25000000 </v>
    <v>       0.00000000       0.50000000       0.25000000 </v>
    <v>       0.50000000       0.75000004       0.00000000 </v>
    <v>       0.00000000       0.00000000       0.75000004 </v>
    <v>       0.75000004       0.25000000       0.75000004 </v>
    <v>       0.75000004       0.00000000       0.50000000 </v>
    <v>       0.50000000       0.25000000       0.50000000 </v>
    <v>       0.50000000       0.00000000       0.75000004 </v>
    <v>       0.00000000       0.00000000       0.25000000 </v>
    <v>       0.50000000       0.25000000       0.00000000 </v>
    <v>       0.25000000       0.75000004       0.25000000 </v>
    <v>       0.25000000       0.50000000       0.00000000 </v>
    <v>       0.00000000       0.75000004       0.00000000 </v>
    <v>       0.75000004       0.75000004       0.25000000 </v>
    <v>       0.75000004       0.50000000       0.00000000 </v>
    <v>       0.50000000       0.50000000       0.25000000 </v>
    <v>       0.25000000       0.25000000       0.75000004 </v>
    <v>       0.25000000       0.00000000       0.50000000 </v>
    <v>       0.00000000       0.25000000       0.50000000 </v>
    <v>       0.25000000       0.75000004       0.75000004 </v>
    <v>       0.25000000       0.50000000       0.50000000 </v>
    <v>       0.00000000       0.75000004       0.50000000 </v>
    <v>       0.00000000       0.50000000       0.75000004 </v>
    <v>       0.75000004       0.75000004       0.75000004 </v>
    <v>       0.75000004       0.50000000       0.50000000 </v>
    <v>       0.50000000       0.75000004       0.50000000 </v>
    <v>       0.50000000       0.50000000       0.75000004 </v>
    <v>       0.50000000       0.00000000       0.00000000 </v>
    <v>       0.00000000       0.50000000       0.00000000 </v>
    <v>       0.50000000       0.75000004       0.25000000 </v>
    <v>       0.25000000       0.00000000       0.75000004 </v>
    <v>       0.50000000       0.00000000       0.50000000 </v>
    <v>       0.75000004       0.00000000       0.75000004 </v>
    <v>       0.00000000       0.75000004       0.25000000 </v>
    <v>       0.75000004       0.50000000       0.25000000 </v>
    <v>       0.00000000       0.00000000       0.50000000 </v>
    <v>       0.50000000       0.50000000       0.50000000 </v>
    <v>       0.75000004       0.50000000       0.75000004 </v>
    <v>       0.75000004       0.75000004       0.50000000 </v>
   </varray>
  </structure>
  <varray name="forces" >
   <v>      -0.17839837      -0.36308845       0.10925558 </v>
   <v>      -0.42891074      -0.39824452       0.47694493 </v>
   <v>       0.05031316       0.37615948       0.05366216 </v>
   <v>       0.12706558      -0.03492528      -0.04352672 </v>
   <v>      -0.17667268       0.32121614       0.00671210 </v>
   <v>      -0.13174628      -0.01192650       0.19480072 </v>
   <v>       0.06736813      -0.28291245      -0.32936463 </v>
   <v>      -0.19038049      -0.55022469       0.52469726 </v>
   <v>       0.69068934      -0.61273962      -0.04259704 </v>
   <v>       0.51462611       0.50247378      -0.61544779 </v>
   <v>       0.66742253       0.48193037       0.17026023 </v>
   <v>      -0.13499508      -0.48664345      -0.07636415 </v>
   <v>      -0.01376704       0.02622998       0.02190608 </v>
   <v>      -0.06113172       0.42730824      -0.55978866 </v>
   <v>       0.27217321       0.42525405      -0.05806931 </v>
   <v>       0.47588348      -0.34146553       0.26126163 </v>
   <v>      -0.00715380       0.47086311      -0.11311992 </v>
   <v>      -0.35873944      -0.40961113      -0.13695893 </v>
   <v>      -0.35043069       0.04005376       0.54391103 </v>
   <v>      -0.05975770      -0.02977409       0.15833603 </v>
   <v>       0.68021313      -0.09360401      -0.04599443 </v>
   <v>      -0.19594786       0.06729940       0.22143210 </v>
   <v>       0.03778486      -0.16175858       0.00910401 </v>
   <v>      -0.57806907      -0.69095823      -0.50108000 </v>
   <v>       0.14760341       0.62764674       0.28885327 </v>
   <v>       0.27047850       0.38334814       0.00102101 </v>
   <v>       0.35650918      -0.19137194      -0.00146339 </v>
   <v>      -0.59207436      -0.05335296      -0.14067409 </v>
   <v>      -0.13583058       0.02916825       0.50585955 </v>
   <v>      -0.38843872      -0.48560327       0.53245985 </v>
   <v>      -0.35784555       0.19842322      -0.26186182 </v>
   <v>      -0.51090268      -0.40497235      -0.19373727 </v>
   <v>       0.11514045       0.04090164      -0.01779160 </v>
   <v>      -0.27704102       0.29907350      -0.36101067 </v>
   <v>       0.03538642      -0.22380928       0.21894746 </v>
   <v>       0.49638786       0.09861617      -0.10748764 </v>
   <v>      -0.19217816      -0.08212335       0.21709883 </v>
   <v>       0.17648461      -0.10829695      -0.23879289 </v>
   <v>      -0.46228049       0.47679598      -0.23951971 </v>
   <v>       0.23940840      -0.29461139       0.04656430 </v>
   <v>      -0.18271202      -0.14442967      -0.22434188 </v>
   <v>       0.07990079      -0.26706295       0.05123455 </v>
   <v>       0.41141766       0.09802548       0.02034393 </v>
   <v>       0.05754549       0.19126753       0.01946923 </v>
   <v>       0.12380171       0.28423070       0.06813981 </v>
   <v>      -0.31572198      -0.08782984      -0.20620459 </v>
   <v>       0.35521234      -0.20845419       0.29273110 </v>
   <v>       0.12283406      -0.01555299       0.22306639 </v>
   <v>      -0.03423509       0.48089289       0.22477442 </v>
   <v>       0.24686945      -0.32259373      -0.04360480 </v>
   <v>      -0.36228667       0.43358902      -0.10055154 </v>
   <v>      -0.12329510      -0.05024082       0.22412012 </v>
   <v>       0.24222896       0.30693060      -0.08924049 </v>
   <v>      -0.19042114       0.55489009      -0.49573268 </v>
   <v>       0.25802442      -0.46263151       0.49881994 </v>
   <v>      -0.16763359      -0.06794973      -0.63097073 </v>
   <v>      -0.29342923      -0.54534698       0.05641170 </v>
   <v>       0.23033927      -0.54008300      -0.22741563 </v>
   <v>      -0.16182421       0.37718875       0.05683682 </v>
   <v>      -0.28603276       0.49264508       0.05347437 </v>
   <v>       0.20959628       0.04836220      -0.24838596 </v>
   <v>       0.08372571       0.40388892       0.04026127 </v>
   <v>      -0.02887488       0.44543144      -0.04786932 </v>
   <v>       0.08672468      -0.38591124       0.00619653 </v>
  </varray>
  <varray name="stress" >
   <v>    -417.91253449      -0.26981021       0.15331571 </v>
   <v>      -0.26980972    -416.65438886       0.23847111 </v>
   <v>       0.15331540       0.23847083    -416.77102549 </v>
  </varray>
  <energy>
   <i name="e_fr_energy">   -472.18329927 </i>
   <i name="e_wo_entrp">   -471.90142883 </i>
   <i name="e_0_energy">     -0.56374088 </i>
  </energy>
  <time name="totalsc"> 4596.20 4610.37</time>
 </calculation>
 <calculation>
  <scstep>
   <time name="dav">   94.23   94.35</time>
   <time name="total">   94.91   95.03</time>
   <energy>
    <i name="alphaZ">   5253.88971036 </i>
    <i name="ewald"> -41998.95478580 </i>
    <i name="hartreedc"> -14401.91581316 </i>
    <i name="XCdc">   1968.60867563 </i>
    <i name="pawpsdc">  25470.00855306 </i>
    <i name="pawaedc"> -24890.30619321 </i>
    <i name="eentropy">     -0.08006213 </i>
    <i name="bandstr">   1530.48727057 </i>
    <i name="atom">  43578.90104482 </i>
    <i name="e_fr_energy">  -3489.36159988 </i>
    <i name="e_wo_entrp">  -3489.28153775 </i>
    <i name="e_0_energy">  -3489.32156881 </i>
   </energy>
  </scstep>
  <scstep>
   <time name="diag">    3.03    3.05</time>
   <time name="diis">   92.49   92.82</time>
   <time name="orth">    0.69    0.69</time>
   <time name="total">   96.89   97.23</time>
   <energy>
    <i name="e_fr_energy">  -1232.52788501 </i>
    <i name="e_wo_entrp">  -1232.44826943 </i>
    <i name="e_0_energy">  -1232.48807722 </i>
   </energy>
  </scstep>
  <scstep>
   <time name="diag">    2.99    2.99</time>
   <time name="diis">   82.40   82.59</time>
   <time name="orth">    0.68    0.68</time>
   <time name="total">   86.76   86.95</time>
   <energy>
    <i name="e_fr_energy">   -579.74855662 </i>
    <i name="e_wo_entrp">   -579.65525701 </i>
    <i name="e_0_energy">   -579.70190681 </i>
   </energy>
  </scstep>
  <scstep>
   <time name="diag">    2.98    2.98</time>
   <time name="diis">   86.07   86.37</time>
   <time name="orth">    0.68    0.68</time>
   <time name="total">   90.42   90.73</time>
   <energy>
    <i name="e_fr_energy">   -582.98600822 </i>
    <i name="e_wo_entrp">   -582.88539077 </i>
    <i name="e_0_energy">   -582.93569949 </i>
   </energy>
  </scstep>
  <scstep>
   <time name="diag">    2.97    2.97</time>
   <time name="diis">   94.89   95.25</time>
   <time name="orth">    0.69    0.69</time>
   <time name="total">   99.23   99.59</time>
   <energy>
    <i name="e_fr_energy">   -576.37018053 </i>
    <i name="e_wo_entrp">   -576.24920282 </i>
    <i name="e_0_energy">   -576.30969168 </i>
   </energy>
  </scstep>
  <scstep>
   <time name="diag">    2.97    2.97</time>
   <time name="diis">  101.08  101.33</time>
   <time name="orth">    0.69    0.69</time>
   <time name="total">  105.42  105.68</time>
   <energy>
    <i name="e_fr_energy">   -565.57445850 </i>
    <i name="e_wo_entrp">   -565.46947151 </i>
    <i name="e_0_energy">   -565.52196500 </i>
   </energy>
  </scstep>
  <scstep>
   <time name="diag">    3.07    3.10</time>
   <time name="diis">  104.77  104.95</time>
   <time name="orth">    0.69    0.69</time>
   <time name="total">  109.22  109.43</time>
   <energy>
    <i name="e_fr_energy">   -567.31727663 </i>
    <i name="e_wo_entrp">   -567.19747940 </i>
    <i name="e_0_energy">   -567.25737802 </i>
   </energy>
  </scstep>
  <scstep>
   <time name="diag">    2.98    2.98</time>
   <time name="diis">  104.99  105.27</time>
   <time name="orth">    0.71    0.72</time>
   <time name="total">  109.40  109.68</time>
   <energy>
    <i name="e_fr_energy">   -568.14427708 </i>
    <i name="e_wo_entrp">   -568.01809307 </i>
    <i name="e_0_energy">   -568.08118507 </i>
   </energy>
  </scstep>
  <scstep>
   <time name="diag">    2.98    2.99</time>
   <time name="diis">  105.05  105.38</time>
   <time name="orth">    0.69    0.69</time>
   <time name="total">  109.41  109.75</time>
   <energy>
    <i name="e_fr_energy">   -570.72272870 </i>
    <i name="e_wo_entrp">   -570.60242338 </i>
    <i name="e_0_energy">   -570.66257604 </i>
   </energy>
  </scstep>
  <scstep>
   <time name="diag">    2.97    2.97</time>
   <time name="diis">  105.53  105.82</time>
   <time name="orth">    0.69    0.69</time>
   <time name="total">  109.89  110.17</time>
   <energy>
    <i name="e_fr_energy">   -571.71682564 </i>
    <i name="e_wo_entrp">   -571.59211891 </i>
    <i name="e_0_energy">   -571.65447227 </i>
   </energy>
  </scstep>
  <scstep>
   <time name="diag">    2.97    2.97</time>
   <time name="diis">  106.62  106.87</time>
   <time name="orth">    0.69    0.69</time>
   <time name="total">  110.97  111.22</time>
   <energy>
    <i name="e_fr_energy">   -572.67011137 </i>
    <i name="e_wo_entrp">   -572.54109011 </i>
    <i name="e_0_energy">   -572.60560074 </i>
   </energy>
  </scstep>
  <scstep>
   <time name="diag">    2.99    2.99</time>
   <time name="diis">  108.78  109.19</time>
   <time name="orth">    0.69    0.69</time>
   <time name="total">  113.15  113.56</time>
   <energy>
    <i name="e_fr_energy">   -573.18119707 </i>
    <i name="e_wo_entrp">   -573.05569794 </i>
    <i name="e_0_energy">   -573.11844751 </i>
   </energy>
  </scstep>
  <scstep>
   <time name="diag">    2.99    3.00</time>
   <time name="diis">  104.88  105.12</time>
   <time name="orth">    0.68    0.68</time>
   <time name="total">  109.25  109.49</time>
   <energy>
    <i name="e_fr_energy">   -573.22548494 </i>
    <i name="e_wo_entrp">   -573.09809474 </i>
    <i name="e_0_energy">   -573.16178984 </i>
   </energy>
  </scstep>
  <scstep>
   <time name="diag">    2.99    3.00</time>
   <time name="diis">  106.22  106.46</time>
   <time name="orth">    0.70    0.70</time>
   <time name="total">  110.60  110.84</time>
   <energy>
    <i name="e_fr_energy">   -573.32409636 </i>
    <i name="e_wo_entrp">   -573.19824848 </i>
    <i name="e_0_energy">   -573.26117242 </i>
   </energy>
  </scstep>
  <scstep>
   <time name="diag">    2.98    2.98</time>
   <time name="diis">  105.11  105.36</time>
   <time name="orth">    0.70    0.70</time>
   <time name="total">  109.48  109.74</time>
   <energy>
    <i name="e_fr_energy">   -573.36262309 </i>
    <i name="e_wo_entrp">   -573.23627161 </i>
    <i name="e_0_energy">   -573.29944735 </i>
   </energy>
  </scstep>
  <scstep>
   <time name="diag">    2.97    2.97</time>
   <time name="diis">  106.41  106.74</time>
   <time name="orth">    0.69    0.69</time>
   <time name="total">  110.76  111.09</time>
   <energy>
    <i name="e_fr_energy">   -573.36130845 </i>
    <i name="e_wo_entrp">   -573.23404314 </i>
    <i name="e_0_energy">   -573.29767579 </i>
   </energy>
  </scstep>
  <scstep>
   <time name="diag">    2.98    2.98</time>
   <time name="diis">  108.14  108.45</time>
   <time name="orth">    0.70    0.70</time>
   <time name="total">  112.50  112.81</time>
   <energy>
    <i name="e_fr_energy">   -573.37304827 </i>
    <i name="e_wo_entrp">   -573.24594071 </i>
    <i name="e_0_energy">   -573.30949449 </i>
   </energy>
  </scstep>
  <scstep>
   <time name="diag">    2.97    2.98</time>
   <time name="diis">  107.68  108.23</time>
   <time name="orth">    0.69    0.69</time>
   <time name="total">  112.05  112.61</time>
   <energy>
    <i name="e_fr_energy">   -573.38152152 </i>
    <i name="e_wo_entrp">   -573.25475493 </i>
    <i name="e_0_energy">   -573.31813823 </i>
   </energy>
  </scstep>
  <scstep>
   <time name="diag">    3.00    3.00</time>
   <time name="diis">  108.01  108.27</time>
   <time name="orth">    0.69    0.69</time>
   <time name="total">  112.38  112.65</time>
   <energy>
    <i name="e_fr_energy">   -573.38500629 </i>
    <i name="e_wo_entrp">   -573.25803820 </i>
    <i name="e_0_energy">   -573.32152224 </i>
   </energy>
  </scstep>
  <scstep>
   <time name="diag">    2.97    2.97</time>
   <time name="diis">  108.45  108.67</time>
   <time name="orth">    0.68    0.68</time>
   <time name="total">  112.79  113.02</time>
   <energy>
    <i name="e_fr_energy">   -573.38749006 </i>
    <i name="e_wo_entrp">   -573.26056861 </i>
    <i name="e_0_energy">   -573.32402934 </i>
   </energy>
  </scstep>
  <scstep>
   <time name="diag">    2.97    2.97</time>
   <time name="diis">  106.80  107.10</time>
   <time name="orth">    0.69    0.69</time>
   <time name="total">  111.18  111.48</time>
   <energy>
    <i name="e_fr_energy">   -573.38876088 </i>
    <i name="e_wo_entrp">   -573.26177872 </i>
    <i name="e_0_energy">   -573.32526980 </i>
   </energy>
  </scstep>
  <scstep>
   <time name="diag">    3.00    3.00</time>
   <time name="diis">  105.98  106.26</time>
   <time name="orth">    0.69    0.69</time>
   <time name="total">  110.35  110.64</time>
   <energy>
    <i name="e_fr_energy">   -573.38957811 </i>
    <i name="e_wo_entrp">   -573.26262213 </i>
    <i name="e_0_energy">   -573.32610012 </i>
   </energy>
  </scstep>
  <scstep>
   <time name="diag">    2.98    3.00</time>
   <time name="diis">  103.48  103.82</time>
   <time name="orth">    0.69    0.69</time>
   <time name="total">  107.85  108.21</time>
   <energy>
    <i name="e_fr_energy">   -573.39001753 </i>
    <i name="e_wo_entrp">   -573.26306357 </i>
    <i name="e_0_energy">   -573.32654055 </i>
   </energy>
  </scstep>
  <scstep>
   <time name="diag">    2.97    2.97</time>
   <time name="diis">  103.92  104.19</time>
   <time name="orth">    0.69    0.69</time>
   <time name="total">  108.27  108.54</time>
   <energy>
    <i name="e_fr_energy">   -573.39029150 </i>
    <i name="e_wo_entrp">   -573.26334340 </i>
    <i name="e_0_energy">   -573.32681745 </i>
   </energy>
  </scstep>
  <scstep>
   <time name="diag">    2.97    2.97</time>
   <time name="diis">  101.96  102.37</time>
   <time name="orth">    0.69    0.69</time>
   <time name="total">  106.30  106.72</time>
   <energy>
    <i name="e_fr_energy">   -573.39044196 </i>
    <i name="e_wo_entrp">   -573.26348552 </i>
    <i name="e_0_energy">   -573.32696374 </i>
   </energy>
  </scstep>
  <scstep>
   <time name="diag">    3.04    3.06</time>
   <time name="diis">  100.40  100.62</time>
   <time name="orth">    0.68    0.68</time>
   <time name="total">  104.81  105.06</time>
   <energy>
    <i name="e_fr_energy">   -573.39054313 </i>
    <i name="e_wo_entrp">   -573.26359183 </i>
    <i name="e_0_energy">   -573.32706748 </i>
   </energy>
  </scstep>
  <scstep>
   <time name="diag">    2.98    2.98</time>
   <time name="diis">   90.87   91.49</time>
   <time name="orth">    1.26    1.40</time>
   <time name="total">   95.84   96.64</time>
   <energy>
    <i name="e_fr_energy">   -573.39059517 </i>
    <i name="e_wo_entrp">   -573.26364122 </i>
    <i name="e_0_energy">   -573.32711820 </i>
   </energy>
  </scstep>
  <scstep>
   <time name="diag">    2.98    3.00</time>
   <time name="diis">   89.73   89.90</time>
   <time name="orth">    0.69    0.69</time>
   <time name="total">   94.10   94.31</time>
   <energy>
    <i name="e_fr_energy">   -573.39063132 </i>
    <i name="e_wo_entrp">   -573.26367715 </i>
    <i name="e_0_energy">   -573.32715424 </i>
   </energy>
  </scstep>
  <scstep>
   <time name="diag">    2.99    2.99</time>
   <time name="diis">   78.90   79.12</time>
   <time name="orth">    0.69    0.69</time>
   <time name="total">   83.27   83.49</time>
   <energy>
    <i name="e_fr_energy">   -573.39065059 </i>
    <i name="e_wo_entrp">   -573.26369602 </i>
    <i name="e_0_energy">   -573.32717330 </i>
   </energy>
  </scstep>
  <scstep>
   <time name="diag">    2.99    3.01</time>
   <time name="diis">   73.60   73.74</time>
   <time name="orth">    0.71    0.71</time>
   <time name="total">   77.99   78.16</time>
   <energy>
    <i name="e_fr_energy">   -573.39066302 </i>
    <i name="e_wo_entrp">   -573.26370870 </i>
    <i name="e_0_energy">   -573.32718586 </i>
   </energy>
  </scstep>
  <scstep>
   <time name="diag">    2.98    2.98</time>
   <time name="diis">   62.98   63.18</time>
   <time name="orth">    0.69    0.69</time>
   <time name="total">   66.71   66.90</time>
   <energy>
    <i name="alphaZ">   5253.88971036 </i>
    <i name="ewald"> -41998.95478580 </i>
    <i name="hartreedc">  -6307.62385693 </i>
    <i name="XCdc">   1518.45084842 </i>
    <i name="pawpsdc">  33126.02244034 </i>
    <i name="pawaedc"> -32495.39070676 </i>
    <i name="eentropy">     -0.12695441 </i>
    <i name="bandstr">  -3248.55841081 </i>
    <i name="atom">  43578.90104482 </i>
    <i name="e_fr_energy">   -573.39067079 </i>
    <i name="e_wo_entrp">   -573.26371638 </i>
    <i name="e_0_energy">   -573.32719359 </i>
   </energy>
  </scstep>
  <structure>
   <crystal>
    <varray name="basis" >
     <v>       8.10172299      -0.00202612       0.00115131 </v>
     <v>      -0.00202611       8.11117093       0.00179078 </v>
     <v>       0.00115131       0.00179078       8.11029505 </v>
    </varray>
    <i name="volume">    532.96358972 </i>
    <varray name="rec_basis" >
     <v>       0.12343054       0.00003084      -0.00001753 </v>
     <v>       0.00003084       0.12328678      -0.00002723 </v>
     <v>      -0.00001753      -0.00002723       0.12330008 </v>
    </varray>
   </crystal>
   <varray name="positions" >
    <v>      -0.00076569      -0.00155839       0.00046893 </v>
    <v>       0.24815909      -0.00170929       0.25204707 </v>
    <v>       0.25021595       0.50161450       0.25023032 </v>
    <v>       0.50054537       0.49985010      -0.00018682 </v>
    <v>       0.49924171       0.25137868       0.75002885 </v>
    <v>      -0.00056546       0.49994881       0.50083609 </v>
    <v>       0.50028915       0.74878577       0.74858639 </v>
    <v>      -0.00081712       0.24763841       0.25225203 </v>
    <v>       0.75296452       0.74737013      -0.00018283 </v>
    <v>       0.00220880       0.25215664       0.74735851 </v>
    <v>       0.75286465       0.25206847       0.50073077 </v>
    <v>      -0.00057941       0.74791134       0.74967228 </v>
    <v>       0.24994091       0.50011258       0.75009406 </v>
    <v>       0.24973762       0.25183403      -0.00240264 </v>
    <v>       0.50116818       0.25182521       0.24975076 </v>
    <v>       0.75204256      -0.00146559       0.25112135 </v>
    <v>       0.74996934       0.25202097      -0.00048552 </v>
    <v>       0.24846027       0.74824197      -0.00058783 </v>
    <v>       0.24849593       0.25017191       0.50233449 </v>
    <v>       0.24974352       0.74987225       0.50067959 </v>
    <v>       0.25291951       0.24959825       0.24980259 </v>
    <v>       0.24915898       0.00028885       0.00095040 </v>
    <v>       0.00016217       0.24930572       0.00003907 </v>
    <v>       0.74751894       0.24703437       0.24784934 </v>
    <v>       0.75063356       0.00269389       0.00123977 </v>
    <v>       0.50116091       0.00164535       0.25000438 </v>
    <v>       0.00153016       0.49917862       0.24999372 </v>
    <v>       0.49745879       0.74977105      -0.00060378 </v>
    <v>      -0.00058299       0.00012519       0.75217122 </v>
    <v>       0.74833284       0.24791577       0.75228539 </v>
    <v>       0.74846415       0.00085164       0.49887608 </v>
    <v>       0.49780718       0.24826184       0.49916847 </v>
    <v>       0.50049419       0.00017555       0.74992368 </v>
    <v>      -0.00118907       0.00128364       0.24845052 </v>
    <v>       0.50015188       0.24903940       0.00093973 </v>
    <v>       0.25213052       0.75042331       0.24953866 </v>
    <v>       0.24917516       0.49964752       0.00093180 </v>
    <v>       0.00075748       0.74953523      -0.00102491 </v>
    <v>       0.74801591       0.75204647       0.24897197 </v>
    <v>       0.75102760       0.49873551       0.00019986 </v>
    <v>       0.49921579       0.49938010       0.24903711 </v>
    <v>       0.25034294       0.24885375       0.75021994 </v>
    <v>       0.25176583       0.00042073       0.50008732 </v>
    <v>       0.00024699       0.25082093       0.50008356 </v>
    <v>       0.25053136       0.75121997       0.75029250 </v>
    <v>       0.24864491       0.49962303       0.49911496 </v>
    <v>       0.00152459       0.74910535       0.50125642 </v>
    <v>       0.00052721       0.49993325       0.75095745 </v>
    <v>       0.74985310       0.75206406       0.75096479 </v>
    <v>       0.75105962       0.49861541       0.49981285 </v>
    <v>       0.49844505       0.75186103       0.49956843 </v>
    <v>       0.49947081       0.49978436       0.75096198 </v>
    <v>       0.50103966       0.00131736      -0.00038302 </v>
    <v>      -0.00081730       0.50238162      -0.00212771 </v>
    <v>       0.50110745       0.74801440       0.25214096 </v>
    <v>       0.24928051      -0.00029164       0.74729188 </v>
    <v>       0.49874059      -0.00234066       0.50024212 </v>
    <v>       0.75098867      -0.00231806       0.74902396 </v>
    <v>      -0.00069456       0.75161896       0.25024395 </v>
    <v>       0.74877237       0.50211446       0.25022951 </v>
    <v>       0.00089960       0.00020757       0.49893391 </v>
    <v>       0.50035936       0.50173351       0.50017280 </v>
    <v>       0.74987611       0.50191181       0.74979458 </v>
    <v>       0.75037227       0.74834369       0.50002660 </v>
   </varray>
  </structure>
  <varray name="forces" >
   <v>      -0.27401258      -0.08249424      -0.07277955 </v>
   <v>      -0.63811677       0.76944845      -0.11630932 </v>
   <v>      -0.54436967      -0.56762052       0.40054922 </v>
   <v>       1.08236684       0.59528386      -0.05347152 </v>
   <v>       0.64880142       0.02832004      -1.27623147 </v>
   <v>      -1.44903761       0.61560247      -0.62016211 </v>
   <v>       1.20201189      -0.27811833      -0.56227550 </v>
   <v>      -0.54137976      -1.03282098       0.47840904 </v>
   <v>       0.97222654      -0.83413174       0.26499099 </v>
   <v>      -0.09170027       0.43207436      -0.15549955 </v>
   <v>       0.04513404       0.54004573       0.07015189 </v>
   <v>      -0.89603108      -0.41832550      -0.27981766 </v>
   <v>       0.51718987      -0.11136514      -0.21622011 </v>
   <v>      -1.49049327      -1.12247588       0.52931354 </v>
   <v>       0.42552018       0.21603645       1.33459232 </v>
   <v>       0.40469106      -0.40379871       1.05366756 </v>
   <v>       1.14886372       0.33131547      -0.15836486 </v>
   <v>      -0.31553171       0.86952989      -0.12073461 </v>
   <v>       0.27215144      -0.05750658      -0.39592905 </v>
   <v>      -0.54390221      -0.07930215       0.14464289 </v>
   <v>      -0.50348296      -0.05247903       0.23066343 </v>
   <v>       1.02175857      -0.10857995      -0.87747790 </v>
   <v>       0.08203603       1.28535200       0.09735867 </v>
   <v>       0.90537170       2.52792090       1.03768263 </v>
   <v>      -1.09343439      -0.72314868      -0.37062447 </v>
   <v>       0.61397683      -0.63704883       0.08400157 </v>
[...]
      </set>
     </set>
    </set>
   </array>
  </eigenvalues>
  <separator name="orbital magnetization" >
   <v name="MAGDIPOLOUT">      0.00000000      0.00000000      0.00000000</v>
  </separator>
  <dos>
   <i name="efermi">      8.33324593 </i>
   <total>
    <array>
     <dimension dim="1">gridpoints</dimension>
     <dimension dim="2">spin</dimension>
     <field>energy</field>
     <field>total</field>
     <field>integrated</field>
     <set>
      <set comment="spin 1">
       <r>   -60.0167     0.0000     0.0000 </r>
       <r>   -59.7658     0.0000     0.0000 </r>
       <r>   -59.5148     0.0000     0.0000 </r>
       <r>   -59.2639     0.0000     0.0000 </r>
       <r>   -59.0129     0.0000     0.0000 </r>
       <r>   -58.7620     0.0000     0.0000 </r>
       <r>   -58.5111     0.0000     0.0000 </r>
       <r>   -58.2601     0.0000     0.0000 </r>
       <r>   -58.0092     0.0000     0.0000 </r>
       <r>   -57.7582     0.0000     0.0000 </r>
       <r>   -57.5073     0.0000     0.0000 </r>
       <r>   -57.2564     0.0000     0.0000 </r>
       <r>   -57.0054     0.0000     0.0000 </r>
       <r>   -56.7545     0.1096     0.0275 </r>
       <r>   -56.5036    24.3300     6.1328 </r>
       <r>   -56.2526    23.3277    11.9867 </r>
       <r>   -56.0017     0.0531    12.0000 </r>
       <r>   -55.7507     0.0000    12.0000 </r>
       <r>   -55.4998     0.0000    12.0000 </r>
       <r>   -55.2489     0.0000    12.0000 </r>
       <r>   -54.9979     0.0000    12.0000 </r>
       <r>   -54.7470     0.0000    12.0000 </r>
       <r>   -54.4960     0.0000    12.0000 </r>
       <r>   -54.2451     0.0000    12.0000 </r>
       <r>   -53.9942     0.0000    12.0000 </r>
       <r>   -53.7432     0.0000    12.0000 </r>
       <r>   -53.4923     0.0000    12.0000 </r>
       <r>   -53.2413     0.0000    12.0000 </r>
       <r>   -52.9904     0.0000    12.0000 </r>
       <r>   -52.7395     0.0000    12.0000 </r>
       <r>   -52.4885     0.0000    12.0000 </r>
       <r>   -52.2376     0.0000    12.0000 </r>
       <r>   -51.9867     0.0000    12.0000 </r>
       <r>   -51.7357     0.0000    12.0000 </r>
       <r>   -51.4848     0.0000    12.0000 </r>
       <r>   -51.2338     0.0000    12.0000 </r>
       <r>   -50.9829     0.0000    12.0000 </r>
       <r>   -50.7320     0.0000    12.0000 </r>
       <r>   -50.4810     0.0000    12.0000 </r>
       <r>   -50.2301     0.0000    12.0000 </r>
       <r>   -49.9791     0.0000    12.0000 </r>
       <r>   -49.7282     0.0000    12.0000 </r>
       <r>   -49.4773     0.0000    12.0000 </r>
       <r>   -49.2263     0.0000    12.0000 </r>
       <r>   -48.9754     0.0000    12.0000 </r>
       <r>   -48.7244     0.0000    12.0000 </r>
       <r>   -48.4735     0.0000    12.0000 </r>
       <r>   -48.2226     0.0000    12.0000 </r>
       <r>   -47.9716     0.6529    12.1638 </r>
       <r>   -47.7207    14.1832    15.7230 </r>
       <r>   -47.4697    17.4221    20.0948 </r>
       <r>   -47.2188    14.9403    23.8439 </r>
       <r>   -46.9679     0.6219    24.0000 </r>
       <r>   -46.7169     0.0000    24.0000 </r>
       <r>   -46.4660     0.0000    24.0000 </r>
       <r>   -46.2151     0.0000    24.0000 </r>
       <r>   -45.9641     0.0000    24.0000 </r>
       <r>   -45.7132     0.0000    24.0000 </r>
       <r>   -45.4622     0.0000    24.0000 </r>
       <r>   -45.2113     0.0000    24.0000 </r>
       <r>   -44.9604     0.0000    24.0000 </r>
       <r>   -44.7094     0.0000    24.0000 </r>
       <r>   -44.4585     0.0000    24.0000 </r>
       <r>   -44.2075     0.0000    24.0000 </r>
       <r>   -43.9566     0.0000    24.0000 </r>
       <r>   -43.7057     0.0000    24.0000 </r>
       <r>   -43.4547     0.0000    24.0000 </r>
       <r>   -43.2038     0.0000    24.0000 </r>
       <r>   -42.9528     0.0000    24.0000 </r>
       <r>   -42.7019     0.0000    24.0000 </r>
       <r>   -42.4510     0.0000    24.0000 </r>
       <r>   -42.2000     0.0000    24.0000 </r>
       <r>   -41.9491     0.0000    24.0000 </r>
       <r>   -41.6982     0.0000    24.0000 </r>
       <r>   -41.4472     0.0000    24.0000 </r>
       <r>   -41.1963     0.0004    24.0001 </r>
       <r>   -40.9453     2.9362    24.7369 </r>
       <r>   -40.6944     6.4509    26.3557 </r>
       <r>   -40.4435    13.1857    29.6645 </r>
       <r>   -40.1925    31.5054    37.5704 </r>
       <r>   -39.9416     1.7118    38.0000 </r>
       <r>   -39.6906     0.0000    38.0000 </r>
       <r>   -39.4397     0.0000    38.0000 </r>
       <r>   -39.1888     0.0000    38.0000 </r>
       <r>   -38.9378     0.0000    38.0000 </r>
       <r>   -38.6869     0.0000    38.0000 </r>
       <r>   -38.4359     0.0000    38.0000 </r>
       <r>   -38.1850     0.0000    38.0000 </r>
       <r>   -37.9341     0.0000    38.0000 </r>
       <r>   -37.6831     0.0000    38.0000 </r>
       <r>   -37.4322     0.0000    38.0000 </r>
       <r>   -37.1813     0.0000    38.0000 </r>
       <r>   -36.9303     0.0000    38.0000 </r>
       <r>   -36.6794     0.0000    38.0000 </r>
       <r>   -36.4284     0.0000    38.0000 </r>
       <r>   -36.1775     0.0000    38.0000 </r>
       <r>   -35.9266     0.0000    38.0000 </r>
       <r>   -35.6756     0.0000    38.0000 </r>
       <r>   -35.4247     0.0000    38.0000 </r>
       <r>   -35.1737     0.0000    38.0000 </r>
       <r>   -34.9228     0.0000    38.0000 </r>
       <r>   -34.6719     0.0000    38.0000 </r>
       <r>   -34.4209     0.0000    38.0000 </r>
       <r>   -34.1700     0.0000    38.0000 </r>
       <r>   -33.9190     0.0000    38.0000 </r>
       <r>   -33.6681     0.0000    38.0000 </r>
       <r>   -33.4172     0.0000    38.0000 </r>
       <r>   -33.1662     0.0000    38.0000 </r>
       <r>   -32.9153     0.0000    38.0000 </r>
       <r>   -32.6643     0.0000    38.0000 </r>
       <r>   -32.4134     0.0000    38.0000 </r>
       <r>   -32.1625     0.0000    38.0000 </r>
       <r>   -31.9115     0.0000    38.0000 </r>
       <r>   -31.6606     0.0000    38.0000 </r>
       <r>   -31.4097     0.0000    38.0000 </r>
       <r>   -31.1587     0.0000    38.0000 </r>
       <r>   -30.9078     0.0001    38.0000 </r>
       <r>   -30.6568     4.1946    39.0526 </r>
       <r>   -30.4059    88.8836    61.3570 </r>
       <r>   -30.1550    50.1794    73.9490 </r>
       <r>   -29.9040     0.2034    74.0000 </r>
       <r>   -29.6531     0.0000    74.0000 </r>
       <r>   -29.4021     0.0000    74.0000 </r>
       <r>   -29.1512     0.0000    74.0000 </r>
       <r>   -28.9003     0.0000    74.0000 </r>
       <r>   -28.6493     0.0000    74.0000 </r>
       <r>   -28.3984     0.0000    74.0000 </r>
       <r>   -28.1474     0.0000    74.0000 </r>
       <r>   -27.8965     0.0000    74.0000 </r>
       <r>   -27.6456     0.0000    74.0000 </r>
       <r>   -27.3946     0.0000    74.0000 </r>
       <r>   -27.1437     0.0000    74.0000 </r>
       <r>   -26.8928     0.0000    74.0000 </r>
       <r>   -26.6418     0.0000    74.0000 </r>
       <r>   -26.3909     0.0000    74.0000 </r>
       <r>   -26.1399     0.0000    74.0000 </r>
       <r>   -25.8890     0.0000    74.0000 </r>
       <r>   -25.6381     0.0000    74.0000 </r>
       <r>   -25.3871     0.0000    74.0000 </r>
       <r>   -25.1362     0.0000    74.0000 </r>
       <r>   -24.8852     0.0000    74.0000 </r>
       <r>   -24.6343     0.0000    74.0000 </r>
       <r>   -24.3834     0.0004    74.0001 </r>
       <r>   -24.1324     4.2999    75.0791 </r>
       <r>   -23.8815    38.0321    84.6229 </r>
       <r>   -23.6305    52.0124    97.6748 </r>
       <r>   -23.3796    43.5080   108.5927 </r>
       <r>   -23.1287     5.6079   109.9999 </r>
       <r>   -22.8777     3.3392   110.8378 </r>
       <r>   -22.6268    36.8585   120.0871 </r>
       <r>   -22.3759    35.5741   129.0140 </r>
       <r>   -22.1249    49.7281   141.4927 </r>
       <r>   -21.8740    19.1786   146.3054 </r>
       <r>   -21.6230    21.9550   151.8148 </r>
       <r>   -21.3721     0.7382   152.0000 </r>
       <r>   -21.1212     0.0000   152.0000 </r>
       <r>   -20.8702     0.0000   152.0000 </r>
       <r>   -20.6193     0.0000   152.0000 </r>
       <r>   -20.3683     0.0000   152.0000 </r>
       <r>   -20.1174     0.0000   152.0000 </r>
       <r>   -19.8665     0.0000   152.0000 </r>
       <r>   -19.6155     0.0000   152.0000 </r>
       <r>   -19.3646     0.8057   152.2022 </r>
       <r>   -19.1136    22.2138   157.7765 </r>
       <r>   -18.8627    31.3351   165.6397 </r>
       <r>   -18.6118    70.6294   183.3634 </r>
       <r>   -18.3608    37.7672   192.8406 </r>
       <r>   -18.1099     4.6176   193.9994 </r>
       <r>   -17.8589     0.0025   194.0000 </r>
       <r>   -17.6080     0.0000   194.0000 </r>
       <r>   -17.3571     0.0000   194.0000 </r>
       <r>   -17.1061     0.0000   194.0000 </r>
       <r>   -16.8552     0.0000   194.0000 </r>
       <r>   -16.6043     0.0000   194.0000 </r>
       <r>   -16.3533     0.0000   194.0000 </r>
       <r>   -16.1024     0.0000   194.0000 </r>
       <r>   -15.8514     0.0000   194.0000 </r>
       <r>   -15.6005     0.0000   194.0000 </r>
       <r>   -15.3496     0.0000   194.0000 </r>
       <r>   -15.0986     0.0000   194.0000 </r>
       <r>   -14.8477     0.0000   194.0000 </r>
       <r>   -14.5967     0.0000   194.0000 </r>
       <r>   -14.3458     0.0000   194.0000 </r>
       <r>   -14.0949     0.0000   194.0000 </r>
       <r>   -13.8439     0.0000   194.0000 </r>
       <r>   -13.5930     0.0000   194.0000 </r>
       <r>   -13.3420     0.0000   194.0000 </r>
       <r>   -13.0911     0.0000   194.0000 </r>
       <r>   -12.8402     0.0000   194.0000 </r>
       <r>   -12.5892     0.0000   194.0000 </r>
       <r>   -12.3383     0.0000   194.0000 </r>
       <r>   -12.0874     0.0000   194.0000 </r>
       <r>   -11.8364     0.0000   194.0000 </r>
       <r>   -11.5855     0.0000   194.0000 </r>
       <r>   -11.3345     0.0000   194.0000 </r>
       <r>   -11.0836     0.0000   194.0000 </r>
       <r>   -10.8327     0.0000   194.0000 </r>
       <r>   -10.5817     0.0000   194.0000 </r>
       <r>   -10.3308     0.0000   194.0000 </r>
       <r>   -10.0798     0.0000   194.0000 </r>
       <r>    -9.8289     0.0000   194.0000 </r>
       <r>    -9.5780     0.0000   194.0000 </r>
       <r>    -9.3270     0.0000   194.0000 </r>
       <r>    -9.0761     0.0000   194.0000 </r>
       <r>    -8.8251     0.0000   194.0000 </r>
       <r>    -8.5742     0.0000   194.0000 </r>
       <r>    -8.3233     0.0000   194.0000 </r>
       <r>    -8.0723     0.0000   194.0000 </r>
       <r>    -7.8214     0.0311   194.0078 </r>
       <r>    -7.5704     3.2232   194.8166 </r>
       <r>    -7.3195     6.9549   196.5619 </r>
       <r>    -7.0686    12.2613   199.6387 </r>
       <r>    -6.8176    17.2133   203.9582 </r>
       <r>    -6.5667    22.1843   209.5251 </r>
       <r>    -6.3158    22.2221   215.1015 </r>
       <r>    -6.0648    17.3153   219.4466 </r>
       <r>    -5.8139     2.2053   220.0000 </r>
       <r>    -5.5629     0.0001   220.0000 </r>
       <r>    -5.3120     0.0000   220.0000 </r>
       <r>    -5.0611     0.0000   220.0000 </r>
       <r>    -4.8101     0.0000   220.0000 </r>
       <r>    -4.5592     0.0000   220.0000 </r>
       <r>    -4.3082     0.0000   220.0000 </r>
       <r>    -4.0573     0.4585   220.1151 </r>
       <r>    -3.8064     5.8464   221.5822 </r>
       <r>    -3.5554     3.8502   222.5483 </r>
       <r>    -3.3045    11.6289   225.4665 </r>
       <r>    -3.0535    15.6873   229.4030 </r>
       <r>    -2.8026    25.3430   235.7626 </r>
       <r>    -2.5517    26.1090   242.3144 </r>
       <r>    -2.3007    26.9602   249.0797 </r>
       <r>    -2.0498    20.3127   254.1770 </r>
       <r>    -1.7989    10.0186   256.6910 </r>
       <r>    -1.5479     4.9603   257.9357 </r>
       <r>    -1.2970     0.2561   258.0000 </r>
       <r>    -1.0460     0.0000   258.0000 </r>
       <r>    -0.7951     0.0000   258.0000 </r>
       <r>    -0.5442     0.0000   258.0000 </r>
       <r>    -0.2932     0.0000   258.0000 </r>
       <r>    -0.0423     0.0000   258.0000 </r>
       <r>     0.2087     0.0000   258.0000 </r>
       <r>     0.4596     0.0074   258.0018 </r>
       <r>     0.7105     0.4065   258.1039 </r>
       <r>     0.9615     2.6138   258.7598 </r>
       <r>     1.2124     9.7121   261.1969 </r>
       <r>     1.4634    12.2630   264.2742 </r>
       <r>     1.7143    16.7907   268.4876 </r>
       <r>     1.9652    25.4923   274.8846 </r>
       <r>     2.2162    31.3679   282.7561 </r>
       <r>     2.4671    28.1512   289.8203 </r>
       <r>     2.7180    33.8579   298.3166 </r>
       <r>     2.9690    35.8176   307.3046 </r>
       <r>     3.2199    44.1836   318.3920 </r>
       <r>     3.4709    52.8790   331.6614 </r>
       <r>     3.7218    59.1208   346.4971 </r>
       <r>     3.9727    62.7766   362.2502 </r>
       <r>     4.2237    60.1016   377.3321 </r>
       <r>     4.4746    61.4238   392.7457 </r>
       <r>     4.7256    55.2881   406.6196 </r>
       <r>     4.9765    47.1528   418.4521 </r>
       <r>     5.2274    37.6688   427.9047 </r>
       <r>     5.4784    30.5538   435.5718 </r>
       <r>     5.7293    22.9870   441.3402 </r>
       <r>     5.9803    17.6739   445.7752 </r>
       <r>     6.2312    14.2017   449.3390 </r>
       <r>     6.4821     7.2664   451.1624 </r>
       <r>     6.7331    16.8609   455.3935 </r>
       <r>     6.9840    16.5809   459.5543 </r>
       <r>     7.2350    17.1200   463.8503 </r>
       <r>     7.4859    19.2077   468.6703 </r>
       <r>     7.7368    20.3727   473.7826 </r>
       <r>     7.9878    19.1151   478.5793 </r>
       <r>     8.2387    24.3410   484.6874 </r>
       <r>     8.4896    24.7519   490.8986 </r>
       <r>     8.7406    29.8872   498.3985 </r>
       <r>     8.9915    38.4867   508.0563 </r>
       <r>     9.2425    41.4774   518.4646 </r>
       <r>     9.4934    46.1276   530.0399 </r>
       <r>     9.7443    47.5824   541.9801 </r>
       <r>     9.9953    47.9613   554.0155 </r>
       <r>    10.2462    42.0947   564.5787 </r>
       <r>    10.4972    40.6775   574.7863 </r>
       <r>    10.7481    40.1623   584.8646 </r>
       <r>    10.9990    42.4914   595.5273 </r>
       <r>    11.2500    39.7697   605.5071 </r>
       <r>    11.5009    37.9970   615.0420 </r>
       <r>    11.7519    29.1398   622.3543 </r>
       <r>    12.0028     6.5334   623.9938 </r>
       <r>    12.2537     0.0248   624.0000 </r>
       <r>    12.5047     0.0000   624.0000 </r>
       <r>    12.7556     0.0000   624.0000 </r>
       <r>    13.0065     0.0000   624.0000 </r>
       <r>    13.2575     0.0000   624.0000 </r>
       <r>    13.5084     0.0000   624.0000 </r>
       <r>    13.7594     0.0000   624.0000 </r>
       <r>    14.0103     0.0000   624.0000 </r>
       <r>    14.2612     0.0000   624.0000 </r>
       <r>    14.5122     0.0000   624.0000 </r>
       <r>    14.7631     0.0000   624.0000 </r>
       <r>    15.0141     0.0000   624.0000 </r>
       <r>    15.2650     0.0000   624.0000 </r>
      </set>
     </set>
    </array>
   </total>
  </dos>
 </calculation>
 <structure name="finalpos" >
  <crystal>
   <varray name="basis" >
    <v>       8.94561944      -0.01249667       0.02983982 </v>
    <v>      -0.01232925       9.04750892      -0.01041657 </v>
    <v>       0.02978717      -0.01045241       8.92924226 </v>
   </varray>
   <i name="volume">    722.68294254 </i>
   <varray name="rec_basis" >
    <v>       0.11178801       0.00015191      -0.00037274 </v>
    <v>       0.00015397       0.11052802       0.00012887 </v>
    <v>      -0.00037339       0.00012843       0.11199298 </v>
   </varray>
  </crystal>
  <varray name="positions" >
   <v>      -0.00760463      -0.00307932      -0.00091129 </v>
   <v>       0.25113057      -0.00019065       0.25203340 </v>
   <v>       0.25096464       0.50081709       0.25215698 </v>
   <v>       0.50280750       0.50366492      -0.00077748 </v>
   <v>       0.50501197       0.24877389       0.74100867 </v>
   <v>      -0.00694159       0.50166801       0.49375550 </v>
   <v>       0.49801834       0.75359999       0.74975872 </v>
   <v>      -0.01084579       0.22843532       0.26968111 </v>
   <v>       0.76603025       0.73669495      -0.00762615 </v>
   <v>       0.01301657       0.27951956       0.74660557 </v>
   <v>       0.76158848       0.26973391       0.48850052 </v>
   <v>      -0.01021949       0.73096927       0.75463048 </v>
   <v>       0.26303157       0.49279629       0.74638825 </v>
   <v>       0.24560990       0.25124687      -0.00295389 </v>
   <v>       0.51050698       0.25601153       0.25560388 </v>
   <v>       0.75007651      -0.00707675       0.26188080 </v>
   <v>       0.75868611       0.26073423      -0.00861286 </v>
   <v>       0.24125406       0.74820707       0.00040932 </v>
   <v>       0.24881094       0.25112405       0.50315242 </v>
   <v>       0.24078793       0.74991259       0.50285865 </v>
   <v>       0.25175837       0.24782533       0.25172830 </v>
   <v>       0.25407857       0.00001873      -0.00305876 </v>
   <v>       0.00168097       0.24926002       0.00627261 </v>
   <v>       0.75330439       0.24956935       0.24894871 </v>
   <v>       0.74788484       0.00261754       0.00237525 </v>
   <v>       0.50504802       0.00214690       0.25048879 </v>
   <v>      -0.01051569       0.48497480       0.24518424 </v>
   <v>       0.49817492       0.75830261       0.00366465 </v>
   <v>      -0.00134581      -0.00313346       0.74252007 </v>
   <v>       0.76029316       0.23363569       0.74649367 </v>
   <v>       0.75065131      -0.00753622       0.50310032 </v>
   <v>       0.50374530       0.23815273       0.49542463 </v>
   <v>       0.50168268       0.00056312       0.74794601 </v>
   <v>      -0.00297495      -0.00656942       0.26018549 </v>
   <v>       0.50508178       0.24422099       0.00035729 </v>
   <v>       0.24613169       0.75098310       0.25073697 </v>
   <v>       0.24535175       0.49917805      -0.00244287 </v>
   <v>      -0.00338260       0.74458943       0.00962006 </v>
   <v>       0.75660390       0.74060194       0.25291332 </v>
   <v>       0.75527890       0.50481469      -0.00161522 </v>
   <v>       0.50924115       0.50327994       0.25897657 </v>
   <v>       0.24982154       0.24867313       0.74980365 </v>
   <v>       0.24408197      -0.00046458       0.50241363 </v>
   <v>      -0.00544580       0.24173932       0.51030592 </v>
   <v>       0.24060248       0.75227048       0.75161863 </v>
   <v>       0.25724068       0.50086838       0.50380308 </v>
   <v>      -0.01148272       0.75939989       0.49957265 </v>
   <v>      -0.00765472       0.50174005       0.75192157 </v>
   <v>       0.74863811       0.74261957       0.74065936 </v>
   <v>       0.73848706       0.50332223       0.50027959 </v>
   <v>       0.50220402       0.74596355       0.49679672 </v>
   <v>       0.50562676       0.50189570       0.73801933 </v>
   <v>       0.51271722       0.00748905      -0.00613172 </v>
   <v>      -0.00389773       0.50454609       0.00412875 </v>
   <v>       0.50497358       0.74599549       0.25283370 </v>
   <v>       0.23313718       0.00284082       0.74345140 </v>
   <v>       0.49007791      -0.01505862       0.50271203 </v>
   <v>       0.76113640      -0.01856631       0.74466605 </v>
   <v>      -0.00208100       0.77699589       0.26096965 </v>
   <v>       0.73841039       0.51346406       0.26211592 </v>
   <v>       0.01128602      -0.00031386       0.49567405 </v>
   <v>       0.50107439       0.52760198       0.49748464 </v>
   <v>       0.73259171       0.52784621       0.73569164 </v>
   <v>       0.75896175       0.73807342       0.49384772 </v>
  </varray>
 </structure>
</modeling>
