  64  64   1   0
  0.1154088E+02  0.9039738E-09  0.9060331E-09  0.9018348E-09  0.5000000E-15
  1.000000000000000E-004
  CAR 
 HEBCN                                   
     15.00000000    -50.00000000 1000      8.60020398      1.00000000
    -50.000  0.0000E+00  0.0000E+00
    -49.935  0.0000E+00  0.0000E+00
    -49.870  0.0000E+00  0.0000E+00
    -49.805  0.0000E+00  0.0000E+00
    -49.740  0.0000E+00  0.0000E+00
    -49.675  0.0000E+00  0.0000E+00
    -49.610  0.0000E+00  0.0000E+00
    -49.545  0.0000E+00  0.0000E+00
    -49.479  0.0000E+00  0.0000E+00
    -49.414  0.0000E+00  0.0000E+00
    -49.349  0.0000E+00  0.0000E+00
    -49.284  0.0000E+00  0.0000E+00
    -49.219  0.0000E+00  0.0000E+00
    -49.154  0.0000E+00  0.0000E+00
    -49.089  0.0000E+00  0.0000E+00
    -49.024  0.0000E+00  0.0000E+00
    -48.959  0.0000E+00  0.0000E+00
    -48.894  0.0000E+00  0.0000E+00
    -48.829  0.0000E+00  0.0000E+00
    -48.764  0.0000E+00  0.0000E+00
    -48.699  0.0000E+00  0.0000E+00
    -48.634  0.0000E+00  0.0000E+00
    -48.569  0.0000E+00  0.0000E+00
    -48.504  0.0000E+00  0.0000E+00
    -48.438  0.0000E+00  0.0000E+00
    -48.373  0.0000E+00  0.0000E+00
    -48.308  0.0000E+00  0.0000E+00
    -48.243  0.0000E+00  0.0000E+00
    -48.178  0.0000E+00  0.0000E+00
    -48.113  0.0000E+00  0.0000E+00
    -48.048  0.0000E+00  0.0000E+00
    -47.983  0.0000E+00  0.0000E+00
    -47.918  0.0000E+00  0.0000E+00
    -47.853  0.0000E+00  0.0000E+00
    -47.788  0.1194E-13  0.7772E-15
    -47.723  0.1642E-10  0.1069E-11
    -47.658  0.8971E-08  0.5848E-09
    -47.593  0.2164E-05  0.1414E-06
    -47.528  0.2327E-03  0.1528E-04
    -47.462  0.1129E-01  0.7498E-03
    -47.397  0.2517E+00  0.1712E-01
    -47.332  0.2643E+01  0.1891E+00
    -47.267  0.1351E+02  0.1068E+01
    -47.202  0.3501E+02  0.3346E+01
    -47.137  0.4858E+02  0.6507E+01
    -47.072  0.3973E+02  0.9092E+01
    -47.007  0.2420E+02  0.1067E+02
    -46.942  0.1362E+02  0.1155E+02
    -46.877  0.5549E+01  0.1191E+02
    -46.812  0.1195E+01  0.1199E+02
    -46.747  0.1206E+00  0.1200E+02
    -46.682  0.5488E-02  0.1200E+02
    -46.617  0.1111E-03  0.1200E+02
    -46.552  0.9910E-06  0.1200E+02
    -46.486  0.3876E-08  0.1200E+02
    -46.421  0.6614E-11  0.1200E+02
    -46.356  0.6825E-14  0.1200E+02
    -46.291  0.0000E+00  0.1200E+02
    -46.226  0.0000E+00  0.1200E+02
    -46.161  0.0000E+00  0.1200E+02
    -46.096  0.0000E+00  0.1200E+02
    -46.031  0.0000E+00  0.1200E+02
    -45.966  0.0000E+00  0.1200E+02
    -45.901  0.0000E+00  0.1200E+02
    -45.836  0.0000E+00  0.1200E+02
    -45.771  0.0000E+00  0.1200E+02
    -45.706  0.0000E+00  0.1200E+02
    -45.641  0.0000E+00  0.1200E+02
    -45.576  0.0000E+00  0.1200E+02
    -45.511  0.0000E+00  0.1200E+02
    -45.445  0.0000E+00  0.1200E+02
    -45.380  0.0000E+00  0.1200E+02
    -45.315  0.0000E+00  0.1200E+02
    -45.250  0.0000E+00  0.1200E+02
    -45.185  0.0000E+00  0.1200E+02
    -45.120  0.0000E+00  0.1200E+02
    -45.055  0.0000E+00  0.1200E+02
    -44.990  0.0000E+00  0.1200E+02
    -44.925  0.0000E+00  0.1200E+02
    -44.860  0.0000E+00  0.1200E+02
    -44.795  0.0000E+00  0.1200E+02
    -44.730  0.0000E+00  0.1200E+02
    -44.665  0.0000E+00  0.1200E+02
    -44.600  0.0000E+00  0.1200E+02
    -44.535  0.0000E+00  0.1200E+02
    -44.469  0.0000E+00  0.1200E+02
    -44.404  0.0000E+00  0.1200E+02
    -44.339  0.0000E+00  0.1200E+02
    -44.274  0.0000E+00  0.1200E+02
    -44.209  0.0000E+00  0.1200E+02
    -44.144  0.0000E+00  0.1200E+02
    -44.079  0.0000E+00  0.1200E+02
    -44.014  0.0000E+00  0.1200E+02
    -43.949  0.0000E+00  0.1200E+02
    -43.884  0.0000E+00  0.1200E+02
    -43.819  0.0000E+00  0.1200E+02
    -43.754  0.0000E+00  0.1200E+02
    -43.689  0.0000E+00  0.1200E+02
    -43.624  0.0000E+00  0.1200E+02
    -43.559  0.0000E+00  0.1200E+02
    -43.493  0.0000E+00  0.1200E+02
    -43.428  0.0000E+00  0.1200E+02
    -43.363  0.0000E+00  0.1200E+02
    -43.298  0.0000E+00  0.1200E+02
    -43.233  0.0000E+00  0.1200E+02
    -43.168  0.0000E+00  0.1200E+02
    -43.103  0.0000E+00  0.1200E+02
    -43.038  0.0000E+00  0.1200E+02
    -42.973  0.0000E+00  0.1200E+02
    -42.908  0.0000E+00  0.1200E+02
    -42.843  0.0000E+00  0.1200E+02
    -42.778  0.0000E+00  0.1200E+02
    -42.713  0.0000E+00  0.1200E+02
    -42.648  0.0000E+00  0.1200E+02
    -42.583  0.0000E+00  0.1200E+02
    -42.518  0.0000E+00  0.1200E+02
    -42.452  0.0000E+00  0.1200E+02
    -42.387  0.0000E+00  0.1200E+02
    -42.322  0.0000E+00  0.1200E+02
    -42.257  0.0000E+00  0.1200E+02
    -42.192  0.0000E+00  0.1200E+02
    -42.127  0.0000E+00  0.1200E+02
    -42.062  0.0000E+00  0.1200E+02
    -41.997  0.0000E+00  0.1200E+02
    -41.932  0.0000E+00  0.1200E+02
    -41.867  0.0000E+00  0.1200E+02
    -41.802  0.0000E+00  0.1200E+02
    -41.737  0.0000E+00  0.1200E+02
    -41.672  0.0000E+00  0.1200E+02
    -41.607  0.0000E+00  0.1200E+02
    -41.542  0.0000E+00  0.1200E+02
    -41.476  0.0000E+00  0.1200E+02
    -41.411  0.0000E+00  0.1200E+02
    -41.346  0.1706E-14  0.1200E+02
    -41.281  0.1966E-11  0.1200E+02
    -41.216  0.1335E-08  0.1200E+02
    -41.151  0.3950E-06  0.1200E+02
    -41.086  0.5119E-04  0.1200E+02
    -41.021  0.2920E-02  0.1200E+02
    -40.956  0.7379E-01  0.1200E+02
    -40.891  0.8320E+00  0.1206E+02
    -40.826  0.4217E+01  0.1233E+02
    -40.761  0.9675E+01  0.1296E+02
    -40.696  0.1020E+02  0.1363E+02
    -40.631  0.6091E+01  0.1402E+02
    -40.566  0.7061E+01  0.1448E+02
    -40.501  0.1401E+02  0.1539E+02
    -40.435  0.1857E+02  0.1660E+02
    -40.370  0.1778E+02  0.1776E+02
    -40.305  0.1902E+02  0.1900E+02
    -40.240  0.2813E+02  0.2083E+02
    -40.175  0.3613E+02  0.2318E+02
    -40.110  0.2865E+02  0.2504E+02
    -40.045  0.1200E+02  0.2582E+02
    -39.980  0.2468E+01  0.2598E+02
    -39.915  0.2403E+00  0.2600E+02
    -39.850  0.1082E-01  0.2600E+02
    -39.785  0.2219E-03  0.2600E+02
    -39.720  0.2043E-05  0.2600E+02
    -39.655  0.8361E-08  0.2600E+02
    -39.590  0.1510E-10  0.2600E+02
    -39.525  0.1024E-13  0.2600E+02
    -39.459  0.0000E+00  0.2600E+02
    -39.394  0.0000E+00  0.2600E+02
    -39.329  0.0000E+00  0.2600E+02
    -39.264  0.0000E+00  0.2600E+02
    -39.199  0.0000E+00  0.2600E+02
    -39.134  0.0000E+00  0.2600E+02
    -39.069  0.0000E+00  0.2600E+02
    -39.004  0.0000E+00  0.2600E+02
    -38.939  0.0000E+00  0.2600E+02
    -38.874  0.0000E+00  0.2600E+02
    -38.809  0.0000E+00  0.2600E+02
    -38.744  0.0000E+00  0.2600E+02
    -38.679  0.0000E+00  0.2600E+02
    -38.614  0.0000E+00  0.2600E+02
    -38.549  0.0000E+00  0.2600E+02
    -38.483  0.0000E+00  0.2600E+02
    -38.418  0.0000E+00  0.2600E+02
    -38.353  0.0000E+00  0.2600E+02
    -38.288  0.0000E+00  0.2600E+02
    -38.223  0.0000E+00  0.2600E+02
    -38.158  0.0000E+00  0.2600E+02
    -38.093  0.0000E+00  0.2600E+02
    -38.028  0.0000E+00  0.2600E+02
    -37.963  0.0000E+00  0.2600E+02
    -37.898  0.0000E+00  0.2600E+02
    -37.833  0.0000E+00  0.2600E+02
    -37.768  0.0000E+00  0.2600E+02
    -37.703  0.0000E+00  0.2600E+02
    -37.638  0.0000E+00  0.2600E+02
    -37.573  0.0000E+00  0.2600E+02
    -37.508  0.0000E+00  0.2600E+02
    -37.442  0.0000E+00  0.2600E+02
    -37.377  0.0000E+00  0.2600E+02
    -37.312  0.0000E+00  0.2600E+02
    -37.247  0.0000E+00  0.2600E+02
    -37.182  0.0000E+00  0.2600E+02
    -37.117  0.0000E+00  0.2600E+02
    -37.052  0.0000E+00  0.2600E+02
    -36.987  0.0000E+00  0.2600E+02
    -36.922  0.0000E+00  0.2600E+02
    -36.857  0.0000E+00  0.2600E+02
    -36.792  0.0000E+00  0.2600E+02
    -36.727  0.0000E+00  0.2600E+02
    -36.662  0.0000E+00  0.2600E+02
    -36.597  0.0000E+00  0.2600E+02
    -36.532  0.0000E+00  0.2600E+02
    -36.466  0.0000E+00  0.2600E+02
    -36.401  0.0000E+00  0.2600E+02
    -36.336  0.0000E+00  0.2600E+02
    -36.271  0.0000E+00  0.2600E+02
    -36.206  0.0000E+00  0.2600E+02
    -36.141  0.0000E+00  0.2600E+02
    -36.076  0.0000E+00  0.2600E+02
    -36.011  0.0000E+00  0.2600E+02
    -35.946  0.0000E+00  0.2600E+02
    -35.881  0.0000E+00  0.2600E+02
    -35.816  0.0000E+00  0.2600E+02
    -35.751  0.0000E+00  0.2600E+02
    -35.686  0.0000E+00  0.2600E+02
    -35.621  0.0000E+00  0.2600E+02
    -35.556  0.0000E+00  0.2600E+02
    -35.490  0.0000E+00  0.2600E+02
    -35.425  0.0000E+00  0.2600E+02
    -35.360  0.0000E+00  0.2600E+02
    -35.295  0.0000E+00  0.2600E+02
    -35.230  0.0000E+00  0.2600E+02
    -35.165  0.0000E+00  0.2600E+02
    -35.100  0.0000E+00  0.2600E+02
    -35.035  0.0000E+00  0.2600E+02
    -34.970  0.0000E+00  0.2600E+02
    -34.905  0.0000E+00  0.2600E+02
    -34.840  0.0000E+00  0.2600E+02
    -34.775  0.0000E+00  0.2600E+02
    -34.710  0.0000E+00  0.2600E+02
    -34.645  0.0000E+00  0.2600E+02
    -34.580  0.0000E+00  0.2600E+02
    -34.515  0.0000E+00  0.2600E+02
    -34.449  0.0000E+00  0.2600E+02
    -34.384  0.0000E+00  0.2600E+02
    -34.319  0.0000E+00  0.2600E+02
    -34.254  0.0000E+00  0.2600E+02
    -34.189  0.0000E+00  0.2600E+02
    -34.124  0.0000E+00  0.2600E+02
    -34.059  0.0000E+00  0.2600E+02
    -33.994  0.0000E+00  0.2600E+02
    -33.929  0.0000E+00  0.2600E+02
    -33.864  0.0000E+00  0.2600E+02
    -33.799  0.0000E+00  0.2600E+02
    -33.734  0.0000E+00  0.2600E+02
    -33.669  0.0000E+00  0.2600E+02
    -33.604  0.0000E+00  0.2600E+02
    -33.539  0.0000E+00  0.2600E+02
    -33.473  0.0000E+00  0.2600E+02
    -33.408  0.0000E+00  0.2600E+02
    -33.343  0.0000E+00  0.2600E+02
    -33.278  0.0000E+00  0.2600E+02
    -33.213  0.0000E+00  0.2600E+02
    -33.148  0.0000E+00  0.2600E+02
    -33.083  0.0000E+00  0.2600E+02
    -33.018  0.0000E+00  0.2600E+02
    -32.953  0.0000E+00  0.2600E+02
    -32.888  0.0000E+00  0.2600E+02
    -32.823  0.0000E+00  0.2600E+02
    -32.758  0.0000E+00  0.2600E+02
    -32.693  0.0000E+00  0.2600E+02
    -32.628  0.0000E+00  0.2600E+02
    -32.563  0.0000E+00  0.2600E+02
    -32.497  0.0000E+00  0.2600E+02
    -32.432  0.0000E+00  0.2600E+02
    -32.367  0.0000E+00  0.2600E+02
    -32.302  0.0000E+00  0.2600E+02
    -32.237  0.0000E+00  0.2600E+02
    -32.172  0.0000E+00  0.2600E+02
    -32.107  0.0000E+00  0.2600E+02
    -32.042  0.0000E+00  0.2600E+02
    -31.977  0.0000E+00  0.2600E+02
    -31.912  0.0000E+00  0.2600E+02
    -31.847  0.0000E+00  0.2600E+02
    -31.782  0.0000E+00  0.2600E+02
    -31.717  0.0000E+00  0.2600E+02
    -31.652  0.0000E+00  0.2600E+02
    -31.587  0.0000E+00  0.2600E+02
    -31.522  0.0000E+00  0.2600E+02
    -31.456  0.0000E+00  0.2600E+02
    -31.391  0.0000E+00  0.2600E+02
    -31.326  0.0000E+00  0.2600E+02
    -31.261  0.0000E+00  0.2600E+02
    -31.196  0.0000E+00  0.2600E+02
    -31.131  0.0000E+00  0.2600E+02
    -31.066  0.0000E+00  0.2600E+02
    -31.001  0.0000E+00  0.2600E+02
    -30.936  0.0000E+00  0.2600E+02
    -30.871  0.0000E+00  0.2600E+02
    -30.806  0.0000E+00  0.2600E+02
    -30.741  0.0000E+00  0.2600E+02
    -30.676  0.0000E+00  0.2600E+02
    -30.611  0.0000E+00  0.2600E+02
    -30.546  0.0000E+00  0.2600E+02
    -30.480  0.0000E+00  0.2600E+02
    -30.415  0.0000E+00  0.2600E+02
    -30.350  0.0000E+00  0.2600E+02
    -30.285  0.0000E+00  0.2600E+02
    -30.220  0.0000E+00  0.2600E+02
    -30.155  0.0000E+00  0.2600E+02
    -30.090  0.0000E+00  0.2600E+02
    -30.025  0.0000E+00  0.2600E+02
    -29.960  0.0000E+00  0.2600E+02
    -29.895  0.0000E+00  0.2600E+02
    -29.830  0.0000E+00  0.2600E+02
    -29.765  0.0000E+00  0.2600E+02
    -29.700  0.0000E+00  0.2600E+02
    -29.635  0.0000E+00  0.2600E+02
    -29.570  0.0000E+00  0.2600E+02
    -29.505  0.0000E+00  0.2600E+02
    -29.439  0.0000E+00  0.2600E+02
    -29.374  0.0000E+00  0.2600E+02
    -29.309  0.0000E+00  0.2600E+02
    -29.244  0.0000E+00  0.2600E+02
    -29.179  0.0000E+00  0.2600E+02
    -29.114  0.0000E+00  0.2600E+02
    -29.049  0.0000E+00  0.2600E+02
    -28.984  0.0000E+00  0.2600E+02
    -28.919  0.0000E+00  0.2600E+02
    -28.854  0.0000E+00  0.2600E+02
    -28.789  0.0000E+00  0.2600E+02
    -28.724  0.0000E+00  0.2600E+02
    -28.659  0.0000E+00  0.2600E+02
    -28.594  0.0000E+00  0.2600E+02
    -28.529  0.0000E+00  0.2600E+02
    -28.463  0.0000E+00  0.2600E+02
    -28.398  0.0000E+00  0.2600E+02
    -28.333  0.0000E+00  0.2600E+02
    -28.268  0.0000E+00  0.2600E+02
    -28.203  0.0000E+00  0.2600E+02
    -28.138  0.0000E+00  0.2600E+02
    -28.073  0.0000E+00  0.2600E+02
    -28.008  0.0000E+00  0.2600E+02
    -27.943  0.0000E+00  0.2600E+02
    -27.878  0.1706E-14  0.2600E+02
    -27.813  0.1910E-11  0.2600E+02
    -27.748  0.1306E-08  0.2600E+02
    -27.683  0.3907E-06  0.2600E+02
    -27.618  0.5150E-04  0.2600E+02
    -27.553  0.3026E-02  0.2600E+02
    -27.487  0.8075E-01  0.2601E+02
    -27.422  0.1012E+01  0.2607E+02
    -27.357  0.6314E+01  0.2648E+02
    -27.292  0.2152E+02  0.2788E+02
    -27.227  0.4448E+02  0.3078E+02
    -27.162  0.5980E+02  0.3467E+02
    -27.097  0.5577E+02  0.3830E+02
    -27.032  0.4456E+02  0.4120E+02
    -26.967  0.4280E+02  0.4398E+02
    -26.902  0.4445E+02  0.4687E+02
    -26.837  0.3830E+02  0.4936E+02
    -26.772  0.3191E+02  0.5144E+02
    -26.707  0.3502E+02  0.5372E+02
    -26.642  0.4482E+02  0.5663E+02
    -26.577  0.4431E+02  0.5952E+02
    -26.512  0.2717E+02  0.6129E+02
    -26.446  0.9239E+01  0.6189E+02
    -26.381  0.1598E+01  0.6199E+02
    -26.316  0.1325E+00  0.6200E+02
    -26.251  0.5081E-02  0.6200E+02
    -26.186  0.8813E-04  0.6200E+02
    -26.121  0.6823E-06  0.6200E+02
    -26.056  0.2337E-08  0.6200E+02
    -25.991  0.3517E-11  0.6200E+02
    -25.926  0.0000E+00  0.6200E+02
    -25.861  0.0000E+00  0.6200E+02
    -25.796  0.0000E+00  0.6200E+02
    -25.731  0.0000E+00  0.6200E+02
    -25.666  0.0000E+00  0.6200E+02
    -25.601  0.0000E+00  0.6200E+02
    -25.536  0.0000E+00  0.6200E+02
    -25.470  0.0000E+00  0.6200E+02
    -25.405  0.0000E+00  0.6200E+02
    -25.340  0.0000E+00  0.6200E+02
    -25.275  0.0000E+00  0.6200E+02
    -25.210  0.0000E+00  0.6200E+02
    -25.145  0.0000E+00  0.6200E+02
    -25.080  0.0000E+00  0.6200E+02
    -25.015  0.0000E+00  0.6200E+02
    -24.950  0.0000E+00  0.6200E+02
    -24.885  0.0000E+00  0.6200E+02
    -24.820  0.0000E+00  0.6200E+02
    -24.755  0.0000E+00  0.6200E+02
    -24.690  0.0000E+00  0.6200E+02
    -24.625  0.0000E+00  0.6200E+02
    -24.560  0.0000E+00  0.6200E+02
    -24.494  0.0000E+00  0.6200E+02
    -24.429  0.0000E+00  0.6200E+02
    -24.364  0.0000E+00  0.6200E+02
    -24.299  0.0000E+00  0.6200E+02
    -24.234  0.0000E+00  0.6200E+02
    -24.169  0.0000E+00  0.6200E+02
    -24.104  0.1684E-13  0.6200E+02
    -24.039  0.2059E-10  0.6200E+02
    -23.974  0.1075E-07  0.6200E+02
    -23.909  0.2480E-05  0.6200E+02
    -23.844  0.2555E-03  0.6200E+02
    -23.779  0.1191E-01  0.6200E+02
    -23.714  0.2552E+00  0.6202E+02
    -23.649  0.2570E+01  0.6218E+02
    -23.584  0.1252E+02  0.6300E+02
    -23.519  0.3148E+02  0.6505E+02
    -23.453  0.4844E+02  0.6820E+02
    -23.388  0.6235E+02  0.7226E+02
    -23.323  0.7703E+02  0.7727E+02
    -23.258  0.8257E+02  0.8264E+02
    -23.193  0.7693E+02  0.8765E+02
    -23.128  0.6619E+02  0.9195E+02
    -23.063  0.5097E+02  0.9527E+02
    -22.998  0.2945E+02  0.9718E+02
    -22.933  0.1045E+02  0.9786E+02
    -22.868  0.2634E+01  0.9804E+02
    -22.803  0.4104E+01  0.9830E+02
    -22.738  0.1161E+02  0.9906E+02
    -22.673  0.2337E+02  0.1006E+03
    -22.608  0.4177E+02  0.1033E+03
    -22.543  0.5860E+02  0.1071E+03
    -22.477  0.5817E+02  0.1109E+03
    -22.412  0.4352E+02  0.1137E+03
    -22.347  0.2435E+02  0.1153E+03
    -22.282  0.1041E+02  0.1160E+03
    -22.217  0.1186E+02  0.1168E+03
    -22.152  0.3185E+02  0.1188E+03
    -22.087  0.5669E+02  0.1225E+03
    -22.022  0.6818E+02  0.1270E+03
    -21.957  0.5983E+02  0.1308E+03
    -21.892  0.3473E+02  0.1331E+03
    -21.827  0.1265E+02  0.1339E+03
    -21.762  0.9247E+01  0.1345E+03
    -21.697  0.2237E+02  0.1360E+03
    -21.632  0.3205E+02  0.1381E+03
    -21.567  0.2168E+02  0.1395E+03
    -21.502  0.6839E+01  0.1399E+03
    -21.436  0.9962E+00  0.1400E+03
    -21.371  0.6628E-01  0.1400E+03
    -21.306  0.1991E-02  0.1400E+03
    -21.241  0.2675E-04  0.1400E+03
    -21.176  0.1592E-06  0.1400E+03
    -21.111  0.4170E-09  0.1400E+03
    -21.046  0.4790E-12  0.1400E+03
    -20.981  0.0000E+00  0.1400E+03
    -20.916  0.0000E+00  0.1400E+03
    -20.851  0.0000E+00  0.1400E+03
    -20.786  0.0000E+00  0.1400E+03
    -20.721  0.0000E+00  0.1400E+03
    -20.656  0.0000E+00  0.1400E+03
    -20.591  0.0000E+00  0.1400E+03
    -20.526  0.0000E+00  0.1400E+03
    -20.460  0.0000E+00  0.1400E+03
    -20.395  0.0000E+00  0.1400E+03
    -20.330  0.0000E+00  0.1400E+03
    -20.265  0.0000E+00  0.1400E+03
    -20.200  0.0000E+00  0.1400E+03
    -20.135  0.0000E+00  0.1400E+03
    -20.070  0.0000E+00  0.1400E+03
    -20.005  0.0000E+00  0.1400E+03
    -19.940  0.0000E+00  0.1400E+03
    -19.875  0.0000E+00  0.1400E+03
    -19.810  0.0000E+00  0.1400E+03
    -19.745  0.0000E+00  0.1400E+03
    -19.680  0.1706E-14  0.1400E+03
    -19.615  0.3159E-11  0.1400E+03
    -19.550  0.2038E-08  0.1400E+03
    -19.484  0.5768E-06  0.1400E+03
    -19.419  0.7223E-04  0.1400E+03
    -19.354  0.4057E-02  0.1400E+03
    -19.289  0.1042E+00  0.1400E+03
    -19.224  0.1258E+01  0.1401E+03
    -19.159  0.7356E+01  0.1406E+03
    -19.094  0.2135E+02  0.1420E+03
    -19.029  0.3129E+02  0.1440E+03
    -18.964  0.2545E+02  0.1456E+03
    -18.899  0.2264E+02  0.1471E+03
    -18.834  0.3926E+02  0.1497E+03
    -18.769  0.5842E+02  0.1535E+03
    -18.704  0.6171E+02  0.1575E+03
    -18.639  0.5699E+02  0.1612E+03
    -18.574  0.6085E+02  0.1652E+03
    -18.509  0.7087E+02  0.1698E+03
    -18.443  0.7229E+02  0.1745E+03
    -18.378  0.5436E+02  0.1780E+03
    -18.313  0.2945E+02  0.1799E+03
    -18.248  0.1657E+02  0.1810E+03
    -18.183  0.1037E+02  0.1817E+03
    -18.118  0.4073E+01  0.1819E+03
    -18.053  0.7697E+00  0.1820E+03
    -17.988  0.6607E-01  0.1820E+03
    -17.923  0.2536E-02  0.1820E+03
    -17.858  0.4313E-04  0.1820E+03
    -17.793  0.3231E-06  0.1820E+03
    -17.728  0.1060E-08  0.1820E+03
    -17.663  0.1519E-11  0.1820E+03
    -17.598  0.0000E+00  0.1820E+03
    -17.533  0.0000E+00  0.1820E+03
    -17.467  0.0000E+00  0.1820E+03
    -17.402  0.0000E+00  0.1820E+03
    -17.337  0.0000E+00  0.1820E+03
    -17.272  0.0000E+00  0.1820E+03
    -17.207  0.0000E+00  0.1820E+03
    -17.142  0.0000E+00  0.1820E+03
    -17.077  0.0000E+00  0.1820E+03
    -17.012  0.0000E+00  0.1820E+03
    -16.947  0.0000E+00  0.1820E+03
    -16.882  0.0000E+00  0.1820E+03
    -16.817  0.0000E+00  0.1820E+03
    -16.752  0.0000E+00  0.1820E+03
    -16.687  0.0000E+00  0.1820E+03
    -16.622  0.0000E+00  0.1820E+03
    -16.557  0.0000E+00  0.1820E+03
    -16.491  0.0000E+00  0.1820E+03
    -16.426  0.0000E+00  0.1820E+03
    -16.361  0.0000E+00  0.1820E+03
    -16.296  0.0000E+00  0.1820E+03
    -16.231  0.0000E+00  0.1820E+03
    -16.166  0.0000E+00  0.1820E+03
    -16.101  0.0000E+00  0.1820E+03
    -16.036  0.0000E+00  0.1820E+03
    -15.971  0.0000E+00  0.1820E+03
    -15.906  0.0000E+00  0.1820E+03
    -15.841  0.0000E+00  0.1820E+03
    -15.776  0.0000E+00  0.1820E+03
    -15.711  0.0000E+00  0.1820E+03
    -15.646  0.0000E+00  0.1820E+03
    -15.581  0.0000E+00  0.1820E+03
    -15.516  0.0000E+00  0.1820E+03
    -15.450  0.0000E+00  0.1820E+03
    -15.385  0.0000E+00  0.1820E+03
    -15.320  0.0000E+00  0.1820E+03
    -15.255  0.0000E+00  0.1820E+03
    -15.190  0.0000E+00  0.1820E+03
    -15.125  0.0000E+00  0.1820E+03
    -15.060  0.0000E+00  0.1820E+03
    -14.995  0.0000E+00  0.1820E+03
    -14.930  0.0000E+00  0.1820E+03
    -14.865  0.0000E+00  0.1820E+03
    -14.800  0.0000E+00  0.1820E+03
    -14.735  0.0000E+00  0.1820E+03
    -14.670  0.0000E+00  0.1820E+03
    -14.605  0.0000E+00  0.1820E+03
    -14.540  0.0000E+00  0.1820E+03
    -14.474  0.0000E+00  0.1820E+03
    -14.409  0.0000E+00  0.1820E+03
    -14.344  0.0000E+00  0.1820E+03
    -14.279  0.0000E+00  0.1820E+03
    -14.214  0.0000E+00  0.1820E+03
    -14.149  0.0000E+00  0.1820E+03
    -14.084  0.0000E+00  0.1820E+03
    -14.019  0.0000E+00  0.1820E+03
    -13.954  0.0000E+00  0.1820E+03
    -13.889  0.0000E+00  0.1820E+03
    -13.824  0.0000E+00  0.1820E+03
    -13.759  0.0000E+00  0.1820E+03
    -13.694  0.0000E+00  0.1820E+03
    -13.629  0.0000E+00  0.1820E+03
    -13.564  0.0000E+00  0.1820E+03
    -13.498  0.0000E+00  0.1820E+03
    -13.433  0.0000E+00  0.1820E+03
    -13.368  0.0000E+00  0.1820E+03
    -13.303  0.0000E+00  0.1820E+03
    -13.238  0.0000E+00  0.1820E+03
    -13.173  0.0000E+00  0.1820E+03
    -13.108  0.0000E+00  0.1820E+03
    -13.043  0.0000E+00  0.1820E+03
    -12.978  0.0000E+00  0.1820E+03
    -12.913  0.0000E+00  0.1820E+03
    -12.848  0.0000E+00  0.1820E+03
    -12.783  0.0000E+00  0.1820E+03
    -12.718  0.0000E+00  0.1820E+03
    -12.653  0.0000E+00  0.1820E+03
    -12.588  0.0000E+00  0.1820E+03
    -12.523  0.0000E+00  0.1820E+03
    -12.457  0.0000E+00  0.1820E+03
    -12.392  0.0000E+00  0.1820E+03
    -12.327  0.0000E+00  0.1820E+03
    -12.262  0.0000E+00  0.1820E+03
    -12.197  0.0000E+00  0.1820E+03
    -12.132  0.0000E+00  0.1820E+03
    -12.067  0.0000E+00  0.1820E+03
    -12.002  0.0000E+00  0.1820E+03
    -11.937  0.0000E+00  0.1820E+03
    -11.872  0.0000E+00  0.1820E+03
    -11.807  0.0000E+00  0.1820E+03
    -11.742  0.0000E+00  0.1820E+03
    -11.677  0.0000E+00  0.1820E+03
    -11.612  0.0000E+00  0.1820E+03
    -11.547  0.0000E+00  0.1820E+03
    -11.481  0.0000E+00  0.1820E+03
    -11.416  0.0000E+00  0.1820E+03
    -11.351  0.0000E+00  0.1820E+03
    -11.286  0.0000E+00  0.1820E+03
    -11.221  0.0000E+00  0.1820E+03
    -11.156  0.0000E+00  0.1820E+03
    -11.091  0.0000E+00  0.1820E+03
    -11.026  0.0000E+00  0.1820E+03
    -10.961  0.0000E+00  0.1820E+03
    -10.896  0.0000E+00  0.1820E+03
    -10.831  0.0000E+00  0.1820E+03
    -10.766  0.0000E+00  0.1820E+03
    -10.701  0.0000E+00  0.1820E+03
    -10.636  0.0000E+00  0.1820E+03
    -10.571  0.0000E+00  0.1820E+03
    -10.506  0.0000E+00  0.1820E+03
    -10.440  0.0000E+00  0.1820E+03
    -10.375  0.0000E+00  0.1820E+03
    -10.310  0.0000E+00  0.1820E+03
    -10.245  0.0000E+00  0.1820E+03
    -10.180  0.0000E+00  0.1820E+03
    -10.115  0.0000E+00  0.1820E+03
    -10.050  0.0000E+00  0.1820E+03
     -9.985  0.0000E+00  0.1820E+03
     -9.920  0.0000E+00  0.1820E+03
     -9.855  0.0000E+00  0.1820E+03
     -9.790  0.0000E+00  0.1820E+03
     -9.725  0.0000E+00  0.1820E+03
     -9.660  0.0000E+00  0.1820E+03
     -9.595  0.0000E+00  0.1820E+03
     -9.530  0.0000E+00  0.1820E+03
     -9.464  0.0000E+00  0.1820E+03
     -9.399  0.0000E+00  0.1820E+03
     -9.334  0.0000E+00  0.1820E+03
     -9.269  0.0000E+00  0.1820E+03
     -9.204  0.0000E+00  0.1820E+03
     -9.139  0.0000E+00  0.1820E+03
     -9.074  0.0000E+00  0.1820E+03
     -9.009  0.0000E+00  0.1820E+03
     -8.944  0.0000E+00  0.1820E+03
     -8.879  0.0000E+00  0.1820E+03
     -8.814  0.0000E+00  0.1820E+03
     -8.749  0.0000E+00  0.1820E+03
     -8.684  0.0000E+00  0.1820E+03
     -8.619  0.0000E+00  0.1820E+03
     -8.554  0.0000E+00  0.1820E+03
     -8.488  0.0000E+00  0.1820E+03
     -8.423  0.3081E-15  0.1820E+03
     -8.358  0.3958E-12  0.1820E+03
     -8.293  0.2169E-09  0.1820E+03
     -8.228  0.5395E-07  0.1820E+03
     -8.163  0.6183E-05  0.1820E+03
     -8.098  0.3323E-03  0.1820E+03
     -8.033  0.8548E-02  0.1820E+03
     -7.968  0.1081E+00  0.1820E+03
     -7.903  0.6973E+00  0.1821E+03
     -7.838  0.2446E+01  0.1822E+03
     -7.773  0.5135E+01  0.1825E+03
     -7.708  0.7194E+01  0.1830E+03
     -7.643  0.7193E+01  0.1835E+03
     -7.578  0.5273E+01  0.1838E+03
     -7.513  0.3823E+01  0.1841E+03
     -7.447  0.6357E+01  0.1845E+03
     -7.382  0.1303E+02  0.1853E+03
     -7.317  0.1766E+02  0.1865E+03
     -7.252  0.1534E+02  0.1875E+03
     -7.187  0.1102E+02  0.1882E+03
     -7.122  0.1102E+02  0.1889E+03
     -7.057  0.1160E+02  0.1897E+03
     -6.992  0.1111E+02  0.1904E+03
     -6.927  0.1309E+02  0.1912E+03
     -6.862  0.1508E+02  0.1922E+03
     -6.797  0.1507E+02  0.1932E+03
     -6.732  0.1296E+02  0.1941E+03
     -6.667  0.1176E+02  0.1948E+03
     -6.602  0.1585E+02  0.1958E+03
     -6.537  0.2415E+02  0.1974E+03
     -6.471  0.2997E+02  0.1994E+03
     -6.406  0.3015E+02  0.2013E+03
     -6.341  0.2671E+02  0.2031E+03
     -6.276  0.2164E+02  0.2045E+03
     -6.211  0.1828E+02  0.2057E+03
     -6.146  0.1615E+02  0.2067E+03
     -6.081  0.1221E+02  0.2075E+03
     -6.016  0.5864E+01  0.2079E+03
     -5.951  0.1465E+01  0.2080E+03
     -5.886  0.1756E+00  0.2080E+03
     -5.821  0.9795E-02  0.2080E+03
     -5.756  0.2500E-03  0.2080E+03
     -5.691  0.2883E-05  0.2080E+03
     -5.626  0.1488E-07  0.2080E+03
     -5.561  0.3407E-10  0.2080E+03
     -5.495  0.3384E-13  0.2080E+03
     -5.430  0.0000E+00  0.2080E+03
     -5.365  0.0000E+00  0.2080E+03
     -5.300  0.0000E+00  0.2080E+03
     -5.235  0.0000E+00  0.2080E+03
     -5.170  0.0000E+00  0.2080E+03
     -5.105  0.0000E+00  0.2080E+03
     -5.040  0.0000E+00  0.2080E+03
     -4.975  0.0000E+00  0.2080E+03
     -4.910  0.0000E+00  0.2080E+03
     -4.845  0.0000E+00  0.2080E+03
     -4.780  0.0000E+00  0.2080E+03
     -4.715  0.0000E+00  0.2080E+03
     -4.650  0.0000E+00  0.2080E+03
     -4.585  0.0000E+00  0.2080E+03
     -4.520  0.1351E-14  0.2080E+03
     -4.454  0.1355E-11  0.2080E+03
     -4.389  0.6065E-09  0.2080E+03
     -4.324  0.1240E-06  0.2080E+03
     -4.259  0.1178E-04  0.2080E+03
     -4.194  0.5312E-03  0.2080E+03
     -4.129  0.1165E-01  0.2080E+03
     -4.064  0.1282E+00  0.2080E+03
     -3.999  0.7374E+00  0.2081E+03
     -3.934  0.2372E+01  0.2082E+03
     -3.869  0.4724E+01  0.2085E+03
     -3.804  0.6538E+01  0.2089E+03
     -3.739  0.6786E+01  0.2094E+03
     -3.674  0.5483E+01  0.2097E+03
     -3.609  0.3953E+01  0.2100E+03
     -3.544  0.4374E+01  0.2103E+03
     -3.478  0.7240E+01  0.2108E+03
     -3.413  0.9973E+01  0.2114E+03
     -3.348  0.1099E+02  0.2121E+03
     -3.283  0.1207E+02  0.2129E+03
     -3.218  0.1355E+02  0.2138E+03
     -3.153  0.1625E+02  0.2148E+03
     -3.088  0.2084E+02  0.2162E+03
     -3.023  0.2465E+02  0.2178E+03
     -2.958  0.2679E+02  0.2195E+03
     -2.893  0.2662E+02  0.2213E+03
     -2.828  0.2543E+02  0.2229E+03
     -2.763  0.2650E+02  0.2247E+03
     -2.698  0.2832E+02  0.2265E+03
     -2.633  0.2898E+02  0.2284E+03
     -2.568  0.2818E+02  0.2302E+03
     -2.503  0.2543E+02  0.2319E+03
     -2.437  0.2250E+02  0.2333E+03
     -2.372  0.2152E+02  0.2347E+03
     -2.307  0.2196E+02  0.2362E+03
     -2.242  0.2193E+02  0.2376E+03
     -2.177  0.2046E+02  0.2389E+03
     -2.112  0.1812E+02  0.2401E+03
     -2.047  0.1584E+02  0.2411E+03
     -1.982  0.1377E+02  0.2420E+03
     -1.917  0.1191E+02  0.2428E+03
     -1.852  0.1058E+02  0.2435E+03
     -1.787  0.9764E+01  0.2441E+03
     -1.722  0.8947E+01  0.2447E+03
     -1.657  0.7617E+01  0.2452E+03
     -1.592  0.5736E+01  0.2456E+03
     -1.527  0.3701E+01  0.2458E+03
     -1.461  0.1897E+01  0.2459E+03
     -1.396  0.6792E+00  0.2460E+03
     -1.331  0.1508E+00  0.2460E+03
     -1.266  0.1909E-01  0.2460E+03
     -1.201  0.1290E-02  0.2460E+03
     -1.136  0.4394E-04  0.2460E+03
     -1.071  0.7198E-06  0.2460E+03
     -1.006  0.5462E-08  0.2460E+03
     -0.941  0.1871E-10  0.2460E+03
     -0.876  0.2842E-13  0.2460E+03
     -0.811  0.1580E-16  0.2460E+03
     -0.746  0.0000E+00  0.2460E+03
     -0.681  0.0000E+00  0.2460E+03
     -0.616  0.0000E+00  0.2460E+03
     -0.551  0.0000E+00  0.2460E+03
     -0.485  0.0000E+00  0.2460E+03
     -0.420  0.0000E+00  0.2460E+03
     -0.355  0.0000E+00  0.2460E+03
     -0.290  0.0000E+00  0.2460E+03
     -0.225  0.0000E+00  0.2460E+03
     -0.160  0.0000E+00  0.2460E+03
     -0.095  0.0000E+00  0.2460E+03
     -0.030  0.3950E-16  0.2460E+03
      0.035  0.4992E-13  0.2460E+03
      0.100  0.2777E-10  0.2460E+03
      0.165  0.6799E-08  0.2460E+03
      0.230  0.7419E-06  0.2460E+03
      0.295  0.3698E-04  0.2460E+03
      0.360  0.8823E-03  0.2460E+03
      0.425  0.1094E-01  0.2460E+03
      0.490  0.7890E-01  0.2460E+03
      0.556  0.3638E+00  0.2460E+03
      0.621  0.1115E+01  0.2461E+03
      0.686  0.2347E+01  0.2463E+03
      0.751  0.3770E+01  0.2465E+03
      0.816  0.5391E+01  0.2469E+03
      0.881  0.7072E+01  0.2473E+03
      0.946  0.8255E+01  0.2478E+03
      1.011  0.9515E+01  0.2485E+03
      1.076  0.1077E+02  0.2492E+03
      1.141  0.1084E+02  0.2499E+03
      1.206  0.1073E+02  0.2506E+03
      1.271  0.1127E+02  0.2513E+03
      1.336  0.1170E+02  0.2521E+03
      1.401  0.1310E+02  0.2529E+03
      1.466  0.1580E+02  0.2539E+03
      1.532  0.1814E+02  0.2551E+03
      1.597  0.1977E+02  0.2564E+03
      1.662  0.2079E+02  0.2578E+03
      1.727  0.2123E+02  0.2591E+03
      1.792  0.2176E+02  0.2606E+03
      1.857  0.2298E+02  0.2621E+03
      1.922  0.2506E+02  0.2637E+03
      1.987  0.2680E+02  0.2654E+03
      2.052  0.2752E+02  0.2672E+03
      2.117  0.2759E+02  0.2690E+03
      2.182  0.2725E+02  0.2708E+03
      2.247  0.2665E+02  0.2725E+03
      2.312  0.2622E+02  0.2742E+03
      2.377  0.2687E+02  0.2760E+03
      2.442  0.2926E+02  0.2779E+03
      2.508  0.3188E+02  0.2800E+03
      2.573  0.3334E+02  0.2821E+03
      2.638  0.3366E+02  0.2843E+03
      2.703  0.3365E+02  0.2865E+03
      2.768  0.3465E+02  0.2888E+03
      2.833  0.3603E+02  0.2911E+03
      2.898  0.3663E+02  0.2935E+03
      2.963  0.3721E+02  0.2959E+03
      3.028  0.3804E+02  0.2984E+03
      3.093  0.3945E+02  0.3009E+03
      3.158  0.4197E+02  0.3037E+03
      3.223  0.4503E+02  0.3066E+03
      3.288  0.4730E+02  0.3097E+03
      3.353  0.4804E+02  0.3128E+03
      3.418  0.4835E+02  0.3160E+03
      3.483  0.4966E+02  0.3192E+03
      3.549  0.5231E+02  0.3226E+03
      3.614  0.5534E+02  0.3262E+03
      3.679  0.5846E+02  0.3300E+03