 running   28 mpi-ranks, on    1 nodes
 distrk:  each k-point on   28 cores,    1 groups
 distr:  one band on    1 cores,   28 groups
 vasp.6.4.3 19Mar24 (build Sep 18 2024 11:30:23) complex                        
  
 POSCAR found type information on POSCAR ZrMoHfN C TaNb
 POSCAR found :  7 types and      64 ions
 Reading from existing POTCAR
 scaLAPACK will be used
 -----------------------------------------------------------------------------
|                                                                             |
|           W    W    AA    RRRRR   N    N  II  N    N   GGGG   !!!           |
|           W    W   A  A   R    R  NN   N  II  NN   N  G    G  !!!           |
|           W    W  A    A  R    R  N N  N  II  N N  N  G       !!!           |
|           W WW W  AAAAAA  RRRRR   N  N N  II  N  N N  G  GGG   !            |
|           WW  WW  A    A  R   R   N   NN  II  N   NN  G    G                |
|           W    W  A    A  R    R  N    N  II  N    N   GGGG   !!!           |
|                                                                             |
|     For optimal performance we recommend to set                             |
|       NCORE = 2 up to number-of-cores-per-socket                            |
|     NCORE specifies how many cores store one orbital (NPAR=cpu/NCORE).      |
|     This setting can greatly improve the performance of VASP for DFT.       |
|     The default, NCORE=1 might be grossly inefficient on modern             |
|     multi-core architectures or massively parallel machines. Do your        |
|     own testing! More info at https://www.vasp.at/wiki/index.php/NCORE      |
|     Unfortunately you need to use the default for GW and RPA                |
|     calculations (for HF NCORE is supported but not extensively tested      |
|     yet).                                                                   |
|                                                                             |
 -----------------------------------------------------------------------------

 Reading from existing POTCAR
 -----------------------------------------------------------------------------
|                                                                             |
|               ----> ADVICE to this user running VASP <----                  |
|                                                                             |
|     You have a (more or less) 'large supercell' and for larger cells it     |
|     might be more efficient to use real-space projection operators.         |
|     Therefore, try LREAL= Auto in the INCAR file.                           |
|     Mind: If you want to do very accurate calculations, keep the            |
|     reciprocal projection scheme (i.e. LREAL=.FALSE.).                      |
|                                                                             |
 -----------------------------------------------------------------------------

 LDA part: xc-table for (Slater+PW92), standard interpolation
 -----------------------------------------------------------------------------
|                                                                             |
|           W    W    AA    RRRRR   N    N  II  N    N   GGGG   !!!           |
|           W    W   A  A   R    R  NN   N  II  NN   N  G    G  !!!           |
|           W    W  A    A  R    R  N N  N  II  N N  N  G       !!!           |
|           W WW W  AAAAAA  RRRRR   N  N N  II  N  N N  G  GGG   !            |
|           WW  WW  A    A  R   R   N   NN  II  N   NN  G    G                |
|           W    W  A    A  R    R  N    N  II  N    N   GGGG   !!!           |
|                                                                             |
|     The number of bands has been changed from the values supplied in        |
|     the INCAR file. This is a result of running the parallel version.       |
|     The orbitals not found in the WAVECAR file will be initialized with     |
|     random numbers, which is usually adequate. For correlated               |
|     calculations, however, you should redo the groundstate calculation.     |
|     I found NBANDS = 288. Now, NBANDS = 308.                                |
|                                                                             |
 -----------------------------------------------------------------------------

 found WAVECAR, reading the header
  number of bands has changed, file:   288 present:   308
  trying to continue reading WAVECAR, but it might fail
  number of k-points has changed, file:    14 present:   112
  trying to continue reading WAVECAR, but it might fail
 WARNING: stress and forces are not correct
 POSCAR, INCAR and KPOINTS ok, starting setup
 FFT: planning ... GRIDC
 FFT: planning ... GRID_SOFT
 FFT: planning ... GRID
 reading WAVECAR
 random initialization beyond band          288
 the WAVECAR file was read successfully
 charge-density read from file: HEBCN                                   
 entering main loop
       N       E                     dE             d eps       ncg     rms          rms(c)
DAV:   1    -0.580366365210E+03   -0.58037E+03   -0.32958E+03 78652   0.120E+02
RMM:   2    -0.639153242461E+03   -0.58787E+02   -0.58702E+02118272   0.613E+01
RMM:   3    -0.651056032951E+03   -0.11903E+02   -0.12099E+02130022   0.205E+01
RMM:   4    -0.655474881626E+03   -0.44188E+01   -0.42683E+01130176   0.983E+00
RMM:   5    -0.658113558468E+03   -0.26387E+01   -0.25699E+01134750   0.699E+00
RMM:   6    -0.659751009156E+03   -0.16375E+01   -0.16147E+01136005   0.553E+00
RMM:   7    -0.660861140643E+03   -0.11101E+01   -0.11042E+01136498   0.464E+00
RMM:   8    -0.661636730980E+03   -0.77559E+00   -0.77775E+00135805   0.402E+00
RMM:   9    -0.662194979058E+03   -0.55825E+00   -0.56374E+00136085   0.355E+00
RMM:  10    -0.662613755007E+03   -0.41878E+00   -0.42609E+00134931   0.318E+00
RMM:  11    -0.662930205512E+03   -0.31645E+00   -0.32430E+00134243   0.287E+00
RMM:  12    -0.663176465046E+03   -0.24626E+00   -0.25408E+00133098   0.260E+00
RMM:  13    -0.663367537400E+03   -0.19107E+00   -0.19844E+00132247   0.238E+00
RMM:  14    -0.663520241219E+03   -0.15270E+00   -0.15951E+00131900   0.218E+00
WARNING in EDDRMM: call to ZHEGV failed, returncode =   8  4      9
RMM:  15    -0.663641455170E+03   -0.12121E+00   -0.12739E+00131850   0.200E+00
RMM:  16    -0.663740688137E+03   -0.99233E-01   -0.10481E+00131821   0.184E+00
RMM:  17    -0.663821143947E+03   -0.80456E-01   -0.85476E-01131776   0.170E+00
RMM:  18    -0.663888567553E+03   -0.67424E-01   -0.71952E-01131754   0.158E+00
RMM:  19    -0.663944396889E+03   -0.55829E-01   -0.59914E-01131719   0.147E+00
RMM:  20    -0.663992313479E+03   -0.47917E-01   -0.51631E-01131725   0.137E+00
RMM:  21    -0.664032783361E+03   -0.40470E-01   -0.43845E-01131688   0.128E+00
RMM:  22    -0.664068348976E+03   -0.35566E-01   -0.38669E-01131675   0.120E+00
RMM:  23    -0.664098933164E+03   -0.30584E-01   -0.33428E-01131628   0.112E+00
RMM:  24    -0.664126412347E+03   -0.27479E-01   -0.30125E-01131604   0.106E+00
RMM:  25    -0.664150418238E+03   -0.24006E-01   -0.26451E-01131550   0.996E-01
RMM:  26    -0.664172407668E+03   -0.21989E-01   -0.24291E-01131497   0.941E-01
RMM:  27    -0.664191871355E+03   -0.19464E-01   -0.21606E-01131400   0.891E-01
RMM:  28    -0.664209993660E+03   -0.18122E-01   -0.20158E-01131278   0.846E-01
RMM:  29    -0.664226205951E+03   -0.16212E-01   -0.18120E-01131133   0.805E-01
RMM:  30    -0.664241500331E+03   -0.15294E-01   -0.17122E-01130960   0.767E-01
RMM:  31    -0.664255299771E+03   -0.13799E-01   -0.15520E-01130727   0.732E-01
RMM:  32    -0.664268452578E+03   -0.13153E-01   -0.14813E-01130405   0.700E-01
RMM:  33    -0.664280397580E+03   -0.11945E-01   -0.13515E-01129968   0.670E-01
RMM:  34    -0.664291875410E+03   -0.11478E-01   -0.13000E-01129469   0.643E-01
RMM:  35    -0.664302349886E+03   -0.10474E-01   -0.11919E-01128928   0.617E-01
RMM:  36    -0.664312477946E+03   -0.10128E-01   -0.11535E-01128300   0.593E-01
RMM:  37    -0.664321754526E+03   -0.92766E-02   -0.10615E-01127661   0.571E-01
RMM:  38    -0.664330769016E+03   -0.90145E-02   -0.10322E-01126991   0.551E-01
RMM:  39    -0.664339047270E+03   -0.82783E-02   -0.95245E-02126329   0.531E-01
RMM:  40    -0.664347123832E+03   -0.80766E-02   -0.92970E-02125719   0.513E-01
RMM:  41    -0.664354556730E+03   -0.74329E-02   -0.85982E-02125007   0.496E-01
WARNING in EDDRMM: call to ZHEGV failed, returncode =   8  4      4
RMM:  42    -0.664361831117E+03   -0.72744E-02   -0.84182E-02124191   0.480E-01
RMM:  43    -0.664368534712E+03   -0.67036E-02   -0.77971E-02123493   0.465E-01
RMM:  44    -0.664375113544E+03   -0.65788E-02   -0.76536E-02122503   0.451E-01
WARNING in EDDRMM: call to ZHEGV failed, returncode =   8  4      4
RMM:  45    -0.664381182581E+03   -0.60690E-02   -0.70978E-02121687   0.438E-01
RMM:  46    -0.664387152394E+03   -0.59698E-02   -0.69823E-02120690   0.425E-01
RMM:  47    -0.664392664079E+03   -0.55117E-02   -0.64816E-02119744   0.413E-01
RMM:  48    -0.664398096360E+03   -0.54323E-02   -0.63879E-02118801   0.402E-01
RMM:  49    -0.664403114475E+03   -0.50181E-02   -0.59343E-02117800   0.391E-01
RMM:  50    -0.664408069307E+03   -0.49548E-02   -0.58582E-02116576   0.381E-01
RMM:  51    -0.664412647968E+03   -0.45787E-02   -0.54454E-02115429   0.371E-01
RMM:  52    -0.664417176050E+03   -0.45281E-02   -0.53832E-02113946   0.362E-01
WARNING in EDDRMM: call to ZHEGV failed, returncode =   6  3     10
RMM:  53    -0.664421361839E+03   -0.41858E-02   -0.50067E-02112500   0.353E-01
RMM:  54    -0.664425507596E+03   -0.41458E-02   -0.49562E-02110691   0.345E-01
RMM:  55    -0.664429340578E+03   -0.38330E-02   -0.46116E-02109024   0.336E-01
RMM:  56    -0.664433142087E+03   -0.38015E-02   -0.45705E-02106994   0.329E-01
RMM:  57    -0.664436657306E+03   -0.35152E-02   -0.42544E-02104948   0.321E-01
RMM:  58    -0.664440148042E+03   -0.34907E-02   -0.42211E-02102810   0.314E-01
RMM:  59    -0.664443376350E+03   -0.32283E-02   -0.39307E-02100584   0.308E-01
RMM:  60    -0.664446585909E+03   -0.32096E-02   -0.39038E-02 98438   0.301E-01
 -----------------------------------------------------------------------------
|                                                                             |
|           W    W    AA    RRRRR   N    N  II  N    N   GGGG   !!!           |
|           W    W   A  A   R    R  NN   N  II  NN   N  G    G  !!!           |
|           W    W  A    A  R    R  N N  N  II  N N  N  G       !!!           |
|           W WW W  AAAAAA  RRRRR   N  N N  II  N  N N  G  GGG   !            |
|           WW  WW  A    A  R   R   N   NN  II  N   NN  G    G                |
|           W    W  A    A  R    R  N    N  II  N    N   GGGG   !!!           |
|                                                                             |
|     The electronic self-consistency was not achieved in the given           |
|     number of steps (NELM). The forces and other quantities evaluated       |
|     might not be reliable so examine the results carefully. If you find     |
|     spurious results, we suggest increasing NELM, if you were close to      |
|     convergence or switching to a different ALGO or adjusting the           |
|     density mixing parameters otherwise.                                    |
|                                                                             |
 -----------------------------------------------------------------------------

   1 F= -.66444659E+03 E0= -.66440140E+03  d E =-.903804E-01
