  64  64   0   0
  0.1107881E+02  0.8914264E-09  0.8924538E-09  0.8912548E-09  0.5000000E-15
  1.000000000000000E-004
  CAR 
 HECN                                    
     15.50788492    -51.76043691  301      9.01075180      1.00000000
    -51.760  0.0000E+00  0.0000E+00
    -51.536  0.0000E+00  0.0000E+00
    -51.312  0.0000E+00  0.0000E+00
    -51.088  0.0000E+00  0.0000E+00
    -50.864  0.0000E+00  0.0000E+00
    -50.639  0.0000E+00  0.0000E+00
    -50.415  0.0000E+00  0.0000E+00
    -50.191  0.0000E+00  0.0000E+00
    -49.967  0.0000E+00  0.0000E+00
    -49.742  0.0000E+00  0.0000E+00
    -49.518  0.0000E+00  0.0000E+00
    -49.294  0.4951E-17  0.1110E-17
    -49.070  0.9365E-08  0.2100E-08
    -48.845  0.1956E-02  0.4386E-03
    -48.621  0.1272E+00  0.2897E-01
    -48.397  0.3426E+00  0.1058E+00
    -48.173  0.1454E+00  0.1384E+00
    -47.949  0.7113E-02  0.1400E+00
    -47.724  0.2077E-06  0.1400E+00
    -47.500  0.1049E-12  0.1400E+00
    -47.276  0.5547E-05  0.1400E+00
    -47.052  0.2895E-01  0.1465E+00
    -46.827  0.2329E+00  0.1987E+00
    -46.603  0.2207E+00  0.2482E+00
    -46.379  0.5265E-01  0.2600E+00
    -46.155  0.2511E-04  0.2600E+00
    -45.931  0.1370E-11  0.2600E+00
    -45.706  0.0000E+00  0.2600E+00
    -45.482  0.0000E+00  0.2600E+00
    -45.258  0.0000E+00  0.2600E+00
    -45.034  0.0000E+00  0.2600E+00
    -44.809  0.0000E+00  0.2600E+00
    -44.585  0.0000E+00  0.2600E+00
    -44.361  0.0000E+00  0.2600E+00
    -44.137  0.0000E+00  0.2600E+00
    -43.912  0.0000E+00  0.2600E+00
    -43.688  0.0000E+00  0.2600E+00
    -43.464  0.0000E+00  0.2600E+00
    -43.240  0.0000E+00  0.2600E+00
    -43.016  0.0000E+00  0.2600E+00
    -42.791  0.0000E+00  0.2600E+00
    -42.567  0.0000E+00  0.2600E+00
    -42.343  0.0000E+00  0.2600E+00
    -42.119  0.0000E+00  0.2600E+00
    -41.894  0.0000E+00  0.2600E+00
    -41.670  0.0000E+00  0.2600E+00
    -41.446  0.0000E+00  0.2600E+00
    -41.222  0.0000E+00  0.2600E+00
    -40.998  0.0000E+00  0.2600E+00
    -40.773  0.1577E-10  0.2600E+00
    -40.549  0.8566E-04  0.2600E+00
    -40.325  0.4731E-01  0.2706E+00
    -40.101  0.1327E+00  0.3004E+00
    -39.876  0.1753E+00  0.3397E+00
    -39.652  0.1777E+00  0.3795E+00
    -39.428  0.4254E-01  0.3891E+00
    -39.204  0.4864E-01  0.4000E+00
    -38.979  0.1006E-03  0.4000E+00
    -38.755  0.2141E-10  0.4000E+00
    -38.531  0.0000E+00  0.4000E+00
    -38.307  0.0000E+00  0.4000E+00
    -38.083  0.0000E+00  0.4000E+00
    -37.858  0.0000E+00  0.4000E+00
    -37.634  0.0000E+00  0.4000E+00
    -37.410  0.0000E+00  0.4000E+00
    -37.186  0.0000E+00  0.4000E+00
    -36.961  0.0000E+00  0.4000E+00
    -36.737  0.0000E+00  0.4000E+00
    -36.513  0.0000E+00  0.4000E+00
    -36.289  0.0000E+00  0.4000E+00
    -36.064  0.0000E+00  0.4000E+00
    -35.840  0.0000E+00  0.4000E+00
    -35.616  0.0000E+00  0.4000E+00
    -35.392  0.0000E+00  0.4000E+00
    -35.168  0.0000E+00  0.4000E+00
    -34.943  0.0000E+00  0.4000E+00
    -34.719  0.0000E+00  0.4000E+00
    -34.495  0.0000E+00  0.4000E+00
    -34.271  0.0000E+00  0.4000E+00
    -34.046  0.0000E+00  0.4000E+00
    -33.822  0.0000E+00  0.4000E+00
    -33.598  0.0000E+00  0.4000E+00
    -33.374  0.0000E+00  0.4000E+00
    -33.150  0.0000E+00  0.4000E+00
    -32.925  0.0000E+00  0.4000E+00
    -32.701  0.0000E+00  0.4000E+00
    -32.477  0.0000E+00  0.4000E+00
    -32.253  0.0000E+00  0.4000E+00
    -32.028  0.0000E+00  0.4000E+00
    -31.804  0.0000E+00  0.4000E+00
    -31.580  0.0000E+00  0.4000E+00
    -31.356  0.0000E+00  0.4000E+00
    -31.131  0.0000E+00  0.4000E+00
    -30.907  0.8170E-11  0.4000E+00
    -30.683  0.6606E-04  0.4000E+00
    -30.459  0.8414E-01  0.4189E+00
    -30.235  0.6935E+00  0.5744E+00
    -30.010  0.8022E+00  0.7543E+00
    -29.786  0.2564E-01  0.7600E+00
    -29.562  0.1039E-05  0.7600E+00
    -29.338  0.5098E-14  0.7600E+00
    -29.113  0.0000E+00  0.7600E+00
    -28.889  0.0000E+00  0.7600E+00
    -28.665  0.0000E+00  0.7600E+00
    -28.441  0.0000E+00  0.7600E+00
    -28.217  0.0000E+00  0.7600E+00
    -27.992  0.0000E+00  0.7600E+00
    -27.768  0.0000E+00  0.7600E+00
    -27.544  0.0000E+00  0.7600E+00
    -27.320  0.7033E-12  0.7600E+00
    -27.095  0.1596E-04  0.7600E+00
    -26.871  0.3488E-01  0.7678E+00
    -26.647  0.3432E+00  0.8448E+00
    -26.423  0.2790E+00  0.9073E+00
    -26.198  0.4830E+00  0.1016E+01
    -25.974  0.3202E+00  0.1087E+01
    -25.750  0.1443E+00  0.1120E+01
    -25.526  0.8187E-03  0.1120E+01
    -25.302  0.8871E-03  0.1120E+01
    -25.077  0.1826E+00  0.1161E+01
    -24.853  0.8549E+00  0.1353E+01
    -24.629  0.7130E+00  0.1513E+01
    -24.405  0.1215E+00  0.1540E+01
    -24.180  0.1773E-03  0.1540E+01
    -23.956  0.4014E-10  0.1540E+01
    -23.732  0.8978E-09  0.1540E+01
    -23.508  0.6563E-03  0.1540E+01
    -23.284  0.9148E-01  0.1561E+01
    -23.059  0.4281E+00  0.1657E+01
    -22.835  0.6335E+00  0.1799E+01
    -22.611  0.4485E+00  0.1899E+01
    -22.387  0.3299E-02  0.1900E+01
    -22.162  0.8131E-08  0.1900E+01
    -21.938  0.0000E+00  0.1900E+01
    -21.714  0.0000E+00  0.1900E+01
    -21.490  0.0000E+00  0.1900E+01
    -21.265  0.0000E+00  0.1900E+01
    -21.041  0.0000E+00  0.1900E+01
    -20.817  0.0000E+00  0.1900E+01
    -20.593  0.0000E+00  0.1900E+01
    -20.369  0.0000E+00  0.1900E+01
    -20.144  0.0000E+00  0.1900E+01
    -19.920  0.0000E+00  0.1900E+01
    -19.696  0.0000E+00  0.1900E+01
    -19.472  0.0000E+00  0.1900E+01
    -19.247  0.1961E-11  0.1900E+01
    -19.023  0.3368E-04  0.1900E+01
    -18.799  0.6078E-01  0.1914E+01
    -18.575  0.2710E+00  0.1974E+01
    -18.351  0.3784E+00  0.2059E+01
    -18.126  0.5587E+00  0.2185E+01
    -17.902  0.3376E+00  0.2260E+01
    -17.678  0.1720E+00  0.2299E+01
    -17.454  0.9443E-01  0.2320E+01
    -17.229  0.1674E-03  0.2320E+01
    -17.005  0.3660E-10  0.2320E+01
    -16.781  0.0000E+00  0.2320E+01
    -16.557  0.0000E+00  0.2320E+01
    -16.332  0.0000E+00  0.2320E+01
    -16.108  0.0000E+00  0.2320E+01
    -15.884  0.0000E+00  0.2320E+01
    -15.660  0.0000E+00  0.2320E+01
    -15.436  0.0000E+00  0.2320E+01
    -15.211  0.0000E+00  0.2320E+01
    -14.987  0.0000E+00  0.2320E+01
    -14.763  0.0000E+00  0.2320E+01
    -14.539  0.0000E+00  0.2320E+01
    -14.314  0.0000E+00  0.2320E+01
    -14.090  0.0000E+00  0.2320E+01
    -13.866  0.0000E+00  0.2320E+01
    -13.642  0.0000E+00  0.2320E+01
    -13.417  0.0000E+00  0.2320E+01
    -13.193  0.0000E+00  0.2320E+01
    -12.969  0.0000E+00  0.2320E+01
    -12.745  0.0000E+00  0.2320E+01
    -12.521  0.0000E+00  0.2320E+01
    -12.296  0.0000E+00  0.2320E+01
    -12.072  0.0000E+00  0.2320E+01
    -11.848  0.0000E+00  0.2320E+01
    -11.624  0.0000E+00  0.2320E+01
    -11.399  0.0000E+00  0.2320E+01
    -11.175  0.0000E+00  0.2320E+01
    -10.951  0.0000E+00  0.2320E+01
    -10.727  0.0000E+00  0.2320E+01
    -10.503  0.0000E+00  0.2320E+01
    -10.278  0.0000E+00  0.2320E+01
    -10.054  0.0000E+00  0.2320E+01
     -9.830  0.0000E+00  0.2320E+01
     -9.606  0.0000E+00  0.2320E+01
     -9.381  0.0000E+00  0.2320E+01
     -9.157  0.0000E+00  0.2320E+01
     -8.933  0.0000E+00  0.2320E+01
     -8.709  0.0000E+00  0.2320E+01
     -8.484  0.0000E+00  0.2320E+01
     -8.260  0.0000E+00  0.2320E+01
     -8.036  0.6030E-15  0.2320E+01
     -7.812  0.8873E-07  0.2320E+01
     -7.588  0.1642E-02  0.2320E+01
     -7.363  0.5368E-01  0.2332E+01
     -7.139  0.3377E-01  0.2340E+01
     -6.915  0.9356E-02  0.2342E+01
     -6.691  0.8448E-01  0.2361E+01
     -6.466  0.1405E+00  0.2393E+01
     -6.242  0.1954E+00  0.2436E+01
     -6.018  0.2439E+00  0.2491E+01
     -5.794  0.2860E+00  0.2555E+01
     -5.570  0.3546E-01  0.2563E+01
     -5.345  0.5519E-01  0.2575E+01
     -5.121  0.1995E-01  0.2580E+01
     -4.897  0.1870E-03  0.2580E+01
     -4.673  0.7222E-09  0.2580E+01
     -4.448  0.3068E-05  0.2580E+01
     -4.224  0.5404E-02  0.2581E+01
     -4.000  0.5533E-01  0.2594E+01
     -3.776  0.2922E-01  0.2600E+01
     -3.551  0.6567E-01  0.2615E+01
     -3.327  0.8679E-01  0.2634E+01
     -3.103  0.1328E+00  0.2664E+01
     -2.879  0.1441E+00  0.2696E+01
     -2.655  0.1913E+00  0.2739E+01
     -2.430  0.1903E+00  0.2782E+01
     -2.206  0.2428E+00  0.2836E+01
     -1.982  0.2267E+00  0.2887E+01
     -1.758  0.1563E+00  0.2922E+01
     -1.533  0.1009E+00  0.2945E+01
     -1.309  0.5713E-01  0.2958E+01
     -1.085  0.9591E-02  0.2960E+01
     -0.861  0.2982E-03  0.2960E+01
     -0.637  0.1033E-07  0.2960E+01
     -0.412  0.2457E-16  0.2960E+01
     -0.188  0.0000E+00  0.2960E+01
      0.036  0.0000E+00  0.2960E+01
      0.260  0.5804E-13  0.2960E+01
      0.485  0.1287E-05  0.2960E+01
      0.709  0.2856E-02  0.2961E+01
      0.933  0.1443E-01  0.2964E+01
      1.157  0.6526E-01  0.2979E+01
      1.382  0.1002E+00  0.3001E+01
      1.606  0.1138E+00  0.3026E+01
      1.830  0.1060E+00  0.3050E+01
      2.054  0.1963E+00  0.3094E+01
      2.278  0.2679E+00  0.3154E+01
      2.503  0.2709E+00  0.3215E+01
      2.727  0.2259E+00  0.3266E+01
      2.951  0.3071E+00  0.3335E+01
      3.175  0.3798E+00  0.3420E+01
      3.400  0.3753E+00  0.3504E+01
      3.624  0.4461E+00  0.3604E+01
      3.848  0.5838E+00  0.3735E+01
      4.072  0.6222E+00  0.3874E+01
      4.296  0.6428E+00  0.4019E+01
      4.521  0.6269E+00  0.4159E+01
      4.745  0.6425E+00  0.4303E+01
      4.969  0.5587E+00  0.4428E+01
      5.193  0.4694E+00  0.4534E+01
      5.418  0.3817E+00  0.4619E+01
      5.642  0.3116E+00  0.4689E+01
      5.866  0.2429E+00  0.4744E+01
      6.090  0.2079E+00  0.4790E+01
      6.315  0.1951E+00  0.4834E+01
      6.539  0.1489E+00  0.4867E+01
      6.763  0.5456E-01  0.4880E+01
      6.987  0.8167E-01  0.4898E+01
      7.211  0.1790E+00  0.4938E+01
      7.436  0.1435E+00  0.4970E+01
      7.660  0.1547E+00  0.5005E+01
      7.884  0.1409E+00  0.5036E+01
      8.108  0.1717E+00  0.5075E+01
      8.333  0.1581E+00  0.5110E+01
      8.557  0.1854E+00  0.5152E+01
      8.781  0.2186E+00  0.5201E+01
      9.005  0.2134E+00  0.5249E+01
      9.230  0.2084E+00  0.5296E+01
      9.454  0.2252E+00  0.5346E+01
      9.678  0.2844E+00  0.5410E+01
      9.902  0.3714E+00  0.5493E+01
     10.126  0.4046E+00  0.5584E+01
     10.351  0.4467E+00  0.5684E+01
     10.575  0.4719E+00  0.5790E+01
     10.799  0.5136E+00  0.5905E+01
     11.023  0.5486E+00  0.6028E+01
     11.248  0.6073E+00  0.6164E+01
     11.472  0.5621E+00  0.6290E+01
     11.696  0.5138E+00  0.6405E+01
     11.920  0.5261E+00  0.6523E+01
     12.144  0.5179E+00  0.6640E+01
     12.369  0.3051E+00  0.6708E+01
     12.593  0.5354E-01  0.6720E+01
     12.817  0.3071E-03  0.6720E+01
     13.041  0.8797E-09  0.6720E+01
     13.266  0.0000E+00  0.6720E+01
     13.490  0.0000E+00  0.6720E+01
     13.714  0.0000E+00  0.6720E+01
     13.938  0.0000E+00  0.6720E+01
     14.163  0.0000E+00  0.6720E+01
     14.387  0.0000E+00  0.6720E+01
     14.611  0.0000E+00  0.6720E+01
     14.835  0.0000E+00  0.6720E+01
     15.059  0.0000E+00  0.6720E+01
     15.284  0.0000E+00  0.6720E+01
     15.508  0.0000E+00  0.6720E+01
