HECN                                    
           1
     8.914263    0.003696   -0.000667
     0.003696    8.924537   -0.000166
    -0.000667   -0.000166    8.912547
   Ti   Ta   Nb   N    C    Zr   W 
     7     6     6    13    19     7     6
Direct configuration=     1
   0.99985435  0.99930257  0.00110533
   0.24896024  0.99947461  0.25078298
   0.25096265  0.50061042  0.25006665
   0.50016902  0.49892802  0.00002583
   0.49931137  0.25142846  0.75069308
   0.00005126  0.50004755  0.50052452
   0.50019910  0.74858546  0.74903345
   0.99980722  0.24854759  0.25154933
   0.75158678  0.74846112  0.00009804
   0.00101066  0.25137494  0.74850509
   0.75137725  0.25157183  0.49966975
   0.99986632  0.74861995  0.74981968
   0.25042749  0.49988100  0.74996374
   0.25120655  0.25143377  0.99896495
   0.50035767  0.25158638  0.24910594
   0.75143726  0.99897350  0.25025036
   0.74875383  0.25145059  0.00037294
   0.24832263  0.74848508  0.00014878
   0.24878068  0.25025519  0.50105759
   0.24925324  0.24990827  0.25006241
   0.25105778  0.00001223  0.99917513
   0.99989498  0.25075313  0.00004097
   0.75068735  0.25001054  0.25074850
   0.74903909  0.99945724  0.99955116
   0.50047847  0.99975701  0.24977228
   0.99941005  0.49918255  0.24915694
   0.50076074  0.75117527  0.00080750
   0.99980327  0.00014237  0.74966810
   0.75105451  0.24942176  0.74924111
   0.74968751  0.00070363  0.50038507
   0.50081656  0.24961362  0.49947221
   0.50027860  0.00004285  0.75017440
   0.99924349  0.00039864  0.25107016
   0.50012106  0.24909981  0.00085879
   0.24953146  0.75001906  0.24968097
   0.24934032  0.50004026  0.99886363
   0.99926851  0.74957576  0.99974713
   0.75052199  0.74955351  0.24983303
   0.75053473  0.50057108  0.00007689
   0.50118406  0.49957993  0.25102864
   0.24859850  0.25045896  0.74993013
   0.24973005  0.00035843  0.50056622
   0.99914201  0.24903633  0.49988373
   0.24881593  0.74955534  0.75024822
   0.25099268  0.49958121  0.50117043
   0.99920284  0.75099257  0.50021522
   0.00020440  0.49984312  0.75048480
   0.75106401  0.74970764  0.75022286
   0.74898544  0.49968725  0.49993771
   0.50072770  0.74964451  0.49952090
   0.49977849  0.49997417  0.74887248
   0.50007612  0.00109887  0.00051407
   0.99981365  0.50052457  0.99983498
   0.50010206  0.74885980  0.25075461
   0.24935988  0.00009296  0.74939197
   0.49920112  0.99936223  0.49956549
   0.75062210  0.99909212  0.74973938
   0.24971927  0.74977273  0.49990062
   0.99985381  0.75175195  0.25004324
   0.74837840  0.50138377  0.24990050
   0.00111524  0.00022894  0.49840096
   0.50012727  0.50103721  0.49984297
   0.74972541  0.50146902  0.75009179
   0.75025423  0.74845043  0.49981435
HECN                                    
           1
     8.864089   -0.000833   -0.001813
    -0.000830    8.853945   -0.004037
    -0.001812   -0.004031    8.841746
   Ti   Ta   Nb   N    C    Zr   W 
     7     6     6    13    19     7     6
Direct configuration=     2
   0.99941063  0.99806132  0.00562522
   0.24521977  0.99888875  0.25133454
   0.25443438  0.50124708  0.25004586
   0.50111004  0.49618687  0.99991524
   0.49801478  0.25527645  0.75235052
   0.00070895  0.49916621  0.50102570
   0.50204645  0.74411111  0.74758197
   0.00082340  0.24380713  0.25563995
   0.75438423  0.74594522  0.99989700
   0.00292408  0.25433645  0.74465937
   0.75479906  0.25587460  0.49871458
   0.99912736  0.74579158  0.74991988
   0.25392049  0.49864536  0.75017517
   0.25440604  0.25428462  0.99779724
   0.50078404  0.25530088  0.24741108
   0.75492312  0.99695224  0.25015258
   0.74500043  0.25369295  0.00174157
   0.24422663  0.74563735  0.00161149
   0.24504168  0.25135871  0.50235299
   0.24792314  0.24982374  0.25026581
   0.24667643  0.99981300  0.00471318
   0.00000391  0.24593421  0.00017798
   0.75175061  0.25115848  0.25157521
   0.75381184  0.99823207  0.00171654
   0.49776668  0.00256168  0.24867310
   0.00128719  0.49822197  0.25444588
   0.50227301  0.74656606  0.99540788
   0.99970033  0.00062423  0.75205983
   0.74894339  0.25202798  0.74810227
   0.75267794  0.00088190  0.49821682
   0.50221288  0.25286331  0.50248644
   0.50116065  0.00018981  0.75078209
   0.00305589  0.99943298  0.24919862
   0.50031445  0.25532136  0.99836825
   0.24367503  0.74999025  0.24596717
   0.25508581  0.50061184  0.00179788
   0.99890922  0.75543846  0.00052645
   0.75523528  0.74713623  0.25135748
   0.74416454  0.50125632  0.00019090
   0.50017103  0.49543263  0.24964021
   0.25025581  0.25371448  0.74930471
   0.24471069  0.00419027  0.49388905
   0.99841644  0.25151213  0.49972635
   0.25068102  0.74633889  0.75368263
   0.25006294  0.49547223  0.49847480
   0.99389532  0.74963897  0.49910671
   0.99932845  0.49930200  0.74418318
   0.74766396  0.74483862  0.74884359
   0.75097807  0.50083164  0.49978316
   0.50612253  0.74412974  0.50655975
   0.50093117  0.50020708  0.74979101
   0.49948535  0.00283742  0.00118039
   0.99973215  0.50015159  0.00165062
   0.49935127  0.74623966  0.25003748
   0.24849357  0.00079913  0.75142219
   0.49733575  0.99936780  0.49916770
   0.75077407  0.99767232  0.75020950
   0.24853500  0.74794269  0.49864708
   0.00072951  0.75834863  0.24922871
   0.74251912  0.50492129  0.24854050
   0.00444272  0.00198394  0.49227485
   0.50055226  0.50269993  0.49976362
   0.74674557  0.50526573  0.75111976
   0.75015317  0.74351111  0.49979138
HECN                                    
           1
     8.857613   -0.001418   -0.001961
    -0.001415    8.844833   -0.004536
    -0.001960   -0.004530    8.832607
   Ti   Ta   Nb   N    C    Zr   W 
     7     6     6    13    19     7     6
Direct configuration=     3
   0.99935302  0.99790006  0.00621321
   0.24473422  0.99881231  0.25140620
   0.25488507  0.50133014  0.25004325
   0.50123201  0.49583030  0.99990071
   0.49784676  0.25577708  0.75256637
   0.00079427  0.49905161  0.50109087
   0.50228592  0.74352902  0.74739290
   0.00095506  0.24319069  0.25617191
   0.75474718  0.74561807  0.99987075
   0.00317258  0.25472165  0.74415922
   0.75524349  0.25643458  0.49859061
   0.99903126  0.74542357  0.74993274
   0.25437382  0.49848485  0.75020267
   0.25482151  0.25465566  0.99764553
   0.50083959  0.25578407  0.24719078
   0.75537546  0.99668949  0.25013980
   0.74451340  0.25398451  0.00191970
   0.24369480  0.74526667  0.00180156
   0.24455644  0.25150211  0.50252153
   0.24775049  0.24981267  0.25029225
   0.24610780  0.99978711  0.00543363
   0.00001773  0.24530728  0.00019554
   0.75188871  0.25130795  0.25168286
   0.75443131  0.99807311  0.00199828
   0.49741485  0.00292634  0.24853020
   0.00153088  0.49809742  0.25513398
   0.50246891  0.74596619  0.99470512
   0.99968705  0.00068705  0.75237104
   0.74866951  0.25236685  0.74795421
   0.75306608  0.00090517  0.49793478
   0.50239439  0.25328637  0.50287882
   0.50127516  0.00020902  0.75086118
   0.00355066  0.99930749  0.24895513
   0.50033992  0.25613067  0.99804457
   0.24291478  0.74998590  0.24548388
   0.25583168  0.50068675  0.00217978
   0.99886298  0.75620123  0.00062817
   0.75584694  0.74682213  0.25155577
   0.74333771  0.50134506  0.00020567
   0.50003923  0.49489291  0.24945931
   0.25047114  0.25413810  0.74922355
   0.24405930  0.00468809  0.49302044
   0.99832242  0.25183418  0.49970600
   0.25092296  0.74592074  0.75412932
   0.24994194  0.49493743  0.49812383
   0.99320628  0.74946245  0.49896232
   0.99921460  0.49923118  0.74336325
   0.74722227  0.74420484  0.74866380
   0.75123679  0.50098065  0.49976316
   0.50682256  0.74341301  0.50747533
   0.50108082  0.50023752  0.74991055
   0.49940879  0.00306361  0.00126717
   0.99972157  0.50010316  0.00188683
   0.49925363  0.74589869  0.24994401
   0.24838120  0.00089106  0.75168636
   0.49709361  0.99936838  0.49911591
   0.75079371  0.99748763  0.75027058
   0.24838113  0.74770445  0.49848387
   0.00084360  0.75920689  0.24912313
   0.74175877  0.50538106  0.24836366
   0.00487466  0.00221214  0.49147796
   0.50060753  0.50291627  0.49975340
   0.74635905  0.50575955  0.75125367
   0.75013973  0.74286849  0.49978811
HECN                                    
           1
     8.953581   -0.009652    0.000202
    -0.009635    8.966773   -0.006264
     0.000202   -0.006260    8.938341
   Ti   Ta   Nb   N    C    Zr   W 
     7     6     6    13    19     7     6
Direct configuration=     4
   0.99889414  0.99678065  0.01137511
   0.24075948  0.99793313  0.25129952
   0.25929109  0.50116254  0.25048700
   0.50200599  0.49403622  0.99977601
   0.49619249  0.25897836  0.75492824
   0.00174048  0.49785501  0.50070652
   0.50371374  0.73952644  0.74740186
   0.00149493  0.23912509  0.25952710
   0.75715787  0.74419871  0.99958291
   0.00506933  0.25834228  0.74087465
   0.75825368  0.26172805  0.49758764
   0.99790371  0.74179214  0.74980156
   0.25757671  0.49829622  0.75034056
   0.25933367  0.25731836  0.99612721
   0.50201086  0.25817270  0.24538553
   0.75899228  0.99418181  0.24916328
   0.73966779  0.25538878  0.00384377
   0.23972005  0.74278370  0.00205314
   0.24021320  0.25205221  0.50433610
   0.24684835  0.24992203  0.25002442
   0.24225790  0.00002200  0.01042768
   0.99992054  0.24052063  0.00011328
   0.75310905  0.25224969  0.25230978
   0.75836763  0.99726445  0.00334078
   0.49533288  0.00517085  0.24800529
   0.00268192  0.49683705  0.25938669
   0.50383387  0.74260930  0.99025236
   0.99922192  0.00158199  0.75423932
   0.74722062  0.25432821  0.74705042
   0.75513446  0.00141454  0.49683928
   0.50388783  0.25533420  0.50571500
   0.50180805  0.00063396  0.75128635
   0.00707985  0.99864862  0.24643617
   0.50015944  0.26082928  0.99492823
   0.23987981  0.74942774  0.24387455
   0.25955175  0.50126959  0.00509382
   0.99852617  0.75997497  0.00072201
   0.75806583  0.74477736  0.25248806
   0.73940061  0.50144633  0.00033057
   0.49774041  0.49394955  0.24781149
   0.25236137  0.25563770  0.74911105
   0.24130532  0.00574696  0.48851152
   0.99806991  0.25397886  0.50013611
   0.25263501  0.74407398  0.75598698
   0.24981550  0.49287600  0.49514904
   0.99004643  0.74953084  0.49825336
   0.99883269  0.49856509  0.73978785
   0.74468627  0.74191919  0.74816409
   0.75343868  0.50132848  0.49919037
   0.50867865  0.74053392  0.51171488
   0.50193489  0.50006782  0.75088501
   0.49941012  0.00453198  0.00149852
   0.99891512  0.49913846  0.00321475
   0.49854337  0.74371735  0.24945724
   0.24822162  0.00084404  0.75299317
   0.49486604  0.99905932  0.49883952
   0.75066560  0.99531698  0.75072433
   0.24765271  0.74653021  0.49871128
   0.00244435  0.76647975  0.24790744
   0.73459908  0.50757632  0.24642155
   0.00869534  0.00488848  0.48503455
   0.50177575  0.50458966  0.49968767
   0.74300642  0.50906776  0.75306913
   0.74938002  0.73613674  0.50027802
HECN                                    
           1
     8.914089   -0.006264   -0.000688
    -0.006252    8.916593   -0.005553
    -0.000688   -0.005548    8.894830
   Ti   Ta   Nb   N    C    Zr   W 
     7     6     6    13    19     7     6
Direct configuration=     5
   0.99908188  0.99723481  0.00927609
   0.24237792  0.99829149  0.25134257
   0.25749750  0.50122889  0.25030700
   0.50169156  0.49476419  0.99982693
   0.49686499  0.25767935  0.75396739
   0.00135569  0.49834040  0.50086300
   0.50313396  0.74115062  0.74739866
   0.00127699  0.24077493  0.25816309
   0.75617697  0.74477398  0.99970030
   0.00429549  0.25687215  0.74221021
   0.75702616  0.25957830  0.49799539
   0.99836408  0.74326662  0.74985507
   0.25627289  0.49837158  0.75028482
   0.25749562  0.25623596  0.99674487
   0.50153297  0.25720282  0.24611956
   0.75752070  0.99519844  0.24956093
   0.74164011  0.25482043  0.00306077
   0.24133912  0.74379304  0.00195063
   0.24198132  0.25183040  0.50359774
   0.24721555  0.24987800  0.25013323
   0.24382561  0.99992771  0.00839648
   0.99996187  0.24246365  0.00014708
   0.75261196  0.25186692  0.25205490
   0.75676558  0.99759113  0.00279531
   0.49617957  0.00426058  0.24821836
   0.00221422  0.49734790  0.25765756
   0.50327900  0.74397174  0.99206344
   0.99941112  0.00121875  0.75347948
   0.74780965  0.25353267  0.74741765
   0.75429212  0.00120709  0.49728493
   0.50327937  0.25450218  0.50456168
   0.50159100  0.00046124  0.75111348
   0.00564310  0.99891494  0.24746089
   0.50023086  0.25892234  0.99619510
   0.24111540  0.74965556  0.24452871
   0.25803738  0.50103140  0.00390917
   0.99866190  0.75844327  0.00068353
   0.75716337  0.74560647  0.25210932
   0.74100339  0.50140668  0.00027938
   0.49867645  0.49433346  0.24848141
   0.25159128  0.25502829  0.74915687
   0.24242563  0.00531852  0.49034469
   0.99817196  0.25310836  0.49996102
   0.25193890  0.74482283  0.75523188
   0.24986745  0.49371304  0.49635886
   0.99133272  0.74950432  0.49854134
   0.99898806  0.49883588  0.74124178
   0.74571948  0.74284796  0.74836721
   0.75254210  0.50118651  0.49942348
   0.50792453  0.74170158  0.50999129
   0.50158736  0.50013631  0.75048885
   0.49940905  0.00393593  0.00140433
   0.99924392  0.49953025  0.00267475
   0.49883328  0.74460309  0.24965528
   0.24828673  0.00086308  0.75246175
   0.49577297  0.99918563  0.49895171
   0.75071861  0.99619810  0.75053997
   0.24794971  0.74700711  0.49861882
   0.00178986  0.76352707  0.24840140
   0.73751279  0.50668805  0.24721042
   0.00713830  0.00380117  0.48765490
   0.50129954  0.50390998  0.49971438
   0.74437023  0.50772602  0.75233030
   0.74969185  0.73886951  0.50007924
HECN                                    
           1
     8.906541   -0.009291    0.001064
    -0.009262    8.935653   -0.005647
     0.001063   -0.005655    8.891151
   Ti   Ta   Nb   N    C    Zr   W 
     7     6     6    13    19     7     6
Direct configuration=     6
   0.99908049  0.99734247  0.01065916
   0.24181630  0.99768717  0.25069106
   0.25937455  0.50055037  0.25082179
   0.50160744  0.49553977  0.99988733
   0.49628425  0.25805585  0.75488202
   0.00197071  0.49795169  0.49969686
   0.50294003  0.74052920  0.74859709
   0.00122358  0.24089393  0.25818746
   0.75658333  0.74508192  0.99968676
   0.00476470  0.25844508  0.74213957
   0.75722073  0.26227568  0.49785073
   0.99779950  0.74134171  0.74941520
   0.25683975  0.49915922  0.75022137
   0.25937950  0.25679994  0.99606780
   0.50249141  0.25691133  0.24529794
   0.75853050  0.99396171  0.24872863
   0.73963971  0.25441073  0.00410286
   0.24023154  0.74321870  0.00109223
   0.24066854  0.25141943  0.50455336
   0.24723078  0.25004953  0.24975257
   0.24381610  0.00044606  0.00847640
   0.99971726  0.24177177  0.00006485
   0.75317211  0.25178921  0.25236052
   0.75674035  0.99766585  0.00218570
   0.49652514  0.00436765  0.24856762
   0.00171839  0.49642591  0.25730077
   0.50364664  0.74461032  0.99224965
   0.99900107  0.00176540  0.75327917
   0.74830408  0.25326946  0.74712027
   0.75414679  0.00182212  0.49793737
   0.50397381  0.25395365  0.50470505
   0.50153990  0.00083316  0.75108423
   0.00566664  0.99958184  0.24679526
   0.49987086  0.25818604  0.99548186
   0.24252259  0.74906143  0.24574461
   0.25692697  0.50113512  0.00400917
   0.99851225  0.75717918  0.00020376
   0.75619562  0.74530927  0.25191806
   0.74220833  0.50107255  0.00034234
   0.49714205  0.49653350  0.24826378
   0.25184766  0.25409833  0.74954486
   0.24371926  0.00359854  0.49145156
   0.99819860  0.25287349  0.50045361
   0.25185851  0.74538306  0.75463018
   0.25088591  0.49470334  0.49596836
   0.99197785  0.75136063  0.49860142
   0.99918731  0.49866332  0.74287015
   0.74619794  0.74450802  0.74900257
   0.75307395  0.50047535  0.49896182
   0.50582620  0.74314511  0.50840595
   0.50150581  0.49970315  0.75040561
   0.49966214  0.00414513  0.00142492
   0.99875132  0.49872709  0.00311477
   0.49850333  0.74474123  0.24958485
   0.24831114  0.00027989  0.75257170
   0.49510823  0.99915005  0.49880343
   0.75073508  0.99521345  0.75043531
   0.24784336  0.74702091  0.49966122
   0.00235306  0.76500016  0.24823938
   0.73453588  0.50609448  0.24621123
   0.00815283  0.00518725  0.48583463
   0.50230955  0.50446092  0.49939270
   0.74329107  0.50808820  0.75349812
   0.74914040  0.73497466  0.50051012
HECN                                    
           1
     8.900345   -0.011776    0.002502
    -0.011733    8.951298   -0.005725
     0.002500   -0.005743    8.888131
   Ti   Ta   Nb   N    C    Zr   W 
     7     6     6    13    19     7     6
Direct configuration=     7
   0.99907916  0.99743067  0.01179496
   0.24135483  0.99719199  0.25015612
   0.26091640  0.49999510  0.25124423
   0.50153853  0.49617504  0.99993694
   0.49580709  0.25836411  0.75563322
   0.00247607  0.49763345  0.49873911
   0.50278034  0.74002013  0.74958128
   0.00117973  0.24099140  0.25820748
   0.75691727  0.74533427  0.99967557
   0.00515064  0.25973364  0.74208149
   0.75738134  0.26448523  0.49773192
   0.99733521  0.73976482  0.74905405
   0.25730569  0.49980456  0.75016917
   0.26092749  0.25726243  0.99551147
   0.50327889  0.25667283  0.24462307
   0.75935992  0.99294894  0.24804497
   0.73799595  0.25407459  0.00495895
   0.23932157  0.74274792  0.00038747
   0.23958974  0.25108243  0.50533833
   0.24724341  0.25019004  0.24943997
   0.24380841  0.00087065  0.00854203
   0.99951612  0.24120497  0.99999736
   0.75363224  0.25172571  0.25261141
   0.75671973  0.99772705  0.00168508
   0.49680902  0.00445545  0.24885438
   0.00131083  0.49567054  0.25700783
   0.50394883  0.74513350  0.99240251
   0.99866437  0.00221305  0.75311475
   0.74871026  0.25305399  0.74687598
   0.75402745  0.00232587  0.49847319
   0.50454418  0.25350452  0.50482267
   0.50149803  0.00113779  0.75106022
   0.00568626  0.00012811  0.24624865
   0.49957501  0.25758280  0.99489619
   0.24367833  0.74857517  0.24674289
   0.25601470  0.50121978  0.00409148
   0.99838904  0.75614369  0.99980978
   0.75540049  0.74506556  0.25176114
   0.74319818  0.50079920  0.00039384
   0.49588207  0.49833518  0.24808532
   0.25205797  0.25333664  0.74986343
   0.24478143  0.00219003  0.49236030
   0.99822034  0.25268111  0.50085813
   0.25179273  0.74584192  0.75413607
   0.25172298  0.49551480  0.49564752
   0.99250838  0.75288136  0.49865067
   0.99935070  0.49852204  0.74420736
   0.74659137  0.74586796  0.74952426
   0.75351078  0.49989296  0.49858261
   0.50410294  0.74432694  0.50710440
   0.50143871  0.49934831  0.75033726
   0.49987012  0.00431657  0.00144178
   0.99834631  0.49806907  0.00347619
   0.49823231  0.74485428  0.24952707
   0.24833101  0.99980219  0.75266198
   0.49456212  0.99912072  0.49868176
   0.75074836  0.99440691  0.75034935
   0.24775582  0.74703219  0.50051727
   0.00281619  0.76620696  0.24810625
   0.73209014  0.50560744  0.24539117
   0.00898702  0.00632288  0.48433965
   0.50313955  0.50491249  0.49912838
   0.74240437  0.50838457  0.75445732
   0.74868620  0.73178415  0.50086403
HECN                                    
           1
     8.917119   -0.008463    0.000324
    -0.008450    8.930468   -0.006291
     0.000330   -0.006302    8.874441
   Ti   Ta   Nb   N    C    Zr   W 
     7     6     6    13    19     7     6
Direct configuration=     8
   0.99930740  0.99752130  0.01149011
   0.24179027  0.99660073  0.24982692
   0.26230689  0.49918472  0.25181195
   0.50134940  0.49677936  0.99998678
   0.49594237  0.25836253  0.75525922
   0.00341495  0.49724262  0.49744821
   0.50266676  0.73994847  0.74984484
   0.00186699  0.24231197  0.25756230
   0.75737734  0.74581155  0.00014041
   0.00481125  0.26074278  0.74317282
   0.75647121  0.26664745  0.49812942
   0.99695042  0.73804081  0.74809510
   0.25751319  0.49957407  0.74997153
   0.26065674  0.25720083  0.99545075
   0.50377074  0.25794126  0.24461390
   0.75870876  0.99232209  0.24764142
   0.73780451  0.25262976  0.00558211
   0.23887148  0.74265505  0.00060652
   0.24026617  0.25009975  0.50545344
   0.24757857  0.25015620  0.24928331
   0.24431786  0.00130480  0.00807384
   0.99918544  0.24107160  0.99998520
   0.75413541  0.25113683  0.25311348
   0.75651230  0.99787472  0.00106584
   0.49770881  0.00469981  0.24907505
   0.00057888  0.49479134  0.25658187
   0.50390275  0.74599339  0.99270268
   0.99850270  0.00281559  0.75262322
   0.74918449  0.25274411  0.74684648
   0.75446142  0.00311724  0.49839408
   0.50515944  0.25320898  0.50434601
   0.50138875  0.00152124  0.75113023
   0.00568264  0.00118281  0.24584463
   0.49930033  0.25743293  0.99493915
   0.24388328  0.74825322  0.24658282
   0.25526093  0.50124668  0.00361447
   0.99831361  0.75495018  0.99966996
   0.75547548  0.74453725  0.25228337
   0.74319333  0.50061099  0.00045130
   0.49441413  0.49839924  0.24790445
   0.25222099  0.25328740  0.75014592
   0.24508550  0.00197489  0.49304929
   0.99759514  0.25280323  0.50111435
   0.25159549  0.74608804  0.75451891
   0.25246880  0.49513467  0.49595807
   0.99176866  0.75474873  0.49855725
   0.99934079  0.49858331  0.74500213
   0.74652552  0.74609567  0.74952967
   0.75477213  0.49946691  0.49837718
   0.50391212  0.74503468  0.50647081
   0.50128470  0.49924053  0.75041654
   0.49971122  0.00372257  0.00166144
   0.99881280  0.49700777  0.00480878
   0.49758926  0.74659162  0.24897587
   0.24734919  0.99933867  0.75348011
   0.49542181  0.99990107  0.49865062
   0.75136535  0.99483283  0.74965203
   0.24740369  0.74728555  0.50054720
   0.00272216  0.76612183  0.24912271
   0.72997685  0.50418959  0.24430879
   0.00957144  0.00693948  0.48413631
   0.50370414  0.50576444  0.49835014
   0.74180762  0.50867831  0.75549283
   0.74800792  0.72850263  0.50107456
HECN                                    
           1
     8.920991   -0.007699   -0.000179
    -0.007692    8.925659   -0.006422
    -0.000171   -0.006432    8.871280
   Ti   Ta   Nb   N    C    Zr   W 
     7     6     6    13    19     7     6
Direct configuration=     9
   0.99935998  0.99754225  0.01141963
   0.24189065  0.99646386  0.24975081
   0.26262744  0.49899706  0.25194330
   0.50130576  0.49691923  0.99999830
   0.49597353  0.25836215  0.75517274
   0.00363128  0.49715207  0.49714975
   0.50264060  0.73993190  0.74990578
   0.00202523  0.24261751  0.25741317
   0.75748335  0.74592197  0.00024794
   0.00473302  0.26097637  0.74342518
   0.75626131  0.26714792  0.49822132
   0.99686184  0.73764185  0.74787330
   0.25756102  0.49952071  0.74992583
   0.26059434  0.25718659  0.99543669
   0.50388398  0.25823476  0.24461183
   0.75855873  0.99217707  0.24754806
   0.73776054  0.25229541  0.00572617
   0.23876777  0.74263360  0.00065714
   0.24042214  0.24987228  0.50548008
   0.24765581  0.25014834  0.24924710
   0.24443520  0.00140523  0.00796561
   0.99910924  0.24104076  0.99998236
   0.75425144  0.25100051  0.25322960
   0.75646445  0.99790890  0.00092263
   0.49791616  0.00475629  0.24912613
   0.00041024  0.49458792  0.25648332
   0.50389208  0.74619240  0.99277210
   0.99846536  0.00295504  0.75250956
   0.74929380  0.25267236  0.74683968
   0.75456135  0.00330034  0.49837582
   0.50530123  0.25314053  0.50423582
   0.50136353  0.00160999  0.75114642
   0.00568169  0.00142689  0.24575122
   0.49923705  0.25739828  0.99494906
   0.24393053  0.74817869  0.24654581
   0.25508720  0.50125296  0.00350412
   0.99829632  0.75467398  0.99963761
   0.75549284  0.74441498  0.25240413
   0.74319223  0.50056743  0.00046458
   0.49407582  0.49841419  0.24786254
   0.25225858  0.25327599  0.75021125
   0.24515563  0.00192508  0.49320862
   0.99745107  0.25283155  0.50117357
   0.25155004  0.74614503  0.75460744
   0.25264072  0.49504664  0.49602991
   0.99159802  0.75518095  0.49853563
   0.99933855  0.49859750  0.74518592
   0.74651032  0.74614838  0.74953092
   0.75506283  0.49936820  0.49832974
   0.50386804  0.74519848  0.50632430
   0.50124922  0.49921560  0.75043486
   0.49967466  0.00358512  0.00171221
   0.99892047  0.49676214  0.00511694
   0.49744089  0.74699373  0.24884839
   0.24712302  0.99923150  0.75366923
   0.49561986  0.00008159  0.49864348
   0.75150746  0.99493133  0.74949083
   0.24732252  0.74734422  0.50055411
   0.00270056  0.76610215  0.24935776
   0.72948989  0.50386163  0.24405835
   0.00970606  0.00708213  0.48408933
   0.50383414  0.50596154  0.49817022
   0.74167013  0.50874635  0.75573225
   0.74785190  0.72774326  0.50112316
HECN                                    
           1
     8.927786   -0.005232    0.001019
    -0.005207    8.953218   -0.007086
     0.001018   -0.007101    8.885291
   Ti   Ta   Nb   N    C    Zr   W 
     7     6     6    13    19     7     6
Direct configuration=    10
   0.99934084  0.99754276  0.01071250
   0.24205722  0.99624346  0.24982035
   0.26326394  0.49844167  0.25239801
   0.50098522  0.49735497  0.99980212
   0.49618854  0.25804259  0.75452343
   0.00491045  0.49675762  0.49624684
   0.50272397  0.74043026  0.74972374
   0.00268450  0.24362215  0.25723777
   0.75817338  0.74663869  0.00080835
   0.00451108  0.26136425  0.74411346
   0.75525931  0.26789124  0.49852619
   0.99645156  0.73685181  0.74670161
   0.25779767  0.49927622  0.74965686
   0.25990163  0.25685620  0.99555542
   0.50427545  0.25871213  0.24498871
   0.75827305  0.99242530  0.24733995
   0.73797942  0.25063877  0.00619285
   0.23813834  0.74273920  0.00113301
   0.24084275  0.24899568  0.50537556
   0.24822289  0.25010569  0.24928882
   0.24476242  0.00147537  0.00785610
   0.99886435  0.24095016  0.99990326
   0.75455886  0.25039349  0.25380936
   0.75643398  0.99780375  0.00039665
   0.49875385  0.00526581  0.24922776
   0.99984782  0.49426261  0.25662009
   0.50367957  0.74673796  0.99277789
   0.99845303  0.00346386  0.75218511
   0.74947034  0.25258261  0.74714908
   0.75521798  0.00414289  0.49767762
   0.50560412  0.25342719  0.50372748
   0.50136003  0.00195961  0.75123351
   0.00560514  0.00203173  0.24556034
   0.49915088  0.25770900  0.99519544
   0.24336974  0.74804334  0.24604609
   0.25501358  0.50114862  0.00328825
   0.99833031  0.75416780  0.99978984
   0.75558787  0.74342121  0.25317900
   0.74265254  0.50035720  0.00045253
   0.49332129  0.49895526  0.24753561
   0.25226321  0.25336888  0.75025076
   0.24522800  0.00233945  0.49325251
   0.99709674  0.25318316  0.50141709
   0.25122500  0.74581157  0.75518173
   0.25316838  0.49426267  0.49629340
   0.99040587  0.75595695  0.49865095
   0.99922265  0.49866518  0.74516344
   0.74608266  0.74583273  0.74935142
   0.75631940  0.49940207  0.49826738
   0.50469486  0.74545328  0.50654714
   0.50118662  0.49937608  0.75037820
   0.49967040  0.00311583  0.00133051
   0.99912274  0.49626261  0.00607451
   0.49726128  0.74780026  0.24841417
   0.24627246  0.99923007  0.75402274
   0.49641611  0.00080202  0.49907336
   0.75214769  0.99563367  0.74874034
   0.24703024  0.74788931  0.50012602
   0.00215385  0.76614946  0.25092305
   0.72788766  0.50218933  0.24316781
   0.01033692  0.00725427  0.48417121
   0.50400759  0.50595951  0.49771044
   0.74119004  0.50794673  0.75666992
   0.74759142  0.72688546  0.50106602
HECN                                    
           1
     8.926523   -0.005691    0.000796
    -0.005669    8.948097   -0.006963
     0.000797   -0.006976    8.882687
   Ti   Ta   Nb   N    C    Zr   W 
     7     6     6    13    19     7     6
Direct configuration=    11
   0.99934438  0.99754268  0.01084368
   0.24202628  0.99628429  0.24980746
   0.26314575  0.49854457  0.25231368
   0.50104476  0.49727424  0.99983850
   0.49614859  0.25810180  0.75464390
   0.00467291  0.49683077  0.49641438
   0.50270852  0.74033795  0.74975751
   0.00256214  0.24343609  0.25727031
   0.75804532  0.74650596  0.00070439
   0.00455232  0.26129238  0.74398576
   0.75544539  0.26775349  0.49846960
   0.99652767  0.73699815  0.74691897
   0.25775371  0.49932153  0.74970677
   0.26003023  0.25691736  0.99553338
   0.50420280  0.25862372  0.24491880
   0.75832610  0.99237931  0.24737855
   0.73793871  0.25094564  0.00610630
   0.23825522  0.74271960  0.00104472
   0.24076461  0.24915808  0.50539497
   0.24811760  0.25011362  0.24928109
   0.24470167  0.00146240  0.00787642
   0.99890981  0.24096693  0.99991793
   0.75450177  0.25050594  0.25370182
   0.75643962  0.99782323  0.00049423
   0.49859835  0.00517147  0.24920892
   0.99995223  0.49432284  0.25659471
   0.50371905  0.74663689  0.99277680
   0.99845534  0.00336961  0.75224529
   0.74943757  0.25259924  0.74709169
   0.75509609  0.00398686  0.49780715
   0.50554788  0.25337411  0.50382179
   0.50136070  0.00189485  0.75121735
   0.00561938  0.00191969  0.24559574
   0.49916690  0.25765144  0.99514973
   0.24347384  0.74806839  0.24613878
   0.25502723  0.50116795  0.00332830
   0.99832398  0.75426156  0.99976161
   0.75557019  0.74360529  0.25303526
   0.74275273  0.50039612  0.00045476
   0.49346140  0.49885500  0.24759623
   0.25226236  0.25335167  0.75024343
   0.24521459  0.00226269  0.49324436
   0.99716255  0.25311801  0.50137190
   0.25128535  0.74587332  0.75507518
   0.25307038  0.49440791  0.49624454
   0.99062726  0.75581315  0.49862952
   0.99924417  0.49865263  0.74516761
   0.74616204  0.74589118  0.74938472
   0.75608610  0.49939586  0.49827898
   0.50454136  0.74540612  0.50650582
   0.50119825  0.49934635  0.75038870
   0.49967115  0.00320277  0.00140133
   0.99908518  0.49635514  0.00589688
   0.49729466  0.74765086  0.24849471
   0.24643039  0.99923028  0.75395713
   0.49626832  0.00066860  0.49899362
   0.75202884  0.99550361  0.74887957
   0.24708452  0.74778833  0.50020542
   0.00225540  0.76614065  0.25063265
   0.72818503  0.50249904  0.24333300
   0.01021980  0.00722241  0.48415603
   0.50397537  0.50595991  0.49779574
   0.74127916  0.50809481  0.75649597
   0.74763973  0.72704434  0.50107662
HECN                                    
           1
     8.926935   -0.005541    0.000869
    -0.005519    8.949768   -0.007003
     0.000869   -0.007017    8.883537
   Ti   Ta   Nb   N    C    Zr   W 