<?xml version="1.0" encoding="ISO-8859-1"?>
<modeling>
 <generator>
  <i name="program" type="string">vasp </i>
  <i name="version" type="string">6.4.3  </i>
  <i name="subversion" type="string">19Mar24 (build Sep 18 2024 11:30:23) complex                          parallel </i>
  <i name="platform" type="string">LinuxIFC </i>
  <i name="date" type="string">2026 07 03 </i>
  <i name="time" type="string">22:53:00 </i>
 </generator>
 <incar>
  <i type="string" name="SYSTEM">HECN</i>
  <i type="int" name="ISTART">     0</i>
  <i type="string" name="PREC">Normal</i>
  <i type="string" name="ALGO">Fast</i>
  <i type="int" name="ICHARG">     2</i>
  <i type="int" name="NELM">    60</i>
  <i type="int" name="IBRION">     2</i>
  <i name="EDIFF">      0.00001000</i>
  <i name="EDIFFG">     -0.01000000</i>
  <i type="int" name="NSW">   100</i>
  <i type="int" name="ISIF">     3</i>
  <i name="ENCUT">    400.00000000</i>
  <i name="POTIM">      0.50000000</i>
  <i type="logical" name="LREAL"> F  </i>
  <i type="int" name="ISMEAR">     0</i>
  <i name="SIGMA">      0.10000000</i>
  <i type="logical" name="LWAVE"> F  </i>
  <i type="logical" name="LCHARG"> F  </i>
 </incar>
 <primitive_cell>
  <structure name="primitive_cell" >
   <crystal>
    <varray name="basis" >
     <v>       8.82686769      -0.01374349       0.01299476 </v>
     <v>      -0.01376161       8.80985066      -0.00242923 </v>
     <v>       0.01292094      -0.00247211       8.74797675 </v>
    </varray>
    <i name="volume">    680.26910817 </i>
    <varray name="rec_basis" >
     <v>       0.11329099       0.00017692      -0.00016728 </v>
     <v>       0.00017669       0.11350959       0.00003182 </v>
     <v>      -0.00016824       0.00003126       0.11431240 </v>
    </varray>
   </crystal>
   <varray name="positions" >
    <v>       0.99741501       0.00703296       0.00589133 </v>
    <v>       0.24192021       0.01066136       0.24801479 </v>
    <v>       0.25732136       0.48685277       0.25229574 </v>
    <v>       0.49834175       0.50047660       0.00020035 </v>
    <v>       0.49537333       0.25661728       0.75142323 </v>
    <v>       0.00855566       0.49785872       0.49344248 </v>
    <v>       0.50462719       0.74386834       0.75014156 </v>
    <v>       0.99173892       0.23765985       0.26417416 </v>
    <v>       0.76950847       0.74599851       0.00182951 </v>
    <v>       0.01474461       0.26900632       0.74487554 </v>
    <v>       0.75947228       0.26930793       0.48459477 </v>
    <v>       0.99260151       0.72551252       0.74479028 </v>
    <v>       0.26199628       0.49536078       0.74942030 </v>
    <v>       0.26901542       0.26293959       0.99019632 </v>
    <v>       0.50942887       0.26182609       0.24272095 </v>
    <v>       0.75995595       0.98650436       0.23861994 </v>
    <v>       0.72335018       0.25612896       0.01941778 </v>
    <v>       0.22642508       0.73239298       0.00460469 </v>
    <v>       0.23793667       0.24752871       0.51661487 </v>
    <v>       0.24529550       0.24891069       0.24801073 </v>
    <v>       0.24444495       0.00730427       0.00858289 </v>
    <v>       0.99669458       0.23959292       0.00094470 </v>
    <v>       0.74735956       0.24071506       0.24436573 </v>
    <v>       0.75748033       0.00368787       0.00549979 </v>
    <v>       0.50201223       0.01027012       0.24758216 </v>
    <v>       0.00446004       0.48527836       0.25814514 </v>
    <v>       0.50295413       0.74691084       0.99179961 </v>
    <v>       0.99991825       0.00518676       0.75643115 </v>
    <v>       0.75282601       0.25441090       0.74203573 </v>
    <v>       0.75501844       0.01065940       0.49172927 </v>
    <v>       0.50665785       0.25545493       0.49896604 </v>
    <v>       0.50347189       0.00374747       0.75039787 </v>
    <v>       0.99720105       0.00258334       0.24614052 </v>
    <v>       0.49671041       0.25885903       0.00103630 </v>
    <v>       0.24364397       0.74865622       0.23877328 </v>
    <v>       0.25403690       0.49935586       0.00154999 </v>
    <v>       0.00424783       0.75271377       0.99811659 </v>
    <v>       0.75462759       0.74892823       0.25191222 </v>
    <v>       0.74102473       0.49523240       0.00195121 </v>
    <v>       0.49209786       0.49231065       0.24596187 </v>
    <v>       0.25469865       0.25237044       0.75250045 </v>
    <v>       0.24926438       0.00967872       0.49347154 </v>
    <v>       0.00387758       0.25393093       0.50462335 </v>
    <v>       0.24759600       0.74207562       0.76155306 </v>
    <v>       0.25246156       0.48690552       0.49890633 </v>
    <v>       0.99284790       0.75453212       0.50145383 </v>
    <v>       0.99969650       0.49779435       0.74352344 </v>
    <v>       0.74708133       0.74892623       0.75474511 </v>
    <v>       0.75688275       0.49707257       0.49874538 </v>
    <v>       0.50430354       0.74780264       0.50637111 </v>
    <v>       0.49881039       0.50039346       0.75180925 </v>
    <v>       0.49898076       0.00241762       0.00333185 </v>
    <v>       0.99741625       0.49129059       0.00735101 </v>
    <v>       0.49790258       0.74606860       0.24623142 </v>
    <v>       0.24462154       0.99823334       0.75635872 </v>
    <v>       0.49999855       0.00635763       0.49438560 </v>
    <v>       0.75719169       0.00364849       0.74781071 </v>
    <v>       0.24795800       0.74917196       0.49772827 </v>
    <v>       0.00046310       0.77064679       0.25092577 </v>
    <v>       0.72925014       0.49473715       0.24447721 </v>
    <v>       0.01231231       0.00705173       0.48712600 </v>
    <v>       0.49803976       0.50321090       0.49736762 </v>
    <v>       0.73561092       0.50699118       0.76232786 </v>
    <v>       0.75082168       0.72438837       0.50367437 </v>
   </varray>
  </structure>
  <varray name="primitive_index" >
   <v type="int" >        1 </v>
   <v type="int" >        2 </v>
   <v type="int" >        3 </v>
   <v type="int" >        4 </v>
   <v type="int" >        5 </v>
   <v type="int" >        6 </v>
   <v type="int" >        7 </v>
   <v type="int" >        8 </v>
   <v type="int" >        9 </v>
   <v type="int" >       10 </v>
   <v type="int" >       11 </v>
   <v type="int" >       12 </v>
   <v type="int" >       13 </v>
   <v type="int" >       14 </v>
   <v type="int" >       15 </v>
   <v type="int" >       16 </v>
   <v type="int" >       17 </v>
   <v type="int" >       18 </v>
   <v type="int" >       19 </v>
   <v type="int" >       20 </v>
   <v type="int" >       21 </v>
   <v type="int" >       22 </v>
   <v type="int" >       23 </v>
   <v type="int" >       24 </v>
   <v type="int" >       25 </v>
   <v type="int" >       26 </v>
   <v type="int" >       27 </v>
   <v type="int" >       28 </v>
   <v type="int" >       29 </v>
   <v type="int" >       30 </v>
   <v type="int" >       31 </v>
   <v type="int" >       32 </v>
   <v type="int" >       33 </v>
   <v type="int" >       34 </v>
   <v type="int" >       35 </v>
   <v type="int" >       36 </v>
   <v type="int" >       37 </v>
   <v type="int" >       38 </v>
   <v type="int" >       39 </v>
   <v type="int" >       40 </v>
   <v type="int" >       41 </v>
   <v type="int" >       42 </v>
   <v type="int" >       43 </v>
   <v type="int" >       44 </v>
   <v type="int" >       45 </v>
   <v type="int" >       46 </v>
   <v type="int" >       47 </v>
   <v type="int" >       48 </v>
   <v type="int" >       49 </v>
   <v type="int" >       50 </v>
   <v type="int" >       51 </v>
   <v type="int" >       52 </v>
   <v type="int" >       53 </v>
   <v type="int" >       54 </v>
   <v type="int" >       55 </v>
   <v type="int" >       56 </v>
   <v type="int" >       57 </v>
   <v type="int" >       58 </v>
   <v type="int" >       59 </v>
   <v type="int" >       60 </v>
   <v type="int" >       61 </v>
   <v type="int" >       62 </v>
   <v type="int" >       63 </v>
   <v type="int" >       64 </v>
  </varray>
 </primitive_cell>
 <kpoints>
  <generation param="Gamma">
   <v type="int" name="divisions">       3        3        3 </v>
   <v name="usershift">      0.00000000       0.00000000       0.00000000 </v>
   <v name="genvec1">      0.33333333      -0.00000000       0.00000000 </v>
   <v name="genvec2">      0.00000000       0.33333333      -0.00000000 </v>
   <v name="genvec3">     -0.00000000       0.00000000       0.33333333 </v>
   <v name="shift">      0.00000000       0.00000000       0.00000000 </v>
  </generation>
  <varray name="kpointlist" >
   <v>       0.00000000       0.00000000       0.00000000 </v>
   <v>       0.33333333       0.00000000       0.00000000 </v>
   <v>      -0.00000000       0.33333333       0.00000000 </v>
   <v>       0.33333333       0.33333333       0.00000000 </v>
   <v>      -0.33333333       0.33333333       0.00000000 </v>
   <v>      -0.00000000       0.00000000       0.33333333 </v>
   <v>       0.33333333      -0.00000000       0.33333333 </v>
   <v>      -0.33333333      -0.00000000       0.33333333 </v>
   <v>       0.00000000       0.33333333       0.33333333 </v>
   <v>       0.33333333       0.33333333       0.33333333 </v>
   <v>      -0.33333333       0.33333333       0.33333333 </v>
   <v>       0.00000000      -0.33333333       0.33333333 </v>
   <v>       0.33333333      -0.33333333       0.33333333 </v>
   <v>      -0.33333333      -0.33333333       0.33333333 </v>
  </varray>
  <varray name="weights" >
   <v>       0.03703704 </v>
   <v>       0.07407407 </v>
   <v>       0.07407407 </v>
   <v>       0.07407407 </v>
   <v>       0.07407407 </v>
   <v>       0.07407407 </v>
   <v>       0.07407407 </v>
   <v>       0.07407407 </v>
   <v>       0.07407407 </v>
   <v>       0.07407407 </v>
   <v>       0.07407407 </v>
   <v>       0.07407407 </v>
   <v>       0.07407407 </v>
   <v>       0.07407407 </v>
  </varray>
 </kpoints>
 <parameters>
  <separator name="general" >
   <i type="string" name="SYSTEM">HECN</i>
   <i type="logical" name="LCOMPAT"> F  </i>
  </separator>
  <separator name="electronic" >
   <i type="string" name="PREC">normal</i>
   <i name="ENMAX">    400.00000000</i>
   <i name="ENAUG">    644.87300000</i>
   <i name="EDIFF">      0.00001000</i>
   <i type="int" name="IALGO">    68</i>
   <i type="int" name="IWAVPR">    11</i>
   <i type="int" name="NBANDS">   308</i>
   <i type="int" name="NBANDSLOW">    -1</i>
   <i type="int" name="NBANDSHIGH">    -1</i>
   <i name="NELECT">    495.00000000</i>
   <i type="int" name="TURBO">     0</i>
   <i type="int" name="IRESTART">     0</i>
   <i type="int" name="NREBOOT">     0</i>
   <i type="int" name="NMIN">     0</i>
   <i name="EREF">      0.00000000</i>
   <separator name="electronic smearing" >
    <i type="int" name="ISMEAR">     0</i>
    <i name="SIGMA">      0.10000000</i>
    <i name="KSPACING">      0.50000000</i>
    <i type="logical" name="KGAMMA"> T  </i>
    <i type="logical" name="KBLOWUP"> T  </i>
   </separator>
   <separator name="electronic projectors" >
    <i type="logical" name="LREAL"> F  </i>
    <v name="ROPT">      0.00000000      0.00000000      0.00000000      0.00000000      0.00000000      0.00000000      0.00000000</v>
    <i type="int" name="LMAXPAW">  -100</i>
    <i type="int" name="LMAXMIX">     2</i>
    <i type="logical" name="NLSPLINE"> F  </i>
   </separator>
   <separator name="electronic startup" >
    <i type="int" name="ISTART">     0</i>
    <i type="int" name="ICHARG">     2</i>
    <i type="int" name="INIWAV">     1</i>
   </separator>
   <separator name="electronic spin" >
    <i type="int" name="ISPIN">     1</i>
    <i type="logical" name="LNONCOLLINEAR"> F  </i>
    <v name="MAGMOM">      1.00000000      1.00000000      1.00000000      1.00000000      1.00000000      1.00000000      1.00000000      1.00000000      1.00000000      1.00000000      1.00000000      1.00000000      1.00000000      1.00000000      1.00000000      1.00000000      1.00000000      1.00000000      1.00000000      1.00000000
      1.00000000      1.00000000      1.00000000      1.00000000      1.00000000      1.00000000      1.00000000      1.00000000      1.00000000      1.00000000      1.00000000      1.00000000      1.00000000      1.00000000      1.00000000      1.00000000      1.00000000      1.00000000      1.00000000      1.00000000
      1.00000000      1.00000000      1.00000000      1.00000000      1.00000000      1.00000000      1.00000000      1.00000000      1.00000000      1.00000000      1.00000000      1.00000000      1.00000000      1.00000000      1.00000000      1.00000000      1.00000000      1.00000000      1.00000000      1.00000000
      1.00000000      1.00000000      1.00000000      1.00000000</v>
    <i name="NUPDOWN">     -1.00000000</i>
    <i type="logical" name="LSORBIT"> F  </i>
    <v name="SAXIS">      0.00000000      0.00000000      1.00000000</v>
    <i type="logical" name="LSPIRAL"> F  </i>
    <v name="QSPIRAL">      0.00000000      0.00000000      0.00000000</v>
    <i type="logical" name="LZEROZ"> F  </i>
   </separator>
   <separator name="electronic exchange-correlation" >
    <i type="logical" name="LASPH"> F  </i>
   </separator>
   <separator name="electronic convergence" >
    <i type="int" name="NELM">    60</i>
    <i type="int" name="NELMDL">    -5</i>
    <i type="int" name="NELMIN">     2</i>
    <i name="ENINI">    400.00000000</i>
    <separator name="electronic convergence detail" >
     <i type="logical" name="LDIAG"> T  </i>
     <i type="logical" name="LSUBROT"> F  </i>
     <i name="WEIMIN">      0.00100000</i>
     <i name="EBREAK">      0.00000001</i>
     <i name="DEPER">      0.30000000</i>
     <i type="int" name="NRMM">     4</i>
     <i name="TIME">      0.40000000</i>
    </separator>
   </separator>
   <separator name="electronic mixer" >
    <i name="AMIX">      0.40000000</i>
    <i name="BMIX">      1.00000000</i>
    <i name="AMIN">      0.10000000</i>
    <i name="AMIX_MAG">      1.60000000</i>
    <i name="BMIX_MAG">      1.00000000</i>
    <separator name="electronic mixer details" >
     <i type="int" name="IMIX">     4</i>
     <i type="logical" name="MIXFIRST"> F  </i>
     <i type="int" name="MAXMIX">   -45</i>
     <i name="WC">    100.00000000</i>
     <i type="int" name="INIMIX">     1</i>
     <i type="int" name="MIXPRE">     1</i>
     <i type="int" name="MREMOVE">     5</i>
    </separator>
   </separator>
   <separator name="electronic dipolcorrection" >
    <i type="logical" name="LDIPOL"> F  </i>
    <i type="logical" name="LMONO"> F  </i>
    <i type="int" name="IDIPOL">     0</i>
    <i name="EPSILON">      1.00000000</i>
    <v name="DIPOL">   -100.00000000   -100.00000000   -100.00000000</v>
    <i name="EFIELD">      0.00000000</i>
    <i type="logical" name="LVACPOTAV"> F  </i>
   </separator>
  </separator>
  <separator name="grids" >
   <i type="int" name="NGX">    48</i>
   <i type="int" name="NGY">    48</i>
   <i type="int" name="NGZ">    48</i>
   <i type="int" name="NGXF">    96</i>
   <i type="int" name="NGYF">    96</i>
   <i type="int" name="NGZF">    96</i>
   <i type="logical" name="ADDGRID"> F  </i>
  </separator>
  <separator name="ionic" >
   <i type="int" name="NSW">   100</i>
   <i type="int" name="IBRION">     2</i>
   <i type="int" name="MDALGO">     0</i>
   <i type="int" name="ISIF">     3</i>
   <i name="PSTRESS">      0.00000000</i>
   <i name="EDIFFG">     -0.01000000</i>
   <i type="int" name="NFREE">     1</i>
   <i name="POTIM">      0.50000000</i>
   <i name="SMASS">     -3.00000000</i>
   <i name="SCALEE">      1.00000000</i>
  </separator>
  <separator name="ionic md" >
   <i name="TEBEG">      0.00010000</i>
   <i name="TEEND">      0.00010000</i>
   <i type="int" name="NBLOCK">     1</i>
   <i type="int" name="KBLOCK">   100</i>
   <i type="int" name="NPACO">   256</i>
   <i name="APACO">     10.00000000</i>
  </separator>
  <separator name="symmetry" >
   <i type="int" name="ISYM">     2</i>
   <i name="SYMPREC">      0.00001000</i>
  </separator>
  <separator name="dos" >
   <i type="int" name="LORBIT">     0</i>
   <v name="RWIGS">     -1.00000000     -1.00000000     -1.00000000     -1.00000000     -1.00000000     -1.00000000     -1.00000000</v>
   <i type="int" name="NEDOS">   301</i>
   <i name="EMIN">     10.00000000</i>
   <i name="EMAX">    -10.00000000</i>
   <i name="EFERMI">      0.00000000</i>
  </separator>
  <separator name="writing" >
   <i type="int" name="NWRITE">     2</i>
   <i type="logical" name="LWAVE"> F  </i>
   <i type="logical" name="LDOWNSAMPLE"> F  </i>
   <i type="logical" name="LCHARG"> F  </i>
   <i type="logical" name="LPARD"> F  </i>
   <i type="logical" name="LVTOT"> F  </i>
   <i type="logical" name="LVHAR"> F  </i>
   <i type="logical" name="LELF"> F  </i>
   <i type="logical" name="LOPTICS"> F  </i>
   <v name="STM">      0.00000000      0.00000000      0.00000000      0.00000000      0.00000000      0.00000000      0.00000000</v>
  </separator>
  <separator name="performance" >
   <i type="int" name="NPAR">    28</i>
   <i type="int" name="NSIM">     4</i>
   <i type="int" name="NBLK">    -1</i>
   <i type="logical" name="LPLANE"> T  </i>
   <i type="logical" name="LSCALAPACK"> T  </i>
   <i type="logical" name="LSCAAWARE"> F  </i>
   <i type="logical" name="LSCALU"> F  </i>
   <i type="logical" name="LASYNC"> F  </i>
   <i type="logical" name="LORBITALREAL"> F  </i>
  </separator>
  <separator name="miscellaneous" >
   <i type="int" name="IDIOT">     3</i>
   <i type="int" name="PHON_NSTRUCT">    -1</i>
   <i type="logical" name="LMUSIC"> F  </i>
   <v name="POMASS">     47.88000000    183.85000000     50.94100000     14.00100000     12.01100000     91.22400000     95.94000000</v>
   <v name="DARWINR">      0.00000000      0.00000000      0.00000000      0.00000000      0.00000000      0.00000000      0.00000000</v>
   <v name="DARWINV">      1.00000000      1.00000000      1.00000000      1.00000000      1.00000000      1.00000000      1.00000000</v>
   <i type="logical" name="LCORR"> T  </i>
  </separator>
  <i type="logical" name="GGA_COMPAT"> T  </i>
  <i type="logical" name="LBERRY"> F  </i>
  <i type="int" name="ICORELEVEL">     0</i>
  <i type="logical" name="LDAU"> F  </i>
  <i type="int" name="I_CONSTRAINED_M">     0</i>
  <separator name="electronic exchange-correlation" >
   <i type="string" name="GGA    ">PE</i>
   <i type="string" name="XC_C">1</i>
   <i type="int" name="VOSKOWN">     0</i>
   <i type="logical" name="LHFCALC"> F  </i>
   <i type="string" name="PRECFOCK"></i>
   <i type="logical" name="LSYMGRAD"> F  </i>
   <i type="logical" name="LHFONE"> F  </i>
   <i type="logical" name="LRHFCALC"> F  </i>
   <i type="logical" name="LTHOMAS"> F  </i>
   <i type="logical" name="LMODELHF"> F  </i>
   <i type="logical" name="LFOCKACE"> F  </i>
   <i name="ENCUT4O">     -1.00000000</i>
   <i type="int" name="EXXOEP">     0</i>
   <i type="int" name="FOURORBIT">     0</i>
   <i name="AEXX">      0.00000000</i>
   <i name="HFALPHA">      0.00000000</i>
   <i name="MCALPHA">      0.00000000</i>
   <i name="ALDAX">      1.00000000</i>
   <i name="AGGAX">      1.00000000</i>
   <i name="AMGGAX">      1.00000000</i>
   <i name="ALDAC">      1.00000000</i>
   <i name="AGGAC">      1.00000000</i>
   <i name="AMGGAC">      1.00000000</i>
   <i type="int" name="NKREDX">     1</i>
   <i type="int" name="NKREDY">     1</i>
   <i type="int" name="NKREDZ">     1</i>
   <i type="logical" name="SHIFTRED"> F  </i>
   <i type="logical" name="ODDONLY"> F  </i>
   <i type="logical" name="EVENONLY"> F  </i>
   <i type="int" name="LMAXFOCK">     0</i>
   <i type="int" name="NMAXFOCKAE">     0</i>
   <i type="logical" name="LFOCKAEDFT"> F  </i>
   <i name="HFSCREEN">      0.00000000</i>
   <i name="HFSCREENC">      0.00000000</i>
   <i type="int" name="NBANDSGWLOW">     0</i>
  </separator>
  <separator name="vdW DFT" >
   <i type="logical" name="LUSE_VDW"> F  </i>
   <i type="int" name="IVDW_NL">    -1</i>
   <i type="logical" name="LSPIN_VDW"> F  </i>
   <i name="ZAB_VDW">     -0.84910000</i>
   <i name="GAMMA_VDW">      1.39626340</i>
   <i name="ALPHA_VDW">      0.00000000</i>
   <i name="PARAM1">      0.12340000</i>
   <i name="PARAM2">      1.00000000</i>
   <i name="BPARAM">      6.30000000</i>
   <i name="CPARAM">      0.00930000</i>
  </separator>
  <separator name="model GW" >
   <i type="int" name="MODEL_GW">     0</i>
   <i name="MODEL_EPS0">      6.37752289</i>
   <i name="MODEL_ALPHA">      1.00000000</i>
  </separator>
  <separator name="linear response parameters" >
   <i type="logical" name="LEPSILON"> F  </i>
   <i type="logical" name="LRPA"> F  </i>
   <i type="logical" name="LNABLA"> F  </i>
   <i type="logical" name="LVEL"> F  </i>
   <i name="CSHIFT">      0.10000000</i>
   <i name="OMEGAMAX">     -1.00000000</i>
   <i name="DEG_THRESHOLD">      0.00200000</i>
   <i name="RTIME">     -0.10000000</i>
   <i name="WPLASMAI">      0.00000000</i>
   <v name="DFIELD">      0.00000000      0.00000000      0.00000000</v>
   <v name="WPLASMA">      0.00000000      0.00000000      0.00000000      0.00000000      0.00000000      0.00000000      0.00000000      0.00000000      0.00000000</v>
  </separator>
  <separator name="orbital magnetization" >
   <i type="logical" name="NUCIND"> F  </i>
   <v name="MAGPOS">      0.00000000      0.00000000      0.00000000</v>
   <i type="logical" name="LNICSALL"> T  </i>
   <i type="logical" name="ORBITALMAG"> F  </i>
   <i type="logical" name="LMAGBLOCH"> F  </i>
   <i type="logical" name="LCHIMAG"> F  </i>
   <i type="logical" name="LGAUGE"> T  </i>
   <i type="int" name="MAGATOM">     0</i>
   <v name="MAGDIPOL">      0.00000000      0.00000000      0.00000000</v>
   <v name="AVECCONST">      0.00000000      0.00000000      0.00000000</v>
  </separator>
  <separator name="response functions" >
   <i type="logical" name="LALL_IN_ONE"> F  </i>
   <i type="int" name="IALL_IN_ONE">    -1</i>
   <i type="int" name="NBANDS_WAVE">    -1</i>
   <i type="logical" name="LFINITE_TEMPERATURE"> F  </i>
   <i type="logical" name="LADDER"> F  </i>
   <i type="logical" name="LRPAFORCE"> F  </i>
   <i type="logical" name="LFXC"> F  </i>
   <i type="logical" name="LHARTREE"> T  </i>
   <i type="int" name="IBSE">     0</i>
   <v type="int" name="KPOINT">    -1     0     0     0</v>
   <i type="logical" name="LTCTC"> F  </i>
   <i type="logical" name="LTCTE"> F  </i>
   <i type="logical" name="LTETE"> F  </i>
   <i type="logical" name="LTRIPLET"> F  </i>
   <i type="logical" name="LFXCEPS"> F  </i>
   <i type="logical" name="LFXHEG"> F  </i>
   <i type="int" name="NATURALO">     2</i>
   <i type="logical" name="LHOLEGF"> F  </i>
   <i type="logical" name="L2ORDER"> F  </i>
   <i type="logical" name="LDMP1"> F  </i>
   <i type="logical" name="LMP2LT"> F  </i>
   <i type="logical" name="LSMP2LT"> F  </i>
   <i type="logical" name="LGWLF"> F  </i>
   <i name="ENCUTGW">     -1.60000002</i>
   <i name="ENCUTGWSOFT">     -1.60000002</i>
   <i name="ENCUTLF">     -1.00000000</i>
   <i type="logical" name="ESF_SPLINES"> F  </i>
   <i name="ESF_CONV">      0.01000000</i>
   <i type="int" name="ESF_NINTER">    15</i>
   <i type="int" name="LMAXMP2">    -1</i>
   <i name="SCISSOR">      0.00000000</i>
   <i type="int" name="NOMEGA">     0</i>
   <i type="int" name="NOMEGAR">     0</i>
   <i type="int" name="NBANDSGW">    -1</i>
   <i type="int" name="NBANDSO">    -1</i>
   <i type="int" name="NBANDSV">    -1</i>
   <i type="int" name="NELMGW">     1</i>
   <i type="int" name="NELMHF">     1</i>
   <i type="int" name="DIM">     3</i>
   <i type="int" name="IESPILON">     4</i>
   <i type="int" name="ANTIRES">     0</i>
   <i name="OMEGAMAX">    -30.00000000</i>
   <i name="OMEGAMIN">    -30.00000000</i>
   <i name="OMEGATL">   -200.00000000</i>
   <i type="int" name="OMEGAGRID">     0</i>
   <i name="CSHIFT">     -0.10000000</i>
   <i type="logical" name="LSELFENERGY"> F  </i>
   <i type="logical" name="LSPECTRAL"> F  </i>
   <i type="logical" name="LSPECTRALGW"> F  </i>
   <i type="logical" name="LSINGLES"> F  </i>
   <i type="logical" name="LFERMIGW"> F  </i>
   <i type="logical" name="ODDONLYGW"> F  </i>
   <i type="logical" name="EVENONLYGW"> F  </i>
   <i type="int" name="NKREDLFX">     1</i>
   <i type="int" name="NKREDLFY">     1</i>
   <i type="int" name="NKREDLFZ">     1</i>
   <i type="int" name="MAXMEM">  2800</i>
   <i type="int" name="TELESCOPE">     0</i>
   <i type="int" name="NTAUPAR">    -1</i>
   <i type="int" name="NOMEGAPAR">    -1</i>
   <i name="DAMP_NEWTON">      0.80000001</i>
   <i name="LAMBDA">      1.00000000</i>
  </separator>
  <separator name="External order field" >
   <i name="OFIELD_KAPPA">      0.00000000</i>
   <v name="OFIELD_K">      0.00000000      0.00000000      0.00000000</v>
   <i name="OFIELD_Q6_NEAR">      0.00000000</i>
   <i name="OFIELD_Q6_FAR">      0.00000000</i>
   <i name="OFIELD_A">      0.00000000</i>
  </separator>
  <separator name="optional k-points parameters" >
   <i type="int" name="KPOINTS_OPT_MODE">     1</i>
   <i type="logical" name="LKPOINTS_OPT"> F  </i>
  </separator>
  <separator name="solvation model" >
   <i type="logical" name="LSOL"> F  </i>
  </separator>
 </parameters>
 <atominfo>
  <atoms>      64 </atoms>
  <types>       7 </types>
  <array name="atoms" >
   <dimension dim="1">ion</dimension>
   <field type="string">element</field>
   <field type="int">atomtype</field>
   <set>
    <rc><c>Ti</c><c>   1</c></rc>
    <rc><c>Ti</c><c>   1</c></rc>
    <rc><c>Ti</c><c>   1</c></rc>
    <rc><c>Ti</c><c>   1</c></rc>
    <rc><c>Ti</c><c>   1</c></rc>
    <rc><c>Ti</c><c>   1</c></rc>
    <rc><c>Ti</c><c>   1</c></rc>
    <rc><c>W </c><c>   2</c></rc>
    <rc><c>W </c><c>   2</c></rc>
    <rc><c>W </c><c>   2</c></rc>
    <rc><c>W </c><c>   2</c></rc>
    <rc><c>W </c><c>   2</c></rc>
    <rc><c>W </c><c>   2</c></rc>
    <rc><c>V </c><c>   3</c></rc>
    <rc><c>V </c><c>   3</c></rc>
    <rc><c>V </c><c>   3</c></rc>
    <rc><c>V </c><c>   3</c></rc>
    <rc><c>V </c><c>   3</c></rc>
    <rc><c>V </c><c>   3</c></rc>
    <rc><c>N </c><c>   4</c></rc>
    <rc><c>N </c><c>   4</c></rc>
    <rc><c>N </c><c>   4</c></rc>
    <rc><c>N </c><c>   4</c></rc>
    <rc><c>N </c><c>   4</c></rc>
    <rc><c>N </c><c>   4</c></rc>
    <rc><c>N </c><c>   4</c></rc>
    <rc><c>N </c><c>   4</c></rc>
    <rc><c>N </c><c>   4</c></rc>
    <rc><c>N </c><c>   4</c></rc>
    <rc><c>N </c><c>   4</c></rc>
    <rc><c>N </c><c>   4</c></rc>
    <rc><c>N </c><c>   4</c></rc>
    <rc><c>C </c><c>   5</c></rc>
    <rc><c>C </c><c>   5</c></rc>
    <rc><c>C </c><c>   5</c></rc>
    <rc><c>C </c><c>   5</c></rc>
    <rc><c>C </c><c>   5</c></rc>
    <rc><c>C </c><c>   5</c></rc>
    <rc><c>C </c><c>   5</c></rc>
    <rc><c>C </c><c>   5</c></rc>
    <rc><c>C </c><c>   5</c></rc>
    <rc><c>C </c><c>   5</c></rc>
    <rc><c>C </c><c>   5</c></rc>
    <rc><c>C </c><c>   5</c></rc>
    <rc><c>C </c><c>   5</c></rc>
    <rc><c>C </c><c>   5</c></rc>
    <rc><c>C </c><c>   5</c></rc>
    <rc><c>C </c><c>   5</c></rc>
    <rc><c>C </c><c>   5</c></rc>
    <rc><c>C </c><c>   5</c></rc>
    <rc><c>C </c><c>   5</c></rc>
    <rc><c>Zr</c><c>   6</c></rc>
    <rc><c>Zr</c><c>   6</c></rc>
    <rc><c>Zr</c><c>   6</c></rc>
    <rc><c>Zr</c><c>   6</c></rc>
    <rc><c>Zr</c><c>   6</c></rc>
    <rc><c>Zr</c><c>   6</c></rc>
    <rc><c>Zr</c><c>   6</c></rc>
    <rc><c>Mo</c><c>   7</c></rc>
    <rc><c>Mo</c><c>   7</c></rc>
    <rc><c>Mo</c><c>   7</c></rc>
    <rc><c>Mo</c><c>   7</c></rc>
    <rc><c>Mo</c><c>   7</c></rc>
    <rc><c>Mo</c><c>   7</c></rc>
   </set>
  </array>
  <array name="atomtypes" >
   <dimension dim="1">type</dimension>
   <field type="int">atomspertype</field>
   <field type="string">element</field>
   <field>mass</field>
   <field>valence</field>
   <field type="string">pseudopotential</field>
   <set>
    <rc><c>   7</c><c>Ti</c><c>     47.88000000</c><c>     12.00000000</c><c> PAW_PBE Ti_sv 07Sep2000                </c></rc>
    <rc><c>   6</c><c>W </c><c>    183.85000000</c><c>     12.00000000</c><c> PAW_PBE W_pv 06Sep2000                 </c></rc>
    <rc><c>   6</c><c>V </c><c>     50.94100000</c><c>     13.00000000</c><c> PAW_PBE V_sv 07Sep2000                 </c></rc>
    <rc><c>  13</c><c>N </c><c>     14.00100000</c><c>      5.00000000</c><c> PAW_PBE N 08Apr2002                    </c></rc>
    <rc><c>  19</c><c>C </c><c>     12.01100000</c><c>      4.00000000</c><c> PAW_PBE C 08Apr2002                    </c></rc>
    <rc><c>   7</c><c>Zr</c><c>     91.22400000</c><c>     12.00000000</c><c> PAW_PBE Zr_sv 07Sep2000                </c></rc>
    <rc><c>   6</c><c>Mo</c><c>     95.94000000</c><c>      6.00000000</c><c> PAW_PBE Mo 08Apr2002                   </c></rc>
   </set>
  </array>
 </atominfo>
 <structure name="initialpos" >
  <crystal>
   <varray name="basis" >
    <v>       8.82686769      -0.01374349       0.01299476 </v>
    <v>      -0.01376161       8.80985066      -0.00242923 </v>
    <v>       0.01292094      -0.00247211       8.74797675 </v>
   </varray>
   <i name="volume">    680.26910817 </i>
   <varray name="rec_basis" >
    <v>       0.11329099       0.00017692      -0.00016728 </v>
    <v>       0.00017669       0.11350959       0.00003182 </v>
    <v>      -0.00016824       0.00003126       0.11431240 </v>
   </varray>
  </crystal>
  <varray name="positions" >
   <v>       0.99741501       0.00703296       0.00589133 </v>
   <v>       0.24192021       0.01066136       0.24801479 </v>
   <v>       0.25732136       0.48685277       0.25229574 </v>
   <v>       0.49834175       0.50047660       0.00020035 </v>
   <v>       0.49537333       0.25661728       0.75142323 </v>
   <v>       0.00855566       0.49785872       0.49344248 </v>
   <v>       0.50462719       0.74386834       0.75014156 </v>
   <v>       0.99173892       0.23765985       0.26417416 </v>
   <v>       0.76950847       0.74599851       0.00182951 </v>
   <v>       0.01474461       0.26900632       0.74487554 </v>
   <v>       0.75947228       0.26930793       0.48459477 </v>
   <v>       0.99260151       0.72551252       0.74479028 </v>
   <v>       0.26199628       0.49536078       0.74942030 </v>
   <v>       0.26901542       0.26293959       0.99019632 </v>
   <v>       0.50942887       0.26182609       0.24272095 </v>
   <v>       0.75995595       0.98650436       0.23861994 </v>
   <v>       0.72335018       0.25612896       0.01941778 </v>
   <v>       0.22642508       0.73239298       0.00460469 </v>
   <v>       0.23793667       0.24752871       0.51661487 </v>
   <v>       0.24529550       0.24891069       0.24801073 </v>
   <v>       0.24444495       0.00730427       0.00858289 </v>
   <v>       0.99669458       0.23959292       0.00094470 </v>
   <v>       0.74735956       0.24071506       0.24436573 </v>
   <v>       0.75748033       0.00368787       0.00549979 </v>
   <v>       0.50201223       0.01027012       0.24758216 </v>
   <v>       0.00446004       0.48527836       0.25814514 </v>
   <v>       0.50295413       0.74691084       0.99179961 </v>
   <v>       0.99991825       0.00518676       0.75643115 </v>
   <v>       0.75282601       0.25441090       0.74203573 </v>
   <v>       0.75501844       0.01065940       0.49172927 </v>
   <v>       0.50665785       0.25545493       0.49896604 </v>
   <v>       0.50347189       0.00374747       0.75039787 </v>
   <v>       0.99720105       0.00258334       0.24614052 </v>
   <v>       0.49671041       0.25885903       0.00103630 </v>
   <v>       0.24364397       0.74865622       0.23877328 </v>
   <v>       0.25403690       0.49935586       0.00154999 </v>
   <v>       0.00424783       0.75271377       0.99811659 </v>
   <v>       0.75462759       0.74892823       0.25191222 </v>
   <v>       0.74102473       0.49523240       0.00195121 </v>
   <v>       0.49209786       0.49231065       0.24596187 </v>
   <v>       0.25469865       0.25237044       0.75250045 </v>
   <v>       0.24926438       0.00967872       0.49347154 </v>
   <v>       0.00387758       0.25393093       0.50462335 </v>
   <v>       0.24759600       0.74207562       0.76155306 </v>
   <v>       0.25246156       0.48690552       0.49890633 </v>
   <v>       0.99284790       0.75453212       0.50145383 </v>
   <v>       0.99969650       0.49779435       0.74352344 </v>
   <v>       0.74708133       0.74892623       0.75474511 </v>
   <v>       0.75688275       0.49707257       0.49874538 </v>
   <v>       0.50430354       0.74780264       0.50637111 </v>
   <v>       0.49881039       0.50039346       0.75180925 </v>
   <v>       0.49898076       0.00241762       0.00333185 </v>
   <v>       0.99741625       0.49129059       0.00735101 </v>
   <v>       0.49790258       0.74606860       0.24623142 </v>
   <v>       0.24462154       0.99823334       0.75635872 </v>
   <v>       0.49999855       0.00635763       0.49438560 </v>
   <v>       0.75719169       0.00364849       0.74781071 </v>
   <v>       0.24795800       0.74917196       0.49772827 </v>
   <v>       0.00046310       0.77064679       0.25092577 </v>
   <v>       0.72925014       0.49473715       0.24447721 </v>
   <v>       0.01231231       0.00705173       0.48712600 </v>
   <v>       0.49803976       0.50321090       0.49736762 </v>
   <v>       0.73561092       0.50699118       0.76232786 </v>
   <v>       0.75082168       0.72438837       0.50367437 </v>
  </varray>
 </structure>
 <calculation>
  <scstep>
   <time name="dav">   18.06   18.21</time>
   <time name="total">   18.11   18.28</time>
   <energy>
    <i name="alphaZ">   4338.13498157 </i>
    <i name="ewald"> -39603.01459460 </i>
    <i name="hartreedc">  -9463.31350231 </i>
    <i name="XCdc">   1595.79666605 </i>
    <i name="pawpsdc">  30325.54144196 </i>
    <i name="pawaedc"> -29690.26176465 </i>
    <i name="eentropy">     -0.07775764 </i>
    <i name="bandstr">   1108.82943613 </i>
    <i name="atom">  46903.20221483 </i>
    <i name="e_fr_energy">   5514.83712133 </i>
    <i name="e_wo_entrp">   5514.91487897 </i>
    <i name="e_0_energy">   5514.87600015 </i>
   </energy>
  </scstep>
  <scstep>
   <time name="dav">   18.26   18.70</time>
   <time name="total">   18.26   18.70</time>
   <energy>
    <i name="e_fr_energy">     86.94595275 </i>
    <i name="e_wo_entrp">     87.08689719 </i>
    <i name="e_0_energy">     87.01642497 </i>
   </energy>
  </scstep>
  <scstep>
   <time name="dav">   25.19   25.38</time>
   <time name="total">   25.19   25.38</time>
   <energy>
    <i name="e_fr_energy">   -707.49823236 </i>
    <i name="e_wo_entrp">   -707.41279767 </i>
    <i name="e_0_energy">   -707.45551502 </i>
   </energy>
  </scstep>
  <scstep>
   <time name="dav">   29.54   29.75</time>
   <time name="total">   29.54   29.76</time>
   <energy>
    <i name="e_fr_energy">   -779.69257884 </i>
    <i name="e_wo_entrp">   -779.59814306 </i>
    <i name="e_0_energy">   -779.64536095 </i>
   </energy>
  </scstep>
  <scstep>
   <time name="dav">   29.34   29.55</time>
   <time name="total">   29.53   29.76</time>
   <energy>
    <i name="e_fr_energy">   -783.60476728 </i>
    <i name="e_wo_entrp">   -783.50578967 </i>
    <i name="e_0_energy">   -783.55527847 </i>
   </energy>
  </scstep>
  <scstep>
   <time name="diag">    1.35    1.35</time>
   <time name="diis">   16.85   16.97</time>
   <time name="orth">    0.34    0.34</time>
   <time name="total">   18.73   18.85</time>
   <energy>
    <i name="e_fr_energy">   -689.95188806 </i>
    <i name="e_wo_entrp">   -689.86076819 </i>
    <i name="e_0_energy">   -689.90632813 </i>
   </energy>
  </scstep>
  <scstep>
   <time name="diag">    1.36    1.36</time>
   <time name="diis">   16.86   16.92</time>
   <time name="orth">    0.33    0.33</time>
   <time name="total">   18.75   18.82</time>
   <energy>
    <i name="e_fr_energy">   -662.42625473 </i>
    <i name="e_wo_entrp">   -662.27290098 </i>
    <i name="e_0_energy">   -662.34957785 </i>
   </energy>
  </scstep>
  <scstep>
   <time name="diag">    1.38    1.39</time>
   <time name="diis">   18.54   18.65</time>
   <time name="orth">    0.35    0.35</time>
   <time name="total">   20.47   20.59</time>
   <energy>
    <i name="e_fr_energy">   -638.12753371 </i>
    <i name="e_wo_entrp">   -637.99493676 </i>
    <i name="e_0_energy">   -638.06123524 </i>
   </energy>
  </scstep>
  <scstep>
   <time name="diag">    1.37    1.37</time>
   <time name="diis">   18.91   18.96</time>
   <time name="orth">    0.41    0.41</time>
   <time name="total">   20.89   20.94</time>
   <energy>
    <i name="e_fr_energy">   -637.28379651 </i>
    <i name="e_wo_entrp">   -637.15089771 </i>
    <i name="e_0_energy">   -637.21734711 </i>
   </energy>
  </scstep>
  <scstep>
   <time name="diag">    1.33    1.33</time>
   <time name="diis">   19.98   20.06</time>
   <time name="orth">    0.35    0.35</time>
   <time name="total">   21.86   21.94</time>
   <energy>
    <i name="e_fr_energy">   -637.18669961 </i>
    <i name="e_wo_entrp">   -637.04170816 </i>
    <i name="e_0_energy">   -637.11420389 </i>
   </energy>
  </scstep>
  <scstep>
   <time name="diag">    1.43    1.44</time>
   <time name="diis">   19.48   19.62</time>
   <time name="orth">    0.36    0.36</time>
   <time name="total">   21.49   21.66</time>
   <energy>
    <i name="e_fr_energy">   -636.76247639 </i>
    <i name="e_wo_entrp">   -636.61769487 </i>
    <i name="e_0_energy">   -636.69008563 </i>
   </energy>
  </scstep>
  <scstep>
   <time name="diag">    1.38    1.38</time>
   <time name="diis">   19.41   19.46</time>
   <time name="orth">    0.34    0.34</time>
   <time name="total">   21.33   21.39</time>
   <energy>
    <i name="e_fr_energy">   -636.84562629 </i>
    <i name="e_wo_entrp">   -636.70538520 </i>
    <i name="e_0_energy">   -636.77550574 </i>
   </energy>
  </scstep>
  <scstep>
   <time name="diag">    1.36    1.36</time>
   <time name="diis">   19.95   19.99</time>
   <time name="orth">    0.33    0.33</time>
   <time name="total">   21.85   21.90</time>
   <energy>
    <i name="e_fr_energy">   -636.88762917 </i>
    <i name="e_wo_entrp">   -636.74542086 </i>
    <i name="e_0_energy">   -636.81652501 </i>
   </energy>
  </scstep>
  <scstep>
   <time name="diag">    1.33    1.33</time>
   <time name="diis">   19.83   20.00</time>
   <time name="orth">    0.33    0.33</time>
   <time name="total">   21.69   21.86</time>
   <energy>
    <i name="e_fr_energy">   -636.79469416 </i>
    <i name="e_wo_entrp">   -636.64867608 </i>
    <i name="e_0_energy">   -636.72168512 </i>
   </energy>
  </scstep>
  <scstep>
   <time name="diag">    1.38    1.38</time>
   <time name="diis">   20.26   20.33</time>
   <time name="orth">    0.33    0.33</time>
   <time name="total">   22.17   22.25</time>
   <energy>
    <i name="e_fr_energy">   -636.81953151 </i>
    <i name="e_wo_entrp">   -636.67507484 </i>
    <i name="e_0_energy">   -636.74730318 </i>
   </energy>
  </scstep>
  <scstep>
   <time name="diag">    1.39    1.40</time>
   <time name="diis">   20.06   20.13</time>
   <time name="orth">    0.57    0.59</time>
   <time name="total">   22.22   22.34</time>
   <energy>
    <i name="e_fr_energy">   -636.84930365 </i>
    <i name="e_wo_entrp">   -636.70507165 </i>
    <i name="e_0_energy">   -636.77718765 </i>
   </energy>
  </scstep>
  <scstep>
   <time name="diag">    1.33    1.36</time>
   <time name="diis">   20.39   20.56</time>
   <time name="orth">    0.34    0.34</time>
   <time name="total">   22.27   22.47</time>
   <energy>
    <i name="e_fr_energy">   -636.87763773 </i>
    <i name="e_wo_entrp">   -636.73434559 </i>
    <i name="e_0_energy">   -636.80599166 </i>
   </energy>
  </scstep>
  <scstep>
   <time name="diag">    1.41    1.42</time>
   <time name="diis">   20.40   20.52</time>
   <time name="orth">    0.34    0.34</time>
   <time name="total">   22.35   22.48</time>
   <energy>
    <i name="e_fr_energy">   -636.87587960 </i>
    <i name="e_wo_entrp">   -636.73184072 </i>
    <i name="e_0_energy">   -636.80386016 </i>
   </energy>
  </scstep>
  <scstep>
   <time name="diag">    1.33    1.33</time>
   <time name="diis">   19.71   19.90</time>
   <time name="orth">    0.33    0.33</time>
   <time name="total">   21.59   21.78</time>
   <energy>
    <i name="e_fr_energy">   -636.85848669 </i>
    <i name="e_wo_entrp">   -636.71525714 </i>
    <i name="e_0_energy">   -636.78687191 </i>
   </energy>
  </scstep>
  <scstep>
   <time name="diag">    1.35    1.35</time>
   <time name="diis">   19.94   20.03</time>
   <time name="orth">    0.34    0.34</time>
   <time name="total">   21.83   21.92</time>
   <energy>
    <i name="e_fr_energy">   -636.86132781 </i>
    <i name="e_wo_entrp">   -636.71719184 </i>
    <i name="e_0_energy">   -636.78925982 </i>
   </energy>
  </scstep>
  <scstep>
   <time name="diag">    1.47    1.47</time>
   <time name="diis">   20.18   20.25</time>
   <time name="orth">    0.37    0.37</time>
   <time name="total">   22.22   22.28</time>
   <energy>
    <i name="e_fr_energy">   -636.86374849 </i>
    <i name="e_wo_entrp">   -636.71968192 </i>
    <i name="e_0_energy">   -636.79171521 </i>
   </energy>
  </scstep>
  <scstep>
   <time name="diag">    1.35    1.35</time>
   <time name="diis">   20.13   20.29</time>
   <time name="orth">    0.33    0.33</time>
   <time name="total">   22.01   22.17</time>
   <energy>
    <i name="e_fr_energy">   -636.86460561 </i>
    <i name="e_wo_entrp">   -636.72043833 </i>
    <i name="e_0_energy">   -636.79252197 </i>
   </energy>
  </scstep>
  <scstep>
   <time name="diag">    1.34    1.34</time>
   <time name="diis">   20.28   20.34</time>
   <time name="orth">    0.33    0.33</time>
   <time name="total">   22.15   22.22</time>
   <energy>
    <i name="e_fr_energy">   -636.86505540 </i>
    <i name="e_wo_entrp">   -636.72099643 </i>
    <i name="e_0_energy">   -636.79302592 </i>
   </energy>
  </scstep>
  <scstep>
   <time name="diag">    1.41    1.42</time>
   <time name="diis">   19.36   19.50</time>
   <time name="orth">    0.42    0.43</time>
   <time name="total">   21.39   21.55</time>
   <energy>
    <i name="e_fr_energy">   -636.86583212 </i>
    <i name="e_wo_entrp">   -636.72168545 </i>
    <i name="e_0_energy">   -636.79375878 </i>
   </energy>
  </scstep>
  <scstep>
   <time name="diag">    1.34    1.34</time>
   <time name="diis">   19.87   19.97</time>
   <time name="orth">    0.34    0.34</time>
   <time name="total">   21.75   21.85</time>
   <energy>
    <i name="e_fr_energy">   -636.86636697 </i>
    <i name="e_wo_entrp">   -636.72225554 </i>
    <i name="e_0_energy">   -636.79431125 </i>
   </energy>
  </scstep>
  <scstep>
   <time name="diag">    1.86    1.90</time>
   <time name="diis">   19.18   19.26</time>
   <time name="orth">    0.38    0.38</time>
   <time name="total">   21.64   21.76</time>
   <energy>
    <i name="e_fr_energy">   -636.86673093 </i>
    <i name="e_wo_entrp">   -636.72262037 </i>
    <i name="e_0_energy">   -636.79467565 </i>
   </energy>
  </scstep>
  <scstep>
   <time name="diag">    1.35    1.35</time>
   <time name="diis">   18.95   19.13</time>
   <time name="orth">    0.36    0.36</time>
   <time name="total">   20.86   21.04</time>
   <energy>
    <i name="e_fr_energy">   -636.86700545 </i>
    <i name="e_wo_entrp">   -636.72289756 </i>
    <i name="e_0_energy">   -636.79495151 </i>
   </energy>
  </scstep>
  <scstep>
   <time name="diag">    1.35    1.36</time>
   <time name="diis">   18.32   18.46</time>
   <time name="orth">    0.33    0.33</time>
   <time name="total">   20.21   20.35</time>
   <energy>
    <i name="e_fr_energy">   -636.86719966 </i>
    <i name="e_wo_entrp">   -636.72308623 </i>
    <i name="e_0_energy">   -636.79514294 </i>
   </energy>
  </scstep>
  <scstep>
   <time name="diag">    1.36    1.36</time>
   <time name="diis">   18.46   18.51</time>
   <time name="orth">    0.34    0.34</time>
   <time name="total">   20.36   20.41</time>
   <energy>
    <i name="e_fr_energy">   -636.86733699 </i>
    <i name="e_wo_entrp">   -636.72322429 </i>
    <i name="e_0_energy">   -636.79528064 </i>
   </energy>
  </scstep>
  <scstep>
   <time name="diag">    1.37    1.38</time>
   <time name="diis">   17.94   18.15</time>
   <time name="orth">    0.33    0.33</time>
   <time name="total">   19.85   20.06</time>
   <energy>
    <i name="e_fr_energy">   -636.86743815 </i>
    <i name="e_wo_entrp">   -636.72332257 </i>
    <i name="e_0_energy">   -636.79538036 </i>
   </energy>
  </scstep>
  <scstep>
   <time name="diag">    1.37    1.37</time>
   <time name="diis">   17.86   18.01</time>
   <time name="orth">    0.33    0.33</time>
   <time name="total">   19.77   19.92</time>
   <energy>
    <i name="e_fr_energy">   -636.86751245 </i>
    <i name="e_wo_entrp">   -636.72339680 </i>
    <i name="e_0_energy">   -636.79545462 </i>
   </energy>
  </scstep>
  <scstep>
   <time name="diag">    1.32    1.32</time>
   <time name="diis">   17.56   17.75</time>
   <time name="orth">    0.33    0.33</time>
   <time name="total">   19.42   19.60</time>
   <energy>
    <i name="e_fr_energy">   -636.86756831 </i>
    <i name="e_wo_entrp">   -636.72344775 </i>
    <i name="e_0_energy">   -636.79550803 </i>
   </energy>
  </scstep>
  <scstep>
   <time name="diag">    1.32    1.32</time>
   <time name="diis">   16.83   17.03</time>
   <time name="orth">    0.33    0.34</time>
   <time name="total">   18.71   18.93</time>
   <energy>
    <i name="e_fr_energy">   -636.86760737 </i>
    <i name="e_wo_entrp">   -636.72348743 </i>
    <i name="e_0_energy">   -636.79554740 </i>
   </energy>
  </scstep>
  <scstep>
   <time name="diag">    1.35    1.37</time>
   <time name="diis">   16.38   16.48</time>
   <time name="orth">    0.35    0.36</time>
   <time name="total">   18.29   18.41</time>
   <energy>
    <i name="e_fr_energy">   -636.86763757 </i>
    <i name="e_wo_entrp">   -636.72351510 </i>
    <i name="e_0_energy">   -636.79557633 </i>
   </energy>
  </scstep>
  <scstep>
   <time name="diag">    1.41    1.44</time>
   <time name="diis">   15.96   16.05</time>
   <time name="orth">    0.33    0.33</time>
   <time name="total">   17.90   18.03</time>
   <energy>
    <i name="e_fr_energy">   -636.86765976 </i>
    <i name="e_wo_entrp">   -636.72353538 </i>
    <i name="e_0_energy">   -636.79559757 </i>
   </energy>
  </scstep>
  <scstep>
   <time name="diag">    1.32    1.33</time>
   <time name="diis">   15.68   15.80</time>
   <time name="orth">    0.37    0.37</time>
   <time name="total">   17.58   17.70</time>
   <energy>
    <i name="e_fr_energy">   -636.86767810 </i>
    <i name="e_wo_entrp">   -636.72354989 </i>
    <i name="e_0_energy">   -636.79561399 </i>
   </energy>
  </scstep>
  <scstep>
   <time name="diag">    1.32    1.32</time>
   <time name="diis">   15.03   15.24</time>
   <time name="orth">    0.34    0.34</time>
   <time name="total">   16.89   17.10</time>
   <energy>
    <i name="e_fr_energy">   -636.86769121 </i>
    <i name="e_wo_entrp">   -636.72356072 </i>
    <i name="e_0_energy">   -636.79562597 </i>
   </energy>
  </scstep>
  <scstep>
   <time name="diag">    1.39    1.40</time>
   <time name="diis">   14.78   14.83</time>
   <time name="orth">    0.33    0.33</time>
   <time name="total">   16.70   16.77</time>
   <energy>
    <i name="e_fr_energy">   -636.86770110 </i>
    <i name="e_wo_entrp">   -636.72356912 </i>
    <i name="e_0_energy">   -636.79563511 </i>
   </energy>
  </scstep>
  <scstep>
   <time name="diag">    1.36    1.40</time>
   <time name="diis">   13.59   13.76</time>
   <time name="orth">    0.34    0.34</time>
   <time name="total">   15.33   15.52</time>
   <energy>
    <i name="alphaZ">   4338.13498157 </i>
    <i name="ewald"> -39603.01459460 </i>
    <i name="hartreedc">  -8945.94855859 </i>
    <i name="XCdc">   1587.70564226 </i>
    <i name="pawpsdc">  31937.81230607 </i>
    <i name="pawaedc"> -31347.28433021 </i>
    <i name="eentropy">     -0.14413204 </i>
    <i name="bandstr">  -5507.33123576 </i>
    <i name="atom">  46903.20221483 </i>
    <i name="e_fr_energy">   -636.86770648 </i>
    <i name="e_wo_entrp">   -636.72357444 </i>
    <i name="e_0_energy">   -636.79564046 </i>
   </energy>
  </scstep>
  <structure>
   <crystal>
    <varray name="basis" >
     <v>       8.82686769      -0.01374349       0.01299476 </v>
     <v>      -0.01376161       8.80985066      -0.00242923 </v>
     <v>       0.01292094      -0.00247211       8.74797675 </v>
    </varray>
    <i name="volume">    680.26910817 </i>
    <varray name="rec_basis" >
     <v>       0.11329099       0.00017692      -0.00016728 </v>
     <v>       0.00017669       0.11350959       0.00003182 </v>
     <v>      -0.00016824       0.00003126       0.11431240 </v>
    </varray>
   </crystal>
   <varray name="positions" >
    <v>       0.99741501       0.00703296       0.00589133 </v>
    <v>       0.24192021       0.01066136       0.24801479 </v>
    <v>       0.25732136       0.48685277       0.25229574 </v>
    <v>       0.49834175       0.50047660       0.00020035 </v>
    <v>       0.49537333       0.25661728       0.75142323 </v>
    <v>       0.00855566       0.49785872       0.49344248 </v>
    <v>       0.50462719       0.74386834       0.75014156 </v>
    <v>       0.99173892       0.23765985       0.26417416 </v>
    <v>       0.76950847       0.74599851       0.00182951 </v>
    <v>       0.01474461       0.26900632       0.74487554 </v>
    <v>       0.75947228       0.26930793       0.48459477 </v>
    <v>       0.99260151       0.72551252       0.74479028 </v>
    <v>       0.26199628       0.49536078       0.74942030 </v>
    <v>       0.26901542       0.26293959       0.99019632 </v>
    <v>       0.50942887       0.26182609       0.24272095 </v>
    <v>       0.75995595       0.98650436       0.23861994 </v>
    <v>       0.72335018       0.25612896       0.01941778 </v>
    <v>       0.22642508       0.73239298       0.00460469 </v>
    <v>       0.23793667       0.24752871       0.51661487 </v>
    <v>       0.24529550       0.24891069       0.24801073 </v>
    <v>       0.24444495       0.00730427       0.00858289 </v>
    <v>       0.99669458       0.23959292       0.00094470 </v>
    <v>       0.74735956       0.24071506       0.24436573 </v>
    <v>       0.75748033       0.00368787       0.00549979 </v>
    <v>       0.50201223       0.01027012       0.24758216 </v>
    <v>       0.00446004       0.48527836       0.25814514 </v>
    <v>       0.50295413       0.74691084       0.99179961 </v>
    <v>       0.99991825       0.00518676       0.75643115 </v>
    <v>       0.75282601       0.25441090       0.74203573 </v>
    <v>       0.75501844       0.01065940       0.49172927 </v>
    <v>       0.50665785       0.25545493       0.49896604 </v>
    <v>       0.50347189       0.00374747       0.75039787 </v>
    <v>       0.99720105       0.00258334       0.24614052 </v>
    <v>       0.49671041       0.25885903       0.00103630 </v>
    <v>       0.24364397       0.74865622       0.23877328 </v>
    <v>       0.25403690       0.49935586       0.00154999 </v>
    <v>       0.00424783       0.75271377       0.99811659 </v>
    <v>       0.75462759       0.74892823       0.25191222 </v>
    <v>       0.74102473       0.49523240       0.00195121 </v>
    <v>       0.49209786       0.49231065       0.24596187 </v>
    <v>       0.25469865       0.25237044       0.75250045 </v>
    <v>       0.24926438       0.00967872       0.49347154 </v>
    <v>       0.00387758       0.25393093       0.50462335 </v>
    <v>       0.24759600       0.74207562       0.76155306 </v>
    <v>       0.25246156       0.48690552       0.49890633 </v>
    <v>       0.99284790       0.75453212       0.50145383 </v>
    <v>       0.99969650       0.49779435       0.74352344 </v>
    <v>       0.74708133       0.74892623       0.75474511 </v>
    <v>       0.75688275       0.49707257       0.49874538 </v>
    <v>       0.50430354       0.74780264       0.50637111 </v>
    <v>       0.49881039       0.50039346       0.75180925 </v>
    <v>       0.49898076       0.00241762       0.00333185 </v>
    <v>       0.99741625       0.49129059       0.00735101 </v>
    <v>       0.49790258       0.74606860       0.24623142 </v>
    <v>       0.24462154       0.99823334       0.75635872 </v>
    <v>       0.49999855       0.00635763       0.49438560 </v>
    <v>       0.75719169       0.00364849       0.74781071 </v>
    <v>       0.24795800       0.74917196       0.49772827 </v>
    <v>       0.00046310       0.77064679       0.25092577 </v>
    <v>       0.72925014       0.49473715       0.24447721 </v>
    <v>       0.01231231       0.00705173       0.48712600 </v>
    <v>       0.49803976       0.50321090       0.49736762 </v>
    <v>       0.73561092       0.50699118       0.76232786 </v>
    <v>       0.75082168       0.72438837       0.50367437 </v>
   </varray>
  </structure>
  <varray name="forces" >
   <v>       0.01770509      -0.04578121       0.00462904 </v>
   <v>      -0.01121906       0.03899142       0.02066170 </v>
   <v>      -0.00104451      -0.03085195      -0.01290404 </v>
   <v>       0.02413586      -0.05301919       0.03086619 </v>
   <v>      -0.04011653       0.04726210       0.02094614 </v>
   <v>      -0.03123089      -0.01629679       0.07424510 </v>
   <v>       0.01530912      -0.03810130      -0.00080054 </v>
   <v>      -0.07526100       0.00563658       0.06022860 </v>
   <v>      -0.00541553      -0.00397118       0.00246408 </v>
   <v>       0.08219033       0.02658477       0.01463170 </v>
   <v>       0.08237121       0.00344436      -0.03556094 </v>
   <v>      -0.00022314      -0.08170991       0.02238696 </v>
   <v>      -0.02116081      -0.01401890       0.01732878 </v>
   <v>      -0.00070380       0.00588181      -0.06430232 </v>
   <v>       0.05648862       0.03247693      -0.01902957 </v>
   <v>      -0.03936667      -0.03432654      -0.10105415 </v>
   <v>      -0.06765159       0.05181942      -0.00286730 </v>
   <v>      -0.02502002       0.00166654       0.05199872 </v>
   <v>      -0.02866190       0.00718560       0.03917127 </v>
   <v>       0.01314626       0.01120946       0.02578266 </v>
   <v>       0.01400278       0.02435385      -0.03407340 </v>
   <v>      -0.02983322       0.06863060      -0.01093685 </v>
   <v>      -0.00262367      -0.04910175      -0.03911018 </v>
   <v>      -0.01595035      -0.00453977      -0.03865500 </v>
   <v>       0.01656053      -0.01022344       0.00886940 </v>
   <v>      -0.01749321       0.01513239       0.01202296 </v>
   <v>      -0.02508712       0.01366722       0.01527678 </v>
   <v>       0.00884820      -0.00119854      -0.00404474 </v>
   <v>      -0.03098170      -0.02444332       0.00006623 </v>
   <v>      -0.02924802       0.04004735       0.01450796 </v>
   <v>       0.01620327      -0.02241074      -0.02841546 </v>
   <v>       0.00925589       0.01149438       0.00363471 </v>
   <v>      -0.02003284      -0.03404061       0.03063188 </v>
   <v>      -0.03170117       0.03111584       0.00528115 </v>
   <v>      -0.03333109       0.00744303      -0.02732920 </v>
   <v>      -0.01645010      -0.00882093       0.00636241 </v>
   <v>      -0.00838024       0.04016313       0.01178420 </v>
   <v>       0.01223547      -0.02954974       0.01466994 </v>
   <v>      -0.01572683       0.01730025      -0.02841066 </v>
   <v>       0.04318825      -0.05888799       0.01531694 </v>
   <v>       0.01900318      -0.01082182      -0.03703386 </v>
   <v>      -0.07620212      -0.01470522      -0.02237169 </v>
   <v>       0.04925159       0.01522415       0.01380601 </v>
   <v>       0.01308170       0.00466758      -0.01456472 </v>
   <v>       0.00191601       0.03946137       0.02341096 </v>
   <v>       0.01114351      -0.03877062       0.00242822 </v>
   <v>       0.02795339       0.07239784      -0.01295624 </v>
   <v>       0.01980980      -0.05168248      -0.00372832 </v>
   <v>       0.01402951       0.03849366       0.03340281 </v>
   <v>       0.03077057      -0.06622899       0.00032011 </v>
   <v>      -0.02319371       0.01310193       0.00729012 </v>
   <v>      -0.01462517      -0.00252260       0.02159278 </v>
   <v>      -0.03817841      -0.02079183       0.03444831 </v>
   <v>       0.00125539       0.01716545      -0.04294288 </v>
   <v>      -0.00088153      -0.01531236       0.01471201 </v>
   <v>       0.07380323       0.00454163      -0.04854861 </v>
   <v>       0.01854375       0.03926372       0.02018727 </v>
   <v>       0.01459214      -0.02238128      -0.00118340 </v>
   <v>       0.00722224       0.04494783      -0.04101783 </v>
   <v>       0.00504887      -0.02246126       0.00010005 </v>
   <v>       0.06894401       0.00824972      -0.01655614 </v>
   <v>       0.00016557       0.02835468      -0.01833242 </v>
   <v>       0.00511707       0.06434863      -0.01674336 </v>
   <v>      -0.01629644      -0.06475292       0.02800968 </v>
  </varray>
  <varray name="stress" >
   <v>      -6.87955302       0.14490653       0.09115749 </v>
   <v>       0.14490766      -6.30047936       0.38775527 </v>
   <v>       0.09115800       0.38775252      -7.77752193 </v>
  </varray>
  <energy>
   <i name="e_fr_energy">   -636.86770648 </i>
   <i name="e_wo_entrp">   -636.72357444 </i>
   <i name="e_0_energy">   -636.79564046 </i>
  </energy>
  <time name="totalsc">  847.15  853.01</time>
 </calculation>
 <calculation>
  <scstep>
   <time name="dav">   22.43   22.71</time>
   <time name="total">   22.65   22.93</time>
   <energy>
    <i name="alphaZ">   4367.36404305 </i>
    <i name="ewald"> -39687.81047870 </i>
    <i name="hartreedc">  -8969.43551784 </i>
    <i name="XCdc">   1592.07367389 </i>
    <i name="pawpsdc">  31937.79771572 </i>
    <i name="pawaedc"> -31347.28360117 </i>
    <i name="eentropy">     -0.13685781 </i>
    <i name="bandstr">  -5432.75837496 </i>
    <i name="atom">  46903.20221483 </i>
    <i name="e_fr_energy">   -636.98718299 </i>
    <i name="e_wo_entrp">   -636.85032518 </i>
    <i name="e_0_energy">   -636.91875408 </i>
   </energy>
  </scstep>
  <scstep>
   <time name="diag">    1.31    1.33</time>
   <time name="diis">   14.74   15.01</time>
   <time name="orth">    0.33    0.33</time>
   <time name="total">   16.59   17.20</time>
   <energy>
    <i name="e_fr_energy">   -637.68063214 </i>
    <i name="e_wo_entrp">   -637.54087809 </i>
    <i name="e_0_energy">   -637.61075511 </i>
   </energy>
  </scstep>
  <scstep>
   <time name="diag">    1.62    1.69</time>
   <time name="diis">   15.29   15.52</time>
   <time name="orth">    0.37    0.37</time>
   <time name="total">   17.47   17.78</time>
   <energy>
    <i name="e_fr_energy">   -636.93588512 </i>
    <i name="e_wo_entrp">   -636.79423770 </i>
    <i name="e_0_energy">   -636.86506141 </i>
   </energy>
  </scstep>
  <scstep>
   <time name="diag">    1.33    1.35</time>
   <time name="diis">   18.89   19.24</time>
   <time name="orth">    0.33    0.34</time>
   <time name="total">   20.76   21.13</time>
   <energy>
    <i name="e_fr_energy">   -636.89163859 </i>
    <i name="e_wo_entrp">   -636.75126536 </i>
    <i name="e_0_energy">   -636.82145198 </i>
   </energy>
  </scstep>
  <scstep>
   <time name="diag">    1.33    1.34</time>
   <time name="diis">   18.54   18.84</time>
   <time name="orth">    0.33    0.33</time>
   <time name="total">   20.40   20.72</time>
   <energy>
    <i name="e_fr_energy">   -636.88179761 </i>
    <i name="e_wo_entrp">   -636.73948738 </i>
    <i name="e_0_energy">   -636.81064249 </i>
   </energy>
  </scstep>
  <scstep>
   <time name="diag">    1.60    1.62</time>
   <time name="diis">   18.48   18.74</time>
   <time name="orth">    0.35    0.36</time>
   <time name="total">   20.62   20.92</time>
   <energy>
    <i name="e_fr_energy">   -636.86636466 </i>
    <i name="e_wo_entrp">   -636.72515963 </i>
    <i name="e_0_energy">   -636.79576215 </i>
   </energy>
  </scstep>
  <scstep>
   <time name="diag">    1.37    1.43</time>
   <time name="diis">   19.20   19.48</time>
   <time name="orth">    0.35    0.35</time>
   <time name="total">   21.12   21.46</time>
   <energy>
    <i name="e_fr_energy">   -636.86143448 </i>
    <i name="e_wo_entrp">   -636.71927730 </i>
    <i name="e_0_energy">   -636.79035589 </i>
   </energy>
  </scstep>
  <scstep>
   <time name="diag">    1.40    1.42</time>
   <time name="diis">   19.50   19.85</time>
   <time name="orth">    0.38    0.39</time>
   <time name="total">   21.48   21.86</time>
   <energy>
    <i name="e_fr_energy">   -636.86165170 </i>
    <i name="e_wo_entrp">   -636.71975416 </i>
    <i name="e_0_energy">   -636.79070293 </i>
   </energy>
  </scstep>
  <scstep>
   <time name="diag">    1.36    1.38</time>
   <time name="diis">   19.25   19.82</time>
   <time name="orth">    0.33    0.33</time>
   <time name="total">   21.18   21.77</time>
   <energy>
    <i name="e_fr_energy">   -636.86067911 </i>
    <i name="e_wo_entrp">   -636.71870796 </i>
    <i name="e_0_energy">   -636.78969353 </i>
   </energy>
  </scstep>
  <scstep>
   <time name="diag">    1.32    1.33</time>
   <time name="diis">   19.64   20.09</time>
   <time name="orth">    0.33    0.34</time>
   <time name="total">   21.50   21.96</time>
   <energy>
    <i name="e_fr_energy">   -636.86082919 </i>
    <i name="e_wo_entrp">   -636.71884834 </i>
    <i name="e_0_energy">   -636.78983876 </i>
   </energy>
  </scstep>
  <scstep>
   <time name="diag">    1.32    1.33</time>
   <time name="diis">   19.59   20.13</time>
   <time name="orth">    0.33    0.34</time>
   <time name="total">   21.44   21.99</time>
   <energy>
    <i name="e_fr_energy">   -636.86075252 </i>
    <i name="e_wo_entrp">   -636.71868275 </i>
    <i name="e_0_energy">   -636.78971763 </i>
   </energy>
  </scstep>
  <scstep>
   <time name="diag">    1.39    1.44</time>
   <time name="diis">   19.48   19.81</time>
   <time name="orth">    0.37    0.37</time>
   <time name="total">   21.43   21.82</time>
   <energy>
    <i name="e_fr_energy">   -636.86083295 </i>
    <i name="e_wo_entrp">   -636.71883618 </i>
    <i name="e_0_energy">   -636.78983456 </i>
   </energy>
  </scstep>
  <scstep>
   <time name="diag">    1.35    1.36</time>
   <time name="diis">   18.61   18.86</time>
   <time name="orth">    0.34    0.34</time>
   <time name="total">   20.49   20.76</time>
   <energy>
    <i name="e_fr_energy">   -636.86090740 </i>
    <i name="e_wo_entrp">   -636.71885472 </i>
    <i name="e_0_energy">   -636.78988106 </i>
   </energy>
  </scstep>
  <scstep>
   <time name="diag">    1.34    1.35</time>
   <time name="diis">   17.95   18.25</time>
   <time name="orth">    0.38    0.38</time>
   <time name="total">   19.86   20.21</time>
   <energy>
    <i name="e_fr_energy">   -636.86094802 </i>
    <i name="e_wo_entrp">   -636.71890504 </i>
    <i name="e_0_energy">   -636.78992653 </i>
   </energy>
  </scstep>
  <scstep>
   <time name="diag">    5.91    5.94</time>
   <time name="diis">   16.83   17.32</time>
   <time name="orth">    2.48    2.54</time>
   <time name="total">   25.93   26.50</time>
   <energy>
    <i name="e_fr_energy">   -636.86098066 </i>
    <i name="e_wo_entrp">   -636.71894530 </i>
    <i name="e_0_energy">   -636.78996298 </i>
   </energy>
  </scstep>
  <scstep>
   <time name="diag">    5.04    5.37</time>
   <time name="diis">   17.43   17.65</time>
   <time name="orth">    2.93    2.94</time>
   <time name="total">   25.82   26.40</time>
   <energy>
    <i name="e_fr_energy">   -636.86100519 </i>
    <i name="e_wo_entrp">   -636.71897360 </i>
    <i name="e_0_energy">   -636.78998940 </i>
   </energy>
  </scstep>
  <scstep>
   <time name="diag">   10.37   10.39</time>
   <time name="diis">   15.71   16.30</time>
   <time name="orth">    3.35    3.38</time>
   <time name="total">   29.98   30.62</time>
   <energy>
    <i name="e_fr_energy">   -636.86102088 </i>
    <i name="e_wo_entrp">   -636.71898297 </i>
    <i name="e_0_energy">   -636.79000193 </i>
   </energy>
  </scstep>
  <scstep>
   <time name="diag">    2.31    2.32</time>
   <time name="diis">   14.73   15.06</time>
   <time name="orth">    2.10    2.11</time>
   <time name="total">   19.63   19.97</time>
   <energy>
    <i name="e_fr_energy">   -636.86103081 </i>
    <i name="e_wo_entrp">   -636.71899659 </i>
    <i name="e_0_energy">   -636.79001370 </i>
   </energy>
  </scstep>
  <scstep>
   <time name="diag">    8.36    9.41</time>
   <time name="diis">   13.37   14.09</time>
   <time name="orth">    1.46    1.52</time>
   <time name="total">   23.35   25.17</time>
   <energy>
    <i name="alphaZ">   4367.36404305 </i>
    <i name="ewald"> -39687.81047870 </i>
    <i name="hartreedc">  -8922.57549996 </i>
    <i name="XCdc">   1589.53866134 </i>
    <i name="pawpsdc">  32019.44012438 </i>
    <i name="pawaedc"> -31427.98903272 </i>
    <i name="eentropy">     -0.14203816 </i>
    <i name="bandstr">  -5477.88903134 </i>
    <i name="atom">  46903.20221483 </i>
    <i name="e_fr_energy">   -636.86103728 </i>
    <i name="e_wo_entrp">   -636.71899912 </i>
    <i name="e_0_energy">   -636.79001820 </i>
   </energy>
  </scstep>
  <structure>
   <crystal>
    <varray name="basis" >
     <v>       8.80743227      -0.01330479       0.01321824 </v>
     <v>      -0.01332280       8.79208479      -0.00133027 </v>
     <v>       0.01314761      -0.00138089       8.72620121 </v>
    </varray>
    <i name="volume">    675.71633276 </i>
    <varray name="rec_basis" >
     <v>       0.11354099       0.00017202      -0.00017104 </v>
     <v>       0.00017179       0.11373893       0.00001774 </v>
     <v>      -0.00017196       0.00001708       0.11459767 </v>
    </varray>
   </crystal>
   <varray name="positions" >
    <v>       0.99751135       0.00678242       0.00591664 </v>
    <v>       0.24185906       0.01087481       0.24812888 </v>
    <v>       0.25731549       0.48668380       0.25222454 </v>
    <v>       0.49847297       0.50018652       0.00037030 </v>
    <v>       0.49515431       0.25687577       0.75153914 </v>
    <v>       0.00838423       0.49776933       0.49385215 </v>
    <v>       0.50471055       0.74365983       0.75013696 </v>
    <v>       0.99132715       0.23769017       0.26450693 </v>
    <v>       0.76947882       0.74597672       0.00184314 </v>
    <v>       0.01519393       0.26915262       0.74495561 </v>
    <v>       0.75992279       0.26932744       0.48439800 </v>
    <v>       0.99259941       0.72506511       0.74491362 </v>
    <v>       0.26188036       0.49528386       0.74951602 </v>
    <v>       0.26901214       0.26297169       0.98984173 </v>
    <v>       0.50973804       0.26200439       0.24261560 </v>
    <v>       0.75974131       0.98631589       0.23806293 </v>
    <v>       0.72298090       0.25641214       0.01940260 </v>
    <v>       0.22628793       0.73240197       0.00489166 </v>
    <v>       0.23777977       0.24756787       0.51683113 </v>
    <v>       0.24536724       0.24897222       0.24815282 </v>
    <v>       0.24452197       0.00743770       0.00839491 </v>
    <v>       0.99653220       0.23996847       0.00088473 </v>
    <v>       0.74734512       0.24044609       0.24415000 </v>
    <v>       0.75739343       0.00366282       0.00528674 </v>
    <v>       0.50210258       0.01021429       0.24763092 </v>
    <v>       0.00436446       0.48536110       0.25821160 </v>
    <v>       0.50281701       0.74698549       0.99188408 </v>
    <v>       0.99996664       0.00518026       0.75640878 </v>
    <v>       0.75265647       0.25427678       0.74203631 </v>
    <v>       0.75485881       0.01087847       0.49180957 </v>
    <v>       0.50674644       0.25533230       0.49880918 </v>
    <v>       0.50352254       0.00381050       0.75041785 </v>
    <v>       0.99709103       0.00239681       0.24630956 </v>
    <v>       0.49653737       0.25902916       0.00106573 </v>
    <v>       0.24346208       0.74869665       0.23862285 </v>
    <v>       0.25394686       0.49930742       0.00158520 </v>
    <v>       0.00420228       0.75293366       0.99818170 </v>
    <v>       0.75469409       0.74876655       0.25199297 </v>
    <v>       0.74093915       0.49532696       0.00179469 </v>
    <v>       0.49233328       0.49198857       0.24604590 </v>
    <v>       0.25480271       0.25231129       0.75229605 </v>
    <v>       0.24884795       0.00959751       0.49334877 </v>
    <v>       0.00414678       0.25401474       0.50469911 </v>
    <v>       0.24766765       0.74210127       0.76147264 </v>
    <v>       0.25247218       0.48712167       0.49903548 </v>
    <v>       0.99290845       0.75431991       0.50146707 </v>
    <v>       0.99985000       0.49819102       0.74345187 </v>
    <v>       0.74718918       0.74864338       0.75472431 </v>
    <v>       0.75695949       0.49728354       0.49892953 </v>
    <v>       0.50447115       0.74744023       0.50637252 </v>
    <v>       0.49868367       0.50046502       0.75184966 </v>
    <v>       0.49890063       0.00240371       0.00345104 </v>
    <v>       0.99720713       0.49117646       0.00754126 </v>
    <v>       0.49790993       0.74616254       0.24599461 </v>
    <v>       0.24461647       0.99814951       0.75643983 </v>
    <v>       0.50040235       0.00638306       0.49411728 </v>
    <v>       0.75729321       0.00386369       0.74792195 </v>
    <v>       0.24803757       0.74904952       0.49772159 </v>
    <v>       0.00050329       0.77089293       0.25069957 </v>
    <v>       0.72927754       0.49461420       0.24447769 </v>
    <v>       0.01268933       0.00709747       0.48703415 </v>
    <v>       0.49804105       0.50336615       0.49726656 </v>
    <v>       0.73563957       0.50734357       0.76223558 </v>
    <v>       0.75073184       0.72403369       0.50382887 </v>
   </varray>
  </structure>
  <varray name="forces" >
   <v>       0.01380269      -0.00434199      -0.00860476 </v>
   <v>       0.02031158       0.02066694      -0.00871370 </v>
   <v>      -0.01937767      -0.01255463       0.00246128 </v>
   <v>      -0.01758871       0.00766337       0.00866972 </v>
   <v>       0.01373960      -0.01102531      -0.01557879 </v>
   <v>      -0.00056321       0.01543656       0.02408365 </v>
   <v>      -0.00660786       0.02062467       0.01580488 </v>
   <v>      -0.03471027       0.02161854      -0.05835829 </v>
   <v>      -0.06411029       0.03815318      -0.00487092 </v>
   <v>      -0.02532515      -0.02774045       0.09151357 </v>
   <v>       0.00331303      -0.06688795       0.03874701 </v>
   <v>       0.02259403       0.12297894       0.01667845 </v>
   <v>      -0.03799478       0.02169199       0.01711357 </v>
   <v>      -0.06248519      -0.02020829      -0.01551508 </v>
   <v>       0.01119285      -0.03798321       0.01754675 </v>
   <v>      -0.06509684      -0.01290078      -0.06378760 </v>
   <v>       0.01464121       0.01511953      -0.08411728 </v>
   <v>       0.04181912       0.02845216       0.00940825 </v>
   <v>       0.05188554       0.01569431      -0.03249970 </v>
   <v>       0.02767265       0.01180341       0.02803816 </v>
   <v>      -0.01498156       0.01574079       0.00676977 </v>
   <v>      -0.02455260       0.00505891      -0.00232977 </v>
   <v>      -0.00841739      -0.06112618      -0.03341282 </v>
   <v>      -0.00069874       0.01519691      -0.02237538 </v>
   <v>       0.01421661       0.00494905      -0.00169010 </v>
   <v>      -0.01515496       0.02184685       0.02687236 </v>
   <v>      -0.03122460      -0.00479649      -0.01285046 </v>
   <v>       0.01926604       0.00828752      -0.00822258 </v>
   <v>      -0.02191318       0.01334153       0.02169734 </v>
   <v>       0.00675507       0.02313711      -0.01265827 </v>
   <v>       0.00037075       0.00243955      -0.02737413 </v>
   <v>       0.00242827       0.00294448      -0.01273212 </v>
   <v>      -0.02324164       0.04120512      -0.01946883 </v>
   <v>      -0.03996440       0.00000025      -0.00720035 </v>
   <v>       0.00825833       0.00251542      -0.00952917 </v>
   <v>      -0.00642455      -0.00019150       0.02906369 </v>
   <v>       0.00905390       0.01706679      -0.00108103 </v>
   <v>      -0.00475682      -0.02543757       0.02253765 </v>
   <v>      -0.02003252      -0.00581848      -0.00248391 </v>
   <v>      -0.03004358       0.00956680      -0.00443596 </v>
   <v>       0.05401405      -0.03090747      -0.01075929 </v>
   <v>       0.05052707      -0.00808568      -0.00221261 </v>
   <v>       0.04657913       0.01472140       0.03275522 </v>
   <v>       0.01702708      -0.00013889       0.01212878 </v>
   <v>      -0.01092801       0.00145814      -0.01312679 </v>
   <v>       0.01001366      -0.01451854      -0.00933615 </v>
   <v>       0.01134669      -0.06806545       0.02250303 </v>
   <v>      -0.00311773       0.03678137      -0.00348033 </v>
   <v>       0.01941653      -0.03727722       0.01746631 </v>
   <v>       0.00223757       0.00092152      -0.00241163 </v>
   <v>      -0.00043112       0.00654247       0.01613538 </v>
   <v>      -0.01189707       0.00701658      -0.03404984 </v>
   <v>      -0.01143955       0.01222754       0.00854760 </v>
   <v>      -0.00763678      -0.01263008      -0.01133639 </v>
   <v>       0.04237323      -0.02718399      -0.01206271 </v>
   <v>       0.01784612      -0.01149014       0.01807876 </v>
   <v>      -0.02086732       0.01785444       0.01387229 </v>
   <v>       0.02049658      -0.00871554      -0.01191653 </v>
   <v>      -0.00047806      -0.06721237      -0.01098273 </v>
   <v>       0.08557828      -0.02778103       0.03064978 </v>
   <v>      -0.05432626      -0.02005012       0.06589299 </v>
   <v>       0.01346230      -0.02683233       0.00302849 </v>
   <v>       0.01990233      -0.05226178      -0.05090682 </v>
   <v>       0.00424650       0.08343935       0.02440809 </v>
  </varray>
  <varray name="stress" >
   <v>      14.52652535      -0.22705247       0.27144145 </v>
   <v>      -0.22705215      14.61598072       0.02772463 </v>
   <v>       0.27144589       0.02772606      15.63175329 </v>
  </varray>
  <energy>
   <i name="e_fr_energy">   -636.86103728 </i>
   <i name="e_wo_entrp">   -636.71899912 </i>
   <i name="e_0_energy">   -636.79001820 </i>
  </energy>
  <time name="totalsc">  449.62  460.14</time>
 </calculation>
 <calculation>
  <scstep>
   <time name="dav">   67.99   68.77</time>
   <time name="total">   68.29   69.07</time>
   <energy>
    <i name="alphaZ">   4350.02692274 </i>
    <i name="ewald"> -39637.59512503 </i>
    <i name="hartreedc">  -8908.70147982 </i>
    <i name="XCdc">   1586.95435171 </i>
    <i name="pawpsdc">  32019.44027560 </i>
    <i name="pawaedc"> -31427.96636141 </i>
    <i name="eentropy">     -0.14563038 </i>
    <i name="bandstr">  -5522.13618390 </i>
    <i name="atom">  46903.20221483 </i>
    <i name="e_fr_energy">   -636.92101567 </i>
    <i name="e_wo_entrp">   -636.77538529 </i>
    <i name="e_0_energy">   -636.84820048 </i>
   </energy>
  </scstep>
  <scstep>
   <time name="diag">    1.34    1.34</time>
   <time name="diis">   14.92   14.98</time>
   <time name="orth">    3.37    3.37</time>
   <time name="total">   20.12   20.20</time>
   <energy>
    <i name="e_fr_energy">   -637.19310810 </i>
    <i name="e_wo_entrp">   -637.06102652 </i>
    <i name="e_0_energy">   -637.12706731 </i>
   </energy>
  </scstep>
  <scstep>
   <time name="diag">   11.00   11.08</time>
   <time name="diis">   15.92   15.99</time>
   <time name="orth">    2.27    2.28</time>
   <time name="total">   30.18   30.35</time>
   <energy>
    <i name="e_fr_energy">   -636.89308908 </i>
    <i name="e_wo_entrp">   -636.75054795 </i>
    <i name="e_0_energy">   -636.82181851 </i>
   </energy>
  </scstep>
  <scstep>
   <time name="diag">    2.79    2.88</time>
   <time name="diis">   19.45   19.67</time>
   <time name="orth">    2.24    2.25</time>
   <time name="total">   25.11   25.43</time>
   <energy>
    <i name="e_fr_energy">   -636.88750807 </i>
    <i name="e_wo_entrp">   -636.74387688 </i>
    <i name="e_0_energy">   -636.81569248 </i>
   </energy>
  </scstep>
  <scstep>
   <time name="diag">   10.30   10.35</time>
   <time name="diis">   19.27   19.35</time>
   <time name="orth">    2.11    2.11</time>
   <time name="total">   32.22   32.36</time>
   <energy>
    <i name="e_fr_energy">   -636.88079941 </i>
    <i name="e_wo_entrp">   -636.73784153 </i>
    <i name="e_0_energy">   -636.80932047 </i>
   </energy>
  </scstep>
  <scstep>
   <time name="diag">    2.07    2.08</time>
   <time name="diis">   17.09   19.00</time>
   <time name="orth">    1.56    1.77</time>
   <time name="total">   21.07   23.20</time>
   <energy>
    <i name="e_fr_energy">   -636.87608842 </i>
    <i name="e_wo_entrp">   -636.73227519 </i>
    <i name="e_0_energy">   -636.80418181 </i>
   </energy>
  </scstep>
  <scstep>
   <time name="diag">   10.88   11.08</time>
   <time name="diis">   20.36   20.47</time>
   <time name="orth">    2.19    2.20</time>
   <time name="total">   33.86   34.18</time>
   <energy>
    <i name="e_fr_energy">   -636.87422142 </i>
    <i name="e_wo_entrp">   -636.73102856 </i>
    <i name="e_0_energy">   -636.80262499 </i>
   </energy>
  </scstep>
  <scstep>
   <time name="diag">    1.91    1.91</time>
   <time name="diis">   19.74   19.84</time>
   <time name="orth">    2.11    2.13</time>
   <time name="total">   24.31   24.44</time>
   <energy>
    <i name="e_fr_energy">   -636.87405894 </i>
    <i name="e_wo_entrp">   -636.73074315 </i>
    <i name="e_0_energy">   -636.80240104 </i>
   </energy>
  </scstep>
  <scstep>
   <time name="diag">   11.02   11.05</time>
   <time name="diis">   19.77   19.89</time>
   <time name="orth">    2.31    2.31</time>
   <time name="total">   33.51   33.67</time>
   <energy>
    <i name="e_fr_energy">   -636.87377412 </i>
    <i name="e_wo_entrp">   -636.73038953 </i>
    <i name="e_0_energy">   -636.80208182 </i>
   </energy>
  </scstep>
  <scstep>
   <time name="diag">    1.34    1.34</time>
   <time name="diis">   20.24   20.36</time>
   <time name="orth">    2.04    2.05</time>
   <time name="total">   23.96   24.08</time>
   <energy>
    <i name="e_fr_energy">   -636.87373966 </i>
    <i name="e_wo_entrp">   -636.73049612 </i>
    <i name="e_0_energy">   -636.80211789 </i>
   </energy>
  </scstep>
  <scstep>
   <time name="diag">   10.51   10.54</time>
   <time name="diis">   19.05   19.14</time>
   <time name="orth">    1.82    1.82</time>
   <time name="total">   31.95   32.07</time>
   <energy>
    <i name="e_fr_energy">   -636.87374909 </i>
    <i name="e_wo_entrp">   -636.73043579 </i>
    <i name="e_0_energy">   -636.80209244 </i>
   </energy>
  </scstep>
  <scstep>
   <time name="diag">    2.51    2.54</time>
   <time name="diis">   17.48   17.64</time>
   <time name="orth">    2.25    2.28</time>
   <time name="total">   22.75   22.99</time>
   <energy>
    <i name="e_fr_energy">   -636.87374589 </i>
    <i name="e_wo_entrp">   -636.73044138 </i>
    <i name="e_0_energy">   -636.80209364 </i>
   </energy>
  </scstep>
  <scstep>
   <time name="diag">    8.14    8.17</time>
   <time name="diis">   17.23   17.35</time>
   <time name="orth">    2.03    2.03</time>
   <time name="total">   27.86   28.02</time>
   <energy>
    <i name="e_fr_energy">   -636.87375760 </i>
    <i name="e_wo_entrp">   -636.73045948 </i>
    <i name="e_0_energy">   -636.80210854 </i>
   </energy>
  </scstep>
  <scstep>
   <time name="diag">    6.79    6.80</time>
   <time name="diis">   15.99   16.23</time>
   <time name="orth">    1.94    1.94</time>
   <time name="total">   24.82   25.07</time>
   <energy>
[...]
      </set>
     </set>
    </set>
   </array>
  </eigenvalues>
  <separator name="orbital magnetization" >
   <v name="MAGDIPOLOUT">      0.00000000      0.00000000      0.00000000</v>
  </separator>
  <dos>
   <i name="efermi">      8.01559001 </i>
   <total>
    <array>
     <dimension dim="1">gridpoints</dimension>
     <dimension dim="2">spin</dimension>
     <field>energy</field>
     <field>total</field>
     <field>integrated</field>
     <set>
      <set comment="spin 1">
       <r>   -60.3271     0.0000     0.0000 </r>
       <r>   -60.0797     0.0000     0.0000 </r>
       <r>   -59.8322     0.0000     0.0000 </r>
       <r>   -59.5847     0.0000     0.0000 </r>
       <r>   -59.3372     0.0000     0.0000 </r>
       <r>   -59.0897     0.0000     0.0000 </r>
       <r>   -58.8422     0.0000     0.0000 </r>
       <r>   -58.5947     0.0000     0.0000 </r>
       <r>   -58.3472     0.0000     0.0000 </r>
       <r>   -58.0997     0.0000     0.0000 </r>
       <r>   -57.8522     0.0000     0.0000 </r>
       <r>   -57.6047     0.0000     0.0000 </r>
       <r>   -57.3572     0.0000     0.0000 </r>
       <r>   -57.1097     0.1474     0.0365 </r>
       <r>   -56.8622    30.1538     7.4993 </r>
       <r>   -56.6148    18.1728    11.9970 </r>
       <r>   -56.3673     0.0123    12.0000 </r>
       <r>   -56.1198     0.0000    12.0000 </r>
       <r>   -55.8723     0.0000    12.0000 </r>
       <r>   -55.6248     0.0000    12.0000 </r>
       <r>   -55.3773     0.0000    12.0000 </r>
       <r>   -55.1298     0.0000    12.0000 </r>
       <r>   -54.8823     0.0000    12.0000 </r>
       <r>   -54.6348     0.0000    12.0000 </r>
       <r>   -54.3873     0.0000    12.0000 </r>
       <r>   -54.1398     0.0000    12.0000 </r>
       <r>   -53.8923     0.0000    12.0000 </r>
       <r>   -53.6448     0.0000    12.0000 </r>
       <r>   -53.3973     0.0000    12.0000 </r>
       <r>   -53.1499     0.0000    12.0000 </r>
       <r>   -52.9024     0.0000    12.0000 </r>
       <r>   -52.6549     0.0000    12.0000 </r>
       <r>   -52.4074     0.0000    12.0000 </r>
       <r>   -52.1599     0.0000    12.0000 </r>
       <r>   -51.9124     0.0000    12.0000 </r>
       <r>   -51.6649     0.0000    12.0000 </r>
       <r>   -51.4174     0.0000    12.0000 </r>
       <r>   -51.1699     0.0000    12.0000 </r>
       <r>   -50.9224     0.0000    12.0000 </r>
       <r>   -50.6749     0.0000    12.0000 </r>
       <r>   -50.4274     0.0000    12.0000 </r>
       <r>   -50.1799     0.0000    12.0000 </r>
       <r>   -49.9324     0.0102    12.0025 </r>
       <r>   -49.6850     6.2837    13.5577 </r>
       <r>   -49.4375    29.1132    20.7630 </r>
       <r>   -49.1900    16.1509    24.7602 </r>
       <r>   -48.9425     5.0038    25.9986 </r>
       <r>   -48.6950     0.0055    26.0000 </r>
       <r>   -48.4475     0.0000    26.0000 </r>
       <r>   -48.2000     0.0000    26.0000 </r>
       <r>   -47.9525     0.0000    26.0000 </r>
       <r>   -47.7050     0.0000    26.0000 </r>
       <r>   -47.4575     0.0000    26.0000 </r>
       <r>   -47.2100     0.0000    26.0000 </r>
       <r>   -46.9625     0.0000    26.0000 </r>
       <r>   -46.7150     0.0000    26.0000 </r>
       <r>   -46.4675     0.0000    26.0000 </r>
       <r>   -46.2201     0.0000    26.0000 </r>
       <r>   -45.9726     0.0000    26.0000 </r>
       <r>   -45.7251     0.0000    26.0000 </r>
       <r>   -45.4776     0.0000    26.0000 </r>
       <r>   -45.2301     0.0000    26.0000 </r>
       <r>   -44.9826     0.0000    26.0000 </r>
       <r>   -44.7351     0.0000    26.0000 </r>
       <r>   -44.4876     0.0000    26.0000 </r>
       <r>   -44.2401     0.0000    26.0000 </r>
       <r>   -43.9926     0.0000    26.0000 </r>
       <r>   -43.7451     0.0000    26.0000 </r>
       <r>   -43.4976     0.0000    26.0000 </r>
       <r>   -43.2501     0.0000    26.0000 </r>
       <r>   -43.0026     0.0000    26.0000 </r>
       <r>   -42.7552     0.0000    26.0000 </r>
       <r>   -42.5077     0.0000    26.0000 </r>
       <r>   -42.2602     0.0000    26.0000 </r>
       <r>   -42.0127     0.0000    26.0000 </r>
       <r>   -41.7652     0.0000    26.0000 </r>
       <r>   -41.5177     0.0011    26.0003 </r>
       <r>   -41.2702     3.5672    26.8831 </r>
       <r>   -41.0227     7.5127    28.7425 </r>
       <r>   -40.7752    22.9296    34.4174 </r>
       <r>   -40.5277    14.5155    38.0098 </r>
       <r>   -40.2802     7.7604    39.9305 </r>
       <r>   -40.0327     0.2808    40.0000 </r>
       <r>   -39.7852     0.0000    40.0000 </r>
       <r>   -39.5377     0.0000    40.0000 </r>
       <r>   -39.2903     0.0000    40.0000 </r>
       <r>   -39.0428     0.0000    40.0000 </r>
       <r>   -38.7953     0.0000    40.0000 </r>
       <r>   -38.5478     0.0000    40.0000 </r>
       <r>   -38.3003     0.0000    40.0000 </r>
       <r>   -38.0528     0.0000    40.0000 </r>
       <r>   -37.8053     0.0000    40.0000 </r>
       <r>   -37.5578     0.0000    40.0000 </r>
       <r>   -37.3103     0.0000    40.0000 </r>
       <r>   -37.0628     0.0000    40.0000 </r>
       <r>   -36.8153     0.0000    40.0000 </r>
       <r>   -36.5678     0.0000    40.0000 </r>
       <r>   -36.3203     0.0000    40.0000 </r>
       <r>   -36.0728     0.0000    40.0000 </r>
       <r>   -35.8254     0.0000    40.0000 </r>
       <r>   -35.5779     0.0000    40.0000 </r>
       <r>   -35.3304     0.0000    40.0000 </r>
       <r>   -35.0829     0.0000    40.0000 </r>
       <r>   -34.8354     0.0000    40.0000 </r>
       <r>   -34.5879     0.0000    40.0000 </r>
       <r>   -34.3404     0.0000    40.0000 </r>
       <r>   -34.0929     0.0000    40.0000 </r>
       <r>   -33.8454     0.0000    40.0000 </r>
       <r>   -33.5979     0.0000    40.0000 </r>
       <r>   -33.3504     0.0000    40.0000 </r>
       <r>   -33.1029     0.0000    40.0000 </r>
       <r>   -32.8554     0.0000    40.0000 </r>
       <r>   -32.6079     0.0000    40.0000 </r>
       <r>   -32.3605     0.0000    40.0000 </r>
       <r>   -32.1130     0.0000    40.0000 </r>
       <r>   -31.8655     0.6326    40.1566 </r>
       <r>   -31.6180    16.7769    44.3087 </r>
       <r>   -31.3705    47.5761    56.0835 </r>
       <r>   -31.1230    71.6636    73.8197 </r>
       <r>   -30.8755    61.7967    89.1139 </r>
       <r>   -30.6280    90.8603   111.6012 </r>
       <r>   -30.3805     1.6114   112.0000 </r>
       <r>   -30.1330     0.0000   112.0000 </r>
       <r>   -29.8855     0.0000   112.0000 </r>
       <r>   -29.6380     0.0000   112.0000 </r>
       <r>   -29.3905     0.0000   112.0000 </r>
       <r>   -29.1430     0.0000   112.0000 </r>
       <r>   -28.8956     0.0000   112.0000 </r>
       <r>   -28.6481     0.0000   112.0000 </r>
       <r>   -28.4006     0.0000   112.0000 </r>
       <r>   -28.1531     0.0000   112.0000 </r>
       <r>   -27.9056     0.0000   112.0000 </r>
       <r>   -27.6581     0.0000   112.0000 </r>
       <r>   -27.4106     0.0000   112.0000 </r>
       <r>   -27.1631     0.0000   112.0000 </r>
       <r>   -26.9156     0.0000   112.0000 </r>
       <r>   -26.6681     0.0000   112.0000 </r>
       <r>   -26.4206     0.0009   112.0002 </r>
       <r>   -26.1731     5.3732   113.3300 </r>
       <r>   -25.9256    54.7971   126.8919 </r>
       <r>   -25.6781    82.3377   147.2699 </r>
       <r>   -25.4307    26.0235   153.7105 </r>
       <r>   -25.1832     1.1696   154.0000 </r>
       <r>   -24.9357     0.0000   154.0000 </r>
       <r>   -24.6882     0.0000   154.0000 </r>
       <r>   -24.4407     0.0000   154.0000 </r>
       <r>   -24.1932     0.0000   154.0000 </r>
       <r>   -23.9457     0.0000   154.0000 </r>
       <r>   -23.6982     0.0000   154.0000 </r>
       <r>   -23.4507     0.0000   154.0000 </r>
       <r>   -23.2032     0.0000   154.0000 </r>
       <r>   -22.9557     0.0000   154.0000 </r>
       <r>   -22.7082     0.0000   154.0000 </r>
       <r>   -22.4607     0.0000   154.0000 </r>
       <r>   -22.2132     0.0000   154.0000 </r>
       <r>   -21.9658     0.0000   154.0000 </r>
       <r>   -21.7183     0.0000   154.0000 </r>
       <r>   -21.4708     0.0000   154.0000 </r>
       <r>   -21.2233     0.0000   154.0000 </r>
       <r>   -20.9758     0.0000   154.0000 </r>
       <r>   -20.7283     0.0000   154.0000 </r>
       <r>   -20.4808     0.0000   154.0000 </r>
       <r>   -20.2333     0.0000   154.0000 </r>
       <r>   -19.9858     0.0004   154.0001 </r>
       <r>   -19.7383     4.3713   155.0820 </r>
       <r>   -19.4908    25.8009   161.4675 </r>
       <r>   -19.2433    39.8120   171.3207 </r>
       <r>   -18.9958    52.8682   184.4052 </r>
       <r>   -18.7483    28.6811   191.5036 </r>
       <r>   -18.5009    17.7257   195.8906 </r>
       <r>   -18.2534     0.4421   196.0000 </r>
       <r>   -18.0059     0.0000   196.0000 </r>
       <r>   -17.7584     0.0000   196.0000 </r>
       <r>   -17.5109     0.0000   196.0000 </r>
       <r>   -17.2634     0.0000   196.0000 </r>
       <r>   -17.0159     0.0000   196.0000 </r>
       <r>   -16.7684     0.0000   196.0000 </r>
       <r>   -16.5209     0.0000   196.0000 </r>
       <r>   -16.2734     0.0000   196.0000 </r>
       <r>   -16.0259     0.0000   196.0000 </r>
       <r>   -15.7784     0.0000   196.0000 </r>
       <r>   -15.5309     0.0000   196.0000 </r>
       <r>   -15.2834     0.0000   196.0000 </r>
       <r>   -15.0360     0.0000   196.0000 </r>
       <r>   -14.7885     0.0000   196.0000 </r>
       <r>   -14.5410     0.0000   196.0000 </r>
       <r>   -14.2935     0.0000   196.0000 </r>
       <r>   -14.0460     0.0000   196.0000 </r>
       <r>   -13.7985     0.0000   196.0000 </r>
       <r>   -13.5510     0.0000   196.0000 </r>
       <r>   -13.3035     0.0000   196.0000 </r>
       <r>   -13.0560     0.0000   196.0000 </r>
       <r>   -12.8085     0.0000   196.0000 </r>
       <r>   -12.5610     0.0000   196.0000 </r>
       <r>   -12.3135     0.0000   196.0000 </r>
       <r>   -12.0660     0.0000   196.0000 </r>
       <r>   -11.8185     0.0000   196.0000 </r>
       <r>   -11.5711     0.0000   196.0000 </r>
       <r>   -11.3236     0.0000   196.0000 </r>
       <r>   -11.0761     0.0000   196.0000 </r>
       <r>   -10.8286     0.0000   196.0000 </r>
       <r>   -10.5811     0.0000   196.0000 </r>
       <r>   -10.3336     0.0000   196.0000 </r>
       <r>   -10.0861     0.0000   196.0000 </r>
       <r>    -9.8386     0.0000   196.0000 </r>
       <r>    -9.5911     0.0000   196.0000 </r>
       <r>    -9.3436     0.0000   196.0000 </r>
       <r>    -9.0961     0.0000   196.0000 </r>
       <r>    -8.8486     0.0000   196.0000 </r>
       <r>    -8.6011     0.6021   196.1490 </r>
       <r>    -8.3536     7.2098   197.9334 </r>
       <r>    -8.1062     0.2692   198.0000 </r>
       <r>    -7.8587     0.2335   198.0578 </r>
       <r>    -7.6112     6.6264   199.6978 </r>
       <r>    -7.3637     9.2087   201.9769 </r>
       <r>    -7.1162    19.2194   206.7335 </r>
       <r>    -6.8687    19.6646   211.6004 </r>
       <r>    -6.6212    25.8977   218.0099 </r>
       <r>    -6.3737    11.2008   220.7820 </r>
       <r>    -6.1262     4.1667   221.8132 </r>
       <r>    -5.8787     0.7544   221.9999 </r>
       <r>    -5.6312     0.0003   222.0000 </r>
       <r>    -5.3837     0.0000   222.0000 </r>
       <r>    -5.1362     0.3033   222.0751 </r>
       <r>    -4.8887     6.7058   223.7347 </r>
       <r>    -4.6413     2.2793   224.2988 </r>
       <r>    -4.3938    11.1060   227.0475 </r>
       <r>    -4.1463    12.4885   230.1383 </r>
       <r>    -3.8988    16.7137   234.2748 </r>
       <r>    -3.6513    21.1011   239.4972 </r>
       <r>    -3.4038    17.4082   243.8056 </r>
       <r>    -3.1563    17.3063   248.0888 </r>
       <r>    -2.9088    18.2681   252.6100 </r>
       <r>    -2.6613    15.6305   256.4785 </r>
       <r>    -2.4138    10.3797   259.0474 </r>
       <r>    -2.1663     3.6867   259.9598 </r>
       <r>    -1.9188     0.1624   260.0000 </r>
       <r>    -1.6713     0.0000   260.0000 </r>
       <r>    -1.4238     0.0000   260.0000 </r>
       <r>    -1.1764     0.0000   260.0000 </r>
       <r>    -0.9289     0.0000   260.0000 </r>
       <r>    -0.6814     0.0000   260.0000 </r>
       <r>    -0.4339     0.0003   260.0001 </r>
       <r>    -0.1864     0.2744   260.0680 </r>
       <r>     0.0611     1.7707   260.5062 </r>
       <r>     0.3086     7.2252   262.2944 </r>
       <r>     0.5561    11.1315   265.0494 </r>
       <r>     0.8036    13.2685   268.3332 </r>
       <r>     1.0511    17.1322   272.5733 </r>
       <r>     1.2986    20.7226   277.7020 </r>
       <r>     1.5461    27.2702   284.4512 </r>
       <r>     1.7936    25.9038   290.8622 </r>
       <r>     2.0410    33.5993   299.1778 </r>
       <r>     2.2885    37.0266   308.3416 </r>
       <r>     2.5360    38.6032   317.8956 </r>
       <r>     2.7835    49.9511   330.2582 </r>
       <r>     3.0310    61.4754   345.4729 </r>
       <r>     3.2785    62.9519   361.0531 </r>
       <r>     3.5260    61.6741   376.3170 </r>
       <r>     3.7735    60.4034   391.2664 </r>
       <r>     4.0210    56.6958   405.2982 </r>
       <r>     4.2685    43.9963   416.1869 </r>
       <r>     4.5160    38.0064   425.5932 </r>
       <r>     4.7635    32.6999   433.6862 </r>
       <r>     5.0110    25.9037   440.0972 </r>
       <r>     5.2585    20.3160   445.1253 </r>
       <r>     5.5059    18.2708   449.6472 </r>
       <r>     5.7534     9.1770   451.9184 </r>
       <r>     6.0009    11.4568   454.7539 </r>
       <r>     6.2484    17.6430   459.1204 </r>
       <r>     6.4959    17.6834   463.4969 </r>
       <r>     6.7434    13.9041   466.9381 </r>
       <r>     6.9909    20.2334   471.9457 </r>
       <r>     7.2384    21.3389   477.2269 </r>
       <r>     7.4859    21.2456   482.4851 </r>
       <r>     7.7334    23.5273   488.3079 </r>
       <r>     7.9809    23.0695   494.0174 </r>
       <r>     8.2284    28.1511   500.9846 </r>
       <r>     8.4759    34.7683   509.5895 </r>
       <r>     8.7234    46.5457   521.1092 </r>
       <r>     8.9708    53.1381   534.2605 </r>
       <r>     9.2183    53.2878   547.4489 </r>
       <r>     9.4658    56.3268   561.3894 </r>
       <r>     9.7133    57.3702   575.5881 </r>
       <r>     9.9608    57.1339   589.7283 </r>
       <r>    10.2083    56.3561   603.6761 </r>
       <r>    10.4558    42.5945   614.2179 </r>
       <r>    10.7033     7.1773   615.9942 </r>
       <r>    10.9508     0.0233   616.0000 </r>
       <r>    11.1983     0.0000   616.0000 </r>
       <r>    11.4458     0.0000   616.0000 </r>
       <r>    11.6933     0.0000   616.0000 </r>
       <r>    11.9408     0.0000   616.0000 </r>
       <r>    12.1883     0.0000   616.0000 </r>
       <r>    12.4357     0.0000   616.0000 </r>
       <r>    12.6832     0.0000   616.0000 </r>
       <r>    12.9307     0.0000   616.0000 </r>
       <r>    13.1782     0.0000   616.0000 </r>
       <r>    13.4257     0.0000   616.0000 </r>
       <r>    13.6732     0.0000   616.0000 </r>
       <r>    13.9207     0.0000   616.0000 </r>
      </set>
     </set>
    </array>
   </total>
  </dos>
 </calculation>
 <structure name="finalpos" >
  <crystal>
   <varray name="basis" >
    <v>       8.81892445      -0.01155239       0.01757450 </v>
    <v>      -0.01157421       8.80527820       0.00028182 </v>
    <v>       0.01746283       0.00022955       8.74031755 </v>
   </varray>
   <i name="volume">    678.70873388 </i>
   <varray name="rec_basis" >
    <v>       0.11339316       0.00014906      -0.00022656 </v>
    <v>       0.00014878       0.11356844      -0.00000328 </v>
    <v>      -0.00022801      -0.00000396       0.11441277 </v>
   </varray>
  </crystal>
  <varray name="positions" >
   <v>       0.99837741       0.00688132       0.00571959 </v>
   <v>       0.24126840       0.01200300       0.24869594 </v>
   <v>       0.25700223       0.48517824       0.25281263 </v>
   <v>       0.49791727       0.50008980       0.00091178 </v>
   <v>       0.49573481       0.25719102       0.75156907 </v>
   <v>       0.00824048       0.49745244       0.49515993 </v>
   <v>       0.50509602       0.74361840       0.75010288 </v>
   <v>       0.98920067       0.23793780       0.26479063 </v>
   <v>       0.76898824       0.74768097       0.00124704 </v>
   <v>       0.01641809       0.26962575       0.74748072 </v>
   <v>       0.76112555       0.26742965       0.48335283 </v>
   <v>       0.99294572       0.72558768       0.74514505 </v>
   <v>       0.26191476       0.49572510       0.74972131 </v>
   <v>       0.26719813       0.26325362       0.98770239 </v>
   <v>       0.51262287       0.26132696       0.24181415 </v>
   <v>       0.75858093       0.98417721       0.23235381 </v>
   <v>       0.72215560       0.25781926       0.01407271 </v>
   <v>       0.22630364       0.73239052       0.00551030 </v>
   <v>       0.23803600       0.24764914       0.51671732 </v>
   <v>       0.24444669       0.24921839       0.24966931 </v>
   <v>       0.24377709       0.00835947       0.00812343 </v>
   <v>       0.99556554       0.24063708       0.00172198 </v>
   <v>       0.74695810       0.23692673       0.24221225 </v>
   <v>       0.75688539       0.00445741       0.00426355 </v>
   <v>       0.50250534       0.00982330       0.24695364 </v>
   <v>       0.00422770       0.48572864       0.25922058 </v>
   <v>       0.50187959       0.74713257       0.99163346 </v>
   <v>       0.00039335       0.00570669       0.75631300 </v>
   <v>       0.75242250       0.25497425       0.74510457 </v>
   <v>       0.75496019       0.01234130       0.49198919 </v>
   <v>       0.50803232       0.25498010       0.49808976 </v>
   <v>       0.50366402       0.00395991       0.74976271 </v>
   <v>       0.99548574       0.00304048       0.24671463 </v>
   <v>       0.49470325       0.25924634       0.00088751 </v>
   <v>       0.24348075       0.74910167       0.23838441 </v>
   <v>       0.25333043       0.49942586       0.00201511 </v>
   <v>       0.00390055       0.75354621       0.99849049 </v>
   <v>       0.75468347       0.74714099       0.25252809 </v>
   <v>       0.74045564       0.49669652       0.00293792 </v>
   <v>       0.49260732       0.49111113       0.24629690 </v>
   <v>       0.25584999       0.25217588       0.75135846 </v>
   <v>       0.24947156       0.00953933       0.49306937 </v>
   <v>       0.00519042       0.25469568       0.50627127 </v>
   <v>       0.24798921       0.74209816       0.76149086 </v>
   <v>       0.25292581       0.48724616       0.49927129 </v>
   <v>       0.99331918       0.75414696       0.50146226 </v>
   <v>       0.00013773       0.49836943       0.74479154 </v>
   <v>       0.74745748       0.74881690       0.75393575 </v>
   <v>       0.75768496       0.49619519       0.50053664 </v>
   <v>       0.50494749       0.74692214       0.50606439 </v>
   <v>       0.49855356       0.50070241       0.75206419 </v>
   <v>       0.49755199       0.00261529       0.00287142 </v>
   <v>       0.99669939       0.49209371       0.00843512 </v>
   <v>       0.49822745       0.74555339       0.24557807 </v>
   <v>       0.24493416       0.99771134       0.75551896 </v>
   <v>       0.50166613       0.00614528       0.49361960 </v>
   <v>       0.75751269       0.00449511       0.74902217 </v>
   <v>       0.24839110       0.74896298       0.49717354 </v>
   <v>       0.99979029       0.77152257       0.25142588 </v>
   <v>       0.73048674       0.49186875       0.24649243 </v>
   <v>       0.01197641       0.00859179       0.48804653 </v>
   <v>       0.49908622       0.50303080       0.49700138 </v>
   <v>       0.73518638       0.50698172       0.76258061 </v>
   <v>       0.75147252       0.72294681       0.50372636 </v>
  </varray>
 </structure>
</modeling>
