HECN                                    
           1
     8.826868   -0.013743    0.012995
    -0.013762    8.809851   -0.002429
     0.012921   -0.002472    8.747977
   Ti   W    V    N    C    Zr   Mo
     7     6     6    13    19     7     6
Direct configuration=     1
   0.99741501  0.00703296  0.00589133
   0.24192021  0.01066136  0.24801479
   0.25732136  0.48685277  0.25229574
   0.49834175  0.50047660  0.00020035
   0.49537333  0.25661728  0.75142323
   0.00855566  0.49785872  0.49344248
   0.50462719  0.74386834  0.75014156
   0.99173892  0.23765985  0.26417416
   0.76950847  0.74599851  0.00182951
   0.01474461  0.26900632  0.74487554
   0.75947228  0.26930793  0.48459477
   0.99260151  0.72551252  0.74479028
   0.26199628  0.49536078  0.74942030
   0.26901542  0.26293959  0.99019632
   0.50942887  0.26182609  0.24272095
   0.75995595  0.98650436  0.23861994
   0.72335018  0.25612896  0.01941778
   0.22642508  0.73239298  0.00460469
   0.23793667  0.24752871  0.51661487
   0.24529550  0.24891069  0.24801073
   0.24444495  0.00730427  0.00858289
   0.99669458  0.23959292  0.00094470
   0.74735956  0.24071506  0.24436573
   0.75748033  0.00368787  0.00549979
   0.50201223  0.01027012  0.24758216
   0.00446004  0.48527836  0.25814514
   0.50295413  0.74691084  0.99179961
   0.99991825  0.00518676  0.75643115
   0.75282601  0.25441090  0.74203573
   0.75501844  0.01065940  0.49172927
   0.50665785  0.25545493  0.49896604
   0.50347189  0.00374747  0.75039787
   0.99720105  0.00258334  0.24614052
   0.49671041  0.25885903  0.00103630
   0.24364397  0.74865622  0.23877328
   0.25403690  0.49935586  0.00154999
   0.00424783  0.75271377  0.99811659
   0.75462759  0.74892823  0.25191222
   0.74102473  0.49523240  0.00195121
   0.49209786  0.49231065  0.24596187
   0.25469865  0.25237044  0.75250045
   0.24926438  0.00967872  0.49347154
   0.00387758  0.25393093  0.50462335
   0.24759600  0.74207562  0.76155306
   0.25246156  0.48690552  0.49890633
   0.99284790  0.75453212  0.50145383
   0.99969650  0.49779435  0.74352344
   0.74708133  0.74892623  0.75474511
   0.75688275  0.49707257  0.49874538
   0.50430354  0.74780264  0.50637111
   0.49881039  0.50039346  0.75180925
   0.49898076  0.00241762  0.00333185
   0.99741625  0.49129059  0.00735101
   0.49790258  0.74606860  0.24623142
   0.24462154  0.99823334  0.75635872
   0.49999855  0.00635763  0.49438560
   0.75719169  0.00364849  0.74781071
   0.24795800  0.74917196  0.49772827
   0.00046310  0.77064679  0.25092577
   0.72925014  0.49473715  0.24447721
   0.01231231  0.00705173  0.48712600
   0.49803976  0.50321090  0.49736762
   0.73561092  0.50699118  0.76232786
   0.75082168  0.72438837  0.50367437
HECN                                    
           1
     8.807432   -0.013305    0.013218
    -0.013323    8.792085   -0.001330
     0.013148   -0.001381    8.726201
   Ti   W    V    N    C    Zr   Mo
     7     6     6    13    19     7     6
Direct configuration=     2
   0.99751135  0.00678242  0.00591664
   0.24185906  0.01087481  0.24812888
   0.25731549  0.48668380  0.25222454
   0.49847297  0.50018652  0.00037030
   0.49515431  0.25687577  0.75153914
   0.00838423  0.49776933  0.49385215
   0.50471055  0.74365983  0.75013696
   0.99132715  0.23769017  0.26450693
   0.76947882  0.74597672  0.00184314
   0.01519393  0.26915262  0.74495561
   0.75992279  0.26932744  0.48439800
   0.99259941  0.72506511  0.74491362
   0.26188036  0.49528386  0.74951602
   0.26901214  0.26297169  0.98984173
   0.50973804  0.26200439  0.24261560
   0.75974131  0.98631589  0.23806293
   0.72298090  0.25641214  0.01940260
   0.22628793  0.73240197  0.00489166
   0.23777977  0.24756787  0.51683113
   0.24536724  0.24897222  0.24815282
   0.24452197  0.00743770  0.00839491
   0.99653220  0.23996847  0.00088473
   0.74734512  0.24044609  0.24415000
   0.75739343  0.00366282  0.00528674
   0.50210258  0.01021429  0.24763092
   0.00436446  0.48536110  0.25821160
   0.50281701  0.74698549  0.99188408
   0.99996664  0.00518026  0.75640878
   0.75265647  0.25427678  0.74203631
   0.75485881  0.01087847  0.49180957
   0.50674644  0.25533230  0.49880918
   0.50352254  0.00381050  0.75041785
   0.99709103  0.00239681  0.24630956
   0.49653737  0.25902916  0.00106573
   0.24346208  0.74869665  0.23862285
   0.25394686  0.49930742  0.00158520
   0.00420228  0.75293366  0.99818170
   0.75469409  0.74876655  0.25199297
   0.74093915  0.49532696  0.00179469
   0.49233328  0.49198857  0.24604590
   0.25480271  0.25231129  0.75229605
   0.24884795  0.00959751  0.49334877
   0.00414678  0.25401474  0.50469911
   0.24766765  0.74210127  0.76147264
   0.25247218  0.48712167  0.49903548
   0.99290845  0.75431991  0.50146707
   0.99985000  0.49819102  0.74345187
   0.74718918  0.74864338  0.75472431
   0.75695949  0.49728354  0.49892953
   0.50447115  0.74744023  0.50637252
   0.49868367  0.50046502  0.75184966
   0.49890063  0.00240371  0.00345104
   0.99720713  0.49117646  0.00754126
   0.49790993  0.74616254  0.24599461
   0.24461647  0.99814951  0.75643983
   0.50040235  0.00638306  0.49411728
   0.75729321  0.00386369  0.74792195
   0.24803757  0.74904952  0.49772159
   0.00050329  0.77089293  0.25069957
   0.72927754  0.49461420  0.24447769
   0.01268933  0.00709747  0.48703415
   0.49804105  0.50336615  0.49726656
   0.73563957  0.50734357  0.76223558
   0.75073184  0.72403369  0.50382887
HECN                                    
           1
     8.818939   -0.013565    0.013086
    -0.013583    8.802603   -0.001981
     0.013013   -0.002027    8.739094
   Ti   W    V    N    C    Zr   Mo
     7     6     6    13    19     7     6
Direct configuration=     3
   0.99745418  0.00693106  0.00590160
   0.24189535  0.01074818  0.24806118
   0.25731897  0.48678404  0.25226679
   0.49839510  0.50035863  0.00026941
   0.49528428  0.25672242  0.75147036
   0.00848596  0.49782239  0.49360899
   0.50466108  0.74378354  0.75013968
   0.99157149  0.23767219  0.26430941
   0.76949641  0.74598965  0.00183505
   0.01492733  0.26906584  0.74490810
   0.75965547  0.26931586  0.48451480
   0.99260064  0.72533055  0.74484038
   0.26194914  0.49532950  0.74945920
   0.26901408  0.26295262  0.99005220
   0.50955459  0.26189861  0.24267815
   0.75986866  0.98642765  0.23839352
   0.72320002  0.25624413  0.01941162
   0.22636932  0.73239665  0.00472133
   0.23787287  0.24754465  0.51670277
   0.24532467  0.24893573  0.24806849
   0.24447627  0.00735853  0.00850649
   0.99662856  0.23974566  0.00092035
   0.74735368  0.24060564  0.24427802
   0.75744499  0.00367766  0.00541319
   0.50204897  0.01024741  0.24760198
   0.00442118  0.48531202  0.25817216
   0.50289837  0.74694121  0.99183395
   0.99993793  0.00518412  0.75642206
   0.75275707  0.25435634  0.74203595
   0.75495353  0.01074850  0.49176192
   0.50669387  0.25540504  0.49890228
   0.50349249  0.00377311  0.75040600
   0.99715631  0.00250748  0.24620921
   0.49664005  0.25892822  0.00104828
   0.24357001  0.74867265  0.23871213
   0.25400029  0.49933616  0.00156430
   0.00422931  0.75280321  0.99814307
   0.75465463  0.74886248  0.25194503
   0.74098993  0.49527085  0.00188760
   0.49219358  0.49217966  0.24599600
   0.25474096  0.25234637  0.75241737
   0.24909504  0.00964566  0.49342163
   0.00398705  0.25396503  0.50465416
   0.24762514  0.74208605  0.76152037
   0.25246589  0.48699345  0.49895884
   0.99287251  0.75444581  0.50145920
   0.99975893  0.49795569  0.74349439
   0.74712518  0.74881118  0.75473664
   0.75691396  0.49715840  0.49882024
   0.50437168  0.74765523  0.50637166
   0.49875886  0.50042257  0.75182568
   0.49894817  0.00241197  0.00338029
   0.99733121  0.49124418  0.00742833
   0.49790557  0.74610679  0.24613517
   0.24461948  0.99819925  0.75639168
   0.50016275  0.00636797  0.49427655
   0.75723298  0.00373603  0.74785594
   0.24799035  0.74912216  0.49772555
   0.00047944  0.77074689  0.25083385
   0.72926128  0.49468714  0.24447740
   0.01246562  0.00707034  0.48708868
   0.49804029  0.50327404  0.49732656
   0.73562258  0.50713450  0.76229038
   0.75078514  0.72424412  0.50373714
HECN                                    
           1
     8.820041   -0.013506    0.013539
    -0.013523    8.804947   -0.001187
     0.013464   -0.001238    8.739570
   Ti   W    V    N    C    Zr   Mo
     7     6     6    13    19     7     6
Direct configuration=     4
   0.99756941  0.00669454  0.00591205
   0.24187702  0.01098549  0.24815463
   0.25727599  0.48660481  0.25219891
   0.49847542  0.50011551  0.00044453
   0.49512412  0.25691933  0.75155381
   0.00833100  0.49778226  0.49400148
   0.50472663  0.74362829  0.75016886
   0.99120471  0.23773680  0.26443360
   0.76935030  0.74604946  0.00183470
   0.01520350  0.26911857  0.74514592
   0.75998724  0.26919831  0.48444718
   0.99264323  0.72524333  0.74495841
   0.26179030  0.49531728  0.74955963
   0.26889128  0.26293854  0.98976426
   0.50979940  0.26195461  0.24263405
   0.75958577  0.98626932  0.23786595
   0.72296211  0.25647830  0.01923352
   0.22635200  0.73245964  0.00494591
   0.23785965  0.24760454  0.51679531
   0.24543252  0.24900469  0.24822182
   0.24450128  0.00748665  0.00837590
   0.99646647  0.24003669  0.00087068
   0.74732840  0.24029515  0.24405546
   0.75737955  0.00369006  0.00521224
   0.50213983  0.01021690  0.24763310
   0.00432486  0.48541549  0.25826268
   0.50273947  0.74699301  0.99186993
   0.00001097  0.00519794  0.75638960
   0.75259341  0.25428083  0.74207784
   0.75484591  0.01095220  0.49179637
   0.50675767  0.25531754  0.49873248
   0.50353498  0.00382567  0.75039525
   0.99703444  0.00245536  0.24629120
   0.49644042  0.25905787  0.00104823
   0.24345794  0.74870791  0.23858383
   0.25392063  0.49930375  0.00164625
   0.00421629  0.75300255  0.99818585
   0.75469046  0.74869845  0.25204632
   0.74088765  0.49532802  0.00176884
   0.49230095  0.49197087  0.24604320
   0.25492631  0.25224291  0.75224711
   0.24889365  0.00957109  0.49332340
   0.00427102  0.25405883  0.50476933
   0.24771082  0.74210924  0.76148351
   0.25245143  0.48715489  0.49902447
   0.99293812  0.75426662  0.50144813
   0.99989154  0.49811258  0.74347949
   0.74719424  0.74868212  0.75471274
   0.75701079  0.49724207  0.49898452
   0.50449553  0.74740004  0.50636672
   0.49866762  0.50048723  0.75188309
   0.49887026  0.00241452  0.00339455
   0.99716090  0.49118845  0.00757809
   0.49789721  0.74615031  0.24594211
   0.24470025  0.99808644  0.75642268
   0.50048510  0.00636444  0.49412044
   0.75726368  0.00392472  0.74796095
   0.24808618  0.74901982  0.49769591
   0.00051071  0.77079345  0.25064585
   0.72944787  0.49454820  0.24453429
   0.01263711  0.00706553  0.48714760
   0.49806640  0.50333833  0.49725790
   0.73568225  0.50728976  0.76212168
   0.75072850  0.72415256  0.50389630
HECN                                    
           1
     8.820870   -0.013461    0.013879
    -0.013479    8.806711   -0.000589
     0.013803   -0.000645    8.739928
   Ti   W    V    N    C    Zr   Mo
     7     6     6    13    19     7     6
Direct configuration=     5
   0.99765614  0.00651653  0.00591994
   0.24186322  0.01116409  0.24822496
   0.25724365  0.48646993  0.25214783
   0.49853586  0.49993252  0.00057637
   0.49500357  0.25706751  0.75161661
   0.00821435  0.49775203  0.49429695
   0.50477597  0.74351145  0.75019084
   0.99092863  0.23778541  0.26452709
   0.76924032  0.74609448  0.00183444
   0.01541136  0.26915823  0.74532493
   0.76023698  0.26910984  0.48439628
   0.99267527  0.72517769  0.74504726
   0.26167073  0.49530807  0.74963524
   0.26879886  0.26292797  0.98954752
   0.50998366  0.26199675  0.24260084
   0.75937286  0.98615020  0.23746884
   0.72278303  0.25665455  0.01909945
   0.22633896  0.73250703  0.00511496
   0.23784969  0.24764960  0.51686497
   0.24551370  0.24905657  0.24833724
   0.24452012  0.00758309  0.00827759
   0.99634447  0.24025573  0.00083327
   0.74730939  0.24006149  0.24388795
   0.75733030  0.00369940  0.00506098
   0.50220823  0.01019394  0.24765653
   0.00425237  0.48549335  0.25833082
   0.50261987  0.74703199  0.99189701
   0.00006595  0.00520835  0.75636516
   0.75247022  0.25422399  0.74210937
   0.75476489  0.01110550  0.49182229
   0.50680571  0.25525170  0.49860467
   0.50356696  0.00386523  0.75038716
   0.99694270  0.00241613  0.24635292
   0.49629016  0.25915545  0.00104820
   0.24337359  0.74873446  0.23848725
   0.25386067  0.49927935  0.00170794
   0.00420648  0.75315257  0.99821803
   0.75471743  0.74857499  0.25212258
   0.74081066  0.49537106  0.00167945
   0.49238177  0.49181373  0.24607873
   0.25506583  0.25216506  0.75211896
   0.24874206  0.00951498  0.49324946
   0.00448476  0.25412941  0.50485601
   0.24777532  0.74212669  0.76145575
   0.25244054  0.48727638  0.49907386
   0.99298750  0.75413175  0.50143981
   0.99999135  0.49823065  0.74346827
   0.74724623  0.74858499  0.75469475
   0.75708367  0.49730502  0.49910817
   0.50458874  0.74720799  0.50636302
   0.49859894  0.50053589  0.75192630
   0.49881161  0.00241643  0.00340529
   0.99703270  0.49114649  0.00769083
   0.49789093  0.74618308  0.24579678
   0.24476105  0.99800154  0.75644602
   0.50072775  0.00636179  0.49400291
   0.75728678  0.00406671  0.74803999
   0.24815832  0.74894280  0.49767361
   0.00053425  0.77082851  0.25050432
   0.72958833  0.49444363  0.24457713
   0.01276620  0.00706192  0.48719195
   0.49808606  0.50338673  0.49720621
   0.73572717  0.50740662  0.76199468
   0.75068586  0.72408364  0.50401612
HECN                                    
           1
     8.821026   -0.013741    0.014819
    -0.013760    8.805610   -0.000483
     0.014732   -0.000538    8.741423
   Ti   W    V    N    C    Zr   Mo
     7     6     6    13    19     7     6
Direct configuration=     6
   0.99773833  0.00648221  0.00594884
   0.24182519  0.01152062  0.24823538
   0.25717431  0.48619868  0.25218254
   0.49842623  0.49987555  0.00068492
   0.49498858  0.25719606  0.75155279
   0.00819017  0.49776724  0.49450356
   0.50485561  0.74341974  0.75027933
   0.99045985  0.23773325  0.26458516
   0.76913157  0.74627605  0.00175514
   0.01564442  0.26924864  0.74576474
   0.76053670  0.26893283  0.48439269
   0.99270758  0.72543501  0.74510217
   0.26161321  0.49535278  0.74977814
   0.26849746  0.26294077  0.98921652
   0.51027307  0.26194204  0.24259014
   0.75907253  0.98586290  0.23671806
   0.72260064  0.25693999  0.01868181
   0.22634823  0.73249555  0.00525945
   0.23799126  0.24776823  0.51687667
   0.24559930  0.24913740  0.24856279
   0.24447489  0.00775989  0.00827905
   0.99614809  0.24028826  0.00080157
   0.74731540  0.23967499  0.24368003
   0.75730669  0.00374588  0.00488379
   0.50231543  0.01013194  0.24754590
   0.00413543  0.48552249  0.25851448
   0.50246185  0.74705095  0.99187476
   0.00018712  0.00528802  0.75632897
   0.75235379  0.25428606  0.74216007
   0.75476506  0.01140269  0.49185879
   0.50697603  0.25523264  0.49840476
   0.50362108  0.00391139  0.75031055
   0.99670653  0.00261467  0.24642480
   0.49597952  0.25908165  0.00102761
   0.24340358  0.74877888  0.23845059
   0.25374546  0.49927943  0.00180562
   0.00409440  0.75317694  0.99820998
   0.75470977  0.74837788  0.25221891
   0.74070969  0.49542918  0.00164569
   0.49241735  0.49183125  0.24614349
   0.25524604  0.25209817  0.75197583
   0.24900149  0.00944878  0.49326202
   0.00479611  0.25413613  0.50504141
   0.24783747  0.74205860  0.76148262
   0.25242961  0.48731048  0.49909562
   0.99305896  0.75404396  0.50143568
   0.00008460  0.49802041  0.74380297
   0.74734596  0.74874058  0.75472652
   0.75711823  0.49707401  0.49917070
   0.50461967  0.74712704  0.50629143
   0.49854737  0.50057652  0.75199513
   0.49870997  0.00256826  0.00329162
   0.99692019  0.49135300  0.00772195
   0.49789319  0.74594374  0.24575315
   0.24491144  0.99784757  0.75629452
   0.50083330  0.00632068  0.49402548
   0.75728713  0.00421427  0.74817319
   0.24825916  0.74887577  0.49753825
   0.00049737  0.77089764  0.25043774
   0.72984576  0.49416775  0.24477557
   0.01257761  0.00710308  0.48729186
   0.49819833  0.50325833  0.49717922
   0.73567814  0.50733111  0.76175072
   0.75080219  0.72409416  0.50424724
HECN                                    
           1
     8.821219   -0.014088    0.015987
    -0.014109    8.804241   -0.000350
     0.015888   -0.000404    8.743284
   Ti   W    V    N    C    Zr   Mo
     7     6     6    13    19     7     6
Direct configuration=     7
   0.99784058  0.00643951  0.00598480
   0.24177788  0.01196427  0.24824835
   0.25708804  0.48586115  0.25222574
   0.49828982  0.49980465  0.00081996
   0.49496993  0.25735602  0.75147339
   0.00816006  0.49778615  0.49476059
   0.50495467  0.74330563  0.75038941
   0.98987660  0.23766832  0.26465746
   0.76899627  0.74650198  0.00165650
   0.01593433  0.26936113  0.74631183
   0.76090960  0.26871259  0.48438820
   0.99274777  0.72575521  0.74517048
   0.26154164  0.49540841  0.74995592
   0.26812252  0.26295669  0.98880481
   0.51063314  0.26187397  0.24257678
   0.75869895  0.98550540  0.23578414
   0.72237377  0.25729517  0.01816230
   0.22635974  0.73248127  0.00543918
   0.23816740  0.24791586  0.51689119
   0.24570577  0.24923797  0.24884335
   0.24441863  0.00797989  0.00828087
   0.99590376  0.24032873  0.00076215
   0.74732288  0.23919405  0.24342138
   0.75727734  0.00380373  0.00466337
   0.50244883  0.01005480  0.24740826
   0.00398991  0.48555873  0.25874297
   0.50226525  0.74707453  0.99184711
   0.00033789  0.00538716  0.75628393
   0.75220893  0.25436329  0.74222314
   0.75476528  0.01177250  0.49190419
   0.50718796  0.25520893  0.49815605
   0.50368842  0.00396883  0.75021523
   0.99641269  0.00286170  0.24651424
   0.49559304  0.25898980  0.00100205
   0.24344090  0.74883416  0.23840497
   0.25360212  0.49927953  0.00192716
   0.00395496  0.75320726  0.99819998
   0.75470022  0.74813259  0.25233874
   0.74058408  0.49550150  0.00160370
   0.49246160  0.49185304  0.24622405
   0.25547027  0.25201495  0.75179777
   0.24932427  0.00936641  0.49327761
   0.00518347  0.25414450  0.50527200
   0.24791478  0.74197387  0.76151603
   0.25241600  0.48735291  0.49912269
   0.99314787  0.75393472  0.50143055
   0.00020057  0.49775879  0.74421932
   0.74747005  0.74893420  0.75476601
   0.75716120  0.49678655  0.49924850
   0.50465815  0.74702632  0.50620238
   0.49848320  0.50062708  0.75208075
   0.49858353  0.00275719  0.00315024
   0.99678022  0.49160997  0.00776066
   0.49789601  0.74564591  0.24569889
   0.24509855  0.99765600  0.75610605
   0.50096463  0.00626953  0.49405354
   0.75728755  0.00439789  0.74833888
   0.24838465  0.74879238  0.49736985
   0.00045149  0.77098367  0.25035491
   0.73016601  0.49382447  0.24502239
   0.01234297  0.00715429  0.48741617
   0.49833800  0.50309856  0.49714563
   0.73561716  0.50723715  0.76144725
   0.75094689  0.72410726  0.50453473
HECN                                    
           1
     8.819570   -0.013885    0.016268
    -0.013906    8.803146   -0.000361
     0.016166   -0.000415    8.741372
   Ti   W    V    N    C    Zr   Mo
     7     6     6    13    19     7     6
Direct configuration=     8
   0.99791494  0.00648608  0.00597183
   0.24177185  0.01222522  0.24834111
   0.25699949  0.48561145  0.25231807
   0.49816714  0.49981899  0.00085497
   0.49507922  0.25740618  0.75135168
   0.00817239  0.49779516  0.49489815
   0.50504374  0.74330734  0.75040520
   0.98944949  0.23778021  0.26475906
   0.76889295  0.74668028  0.00157998
   0.01618388  0.26915196  0.74664174
   0.76116504  0.26828563  0.48436225
   0.99277899  0.72569105  0.74519479
   0.26159605  0.49550135  0.75003309
   0.26780359  0.26293814  0.98849849
   0.51090281  0.26182657  0.24254198
   0.75849457  0.98518260  0.23502583
   0.72224444  0.25750125  0.01769848
   0.22637818  0.73244111  0.00554834
   0.23831560  0.24794621  0.51692301
   0.24570963  0.24926829  0.24907151
   0.24431696  0.00812884  0.00828431
   0.99574640  0.24029783  0.00078866
   0.74732841  0.23884131  0.24325686
   0.75723804  0.00389238  0.00455721
   0.50254068  0.00998951  0.24729605
   0.00391969  0.48557751  0.25886168
   0.50215146  0.74705527  0.99182241
   0.00040474  0.00537725  0.75626355
   0.75218299  0.25453700  0.74231576
   0.75481922  0.01195712  0.49194437
   0.50740355  0.25518924  0.49801607
   0.50371397  0.00398535  0.75011732
   0.99616412  0.00286578  0.24653463
   0.49532407  0.25902938  0.00097029
   0.24347959  0.74888317  0.23840992
   0.25347773  0.49931172  0.00199216
   0.00390422  0.75323937  0.99820752
   0.75469222  0.74797363  0.25242629
   0.74050908  0.49561596  0.00161233
   0.49250012  0.49173045  0.24626375
   0.25554644  0.25200454  0.75169689
   0.24940690  0.00939341  0.49325713
   0.00541780  0.25415328  0.50547698
   0.24795680  0.74192499  0.76154132
   0.25246659  0.48730348  0.49916344
   0.99322194  0.75392667  0.50137095
   0.00016527  0.49804969  0.74449109
   0.74749095  0.74905869  0.75477977
   0.75721162  0.49682807  0.49929842
   0.50469095  0.74701795  0.50619616
   0.49846461  0.50063183  0.75211534
   0.49845294  0.00278995  0.00311943
   0.99670265  0.49179617  0.00786003
   0.49795966  0.74559806  0.24570782
   0.24512283  0.99753365  0.75594845
   0.50109623  0.00620977  0.49397620
   0.75736917  0.00453180  0.74848097
   0.24837083  0.74879147  0.49724505
   0.00040835  0.77119165  0.25042186
   0.73027224  0.49354480  0.24518775
   0.01227289  0.00727046  0.48755730
   0.49845707  0.50296082  0.49713382
   0.73552669  0.50721805  0.76128099
   0.75106801  0.72394831  0.50473280
HECN                                    
           1
     8.818668   -0.013774    0.016421
    -0.013794    8.802547   -0.000368
     0.016318   -0.000421    8.740327
   Ti   W    V    N    C    Zr   Mo
     7     6     6    13    19     7     6
Direct configuration=     9
   0.99795560  0.00651154  0.00596474
   0.24176854  0.01236790  0.24839183
   0.25695107  0.48547492  0.25236856
   0.49810005  0.49982683  0.00087412
   0.49513899  0.25743360  0.75128512
   0.00817913  0.49780008  0.49497337
   0.50509245  0.74330827  0.75041383
   0.98921595  0.23784140  0.26481463
   0.76883646  0.74677777  0.00153814
   0.01632034  0.26903758  0.74682213
   0.76130472  0.26805217  0.48434806
   0.99279606  0.72565596  0.74520808
   0.26162580  0.49555217  0.75007528
   0.26762920  0.26292799  0.98833099
   0.51105026  0.26180065  0.24252295
   0.75838283  0.98500610  0.23461117
   0.72217373  0.25761392  0.01744486
   0.22638826  0.73241915  0.00560803
   0.23839664  0.24796281  0.51694041
   0.24571173  0.24928487  0.24919628
   0.24426136  0.00821029  0.00828620
   0.99566035  0.24028093  0.00080315
   0.74733145  0.23864845  0.24316690
   0.75721655  0.00394086  0.00449916
   0.50259091  0.00995382  0.24723469
   0.00388129  0.48558778  0.25892660
   0.50208924  0.74704474  0.99180891
   0.00044129  0.00537183  0.75625241
   0.75216880  0.25463198  0.74236641
   0.75484872  0.01205807  0.49196635
   0.50752144  0.25517848  0.49793952
   0.50372794  0.00399438  0.75006378
   0.99602820  0.00286801  0.24654578
   0.49517700  0.25905103  0.00095293
   0.24350074  0.74890996  0.23841263
   0.25340970  0.49932932  0.00202772
   0.00387648  0.75325693  0.99821165
   0.75468784  0.74788671  0.25247417
   0.74046807  0.49567855  0.00161705
   0.49252118  0.49166341  0.24628546
   0.25558809  0.25199885  0.75164173
   0.24945209  0.00940818  0.49324594
   0.00554593  0.25415808  0.50558906
   0.24797978  0.74189827  0.76155514
   0.25249425  0.48727645  0.49918573
   0.99326244  0.75392226  0.50133836
   0.00014597  0.49820874  0.74463970
   0.74750237  0.74912676  0.75478729
   0.75723919  0.49685077  0.49932571
   0.50470888  0.74701338  0.50619276
   0.49845445  0.50063443  0.75213426
   0.49838153  0.00280787  0.00310259
   0.99666022  0.49189798  0.00791436
   0.49799447  0.74557189  0.24571269
   0.24513611  0.99746675  0.75586227
   0.50116819  0.00617710  0.49393391
   0.75741379  0.00460502  0.74855867
   0.24836327  0.74879096  0.49717681
   0.00038476  0.77130537  0.25045847
   0.73033033  0.49339188  0.24527818
   0.01223457  0.00733398  0.48763447
   0.49852218  0.50288551  0.49712736
   0.73547723  0.50720761  0.76119007
   0.75113424  0.72386140  0.50484111
HECN                                    
           1
     8.820614   -0.013319    0.016281
    -0.013340    8.805033   -0.000356
     0.016180   -0.000409    8.741677
   Ti   W    V    N    C    Zr   Mo
     7     6     6    13    19     7     6
Direct configuration=    10
   0.99802341  0.00659645  0.00589946
   0.24174985  0.01240698  0.24850886
   0.25690560  0.48537421  0.25246326
   0.49805500  0.49987300  0.00084516
   0.49526256  0.25735291  0.75119962
   0.00816657  0.49772872  0.49504494
   0.50512529  0.74341173  0.75032798
   0.98908458  0.23792226  0.26486164
   0.76878389  0.74685779  0.00149842
   0.01636162  0.26909257  0.74695604
   0.76138342  0.26784717  0.48433800
   0.99278523  0.72563796  0.74519182
   0.26167467  0.49557835  0.75003152
   0.26747684  0.26289953  0.98820438
   0.51119144  0.26176498  0.24246280
   0.75834791  0.98480943  0.23420100
   0.72214825  0.25765887  0.01712081
   0.22641858  0.73240523  0.00565580
   0.23846687  0.24787972  0.51696233
   0.24564251  0.24925480  0.24933588
   0.24415844  0.00826408  0.00826747
   0.99561494  0.24030336  0.00090261
   0.74727757  0.23845238  0.24303184
   0.75715468  0.00404854  0.00447378
   0.50262119  0.00992808  0.24721020
   0.00390612  0.48557632  0.25896157
   0.50205012  0.74702288  0.99180014
   0.00043850  0.00534599  0.75625030
   0.75222354  0.25477146  0.74253014
   0.75490879  0.01210098  0.49198125
   0.50766289  0.25512300  0.49791796
   0.50372540  0.00397066  0.74999913
   0.99590386  0.00289919  0.24656349
   0.49507677  0.25916855  0.00091123
   0.24350330  0.74894976  0.23842230
   0.25334493  0.49935148  0.00203986
   0.00391528  0.75333000  0.99824442
   0.75471534  0.74783343  0.25252809
   0.74043288  0.49579387  0.00164535
   0.49250668  0.49150422  0.24627107
   0.25565626  0.25200573  0.75162176
   0.24935497  0.00949461  0.49318713
   0.00564046  0.25422651  0.50569882
   0.24798333  0.74190251  0.76155224
   0.25258346  0.48721422  0.49923244
   0.99326385  0.75397193  0.50128772
   0.00009411  0.49823103  0.74462015
   0.74746854  0.74912446  0.75474063
   0.75733611  0.49682564  0.49934774
   0.50475565  0.74701899  0.50625089
   0.49845460  0.50063153  0.75211739
   0.49825626  0.00272925  0.00307101
   0.99661951  0.49184545  0.00803881
   0.49806539  0.74567240  0.24574256
   0.24508763  0.99746492  0.75582541
   0.50129531  0.00613616  0.49383856
   0.75747216  0.00470046  0.74867831
   0.24831978  0.74881756  0.49714813
   0.00034449  0.77140477  0.25059501
   0.73029902  0.49318360  0.24537699
   0.01228975  0.00746292  0.48776025
   0.49858647  0.50289166  0.49713120
   0.73538996  0.50723017  0.76116387
   0.75118830  0.72372332  0.50491177
HECN                                    
           1
     8.821148   -0.013195    0.016242
    -0.013215    8.805714   -0.000353
     0.016142   -0.000406    8.742047
   Ti   W    V    N    C    Zr   Mo
     7     6     6    13    19     7     6
Direct configuration=    11
   0.99804199  0.00661971  0.00588157
   0.24174473  0.01241769  0.24854092
   0.25689315  0.48534662  0.25248920
   0.49804266  0.49988565  0.00083722
   0.49529641  0.25733080  0.75117620
   0.00816312  0.49770918  0.49506455
   0.50513428  0.74344007  0.75030446
   0.98904859  0.23794441  0.26487452
   0.76876949  0.74687971  0.00148753
   0.01637293  0.26910763  0.74699273
   0.76140498  0.26779102  0.48433524
   0.99278226  0.72563303  0.74518737
   0.26168806  0.49558552  0.75001953
   0.26743509  0.26289173  0.98816969
   0.51123011  0.26175521  0.24244632
   0.75833835  0.98475555  0.23408863
   0.72214126  0.25767118  0.01703203
   0.22642688  0.73240142  0.00566889
   0.23848611  0.24785696  0.51696834
   0.24562355  0.24924657  0.24937412
   0.24413024  0.00827882  0.00826233
   0.99560250  0.24030951  0.00092986
   0.74726281  0.23839867  0.24299484
   0.75713773  0.00407803  0.00446683
   0.50262948  0.00992103  0.24720349
   0.00391293  0.48557318  0.25897115
   0.50203941  0.74701689  0.99179773
   0.00043773  0.00533892  0.75624972
   0.75223854  0.25480966  0.74257500
   0.75492525  0.01211273  0.49198533
   0.50770164  0.25510780  0.49791206
   0.50372471  0.00396416  0.74998142
   0.99586980  0.00290773  0.24656834
   0.49504931  0.25920074  0.00089980
   0.24350400  0.74896066  0.23842494
   0.25332718  0.49935755  0.00204319
   0.00392591  0.75335002  0.99825340
   0.75472288  0.74781884  0.25254286
   0.74042324  0.49582546  0.00165310
   0.49250271  0.49146062  0.24626713
   0.25567493  0.25200762  0.75161629
   0.24932836  0.00951829  0.49317102
   0.00566636  0.25424525  0.50572889
   0.24798430  0.74190367  0.76155144
   0.25260790  0.48719718  0.49924524
   0.99326424  0.75398553  0.50127384
   0.00007990  0.49823714  0.74461479
   0.74745928  0.74912383  0.75472785
   0.75736266  0.49681876  0.49935377
   0.50476846  0.74702053  0.50626682
   0.49845464  0.50063074  0.75211277
   0.49822194  0.00270771  0.00306236
   0.99660836  0.49183107  0.00807290
   0.49808481  0.74569993  0.24575074
   0.24507435  0.99746442  0.75581531
   0.50133013  0.00612495  0.49381243
   0.75748815  0.00472660  0.74871109
   0.24830786  0.74882485  0.49714027
   0.00033346  0.77143200  0.25063242
   0.73029045  0.49312654  0.24540406
   0.01230486  0.00749825  0.48779471
   0.49860409  0.50289335  0.49713225
   0.73536605  0.50723635  0.76115669
   0.75120311  0.72368550  0.50493113
HECN                                    
           1
     8.822214   -0.012946    0.016165
    -0.012966    8.807077   -0.000347
     0.016067   -0.000399    8.742787
   Ti   W    V    N    C    Zr   Mo