  64  64   0   0
  0.1129557E+02  0.8932500E-09  0.9055600E-09  0.8937200E-09  0.5000000E-15
  1.000000000000000E-004
  CAR 
 HECN                                    
     14.99917384    -49.82047248  301      9.14790704      1.00000000
    -49.820  0.0000E+00  0.0000E+00
    -49.604  0.0000E+00  0.0000E+00
    -49.388  0.0000E+00  0.0000E+00
    -49.172  0.0000E+00  0.0000E+00
    -48.956  0.0000E+00  0.0000E+00
    -48.740  0.0000E+00  0.0000E+00
    -48.524  0.0000E+00  0.0000E+00
    -48.308  0.0000E+00  0.0000E+00
    -48.092  0.0000E+00  0.0000E+00
    -47.876  0.0000E+00  0.0000E+00
    -47.660  0.0000E+00  0.0000E+00
    -47.444  0.3597E-16  0.7772E-17
    -47.228  0.2652E-07  0.5730E-08
    -47.012  0.2432E-02  0.5256E-03
    -46.796  0.1197E+00  0.2638E-01
    -46.579  0.3452E+00  0.1010E+00
    -46.363  0.1801E+00  0.1399E+00
    -46.147  0.5536E-03  0.1400E+00
    -45.931  0.5738E-09  0.1400E+00
    -45.715  0.0000E+00  0.1400E+00
    -45.499  0.0000E+00  0.1400E+00
    -45.283  0.0000E+00  0.1400E+00
    -45.067  0.0000E+00  0.1400E+00
    -44.851  0.0000E+00  0.1400E+00
    -44.635  0.0000E+00  0.1400E+00
    -44.419  0.0000E+00  0.1400E+00
    -44.203  0.0000E+00  0.1400E+00
    -43.987  0.0000E+00  0.1400E+00
    -43.771  0.0000E+00  0.1400E+00
    -43.555  0.0000E+00  0.1400E+00
    -43.339  0.0000E+00  0.1400E+00
    -43.122  0.0000E+00  0.1400E+00
    -42.906  0.0000E+00  0.1400E+00
    -42.690  0.0000E+00  0.1400E+00
    -42.474  0.0000E+00  0.1400E+00
    -42.258  0.0000E+00  0.1400E+00
    -42.042  0.0000E+00  0.1400E+00
    -41.826  0.0000E+00  0.1400E+00
    -41.610  0.0000E+00  0.1400E+00
    -41.394  0.0000E+00  0.1400E+00
    -41.178  0.0000E+00  0.1400E+00
    -40.962  0.0000E+00  0.1400E+00
    -40.746  0.0000E+00  0.1400E+00
    -40.530  0.0000E+00  0.1400E+00
    -40.314  0.0000E+00  0.1400E+00
    -40.098  0.0000E+00  0.1400E+00
    -39.881  0.0000E+00  0.1400E+00
    -39.665  0.0000E+00  0.1400E+00
    -39.449  0.0000E+00  0.1400E+00
    -39.233  0.0000E+00  0.1400E+00
    -39.017  0.0000E+00  0.1400E+00
    -38.801  0.0000E+00  0.1400E+00
    -38.585  0.0000E+00  0.1400E+00
    -38.369  0.0000E+00  0.1400E+00
    -38.153  0.0000E+00  0.1400E+00
    -37.937  0.0000E+00  0.1400E+00
    -37.721  0.0000E+00  0.1400E+00
    -37.505  0.0000E+00  0.1400E+00
    -37.289  0.0000E+00  0.1400E+00
    -37.073  0.0000E+00  0.1400E+00
    -36.857  0.0000E+00  0.1400E+00
    -36.640  0.0000E+00  0.1400E+00
    -36.424  0.0000E+00  0.1400E+00
    -36.208  0.0000E+00  0.1400E+00
    -35.992  0.0000E+00  0.1400E+00
    -35.776  0.0000E+00  0.1400E+00
    -35.560  0.0000E+00  0.1400E+00
    -35.344  0.0000E+00  0.1400E+00
    -35.128  0.1636E-12  0.1400E+00
    -34.912  0.4474E-05  0.1400E+00
    -34.696  0.1989E-01  0.1443E+00
    -34.480  0.3803E+00  0.2265E+00
    -34.264  0.1051E+01  0.4535E+00
    -34.048  0.2144E+00  0.4998E+00
    -33.832  0.8352E-03  0.5000E+00
    -33.616  0.1791E-08  0.5000E+00
    -33.399  0.0000E+00  0.5000E+00
    -33.183  0.0000E+00  0.5000E+00
    -32.967  0.0000E+00  0.5000E+00
    -32.751  0.0000E+00  0.5000E+00
    -32.535  0.0000E+00  0.5000E+00
    -32.319  0.0000E+00  0.5000E+00
    -32.103  0.0000E+00  0.5000E+00
    -31.887  0.0000E+00  0.5000E+00
    -31.671  0.0000E+00  0.5000E+00
    -31.455  0.0000E+00  0.5000E+00
    -31.239  0.0000E+00  0.5000E+00
    -31.023  0.0000E+00  0.5000E+00
    -30.807  0.1569E-12  0.5000E+00
    -30.591  0.4997E-05  0.5000E+00
    -30.375  0.3616E-01  0.5078E+00
    -30.159  0.6770E+00  0.6541E+00
    -29.942  0.7312E+00  0.8121E+00
    -29.726  0.2207E+00  0.8598E+00
    -29.510  0.1088E-02  0.8600E+00
    -29.294  0.2252E-08  0.8600E+00
    -29.078  0.0000E+00  0.8600E+00
    -28.862  0.0000E+00  0.8600E+00
    -28.646  0.0000E+00  0.8600E+00
    -28.430  0.0000E+00  0.8600E+00
    -28.214  0.0000E+00  0.8600E+00
    -27.998  0.0000E+00  0.8600E+00
    -27.782  0.0000E+00  0.8600E+00
    -27.566  0.0000E+00  0.8600E+00
    -27.350  0.0000E+00  0.8600E+00
    -27.134  0.1631E-11  0.8600E+00
    -26.918  0.1704E-04  0.8600E+00
    -26.701  0.3833E-01  0.8683E+00
    -26.485  0.3252E+00  0.9386E+00
    -26.269  0.3439E+00  0.1013E+01
    -26.053  0.5634E+00  0.1135E+01
    -25.837  0.3669E+00  0.1214E+01
    -25.621  0.2839E-01  0.1220E+01
    -25.405  0.4019E-05  0.1220E+01
    -25.189  0.1193E-12  0.1220E+01
    -24.973  0.0000E+00  0.1220E+01
    -24.757  0.0000E+00  0.1220E+01
    -24.541  0.0000E+00  0.1220E+01
    -24.325  0.0000E+00  0.1220E+01
    -24.109  0.0000E+00  0.1220E+01
    -23.893  0.0000E+00  0.1220E+01
    -23.677  0.2227E-16  0.1220E+01
    -23.460  0.2050E-07  0.1220E+01
    -23.244  0.2679E-02  0.1221E+01
    -23.028  0.2465E+00  0.1274E+01
    -22.812  0.8780E+00  0.1464E+01
    -22.596  0.6932E+00  0.1613E+01
    -22.380  0.1230E+00  0.1640E+01
    -22.164  0.6902E-01  0.1655E+01
    -21.948  0.3053E+00  0.1721E+01
    -21.732  0.4182E+00  0.1811E+01
    -21.516  0.2392E+00  0.1863E+01
    -21.300  0.5840E+00  0.1989E+01
    -21.084  0.1858E+00  0.2029E+01
    -20.868  0.1424E+00  0.2060E+01
    -20.652  0.5532E-03  0.2060E+01
    -20.436  0.6249E-09  0.2060E+01
    -20.220  0.0000E+00  0.2060E+01
    -20.003  0.0000E+00  0.2060E+01
    -19.787  0.0000E+00  0.2060E+01
    -19.571  0.0000E+00  0.2060E+01
    -19.355  0.0000E+00  0.2060E+01
    -19.139  0.0000E+00  0.2060E+01
    -18.923  0.0000E+00  0.2060E+01
    -18.707  0.0000E+00  0.2060E+01
    -18.491  0.0000E+00  0.2060E+01
    -18.275  0.0000E+00  0.2060E+01
    -18.059  0.0000E+00  0.2060E+01
    -17.843  0.0000E+00  0.2060E+01
    -17.627  0.0000E+00  0.2060E+01
    -17.411  0.0000E+00  0.2060E+01
    -17.195  0.0000E+00  0.2060E+01
    -16.979  0.0000E+00  0.2060E+01
    -16.762  0.0000E+00  0.2060E+01
    -16.546  0.0000E+00  0.2060E+01
    -16.330  0.0000E+00  0.2060E+01
    -16.114  0.0000E+00  0.2060E+01
    -15.898  0.0000E+00  0.2060E+01
    -15.682  0.0000E+00  0.2060E+01
    -15.466  0.0000E+00  0.2060E+01
    -15.250  0.0000E+00  0.2060E+01
    -15.034  0.0000E+00  0.2060E+01
    -14.818  0.0000E+00  0.2060E+01
    -14.602  0.0000E+00  0.2060E+01
    -14.386  0.0000E+00  0.2060E+01
    -14.170  0.0000E+00  0.2060E+01
    -13.954  0.0000E+00  0.2060E+01
    -13.738  0.0000E+00  0.2060E+01
    -13.521  0.0000E+00  0.2060E+01
    -13.305  0.0000E+00  0.2060E+01
    -13.089  0.0000E+00  0.2060E+01
    -12.873  0.0000E+00  0.2060E+01
    -12.657  0.0000E+00  0.2060E+01
    -12.441  0.0000E+00  0.2060E+01
    -12.225  0.0000E+00  0.2060E+01
    -12.009  0.0000E+00  0.2060E+01
    -11.793  0.0000E+00  0.2060E+01
    -11.577  0.0000E+00  0.2060E+01
    -11.361  0.0000E+00  0.2060E+01
    -11.145  0.0000E+00  0.2060E+01
    -10.929  0.0000E+00  0.2060E+01
    -10.713  0.0000E+00  0.2060E+01
    -10.497  0.0000E+00  0.2060E+01
    -10.280  0.0000E+00  0.2060E+01
    -10.064  0.0000E+00  0.2060E+01
     -9.848  0.0000E+00  0.2060E+01
     -9.632  0.0000E+00  0.2060E+01
     -9.416  0.0000E+00  0.2060E+01
     -9.200  0.0000E+00  0.2060E+01
     -8.984  0.0000E+00  0.2060E+01
     -8.768  0.0000E+00  0.2060E+01
     -8.552  0.0000E+00  0.2060E+01
     -8.336  0.0000E+00  0.2060E+01
     -8.120  0.0000E+00  0.2060E+01
     -7.904  0.6973E-15  0.2060E+01
     -7.688  0.4829E-07  0.2060E+01
     -7.472  0.6632E-03  0.2060E+01
     -7.256  0.2640E-01  0.2066E+01
     -7.040  0.6321E-01  0.2080E+01
     -6.823  0.7334E-01  0.2095E+01
     -6.607  0.1483E+00  0.2127E+01
     -6.391  0.1665E+00  0.2163E+01
     -6.175  0.1438E+00  0.2194E+01
     -5.959  0.1635E+00  0.2230E+01
     -5.743  0.1075E+00  0.2253E+01
     -5.527  0.2093E+00  0.2298E+01
     -5.311  0.9473E-01  0.2319E+01
     -5.095  0.6121E-02  0.2320E+01
     -4.879  0.2399E-06  0.2320E+01
     -4.663  0.8468E-10  0.2320E+01
     -4.447  0.4274E-04  0.2320E+01
     -4.231  0.1235E-01  0.2323E+01
     -4.015  0.6072E-01  0.2336E+01
     -3.799  0.2204E-01  0.2341E+01
     -3.582  0.7101E-01  0.2356E+01
     -3.366  0.9439E-01  0.2376E+01
     -3.150  0.1217E+00  0.2403E+01
     -2.934  0.1930E+00  0.2444E+01
     -2.718  0.2307E+00  0.2494E+01
     -2.502  0.2000E+00  0.2537E+01
     -2.286  0.1880E+00  0.2578E+01
     -2.070  0.2292E+00  0.2628E+01
     -1.854  0.1545E+00  0.2661E+01
     -1.638  0.9127E-01  0.2681E+01
     -1.422  0.7568E-01  0.2697E+01
     -1.206  0.1363E-01  0.2700E+01
     -0.990  0.3307E-03  0.2700E+01
     -0.774  0.1555E-07  0.2700E+01
     -0.558  0.1127E-15  0.2700E+01
     -0.341  0.0000E+00  0.2700E+01
     -0.125  0.0000E+00  0.2700E+01
      0.091  0.0000E+00  0.2700E+01
      0.307  0.1229E-09  0.2700E+01
      0.523  0.5239E-04  0.2700E+01
      0.739  0.6937E-02  0.2702E+01
      0.955  0.1535E-01  0.2705E+01
      1.171  0.7959E-01  0.2722E+01
      1.387  0.8468E-01  0.2740E+01
      1.603  0.1341E+00  0.2769E+01
      1.819  0.1531E+00  0.2802E+01
      2.035  0.1995E+00  0.2845E+01
      2.251  0.2990E+00  0.2910E+01
      2.467  0.2651E+00  0.2967E+01
      2.683  0.2439E+00  0.3020E+01
      2.900  0.3162E+00  0.3088E+01
      3.116  0.3040E+00  0.3154E+01
      3.332  0.3018E+00  0.3219E+01
      3.548  0.4515E+00  0.3317E+01
      3.764  0.5561E+00  0.3437E+01
      3.980  0.6201E+00  0.3571E+01
      4.196  0.6678E+00  0.3715E+01
      4.412  0.6475E+00  0.3855E+01
      4.628  0.6102E+00  0.3987E+01
      4.844  0.5382E+00  0.4103E+01
      5.060  0.4775E+00  0.4206E+01
      5.276  0.4133E+00  0.4296E+01
      5.492  0.3120E+00  0.4363E+01
      5.708  0.3039E+00  0.4429E+01
      5.924  0.3048E+00  0.4495E+01
      6.140  0.2393E+00  0.4546E+01
      6.357  0.1639E+00  0.4582E+01
      6.573  0.1287E+00  0.4610E+01
      6.789  0.6811E-01  0.4624E+01
      7.005  0.1197E+00  0.4650E+01
      7.221  0.1898E+00  0.4691E+01
      7.437  0.1812E+00  0.4730E+01
      7.653  0.1655E+00  0.4766E+01
      7.869  0.1815E+00  0.4805E+01
      8.085  0.1957E+00  0.4848E+01
      8.301  0.2261E+00  0.4896E+01
      8.517  0.2581E+00  0.4952E+01
      8.733  0.2946E+00  0.5016E+01
      8.949  0.2573E+00  0.5071E+01
      9.165  0.2436E+00  0.5124E+01
      9.381  0.2621E+00  0.5181E+01
      9.598  0.3434E+00  0.5255E+01
      9.814  0.3839E+00  0.5338E+01
     10.030  0.4220E+00  0.5429E+01
     10.246  0.4237E+00  0.5521E+01
     10.462  0.4271E+00  0.5613E+01
     10.678  0.4278E+00  0.5705E+01
     10.894  0.4203E+00  0.5796E+01
     11.110  0.4353E+00  0.5890E+01
     11.326  0.4285E+00  0.5983E+01
     11.542  0.4324E+00  0.6076E+01
     11.758  0.4191E+00  0.6167E+01
     11.974  0.2908E+00  0.6230E+01
     12.190  0.4789E-01  0.6240E+01
     12.406  0.4288E-03  0.6240E+01
     12.622  0.3979E-08  0.6240E+01
     12.839  0.6090E-17  0.6240E+01
     13.055  0.0000E+00  0.6240E+01
     13.271  0.0000E+00  0.6240E+01
     13.487  0.0000E+00  0.6240E+01
     13.703  0.0000E+00  0.6240E+01
     13.919  0.0000E+00  0.6240E+01
     14.135  0.0000E+00  0.6240E+01
     14.351  0.0000E+00  0.6240E+01
     14.567  0.0000E+00  0.6240E+01
     14.783  0.0000E+00  0.6240E+01
     14.999  0.0000E+00  0.6240E+01
