 running on   24 total cores
 distrk:  each k-point on   24 cores,    1 groups
 distr:  one band on    1 cores,   24 groups
 using from now: INCAR     
 vasp.5.4.4.18Apr17-6-g9f103f2a35 (build Oct 18 2021 20:38:43) complex          
  
 POSCAR found type information on POSCAR  Nb Ta Hf N  C  Cr W 
 POSCAR found :  7 types and      64 ions
 scaLAPACK will be used

 ----------------------------------------------------------------------------- 
|                                                                             |
|           W    W    AA    RRRRR   N    N  II  N    N   GGGG   !!!           |
|           W    W   A  A   R    R  NN   N  II  NN   N  G    G  !!!           |
|           W    W  A    A  R    R  N N  N  II  N N  N  G       !!!           |
|           W WW W  AAAAAA  RRRRR   N  N N  II  N  N N  G  GGG   !            |
|           WW  WW  A    A  R   R   N   NN  II  N   NN  G    G                |
|           W    W  A    A  R    R  N    N  II  N    N   GGGG   !!!           |
|                                                                             |
|      For optimal performance we recommend to set                            |
|        NCORE= 4 - approx SQRT( number of cores)                             |
|      NCORE specifies how many cores store one orbital (NPAR=cpu/NCORE).     |
|      This setting can  greatly improve the performance of VASP for DFT.     |
|      The default,   NCORE=1            might be grossly inefficient         |
|      on modern multi-core architectures or massively parallel machines.     |
|      Do your own testing !!!!                                               |
|      Unfortunately you need to use the default for GW and RPA calculations. |
|      (for HF NCORE is supported but not extensively tested yet)             |
|                                                                             |
 ----------------------------------------------------------------------------- 


 ----------------------------------------------------------------------------- 
|                                                                             |
|  ADVICE TO THIS USER RUNNING 'VASP/VAMP'   (HEAR YOUR MASTER'S VOICE ...):  |
|                                                                             |
|      You have a (more or less) 'large supercell' and for larger cells       |
|      it might be more efficient to use real space projection operators      |
|      So try LREAL= Auto  in the INCAR   file.                               |
|      Mind: If you want to do a very accurate calculations keep the          |
|      reciprocal projection scheme          (i.e. LREAL=.FALSE.)             |
|                                                                             |
 ----------------------------------------------------------------------------- 

 LDA part: xc-table for Pade appr. of Perdew
 POSCAR, INCAR and KPOINTS ok, starting setup
 FFT: planning ...
 WAVECAR not read
 entering main loop
       N       E                     dE             d eps       ncg     rms          rms(c)
DAV:   1     0.638509760058E+04    0.63851E+04   -0.21679E+05  8736   0.152E+03
DAV:   2     0.256639855192E+03   -0.61285E+04   -0.59118E+04  9072   0.639E+02
DAV:   3    -0.692806537389E+03   -0.94945E+03   -0.89566E+03 13776   0.216E+02
DAV:   4    -0.784934876579E+03   -0.92128E+02   -0.89046E+02 14592   0.818E+01
DAV:   5    -0.797853960413E+03   -0.12919E+02   -0.12650E+02 17472   0.264E+01    0.728E+01
RMM:   6    -0.978577654694E+03   -0.18072E+03   -0.23284E+03 11727   0.135E+02    0.126E+02
RMM:   7    -0.666676386380E+03    0.31190E+03   -0.26277E+02 13366   0.379E+01    0.361E+01
RMM:   8    -0.673391958272E+03   -0.67156E+01   -0.59756E+01 14252   0.140E+01    0.362E+01
RMM:   9    -0.668164374756E+03    0.52276E+01   -0.14511E+01 13173   0.107E+01    0.283E+01
RMM:  10    -0.664490593433E+03    0.36738E+01   -0.11052E+01 14544   0.554E+00    0.117E+01
RMM:  11    -0.666758829219E+03   -0.22682E+01   -0.35944E+00 11385   0.583E+00    0.253E+01
RMM:  12    -0.663853321650E+03    0.29055E+01   -0.47405E+00 12635   0.552E+00    0.988E+00
RMM:  13    -0.664666959814E+03   -0.81364E+00   -0.26550E+00 13668   0.357E+00    0.172E+01
RMM:  14    -0.663629848358E+03    0.10371E+01   -0.12505E+00 12590   0.300E+00    0.563E+00
RMM:  15    -0.663544514544E+03    0.85334E-01   -0.94815E-01 13781   0.181E+00    0.761E+00
RMM:  16    -0.663356532692E+03    0.18798E+00   -0.43185E-01 13375   0.159E+00    0.212E+00
RMM:  17    -0.663434607620E+03   -0.78075E-01   -0.63223E-01 14412   0.113E+00    0.457E+00
RMM:  18    -0.663388312517E+03    0.46295E-01   -0.20043E-01 12963   0.132E+00    0.139E+00
RMM:  19    -0.663388910296E+03   -0.59778E-03   -0.18605E-01 13402   0.560E-01    0.814E-01
RMM:  20    -0.663378565767E+03    0.10345E-01   -0.50223E-02 12643   0.651E-01    0.644E-01
RMM:  21    -0.663380990629E+03   -0.24249E-02   -0.76489E-02 13974   0.319E-01    0.208E-01
RMM:  22    -0.663382188622E+03   -0.11980E-02   -0.16659E-02 12368   0.317E-01    0.106E-01
RMM:  23    -0.663383503026E+03   -0.13144E-02   -0.14488E-02 13260   0.148E-01    0.107E-01
RMM:  24    -0.663384034544E+03   -0.53152E-03   -0.67402E-03 10992   0.167E-01    0.263E-02
RMM:  25    -0.663384641577E+03   -0.60703E-03   -0.63218E-03 11630   0.844E-02    0.329E-02
RMM:  26    -0.663384983102E+03   -0.34152E-03   -0.36559E-03 10807   0.658E-02    0.237E-02
RMM:  27    -0.663385109186E+03   -0.12608E-03   -0.13990E-03  9775   0.473E-02    0.116E-02
RMM:  28    -0.663385173211E+03   -0.64025E-04   -0.65595E-04  9558   0.392E-02    0.721E-03
RMM:  29    -0.663385209762E+03   -0.36551E-04   -0.40291E-04  9179   0.295E-02    0.107E-02
RMM:  30    -0.663385230496E+03   -0.20735E-04   -0.20970E-04  8666   0.247E-02    0.416E-03
RMM:  31    -0.663385243864E+03   -0.13368E-04   -0.13470E-04  8156   0.206E-02    0.667E-03
RMM:  32    -0.663385252780E+03   -0.89151E-05   -0.84827E-05  7747   0.173E-02
   1 F= -.66338525E+03 E0= -.66327732E+03  d E =-.663385E+03
 curvature:   0.00 expect dE= 0.000E+00 dE for cont linesearch  0.000E+00
 trial: gam= 0.00000 g(F)=  0.338E+01 g(S)=  0.516E+01 ort = 0.000E+00 (trialstep = 0.100E+01)
 search vector abs. value=  0.854E+01
 bond charge predicted
       N       E                     dE             d eps       ncg     rms          rms(c)
DAV:   1    -0.696034711083E+03   -0.32649E+02   -0.17207E+03 12096   0.198E+02    0.509E+01
RMM:   2    -0.851939526887E+03   -0.15590E+03   -0.88125E+02 10331   0.116E+02    0.100E+02
RMM:   3    -0.669319050694E+03    0.18262E+03   -0.81988E+01 11772   0.325E+01    0.236E+01
RMM:   4    -0.677119189908E+03   -0.78001E+01   -0.21715E+01 11526   0.166E+01    0.413E+01
RMM:   5    -0.666877862524E+03    0.10241E+02   -0.12999E+01 11149   0.126E+01    0.240E+01
RMM:   6    -0.665681950266E+03    0.11959E+01   -0.72152E+00 11780   0.765E+00    0.202E+01
RMM:   7    -0.664004157427E+03    0.16778E+01   -0.46286E+00 12304   0.513E+00    0.969E+00
RMM:   8    -0.664420713426E+03   -0.41656E+00   -0.13021E+00 11675   0.339E+00    0.139E+01
RMM:   9    -0.663484692689E+03    0.93602E+00   -0.65659E-01 11979   0.263E+00    0.350E+00
RMM:  10    -0.663556006680E+03   -0.71314E-01   -0.39689E-01 14566   0.132E+00    0.506E+00
RMM:  11    -0.663462034810E+03    0.93972E-01   -0.20055E-01 14773   0.105E+00    0.166E+00
RMM:  12    -0.663489060678E+03   -0.27026E-01   -0.12396E-01 14732   0.817E-01    0.176E+00
RMM:  13    -0.663502825845E+03   -0.13765E-01   -0.68776E-02 14989   0.643E-01    0.223E+00
RMM:  14    -0.663493087381E+03    0.97385E-02   -0.68776E-02 15085   0.556E-01    0.448E-01
RMM:  15    -0.663496339296E+03   -0.32519E-02   -0.33079E-02 15224   0.441E-01    0.218E-01
RMM:  16    -0.663498425391E+03   -0.20861E-02   -0.23730E-02 15163   0.340E-01    0.148E-01
RMM:  17    -0.663499839927E+03   -0.14145E-02   -0.16607E-02 14635   0.283E-01    0.106E-01
RMM:  18    -0.663500687772E+03   -0.84785E-03   -0.94772E-03 14332   0.206E-01    0.773E-02
RMM:  19    -0.663501126810E+03   -0.43904E-03   -0.48484E-03 13943   0.164E-01    0.407E-02
RMM:  20    -0.663501444827E+03   -0.31802E-03   -0.34955E-03 14025   0.109E-01    0.633E-02
RMM:  21    -0.663501586632E+03   -0.14180E-03   -0.15604E-03 13157   0.925E-02    0.151E-02
RMM:  22    -0.663501698295E+03   -0.11166E-03   -0.12242E-03 12565   0.717E-02    0.529E-02
RMM:  23    -0.663501758049E+03   -0.59754E-04   -0.64510E-04 12112   0.555E-02    0.419E-02
RMM:  24    -0.663501798207E+03   -0.40157E-04   -0.40818E-04 11608   0.436E-02    0.344E-02
RMM:  25    -0.663501821650E+03   -0.23443E-04   -0.21790E-04 10856   0.369E-02    0.136E-02
RMM:  26    -0.663501836943E+03   -0.15293E-04   -0.14670E-04 10433   0.287E-02    0.932E-03
RMM:  27    -0.663501846376E+03   -0.94326E-05   -0.92835E-05  9430   0.235E-02
   2 F= -.66350185E+03 E0= -.66342102E+03  d E =-.116594E+00
 trial-energy change:   -0.116594  1 .order    0.342702   -8.535809    9.221213
 step:   0.5194(harm=  0.4807)  dis= 0.04329  next Energy=  -665.666546 (dE=-0.228E+01)
 bond charge predicted
       N       E                     dE             d eps       ncg     rms          rms(c)
DAV:   1    -0.675443280898E+03   -0.11941E+02   -0.42948E+02 12096   0.936E+01    0.367E+01
RMM:   2    -0.796583337060E+03   -0.12114E+03   -0.11384E+02 13117   0.298E+01    0.682E+01
RMM:   3    -0.674069921886E+03    0.12251E+03   -0.38110E+01 11173   0.252E+01    0.296E+01
RMM:   4    -0.672580946580E+03    0.14890E+01   -0.19162E+01 11543   0.139E+01    0.324E+01
RMM:   5    -0.672759937180E+03   -0.17899E+00   -0.12577E+01 11091   0.105E+01    0.309E+01
RMM:   6    -0.667215535457E+03    0.55444E+01   -0.32011E+00 10707   0.670E+00    0.177E+01
RMM:   7    -0.666367895149E+03    0.84764E+00   -0.20456E+00 11639   0.449E+00    0.105E+01
RMM:   8    -0.666261746912E+03    0.10615E+00   -0.65919E-01 12439   0.210E+00    0.104E+01
RMM:   9    -0.665724861881E+03    0.53689E+00   -0.26317E-01 12200   0.169E+00    0.318E+00
RMM:  10    -0.665766402437E+03   -0.41541E-01   -0.16530E-01 13642   0.907E-01    0.447E+00
RMM:  11    -0.665714471229E+03    0.51931E-01   -0.65415E-02 13484   0.707E-01    0.310E+00
RMM:  12    -0.665683735934E+03    0.30735E-01   -0.78451E-02 12477   0.927E-01    0.258E+00
RMM:  13    -0.665664193950E+03    0.19542E-01   -0.65126E-02 14806   0.498E-01    0.604E-01
RMM:  14    -0.665666369960E+03   -0.21760E-02   -0.28909E-02 14595   0.326E-01    0.403E-01
RMM:  15    -0.665668524950E+03   -0.21550E-02   -0.15634E-02 12325   0.343E-01    0.416E-01
RMM:  16    -0.665669127709E+03   -0.60276E-03   -0.10265E-02 14546   0.213E-01    0.221E-01
RMM:  17    -0.665669798815E+03   -0.67111E-03   -0.76877E-03 14332   0.159E-01    0.199E-01
RMM:  18    -0.665669981176E+03   -0.18236E-03   -0.39096E-03 14043   0.137E-01    0.150E-01
RMM:  19    -0.665670065082E+03   -0.83906E-04   -0.22318E-03 13462   0.106E-01    0.582E-02
RMM:  20    -0.665670185841E+03   -0.12076E-03   -0.14343E-03 12282   0.725E-02    0.294E-02
RMM:  21    -0.665670268588E+03   -0.82746E-04   -0.93990E-04 10426   0.719E-02    0.419E-02
RMM:  22    -0.665670316852E+03   -0.48265E-04   -0.58932E-04 11306   0.494E-02    0.116E-02
RMM:  23    -0.665670349932E+03   -0.33079E-04   -0.38048E-04 10958   0.374E-02    0.690E-03
RMM:  24    -0.665670363348E+03   -0.13417E-04   -0.17662E-04  9995   0.326E-02    0.566E-03
RMM:  25    -0.665670379895E+03   -0.16546E-04   -0.15645E-04  9568   0.249E-02    0.102E-02
RMM:  26    -0.665670383164E+03   -0.32696E-05   -0.70930E-05  8683   0.226E-02
   3 F= -.66567038E+03 E0= -.66557617E+03  d E =-.228513E+01
 curvature:  -0.24 expect dE=-0.809E+00 dE for cont linesearch -0.166E-02
 trial: gam= 0.36783 g(F)=  0.225E+01 g(S)=  0.113E+01 ort = 0.244E+00 (trialstep = 0.904E+00)
 search vector abs. value=  0.472E+01
 bond charge predicted
       N       E                     dE             d eps       ncg     rms          rms(c)
DAV:   1    -0.657042036238E+03    0.86283E+01   -0.68977E+02  9168   0.112E+02    0.115E+01
RMM:   2    -0.685358414359E+03   -0.28316E+02   -0.11862E+02 14009   0.312E+01    0.393E+01
RMM:   3    -0.668639493117E+03    0.16719E+02   -0.14962E+01 10575   0.177E+01    0.158E+01
RMM:   4    -0.667561252454E+03    0.10782E+01   -0.47659E+00 12567   0.594E+00    0.720E+00
RMM:   5    -0.667576680355E+03   -0.15428E-01   -0.13994E+00 13269   0.310E+00    0.938E+00
RMM:   6    -0.667227465743E+03    0.34921E+00   -0.52563E-01 13959   0.164E+00    0.268E+00
RMM:   7    -0.667333671666E+03   -0.10621E+00   -0.38005E-01 13481   0.137E+00    0.619E+00
RMM:   8    -0.667161865332E+03    0.17181E+00   -0.19750E-01 12453   0.131E+00    0.208E+00
RMM:   9    -0.667196197863E+03   -0.34333E-01   -0.19436E-01 13602   0.905E-01    0.369E+00
RMM:  10    -0.667138824065E+03    0.57374E-01   -0.58674E-02 11883   0.756E-01    0.970E-01
RMM:  11    -0.667140746958E+03   -0.19229E-02   -0.51210E-02 14635   0.346E-01    0.947E-01
RMM:  12    -0.667139055619E+03    0.16913E-02   -0.15382E-02 12958   0.301E-01    0.570E-01
RMM:  13    -0.667138613849E+03    0.44177E-03   -0.12312E-02 14584   0.190E-01    0.244E-01
RMM:  14    -0.667138805538E+03   -0.19169E-03   -0.48831E-03 14034   0.140E-01    0.948E-02
RMM:  15    -0.667139167385E+03   -0.36185E-03   -0.40992E-03 13557   0.904E-02    0.778E-02
RMM:  16    -0.667139310971E+03   -0.14359E-03   -0.18750E-03 12517   0.948E-02    0.352E-02
WARNING in EDDRMM: call to ZHEGV failed, returncode =   6  3     11
RMM:  17    -0.667139488780E+03   -0.17781E-03   -0.19144E-03 12429   0.494E-02    0.316E-02
RMM:  18    -0.667139530664E+03   -0.41884E-04   -0.55597E-04 11454   0.526E-02    0.168E-02
RMM:  19    -0.667139566657E+03   -0.35993E-04   -0.40148E-04 10519   0.299E-02    0.102E-02
RMM:  20    -0.667139582460E+03   -0.15803E-04   -0.18212E-04  9937   0.264E-02    0.737E-03
RMM:  21    -0.667139589720E+03   -0.72601E-05   -0.89519E-05  8223   0.226E-02
   4 F= -.66713959E+03 E0= -.66705943E+03  d E =-.146921E+01
 trial-energy change:   -1.469207  1 .order   -1.517947   -3.139253    0.103359
 step:   0.8723(harm=  0.8751)  dis= 0.08701  next Energy=  -667.141396 (dE=-0.147E+01)
 bond charge predicted
       N       E                     dE             d eps       ncg     rms          rms(c)
DAV:   1    -0.667128717531E+03    0.10865E-01   -0.82309E-01  9888   0.394E+00    0.378E-01
RMM:   2    -0.667169181901E+03   -0.40464E-01   -0.15682E-01 13967   0.114E+00    0.226E+00
RMM:   3    -0.667144197976E+03    0.24984E-01   -0.17828E-02 10570   0.565E-01    0.811E-01
RMM:   4    -0.667142040673E+03    0.21573E-02   -0.68598E-03 12082   0.241E-01    0.313E-01
RMM:   5    -0.667142350360E+03   -0.30969E-03   -0.20026E-03 12510   0.107E-01    0.470E-01
RMM:   6    -0.667141405171E+03    0.94519E-03   -0.52402E-04 10152   0.743E-02    0.919E-02
RMM:   7    -0.667141671540E+03   -0.26637E-03   -0.60470E-04 10907   0.594E-02    0.275E-01
RMM:   8    -0.667141309816E+03    0.36172E-03   -0.39185E-04 10319   0.580E-02    0.486E-02
RMM:   9    -0.667141359602E+03   -0.49786E-04   -0.19691E-04  8253   0.331E-02    0.106E-01
RMM:  10    -0.667141310202E+03    0.49400E-04   -0.60457E-05  5905   0.247E-02    0.196E-02
RMM:  11    -0.667141312340E+03   -0.21387E-05   -0.47072E-05  6137   0.164E-02
   5 F= -.66714131E+03 E0= -.66706080E+03  d E =-.147093E+01
 curvature:  -0.59 expect dE=-0.487E+00 dE for cont linesearch -0.257E-05
 trial: gam= 0.17861 g(F)=  0.791E+00 g(S)=  0.353E-01 ort = 0.454E-02 (trialstep = 0.898E+00)
 search vector abs. value=  0.978E+00
 bond charge predicted
       N       E                     dE             d eps       ncg     rms          rms(c)
DAV:   1    -0.664191264035E+03    0.29500E+01   -0.16464E+02 10176   0.722E+01    0.575E+00
RMM:   2    -0.671238381167E+03   -0.70471E+01   -0.39941E+01 13862   0.166E+01    0.224E+01
RMM:   3    -0.667807930055E+03    0.34305E+01   -0.35532E+00 10538   0.780E+00    0.645E+00
RMM:   4    -0.668039777820E+03   -0.23185E+00   -0.13844E+00 12090   0.340E+00    0.855E+00
RMM:   5    -0.667681869241E+03    0.35791E+00   -0.33731E-01 12481   0.163E+00    0.281E+00
RMM:   6    -0.667672490508E+03    0.93787E-02   -0.16531E-01 13547   0.791E-01    0.237E+00
RMM:   7    -0.667642656264E+03    0.29834E-01   -0.11536E-01 12566   0.726E-01    0.157E+00
RMM:   8    -0.667647394791E+03   -0.47385E-02   -0.42172E-02 11862   0.564E-01    0.191E+00
RMM:   9    -0.667630614102E+03    0.16781E-01   -0.32902E-02 13726   0.425E-01    0.457E-01
RMM:  10    -0.667636172623E+03   -0.55585E-02   -0.14478E-02 13145   0.286E-01    0.116E+00
RMM:  11    -0.667630265655E+03    0.59070E-02   -0.74449E-03 13640   0.210E-01    0.147E-01
RMM:  12    -0.667631454887E+03   -0.11892E-02   -0.55485E-03 13842   0.131E-01    0.415E-01
RMM:  13    -0.667630763770E+03    0.69112E-03   -0.20616E-03 13011   0.111E-01    0.956E-02
RMM:  14    -0.667630907218E+03   -0.14345E-03   -0.17816E-03 13217   0.551E-02    0.516E-02
RMM:  15    -0.667630945104E+03   -0.37886E-04   -0.53385E-04 12107   0.700E-02    0.237E-02
RMM:  16    -0.667631009276E+03   -0.64172E-04   -0.74274E-04 11901   0.354E-02    0.142E-02
RMM:  17    -0.667631019907E+03   -0.10631E-04   -0.17409E-04 10263   0.382E-02    0.102E-02
RMM:  18    -0.667631033277E+03   -0.13370E-04   -0.16026E-04  9589   0.237E-02    0.469E-03
RMM:  19    -0.667631039908E+03   -0.66305E-05   -0.78119E-05  8591   0.244E-02
   6 F= -.66763104E+03 E0= -.66755699E+03  d E =-.489728E+00
 trial-energy change:   -0.489728  1 .order   -0.485480   -0.742433   -0.228527
 step:   1.2705(harm=  1.2967)  dis= 0.06321  next Energy=  -667.678823 (dE=-0.538E+00)
 bond charge predicted
       N       E                     dE             d eps       ncg     rms          rms(c)
DAV:   1    -0.667092630058E+03    0.53840E+00   -0.28146E+01 10848   0.305E+01    0.242E+00
RMM:   2    -0.668340072292E+03   -0.12474E+01   -0.70312E+00 13702   0.707E+00    0.991E+00
RMM:   3    -0.667721015427E+03    0.61906E+00   -0.68716E-01 10503   0.347E+00    0.318E+00
RMM:   4    -0.667734210784E+03   -0.13195E-01   -0.27117E-01 12388   0.140E+00    0.305E+00
RMM:   5    -0.667695035408E+03    0.39175E-01   -0.55869E-02 12362   0.661E-01    0.163E+00
RMM:   6    -0.667685680151E+03    0.93553E-02   -0.24664E-02 13052   0.351E-01    0.776E-01
RMM:   7    -0.667686264526E+03   -0.58438E-03   -0.20413E-02 12239   0.324E-01    0.112E+00
RMM:   8    -0.667681076125E+03    0.51884E-02   -0.75077E-03 11661   0.251E-01    0.469E-01
RMM:   9    -0.667680826314E+03    0.24981E-03   -0.67891E-03 13989   0.183E-01    0.441E-01
RMM:  10    -0.667680130081E+03    0.69623E-03   -0.21690E-03 11695   0.134E-01    0.208E-01
RMM:  11    -0.667680122428E+03    0.76525E-05   -0.16883E-03 13270   0.725E-02    0.175E-01
RMM:  12    -0.667680060496E+03    0.61932E-04   -0.58088E-04 11115   0.680E-02    0.983E-02
RMM:  13    -0.667680066587E+03   -0.60908E-05   -0.51673E-04 12165   0.353E-02    0.340E-02
RMM:  14    -0.667680074900E+03   -0.83128E-05   -0.16881E-04 10210   0.380E-02    0.206E-02
RMM:  15    -0.667680087796E+03   -0.12896E-04   -0.20556E-04  9565   0.231E-02    0.707E-03
RMM:  16    -0.667680091898E+03   -0.41019E-05   -0.68679E-05  7820   0.240E-02
   7 F= -.66768009E+03 E0= -.66760820E+03  d E =-.538780E+00
 curvature:  -0.76 expect dE=-0.372E+00 dE for cont linesearch -0.133E-04
 trial: gam= 0.54898 g(F)=  0.299E+00 g(S)=  0.188E+00 ort = 0.413E-02 (trialstep = 0.972E+00)
 search vector abs. value=  0.786E+00
 bond charge predicted
       N       E                     dE             d eps       ncg     rms          rms(c)
DAV:   1    -0.665449228819E+03    0.22309E+01   -0.15697E+02 12768   0.750E+01    0.876E+00
RMM:   2    -0.678405621234E+03   -0.12956E+02   -0.47072E+01 11084   0.219E+01    0.344E+01
RMM:   3    -0.668046796301E+03    0.10359E+02   -0.70958E+00 11101   0.103E+01    0.678E+00
RMM:   4    -0.668241372761E+03   -0.19458E+00   -0.21124E+00 13745   0.342E+00    0.783E+00
RMM:   5    -0.667893253494E+03    0.34812E+00   -0.36957E-01 10872   0.213E+00    0.264E+00
RMM:   6    -0.667946975797E+03   -0.53722E-01   -0.25023E-01 12008   0.123E+00    0.440E+00
RMM:   7    -0.667849074183E+03    0.97902E-01   -0.15754E-01 11694   0.119E+00    0.166E+00
RMM:   8    -0.667875024412E+03   -0.25950E-01   -0.81105E-02 11933   0.814E-01    0.275E+00
RMM:   9    -0.667835833570E+03    0.39191E-01   -0.39169E-02 12585   0.571E-01    0.582E-01
RMM:  10    -0.667838102372E+03   -0.22688E-02   -0.25773E-02 14705   0.276E-01    0.623E-01
RMM:  11    -0.667836925353E+03    0.11770E-02   -0.85983E-03 14314   0.181E-01    0.216E-01
RMM:  12    -0.667837803968E+03   -0.87862E-03   -0.41661E-03 14238   0.130E-01    0.369E-01
RMM:  13    -0.667837681935E+03    0.12203E-03   -0.28804E-03 13965   0.115E-01    0.129E-01
RMM:  14    -0.667838050845E+03   -0.36891E-03   -0.23153E-03 13719   0.771E-02    0.647E-02
RMM:  15    -0.667838158637E+03   -0.10779E-03   -0.94513E-04 11943   0.950E-02    0.281E-02
RMM:  16    -0.667838277653E+03   -0.11902E-03   -0.12254E-03 12343   0.485E-02    0.217E-02
RMM:  17    -0.667838305353E+03   -0.27699E-04   -0.32757E-04 11049   0.553E-02    0.184E-02
RMM:  18    -0.667838342314E+03   -0.36962E-04   -0.35976E-04 10307   0.305E-02    0.856E-03
RMM:  19    -0.667838355926E+03   -0.13611E-04   -0.12579E-04  9726   0.300E-02    0.305E-03
RMM:  20    -0.667838364171E+03   -0.82451E-05   -0.96781E-05  8883   0.219E-02
   8 F= -.66783836E+03 E0= -.66777439E+03  d E =-.158272E+00
 trial-energy change:   -0.158272  1 .order   -0.147478   -0.475432    0.180475
 step:   0.7230(harm=  0.7047)  dis= 0.03105  next Energy=  -667.861313 (dE=-0.181E+00)
 bond charge predicted
       N       E                     dE             d eps       ncg     rms          rms(c)
DAV:   1    -0.667710031268E+03    0.12832E+00   -0.10448E+01 12912   0.192E+01    0.235E+00
RMM:   2    -0.668669400733E+03   -0.95937E+00   -0.26899E+00 11892   0.488E+00    0.107E+01
RMM:   3    -0.667924462140E+03    0.74494E+00   -0.46178E-01 10727   0.269E+00    0.348E+00
RMM:   4    -0.667879669616E+03    0.44793E-01   -0.15077E-01 13259   0.103E+00    0.154E+00
RMM:   5    -0.667876230118E+03    0.34395E-02   -0.39717E-02 11732   0.547E-01    0.163E+00
RMM:   6    -0.667864196830E+03    0.12033E-01   -0.12037E-02 11352   0.351E-01    0.601E-01
RMM:   7    -0.667867438531E+03   -0.32417E-02   -0.12648E-02 11863   0.296E-01    0.107E+00
RMM:   8    -0.667861622564E+03    0.58160E-02   -0.43830E-03 11137   0.227E-01    0.230E-01
RMM:   9    -0.667862210871E+03   -0.58831E-03   -0.36739E-03 13734   0.123E-01    0.406E-01
RMM:  10    -0.667861395650E+03    0.81522E-03   -0.94627E-04 10698   0.970E-02    0.727E-02
RMM:  11    -0.667861441345E+03   -0.45695E-04   -0.91952E-04 12028   0.421E-02    0.442E-02
RMM:  12    -0.667861482204E+03   -0.40859E-04   -0.18731E-04  9492   0.457E-02    0.891E-02
RMM:  13    -0.667861463267E+03    0.18937E-04   -0.19594E-04  9628   0.275E-02    0.303E-02
RMM:  14    -0.667861465366E+03   -0.20989E-05   -0.11350E-04  9310   0.258E-02    0.124E-02
RMM:  15    -0.667861465740E+03   -0.37398E-06   -0.60649E-05  7934   0.212E-02
   9 F= -.66786147E+03 E0= -.66779559E+03  d E =-.181374E+00
 curvature:  -0.56 expect dE=-0.236E+00 dE for cont linesearch -0.954E-06
 trial: gam= 0.78826 g(F)=  0.250E+00 g(S)=  0.169E+00 ort = 0.115E-02 (trialstep = 0.797E+00)
 search vector abs. value=  0.910E+00
 bond charge predicted
       N       E                     dE             d eps       ncg     rms          rms(c)
DAV:   1    -0.665752516724E+03    0.21089E+01   -0.11710E+02 10152   0.582E+01    0.370E+00
RMM:   2    -0.669070869855E+03   -0.33184E+01   -0.25304E+01 13968   0.118E+01    0.124E+01
RMM:   3    -0.668152218100E+03    0.91865E+00   -0.16316E+00 10051   0.627E+00    0.450E+00
RMM:   4    -0.668238488977E+03   -0.86271E-01   -0.74343E-01 12848   0.218E+00    0.526E+00
RMM:   5    -0.668081118670E+03    0.15737E+00   -0.15228E-01 11737   0.121E+00    0.155E+00
RMM:   6    -0.668088660670E+03   -0.75420E-02   -0.10620E-01 13603   0.606E-01    0.187E+00
RMM:   7    -0.668069132151E+03    0.19529E-01   -0.71792E-02 12742   0.596E-01    0.103E+00
RMM:   8    -0.668070987344E+03   -0.18552E-02   -0.21577E-02 11660   0.458E-01    0.121E+00
RMM:   9    -0.668064256937E+03    0.67304E-02   -0.16743E-02 14159   0.283E-01    0.314E-01
RMM:  10    -0.668065871651E+03   -0.16147E-02   -0.71427E-03 13727   0.191E-01    0.595E-01
RMM:  11    -0.668064298791E+03    0.15729E-02   -0.40347E-03 13912   0.131E-01    0.125E-01
RMM:  12    -0.668064903581E+03   -0.60479E-03   -0.25668E-03 13636   0.926E-02    0.310E-01
RMM:  13    -0.668064535807E+03    0.36777E-03   -0.11601E-03 13311   0.799E-02    0.693E-02
RMM:  14    -0.668064612714E+03   -0.76907E-04   -0.93670E-04 12956   0.447E-02    0.345E-02
RMM:  15    -0.668064629525E+03   -0.16811E-04   -0.29598E-04 11082   0.560E-02    0.170E-02
RMM:  16    -0.668064666830E+03   -0.37305E-04   -0.42433E-04 10608   0.274E-02    0.106E-02
RMM:  17    -0.668064674874E+03   -0.80439E-05   -0.11953E-04  9386   0.298E-02    0.642E-03
RMM:  18    -0.668064681261E+03   -0.63872E-05   -0.82003E-05  8668   0.205E-02
  10 F= -.66806468E+03 E0= -.66800315E+03  d E =-.203216E+00
 trial-energy change:   -0.203216  1 .order   -0.201363   -0.335059   -0.067667
 step:   0.9888(harm=  0.9987)  dis= 0.04949  next Energy=  -668.072849 (dE=-0.211E+00)
 bond charge predicted
       N       E                     dE             d eps       ncg     rms          rms(c)
DAV:   1    -0.667938095398E+03    0.12658E+00   -0.66992E+00 10224   0.141E+01    0.906E-01
RMM:   2    -0.668142766045E+03   -0.20467E+00   -0.14952E+00 13914   0.290E+00    0.330E+00
RMM:   3    -0.668079426908E+03    0.63339E-01   -0.10953E-01 10072   0.162E+00    0.122E+00
RMM:   4    -0.668081420867E+03   -0.19940E-02   -0.47542E-02 12839   0.558E-01    0.110E+00
RMM:   5    -0.668074696673E+03    0.67242E-02   -0.98244E-03 11705   0.294E-01    0.476E-01
RMM:   6    -0.668074467892E+03    0.22878E-03   -0.57596E-03 13011   0.146E-01    0.382E-01
RMM:   7    -0.668074050415E+03    0.41748E-03   -0.46284E-03 12415   0.163E-01    0.391E-01
RMM:   8    -0.668073395236E+03    0.65518E-03   -0.14783E-03 11243   0.122E-01    0.181E-01
RMM:   9    -0.668073295638E+03    0.99598E-04   -0.10734E-03 13180   0.642E-02    0.884E-02
RMM:  10    -0.668073328579E+03   -0.32941E-04   -0.35934E-04  9430   0.524E-02    0.106E-01
RMM:  11    -0.668073278127E+03    0.50452E-04   -0.23709E-04 10472   0.318E-02    0.212E-02
RMM:  12    -0.668073287933E+03   -0.98062E-05   -0.16318E-04  8955   0.241E-02    0.168E-02
RMM:  13    -0.668073299824E+03   -0.11891E-04   -0.60323E-05  6637   0.253E-02    0.449E-02
RMM:  14    -0.668073294086E+03    0.57379E-05   -0.59934E-05  6389   0.193E-02
  11 F= -.66807329E+03 E0= -.66801272E+03  d E =-.211828E+00
 curvature:  -1.08 expect dE=-0.162E+00 dE for cont linesearch -0.305E-05
 trial: gam= 0.22879 g(F)=  0.146E+00 g(S)=  0.452E-02 ort = 0.160E-02 (trialstep = 0.835E+00)
 search vector abs. value=  0.199E+00
 bond charge predicted
       N       E                     dE             d eps       ncg     rms          rms(c)
DAV:   1    -0.667597818258E+03    0.47548E+00   -0.27300E+01  9912   0.273E+01    0.155E+00
RMM:   2    -0.668276360294E+03   -0.67854E+00   -0.58517E+00 13889   0.582E+00    0.501E+00
RMM:   3    -0.668171462284E+03    0.10490E+00   -0.41349E-01  9966   0.313E+00    0.211E+00
RMM:   4    -0.668187417194E+03   -0.15955E-01   -0.16230E-01 13013   0.109E+00    0.230E+00
RMM:   5    -0.668158692174E+03    0.28725E-01   -0.38680E-02 11642   0.630E-01    0.947E-01
RMM:   6    -0.668157444054E+03    0.12481E-02   -0.26007E-02 13856   0.288E-01    0.672E-01
RMM:   7    -0.668158338173E+03   -0.89412E-03   -0.17890E-02 12478   0.317E-01    0.101E+00
RMM:   8    -0.668153357416E+03    0.49808E-02   -0.67647E-03 11704   0.239E-01    0.290E-01
RMM:   9    -0.668153080996E+03    0.27642E-03   -0.45792E-03 14104   0.113E-01    0.823E-02
RMM:  10    -0.668153399691E+03   -0.31870E-03   -0.12535E-03 11687   0.955E-02    0.261E-01
RMM:  11    -0.668153125052E+03    0.27464E-03   -0.95959E-04 12037   0.622E-02    0.528E-02
RMM:  12    -0.668153166159E+03   -0.41107E-04   -0.60877E-04 11619   0.344E-02    0.347E-02
RMM:  13    -0.668153194224E+03   -0.28065E-04   -0.17244E-04  8183   0.408E-02    0.657E-02
RMM:  14    -0.668153190518E+03    0.37059E-05   -0.21386E-04  8203   0.241E-02    0.146E-02
RMM:  15    -0.668153192081E+03   -0.15630E-05   -0.64516E-05  6761   0.220E-02
  12 F= -.66815319E+03 E0= -.66809366E+03  d E =-.798980E-01
 trial-energy change:   -0.079898  1 .order   -0.079424   -0.126113   -0.032734
 step:   1.1168(harm=  1.1282)  dis= 0.03033  next Energy=  -668.158723 (dE=-0.854E-01)
 bond charge predicted
       N       E                     dE             d eps       ncg     rms          rms(c)
DAV:   1    -0.668095454615E+03    0.57736E-01   -0.30846E+00  9936   0.920E+00    0.528E-01
RMM:   2    -0.668175003593E+03   -0.79549E-01   -0.67488E-01 13889   0.201E+00    0.176E+00
RMM:   3    -0.668161342173E+03    0.13661E-01   -0.48744E-02 10032   0.107E+00    0.736E-01
RMM:   4    -0.668162940575E+03   -0.15984E-02   -0.18657E-02 12883   0.374E-01    0.762E-01
RMM:   5    -0.668159756427E+03    0.31841E-02   -0.45486E-03 11453   0.215E-01    0.324E-01
RMM:   6    -0.668159617476E+03    0.13895E-03   -0.30270E-03 12421   0.999E-02    0.230E-01
RMM:   7    -0.668159647363E+03   -0.29888E-04   -0.21948E-03 12420   0.112E-01    0.323E-01
RMM:   8    -0.668159147187E+03    0.50018E-03   -0.77838E-04 10882   0.854E-02    0.994E-02
RMM:   9    -0.668159121342E+03    0.25845E-04   -0.53986E-04 12033   0.417E-02    0.443E-02
RMM:  10    -0.668159153299E+03   -0.31957E-04   -0.15864E-04  7459   0.380E-02    0.861E-02
RMM:  11    -0.668159117223E+03    0.36076E-04   -0.10959E-04  7212   0.264E-02    0.157E-02
RMM:  12    -0.668159131641E+03   -0.14418E-04   -0.66655E-05  6579   0.214E-02    0.491E-02
RMM:  13    -0.668159121705E+03    0.99360E-05   -0.35938E-05  6000   0.204E-02
  13 F= -.66815912E+03 E0= -.66809995E+03  d E =-.858276E-01
 curvature:  -0.74 expect dE=-0.593E-01 dE for cont linesearch -0.216E-05
 trial: gam= 0.51369 g(F)=  0.471E-01 g(S)=  0.328E-01 ort = 0.760E-03 (trialstep = 0.892E+00)
 search vector abs. value=  0.133E+00
 bond charge predicted
       N       E                     dE             d eps       ncg     rms          rms(c)
DAV:   1    -0.667835926227E+03    0.32321E+00   -0.22644E+01 12504   0.278E+01    0.346E+00
RMM:   2    -0.669691438605E+03   -0.18555E+01   -0.64779E+00 11284   0.808E+00    0.142E+01
RMM:   3    -0.668253534283E+03    0.14379E+01   -0.11282E+00 11302   0.390E+00    0.353E+00
RMM:   4    -0.668249077976E+03    0.44563E-02   -0.32515E-01 13021   0.145E+00    0.291E+00
RMM:   5    -0.668206686056E+03    0.42392E-01   -0.77083E-02 11920   0.800E-01    0.144E+00
RMM:   6    -0.668202868078E+03    0.38180E-02   -0.28847E-02 11524   0.494E-01    0.127E+00
RMM:   7    -0.668194265667E+03    0.86024E-02   -0.23630E-02 12078   0.386E-01    0.582E-01
RMM:   8    -0.668198055306E+03   -0.37896E-02   -0.10225E-02 12138   0.300E-01    0.103E+00
RMM:   9    -0.668192406940E+03    0.56484E-02   -0.53917E-03 13013   0.215E-01    0.106E-01
RMM:  10    -0.668192971808E+03   -0.56487E-03   -0.42719E-03 13613   0.937E-02    0.221E-01
RMM:  11    -0.668192818764E+03    0.15304E-03   -0.92146E-04 12096   0.840E-02    0.761E-02
RMM:  12    -0.668192959129E+03   -0.14036E-03   -0.90575E-04 12387   0.485E-02    0.103E-01
RMM:  13    -0.668192959886E+03   -0.75722E-06   -0.28277E-04 11033   0.495E-02    0.594E-02
RMM:  14    -0.668193025561E+03   -0.65676E-04   -0.35621E-04 11911   0.310E-02    0.215E-02
RMM:  15    -0.668193042344E+03   -0.16783E-04   -0.13286E-04 10521   0.326E-02    0.104E-02
RMM:  16    -0.668193053567E+03   -0.11222E-04   -0.11145E-04  9387   0.225E-02    0.766E-03
RMM:  17    -0.668193059107E+03   -0.55402E-05   -0.51807E-05  7868   0.209E-02
  14 F= -.66819306E+03 E0= -.66813577E+03  d E =-.339374E-01
 trial-energy change:   -0.033937  1 .order   -0.033239   -0.071539    0.005061
 step:   0.8356(harm=  0.8327)  dis= 0.02217  next Energy=  -668.193218 (dE=-0.341E-01)
 bond charge predicted
       N       E                     dE             d eps       ncg     rms          rms(c)
DAV:   1    -0.668191856300E+03    0.11973E-02   -0.89916E-02 13032   0.175E+00    0.220E-01
RMM:   2    -0.668199053148E+03   -0.71968E-02   -0.24601E-02 11740   0.485E-01    0.874E-01
RMM:   3    -0.668193501304E+03    0.55518E-02   -0.42937E-03 11068   0.242E-01    0.217E-01
RMM:   4    -0.668193488956E+03    0.12349E-04   -0.12660E-03 12301   0.949E-02    0.187E-01
RMM:   5    -0.668193309676E+03    0.17928E-03   -0.28793E-04 10373   0.541E-02    0.925E-02
RMM:   6    -0.668193289837E+03    0.19838E-04   -0.11095E-04  7457   0.367E-02    0.758E-02
RMM:   7    -0.668193257207E+03    0.32631E-04   -0.79801E-05  7546   0.281E-02    0.405E-02
RMM:   8    -0.668193262667E+03   -0.54603E-05   -0.33874E-05  5674   0.252E-02
  15 F= -.66819326E+03 E0= -.66813584E+03  d E =-.341410E-01
 curvature:  -0.69 expect dE=-0.490E-01 dE for cont linesearch -0.167E-05
 trial: gam= 0.89179 g(F)=  0.305E-01 g(S)=  0.406E-01 ort =-0.568E-03 (trialstep = 0.666E+00)
 search vector abs. value=  0.176E+00
 bond charge predicted
       N       E                     dE             d eps       ncg     rms          rms(c)
DAV:   1    -0.667788707461E+03    0.40455E+00   -0.16775E+01 10368   0.247E+01    0.167E+00
RMM:   2    -0.668411917210E+03   -0.62321E+00   -0.48052E+00 13945   0.511E+00    0.524E+00
RMM:   3    -0.668231936444E+03    0.17998E+00   -0.35303E-01 10368   0.251E+00    0.157E+00
RMM:   4    -0.668257825389E+03   -0.25889E-01   -0.12745E-01 12593   0.924E-01    0.246E+00
RMM:   5    -0.668223420781E+03    0.34405E-01   -0.27335E-02 11659   0.538E-01    0.533E-01
RMM:   6    -0.668227570922E+03   -0.41501E-02   -0.19782E-02 13274   0.272E-01    0.101E+00
RMM:   7    -0.668222278606E+03    0.52923E-02   -0.10430E-02 11901   0.273E-01    0.480E-01
RMM:   8    -0.668222170851E+03    0.10775E-03   -0.45017E-03 12075   0.178E-01    0.435E-01
RMM:   9    -0.668221376298E+03    0.79455E-03   -0.26285E-03 13652   0.105E-01    0.111E-01
RMM:  10    -0.668221535662E+03   -0.15936E-03   -0.10789E-03 12167   0.622E-02    0.182E-01
RMM:  11    -0.668221395219E+03    0.14044E-03   -0.50634E-04 11968   0.485E-02    0.363E-02
RMM:  12    -0.668221425620E+03   -0.30401E-04   -0.37048E-04 11321   0.309E-02    0.385E-02
RMM:  13    -0.668221434427E+03   -0.88064E-05   -0.11989E-04  7914   0.331E-02    0.388E-02
RMM:  14    -0.668221437082E+03   -0.26552E-05   -0.13899E-04  7820   0.217E-02    0.103E-02
RMM:  15    -0.668221437538E+03   -0.45606E-06   -0.40301E-05  6531   0.185E-02
  16 F= -.66822144E+03 E0= -.66816452E+03  d E =-.281749E-01
 trial-energy change:   -0.028175  1 .order   -0.028179   -0.046995   -0.009363
 step:   0.8322(harm=  0.8322)  dis= 0.02531  next Energy=  -668.222607 (dE=-0.293E-01)
 bond charge predicted
       N       E                     dE             d eps       ncg     rms          rms(c)
DAV:   1    -0.668195166415E+03    0.26271E-01   -0.10275E+00 10608   0.616E+00    0.421E-01
RMM:   2    -0.668235378091E+03   -0.40212E-01   -0.30560E-01 13925   0.130E+00    0.135E+00
RMM:   3    -0.668223330386E+03    0.12048E-01   -0.24036E-02 10359   0.639E-01    0.411E-01
RMM:   4    -0.668224880299E+03   -0.15499E-02   -0.82394E-03 12213   0.242E-01    0.610E-01
RMM:   5    -0.668222787146E+03    0.20932E-02   -0.17602E-03 11159   0.136E-01    0.146E-01
RMM:   6    -0.668223001146E+03   -0.21400E-03   -0.12507E-03 11062   0.719E-02    0.242E-01
RMM:   7    -0.668222721219E+03    0.27993E-03   -0.75399E-04 11823   0.737E-02    0.135E-01
RMM:   8    -0.668222677008E+03    0.44211E-04   -0.29163E-04  9735   0.505E-02    0.934E-02
RMM:   9    -0.668222638335E+03    0.38673E-04   -0.17312E-04  8710   0.284E-02    0.214E-02
RMM:  10    -0.668222650479E+03   -0.12144E-04   -0.60169E-05  6441   0.224E-02    0.509E-02
RMM:  11    -0.668222638004E+03    0.12475E-04   -0.32832E-05  5930   0.197E-02    0.968E-03
RMM:  12    -0.668222638895E+03   -0.89054E-06   -0.33056E-05  5845   0.135E-02
  17 F= -.66822264E+03 E0= -.66816579E+03  d E =-.293762E-01
 curvature:  -1.04 expect dE=-0.300E-01 dE for cont linesearch -0.837E-07
 trial: gam= 0.33866 g(F)=  0.246E-01 g(S)=  0.433E-02 ort =-0.119E-03 (trialstep = 0.700E+00)
 search vector abs. value=  0.490E-01
 bond charge predicted
       N       E                     dE             d eps       ncg     rms          rms(c)
DAV:   1    -0.668091931039E+03    0.13071E+00   -0.52538E+00  9672   0.143E+01    0.667E-01
RMM:   2    -0.668247432433E+03   -0.15550E+00   -0.15073E+00 13798   0.278E+00    0.175E+00
RMM:   3    -0.668240893518E+03    0.65389E-02   -0.84027E-02 10324   0.126E+00    0.918E-01
RMM:   4    -0.668242801734E+03   -0.19082E-02   -0.33661E-02 13013   0.421E-01    0.788E-01
RMM:   5    -0.668238898335E+03    0.39034E-02   -0.48555E-03 10992   0.223E-01    0.253E-01
RMM:   6    -0.668239518026E+03   -0.61969E-03   -0.39885E-03 12048   0.122E-01    0.397E-01
RMM:   7    -0.668238517018E+03    0.10010E-02   -0.25121E-03 12567   0.124E-01    0.179E-01
RMM:   8    -0.668238714538E+03   -0.19752E-03   -0.10346E-03 11181   0.848E-02    0.259E-01
RMM:   9    -0.668238374729E+03    0.33981E-03   -0.53278E-04 10853   0.606E-02    0.318E-02
RMM:  10    -0.668238417816E+03   -0.43087E-04   -0.35506E-04  9183   0.312E-02    0.788E-02
RMM:  11    -0.668238390727E+03    0.27088E-04   -0.96873E-05  7698   0.274E-02    0.206E-02
RMM:  12    -0.668238401297E+03   -0.10570E-04   -0.96596E-05  7737   0.199E-02    0.362E-02
RMM:  13    -0.668238397477E+03    0.38206E-05   -0.31366E-05  5894   0.202E-02
  18 F= -.66823840E+03 E0= -.66818175E+03  d E =-.157586E-01
 trial-energy change:   -0.015759  1 .order   -0.015520   -0.020196   -0.010844
 step:   1.3282(harm=  1.5106)  dis= 0.01973  next Energy=  -668.243443 (dE=-0.208E-01)
 bond charge predicted
       N       E                     dE             d eps       ncg     rms          rms(c)
DAV:   1    -0.668124916320E+03    0.11348E+00   -0.42268E+00  9576   0.129E+01    0.598E-01
RMM:   2    -0.668250512243E+03   -0.12560E+00   -0.12260E+00 13803   0.252E+00    0.150E+00
RMM:   3    -0.668247118831E+03    0.33934E-02   -0.72831E-02 10357   0.113E+00    0.861E-01
RMM:   4    -0.668248320410E+03   -0.12016E-02   -0.26575E-02 12961   0.384E-01    0.702E-01
RMM:   5    -0.668245159894E+03    0.31605E-02   -0.40692E-03 11073   0.202E-01    0.222E-01
RMM:   6    -0.668245738802E+03   -0.57891E-03   -0.34114E-03 12045   0.111E-01    0.372E-01
RMM:   7    -0.668244889507E+03    0.84929E-03   -0.20572E-03 12660   0.113E-01    0.164E-01
RMM:   8    -0.668245038760E+03   -0.14925E-03   -0.85582E-04 11085   0.771E-02    0.229E-01
RMM:   9    -0.668244776894E+03    0.26187E-03   -0.45961E-04 10608   0.549E-02    0.284E-02
RMM:  10    -0.668244813906E+03   -0.37013E-04   -0.29014E-04  8995   0.289E-02    0.735E-02
RMM:  11    -0.668244791159E+03    0.22748E-04   -0.83270E-05  7571   0.267E-02    0.195E-02
RMM:  12    -0.668244803732E+03   -0.12573E-04   -0.80508E-05  7536   0.193E-02    0.426E-02
RMM:  13    -0.668244796727E+03    0.70043E-05   -0.30724E-05  5911   0.196E-02
  19 F= -.66824480E+03 E0= -.66818828E+03  d E =-.221578E-01
 curvature:  -1.22 expect dE=-0.229E-01 dE for cont linesearch -0.346E-03
 trial: gam= 0.50931 g(F)=  0.123E-01 g(S)=  0.654E-02 ort = 0.373E-02 (trialstep = 0.825E+00)
 search vector abs. value=  0.353E-01
 bond charge predicted
       N       E                     dE             d eps       ncg     rms          rms(c)
DAV:   1    -0.668144396782E+03    0.10041E+00   -0.51369E+00 11568   0.138E+01    0.112E+00
RMM:   2    -0.668404364124E+03   -0.25997E+00   -0.14208E+00 13663   0.289E+00    0.468E+00
RMM:   3    -0.668266666331E+03    0.13770E+00   -0.13637E-01 10341   0.157E+00    0.154E+00
RMM:   4    -0.668262812151E+03    0.38542E-02   -0.53958E-02 12672   0.577E-01    0.976E-01
RMM:   5    -0.668257168078E+03    0.56441E-02   -0.11722E-02 11980   0.298E-01    0.471E-01
RMM:   6    -0.668257121440E+03    0.46638E-04   -0.48360E-03 12033   0.174E-01    0.478E-01
RMM:   7    -0.668256306266E+03    0.81517E-03   -0.38795E-03 12238   0.169E-01    0.355E-01
RMM:   8    -0.668255862939E+03    0.44333E-03   -0.15516E-03 11511   0.115E-01    0.202E-01
RMM:   9    -0.668255681484E+03    0.18146E-03   -0.91558E-04 12550   0.619E-02    0.448E-02
RMM:  10    -0.668255765144E+03   -0.83660E-04   -0.30869E-04 10074   0.420E-02    0.120E-01
RMM:  11    -0.668255712295E+03    0.52849E-04   -0.17300E-04  9479   0.311E-02    0.211E-02
RMM:  12    -0.668255733427E+03   -0.21132E-04   -0.13990E-04  8770   0.222E-02    0.246E-02
RMM:  13    -0.668255737619E+03   -0.41912E-05   -0.45782E-05  6342   0.213E-02
  20 F= -.66825574E+03 E0= -.66819965E+03  d E =-.109409E-01
 trial-energy change:   -0.010941  1 .order   -0.010757   -0.017087   -0.004428
 step:   1.0843(harm=  1.1139)  dis= 0.01332  next Energy=  -668.256438 (dE=-0.116E-01)
 bond charge predicted
       N       E                     dE             d eps       ncg     rms          rms(c)
DAV:   1    -0.668245355616E+03    0.10378E-01   -0.50525E-01 11784   0.433E+00    0.350E-01
RMM:   2    -0.668270613460E+03   -0.25258E-01   -0.13992E-01 13633   0.905E-01    0.144E+00
RMM:   3    -0.668257574662E+03    0.13039E-01   -0.13681E-02 10348   0.489E-01    0.482E-01
RMM:   4    -0.668257177238E+03    0.39742E-03   -0.51825E-03 12047   0.181E-01    0.305E-01
RMM:   5    -0.668256635066E+03    0.54217E-03   -0.11806E-03 11347   0.959E-02    0.146E-01
RMM:   6    -0.668256636668E+03   -0.16017E-05   -0.50041E-04  9814   0.578E-02    0.149E-01
RMM:   7    -0.668256571345E+03    0.65322E-04   -0.39668E-04 11583   0.552E-02    0.114E-01
RMM:   8    -0.668256523835E+03    0.47510E-04   -0.15170E-04  7875   0.442E-02    0.590E-02
RMM:   9    -0.668256513154E+03    0.10682E-04   -0.10169E-04  8195   0.217E-02    0.142E-02
RMM:  10    -0.668256521752E+03   -0.85979E-05   -0.31177E-05  5924   0.201E-02
  21 F= -.66825652E+03 E0= -.66820053E+03  d E =-.117250E-01
 curvature:  -0.94 expect dE=-0.192E-01 dE for cont linesearch -0.696E-05
 trial: gam= 1.20976 g(F)=  0.684E-02 g(S)=  0.136E-01 ort = 0.511E-03 (trialstep = 0.422E+00)
 search vector abs. value=  0.734E-01
 bond charge predicted
       N       E                     dE             d eps       ncg     rms          rms(c)
DAV:   1    -0.668200781413E+03    0.55732E-01   -0.28696E+00 11472   0.102E+01    0.767E-01
RMM:   2    -0.668319249193E+03   -0.11847E+00   -0.75531E-01 13811   0.207E+00    0.272E+00
RMM:   3    -0.668265104520E+03    0.54145E-01   -0.64572E-02 10287   0.108E+00    0.672E-01
RMM:   4    -0.668268920348E+03   -0.38158E-02   -0.26155E-02 12903   0.372E-01    0.945E-01
RMM:   5    -0.668263790993E+03    0.51294E-02   -0.47187E-03 11256   0.216E-01    0.205E-01
RMM:   6    -0.668264728339E+03   -0.93735E-03   -0.33880E-03 11951   0.128E-01    0.456E-01
RMM:   7    -0.668263539942E+03    0.11884E-02   -0.15402E-03 11490   0.120E-01    0.128E-01
RMM:   8    -0.668263817390E+03   -0.27745E-03   -0.92305E-04 11188   0.749E-02    0.256E-01
RMM:   9    -0.668263501591E+03    0.31580E-03   -0.39555E-04 10774   0.519E-02    0.376E-02
RMM:  10    -0.668263549664E+03   -0.48074E-04   -0.24019E-04  8781   0.308E-02    0.957E-02
RMM:  11    -0.668263507560E+03    0.42105E-04   -0.85949E-05  7175   0.262E-02    0.185E-02
RMM:  12    -0.668263517807E+03   -0.10248E-04   -0.61154E-05  6641   0.199E-02    0.412E-02
RMM:  13    -0.668263509720E+03    0.80878E-05   -0.28968E-05  5851   0.200E-02
  22 F= -.66826351E+03 E0= -.66820742E+03  d E =-.698797E-02
 trial-energy change:   -0.006988  1 .order   -0.006817   -0.008899   -0.004735
 step:   0.7551(harm=  0.9019)  dis= 0.01683  next Energy=  -668.265462 (dE=-0.894E-02)
 bond charge predicted
       N       E                     dE             d eps       ncg     rms          rms(c)
DAV:   1    -0.668227048504E+03    0.36469E-01   -0.17866E+00 11496   0.807E+00    0.605E-01
RMM:   2    -0.668300933690E+03   -0.73885E-01   -0.46930E-01 13713   0.163E+00    0.215E+00
RMM:   3    -0.668266952049E+03    0.33982E-01   -0.41503E-02 10308   0.870E-01    0.522E-01
RMM:   4    -0.668269447918E+03   -0.24959E-02   -0.16482E-02 12685   0.297E-01    0.749E-01
RMM:   5    -0.668266237968E+03    0.32100E-02   -0.30376E-03 11022   0.172E-01    0.157E-01
RMM:   6    -0.668266817932E+03   -0.57996E-03   -0.21261E-03 11488   0.103E-01    0.354E-01
RMM:   7    -0.668266075214E+03    0.74272E-03   -0.94253E-04 11570   0.936E-02    0.762E-02
RMM:   8    -0.668266291497E+03   -0.21628E-03   -0.59777E-04 11249   0.610E-02    0.213E-01
RMM:   9    -0.668266071485E+03    0.22001E-03   -0.20949E-04  9101   0.430E-02    0.275E-02
RMM:  10    -0.668266100882E+03   -0.29396E-04   -0.17028E-04  8248   0.252E-02    0.716E-02
RMM:  11    -0.668266078804E+03    0.22078E-04   -0.56268E-05  6403   0.235E-02    0.162E-02
RMM:  12    -0.668266084871E+03   -0.60676E-05   -0.40525E-05  6054   0.173E-02
  23 F= -.66826608E+03 E0= -.66820988E+03  d E =-.956312E-02
 curvature:  -1.42 expect dE=-0.179E-01 dE for cont linesearch -0.238E-03
 ZBRENT: extrapolating
 opt :   0.9066  next Energy=  -668.266351 (dE=-0.983E-02)
 bond charge predicted
       N       E                     dE             d eps       ncg     rms          rms(c)
DAV:   1    -0.668258382188E+03    0.76966E-02   -0.37074E-01 11736   0.367E+00    0.277E-01
RMM:   2    -0.668273849044E+03   -0.15467E-01   -0.96944E-02 13598   0.744E-01    0.989E-01
RMM:   3    -0.668266563771E+03    0.72853E-02   -0.88537E-03 10169   0.400E-01    0.238E-01
RMM:   4    -0.668267063864E+03   -0.50009E-03   -0.34702E-03 11943   0.138E-01    0.333E-01
RMM:   5    -0.668266425933E+03    0.63793E-03   -0.65310E-04  9986   0.806E-02    0.731E-02
RMM:   6    -0.668266539601E+03   -0.11367E-03   -0.44443E-04  9605   0.500E-02    0.157E-01
RMM:   7    -0.668266390999E+03    0.14860E-03   -0.20963E-04 10488   0.445E-02    0.296E-02
RMM:   8    -0.668266427771E+03   -0.36772E-04   -0.11764E-04  7547   0.323E-02    0.875E-02
RMM:   9    -0.668266390451E+03    0.37320E-04   -0.41778E-05  5936   0.232E-02    0.110E-02
RMM:  10    -0.668266391711E+03   -0.12599E-05   -0.34006E-05  5976   0.160E-02
  24 F= -.66826639E+03 E0= -.66821011E+03  d E =-.986996E-02
 curvature:  -1.58 expect dE=-0.263E-01 dE for cont linesearch -0.748E-07
 trial: gam= 0.71855 g(F)=  0.965E-02 g(S)=  0.692E-02 ort = 0.589E-04 (trialstep = 0.519E+00)
 search vector abs. value=  0.546E-01
 bond charge predicted
       N       E                     dE             d eps       ncg     rms          rms(c)
DAV:   1    -0.668200792549E+03    0.65598E-01   -0.32255E+00  9744   0.104E+01    0.486E-01
RMM:   2    -0.668276265175E+03   -0.75473E-01   -0.75643E-01 13596   0.207E+00    0.108E+00
RMM:   3    -0.668274950800E+03    0.13144E-02   -0.46074E-02 10342   0.884E-01    0.697E-01
RMM:   4    -0.668274147369E+03    0.80343E-03   -0.17191E-02 13126   0.296E-01    0.329E-01
RMM:   5    -0.668273837840E+03    0.30953E-03   -0.25511E-03 11950   0.131E-01    0.239E-01
RMM:   6    -0.668274197609E+03   -0.35977E-03   -0.16565E-03 11269   0.112E-01    0.350E-01
RMM:   7    -0.668273436267E+03    0.76134E-03   -0.10924E-03 11379   0.953E-02    0.130E-01
RMM:   8    -0.668273505140E+03   -0.68873E-04   -0.63859E-04 10189   0.626E-02    0.154E-01
RMM:   9    -0.668273375250E+03    0.12989E-03   -0.27435E-04  8862   0.414E-02    0.232E-02
RMM:  10    -0.668273397206E+03   -0.21956E-04   -0.17684E-04  7971   0.249E-02    0.561E-02
RMM:  11    -0.668273385145E+03    0.12061E-04   -0.55725E-05  6630   0.215E-02    0.158E-02
RMM:  12    -0.668273392839E+03   -0.76939E-05   -0.51543E-05  6378   0.165E-02
  25 F= -.66827339E+03 E0= -.66821695E+03  d E =-.700113E-02
 trial-energy change:   -0.007001  1 .order   -0.006786   -0.008625   -0.004947
 step:   0.9450(harm=  1.2172)  dis= 0.02217  next Energy=  -668.275543 (dE=-0.915E-02)
 bond charge predicted
       N       E                     dE             d eps       ncg     rms          rms(c)
DAV:   1    -0.668227550083E+03    0.45835E-01   -0.21768E+00  9744   0.852E+00    0.398E-01
RMM:   2    -0.668277933361E+03   -0.50383E-01   -0.50890E-01 13601   0.170E+00    0.839E-01
RMM:   3    -0.668277686987E+03    0.24637E-03   -0.31086E-02 10335   0.727E-01    0.598E-01
RMM:   4    -0.668276935055E+03    0.75193E-03   -0.11562E-02 13135   0.242E-01    0.256E-01
RMM:   5    -0.668276809830E+03    0.12522E-03   -0.17650E-03 11456   0.108E-01    0.205E-01
RMM:   6    -0.668276983730E+03   -0.17390E-03   -0.11639E-03 11388   0.929E-02    0.272E-01
RMM:   7    -0.668276514531E+03    0.46920E-03   -0.67387E-04 10961   0.773E-02    0.957E-02
RMM:   8    -0.668276587782E+03   -0.73252E-04   -0.43946E-04  9553   0.521E-02    0.134E-01
RMM:   9    -0.668276488910E+03    0.98873E-04   -0.17940E-04  7877   0.366E-02    0.215E-02
RMM:  10    -0.668276510487E+03   -0.21578E-04   -0.13220E-04  7717   0.234E-02    0.567E-02
RMM:  11    -0.668276496996E+03    0.13491E-04   -0.48281E-05  6412   0.193E-02    0.114E-02
RMM:  12    -0.668276503452E+03   -0.64557E-05   -0.37548E-05  6083   0.153E-02
  26 F= -.66827650E+03 E0= -.66821993E+03  d E =-.101117E-01
 curvature:  -1.69 expect dE=-0.167E-01 dE for cont linesearch -0.497E-03
 ZBRENT: increasing intervall
 opt :   1.7972  next Energy=  -668.275201 (dE=-0.881E-02)
 bond charge predicted
       N       E                     dE             d eps       ncg     rms          rms(c)
DAV:   1    -0.668080386964E+03    0.19611E+00   -0.87201E+00  9744   0.170E+01    0.800E-01
RMM:   2    -0.668283364602E+03   -0.20298E+00   -0.20316E+00 13627   0.340E+00    0.182E+00
RMM:   3    -0.668279008501E+03    0.43561E-02   -0.12554E-01 10310   0.149E+00    0.110E+00
RMM:   4    -0.668278509390E+03    0.49911E-03   -0.48780E-02 13074   0.506E-01    0.659E-01
RMM:   5    -0.668276551346E+03    0.19580E-02   -0.75339E-03 12735   0.228E-01    0.368E-01
RMM:   6    -0.668277720269E+03   -0.11689E-02   -0.44280E-03 11668   0.170E-01    0.580E-01
RMM:   7    -0.668275733627E+03    0.19866E-02   -0.35953E-03 12395   0.154E-01    0.254E-01
RMM:   8    -0.668275697978E+03    0.35650E-04   -0.16931E-03 11166   0.102E-01    0.219E-01
RMM:   9    -0.668275459685E+03    0.23829E-03   -0.81520E-04 11039   0.590E-02    0.398E-02
RMM:  10    -0.668275525019E+03   -0.65334E-04   -0.41629E-04  9448   0.379E-02    0.102E-01
RMM:  11    -0.668275481880E+03    0.43139E-04   -0.16321E-04  8655   0.305E-02    0.244E-02
RMM:  12    -0.668275510283E+03   -0.28403E-04   -0.14486E-04  8091   0.240E-02    0.605E-02
RMM:  13    -0.668275494927E+03    0.15355E-04   -0.57698E-05  6719   0.226E-02    0.915E-03
RMM:  14    -0.668275500400E+03   -0.54730E-05   -0.60972E-05  6481   0.144E-02
  27 F= -.66827550E+03 E0= -.66821863E+03  d E =-.910869E-02
 curvature:   4.44 expect dE= 0.146E+00 dE for cont linesearch  0.450E-02
 ZBRENT: bracketing found
 ZBRENT: interpolating
 opt :   1.2431  next Energy=  -668.277100 (dE=-0.107E-01)
 bond charge predicted
       N       E                     dE             d eps       ncg     rms          rms(c)
DAV:   1    -0.668196235906E+03    0.79259E-01   -0.36963E+00  9744   0.111E+01    0.510E-01
RMM:   2    -0.668278660965E+03   -0.82425E-01   -0.85232E-01 13604   0.219E+00    0.849E-01
RMM:   3    -0.668281074511E+03   -0.24135E-02   -0.46240E-02 10371   0.892E-01    0.957E-01
RMM:   4    -0.668278499346E+03    0.25752E-02   -0.19122E-02 12722   0.320E-01    0.389E-01
RMM:   5    -0.668277775943E+03    0.72340E-03   -0.27938E-03 11571   0.141E-01    0.247E-01
RMM:   6    -0.668278205466E+03   -0.42952E-03   -0.17355E-03 10638   0.105E-01    0.377E-01
RMM:   7    -0.668277321114E+03    0.88435E-03   -0.14693E-03 11615   0.100E-01    0.128E-01
RMM:   8    -0.668277437011E+03   -0.11590E-03   -0.66030E-04  9780   0.683E-02    0.186E-01
RMM:   9    -0.668277249573E+03    0.18744E-03   -0.28067E-04  8657   0.469E-02    0.318E-02
RMM:  10    -0.668277283337E+03   -0.33764E-04   -0.19317E-04  7472   0.272E-02    0.768E-02
RMM:  11    -0.668277255689E+03    0.27647E-04   -0.66852E-05  6445   0.232E-02    0.131E-02
RMM:  12    -0.668277261126E+03   -0.54363E-05   -0.61838E-05  6755   0.160E-02
  28 F= -.66827726E+03 E0= -.66822060E+03  d E =-.108694E-01
 curvature:  -0.59 expect dE=-0.876E-02 dE for cont linesearch -0.127E-04
 trial: gam= 0.82425 g(F)=  0.910E-02 g(S)=  0.579E-02 ort = 0.109E-02 (trialstep = 0.664E+00)
 search vector abs. value=  0.537E-01
 bond charge predicted
       N       E                     dE             d eps       ncg     rms          rms(c)
DAV:   1    -0.668180193133E+03    0.97063E-01   -0.51098E+00  9744   0.124E+01    0.768E-01
RMM:   2    -0.668335649325E+03   -0.15546E+00   -0.11522E+00 13826   0.245E+00    0.279E+00
RMM:   3    -0.668288974829E+03    0.46674E-01   -0.83563E-02 10367   0.128E+00    0.104E+00
RMM:   4    -0.668290118076E+03   -0.11432E-02   -0.34862E-02 12074   0.460E-01    0.873E-01
RMM:   5    -0.668285579965E+03    0.45381E-02   -0.66775E-03 11475   0.236E-01    0.300E-01
RMM:   6    -0.668285909745E+03   -0.32978E-03   -0.34576E-03 11631   0.120E-01    0.369E-01
RMM:   7    -0.668285246389E+03    0.66336E-03   -0.23743E-03 11927   0.117E-01    0.223E-01
RMM:   8    -0.668285188616E+03    0.57772E-04   -0.86470E-04 10542   0.889E-02    0.195E-01
RMM:   9    -0.668284999283E+03    0.18933E-03   -0.59203E-04 12137   0.537E-02    0.317E-02
RMM:  10    -0.668285050324E+03   -0.51041E-04   -0.21498E-04  8434   0.331E-02    0.878E-02
RMM:  11    -0.668285022933E+03    0.27391E-04   -0.99167E-05  7237   0.264E-02    0.198E-02
RMM:  12    -0.668285038244E+03   -0.15311E-04   -0.75845E-05  6520   0.200E-02    0.295E-02
RMM:  13    -0.668285038663E+03   -0.41897E-06   -0.30338E-05  5789   0.191E-02
  29 F= -.66828504E+03 E0= -.66822828E+03  d E =-.777754E-02
 trial-energy change:   -0.007778  1 .order   -0.007854   -0.010480   -0.005228
 step:   1.4856(harm=  1.3247)  dis= 0.03891  next Energy=  -668.288130 (dE=-0.109E-01)
 bond charge predicted
       N       E                     dE             d eps       ncg     rms          rms(c)
DAV:   1    -0.668128108199E+03    0.15693E+00   -0.78525E+00  9744   0.154E+01    0.950E-01
RMM:   2    -0.668364652013E+03   -0.23654E+00   -0.17462E+00 13800   0.304E+00    0.346E+00
RMM:   3    -0.668293514962E+03    0.71137E-01   -0.13656E-01 10378   0.165E+00    0.128E+00
RMM:   4    -0.668295649675E+03   -0.21347E-02   -0.55622E-02 12107   0.581E-01    0.107E+00
RMM:   5    -0.668288849797E+03    0.67999E-02   -0.10972E-02 11610   0.297E-01    0.367E-01
RMM:   6    -0.668289395305E+03   -0.54551E-03   -0.55917E-03 12039   0.150E-01    0.455E-01
RMM:   7    -0.668288502873E+03    0.89243E-03   -0.37538E-03 12100   0.145E-01    0.310E-01
RMM:   8    -0.668288252619E+03    0.25025E-03   -0.13413E-03 11086   0.111E-01    0.220E-01
RMM:   9    -0.668288034371E+03    0.21825E-03   -0.10141E-03 12916   0.651E-02    0.433E-02
RMM:  10    -0.668288130721E+03   -0.96351E-04   -0.34911E-04 10035   0.430E-02    0.125E-01
RMM:  11    -0.668288072709E+03    0.58012E-04   -0.19336E-04  9075   0.302E-02    0.236E-02
RMM:  12    -0.668288095661E+03   -0.22951E-04   -0.15330E-04  8103   0.227E-02    0.239E-02
RMM:  13    -0.668288102356E+03   -0.66951E-05   -0.49600E-05  6115   0.218E-02
  30 F= -.66828810E+03 E0= -.66823118E+03  d E =-.108412E-01
 curvature:  -2.12 expect dE=-0.579E-01 dE for cont linesearch -0.603E-04
 trial: gam= 1.86326 g(F)=  0.895E-02 g(S)=  0.183E-01 ort =-0.124E-02 (trialstep = 0.213E+00)
 search vector abs. value=  0.209E+00
 bond charge predicted
       N       E                     dE             d eps       ncg     rms          rms(c)
DAV:   1    -0.668251627716E+03    0.36468E-01   -0.20471E+00  9792   0.768E+00    0.488E-01
RMM:   2    -0.668309399145E+03   -0.57771E-01   -0.44674E-01 13817   0.151E+00    0.159E+00
RMM:   3    -0.668293629671E+03    0.15769E-01   -0.34134E-02 10301   0.817E-01    0.532E-01
RMM:   4    -0.668295435130E+03   -0.18055E-02   -0.13487E-02 12572   0.289E-01    0.664E-01
RMM:   5    -0.668292968352E+03    0.24668E-02   -0.28685E-03 11008   0.162E-01    0.158E-01
RMM:   6    -0.668293236991E+03   -0.26864E-03   -0.18058E-03 11118   0.837E-02    0.250E-01
RMM:   7    -0.668292926186E+03    0.31081E-03   -0.10814E-03 11912   0.823E-02    0.153E-01
RMM:   8    -0.668292878174E+03    0.48012E-04   -0.37865E-04  9803   0.566E-02    0.107E-01
RMM:   9    -0.668292835421E+03    0.42753E-04   -0.22597E-04  8572   0.296E-02    0.292E-02
RMM:  10    -0.668292854228E+03   -0.18807E-04   -0.87739E-05  6657   0.249E-02    0.626E-02
RMM:  11    -0.668292836976E+03    0.17252E-04   -0.53893E-05  6314   0.203E-02    0.115E-02
RMM:  12    -0.668292840813E+03   -0.38368E-05   -0.36453E-05  5996   0.155E-02
  31 F= -.66829284E+03 E0= -.66823562E+03  d E =-.473846E-02
 trial-energy change:   -0.004738  1 .order   -0.004513   -0.005312   -0.003713
 step:   0.4025(harm=  0.7066)  dis= 0.02164  next Energy=  -668.294658 (dE=-0.656E-02)
 bond charge predicted
       N       E                     dE             d eps       ncg     rms          rms(c)
DAV:   1    -0.668262829147E+03    0.30008E-01   -0.16313E+00  9792   0.687E+00    0.435E-01
RMM:   2    -0.668308943172E+03   -0.46114E-01   -0.35558E-01 13746   0.134E+00    0.142E+00
RMM:   3    -0.668296223380E+03    0.12720E-01   -0.27179E-02 10321   0.732E-01    0.473E-01
RMM:   4    -0.668297681084E+03   -0.14577E-02   -0.10734E-02 12318   0.257E-01    0.594E-01
RMM:   5    -0.668295717888E+03    0.19632E-02   -0.22992E-03 10843   0.143E-01    0.142E-01
RMM:   6    -0.668295917776E+03   -0.19989E-03   -0.14123E-03 10605   0.749E-02    0.217E-01
RMM:   7    -0.668295682352E+03    0.23542E-03   -0.85088E-04 11964   0.732E-02    0.133E-01
RMM:   8    -0.668295646108E+03    0.36244E-04   -0.29594E-04  9470   0.515E-02    0.922E-02
RMM:   9    -0.668295614839E+03    0.31269E-04   -0.17229E-04  8386   0.261E-02    0.262E-02
RMM:  10    -0.668295629078E+03   -0.14239E-04   -0.69067E-05  6449   0.239E-02    0.548E-02
RMM:  11    -0.668295615914E+03    0.13164E-04   -0.42733E-05  6108   0.187E-02    0.104E-02
RMM:  12    -0.668295617175E+03   -0.12612E-05   -0.32844E-05  5917   0.145E-02
  32 F= -.66829562E+03 E0= -.66823813E+03  d E =-.751482E-02
 curvature:  -1.84 expect dE=-0.231E-01 dE for cont linesearch -0.939E-03
 ZBRENT: increasing intervall
 opt :   0.7821  next Energy=  -668.296840 (dE=-0.874E-02)
 bond charge predicted
       N       E                     dE             d eps       ncg     rms          rms(c)
DAV:   1    -0.668166149023E+03    0.12947E+00   -0.65366E+00  9744   0.138E+01    0.872E-01
RMM:   2    -0.668350734990E+03   -0.18459E+00   -0.14174E+00 13744   0.269E+00    0.291E+00
RMM:   3    -0.668299879898E+03    0.50855E-01   -0.10882E-01 10325   0.146E+00    0.993E-01
RMM:   4    -0.668305067352E+03   -0.51875E-02   -0.42502E-02 12255   0.523E-01    0.117E+00
RMM:   5    -0.668297387153E+03    0.76802E-02   -0.92431E-03 11407   0.283E-01    0.285E-01
RMM:   6    -0.668298170164E+03   -0.78301E-03   -0.55773E-03 12179   0.142E-01    0.432E-01
RMM:   7    -0.668297301277E+03    0.86889E-03   -0.32129E-03 12343   0.137E-01    0.283E-01
RMM:   8    -0.668297083643E+03    0.21763E-03   -0.10999E-03 11278   0.927E-02    0.178E-01
RMM:   9    -0.668296985107E+03    0.98537E-04   -0.76416E-04 12144   0.480E-02    0.618E-02
RMM:  10    -0.668297035034E+03   -0.49928E-04   -0.26788E-04  9250   0.399E-02    0.105E-01
RMM:  11    -0.668296989877E+03    0.45157E-04   -0.16383E-04  8949   0.268E-02    0.201E-02
RMM:  12    -0.668296996230E+03   -0.63529E-05   -0.10513E-04  7771   0.211E-02    0.151E-02
RMM:  13    -0.668297002843E+03   -0.66135E-05   -0.41109E-05  6156   0.211E-02
  33 F= -.66829700E+03 E0= -.66823899E+03  d E =-.890049E-02
 curvature:  -2.39 expect dE=-0.421E-01 dE for cont linesearch -0.238E-03
 ZBRENT: bracketing found
 ZBRENT: interpolating
 opt :   0.6659  next Energy=  -668.297268 (dE=-0.917E-02)
 bond charge predicted
       N       E                     dE             d eps       ncg     rms          rms(c)
DAV:   1    -0.668284964383E+03    0.12032E-01   -0.61166E-01 10032   0.423E+00    0.268E-01
RMM:   2    -0.668302518833E+03   -0.17554E-01   -0.13373E-01 13890   0.827E-01    0.877E-01
RMM:   3    -0.668297380003E+03    0.51388E-02   -0.10303E-02 10181   0.449E-01    0.273E-01
RMM:   4    -0.668297997086E+03   -0.61708E-03   -0.40250E-03 11985   0.159E-01    0.374E-01
RMM:   5    -0.668297228138E+03    0.76895E-03   -0.79660E-04  9760   0.899E-02    0.910E-02
RMM:   6    -0.668297284379E+03   -0.56241E-04   -0.44761E-04  9302   0.482E-02    0.128E-01
RMM:   7    -0.668297191525E+03    0.92854E-04   -0.32162E-04 10411   0.491E-02    0.747E-02
RMM:   8    -0.668297186128E+03    0.53975E-05   -0.81673E-05  6268   0.360E-02
  34 F= -.66829719E+03 E0= -.66823935E+03  d E =-.908377E-02
 curvature:  -2.67 expect dE=-0.385E-01 dE for cont linesearch -0.163E-04
 trial: gam= 0.28594 g(F)=  0.105E-01 g(S)=  0.394E-02 ort = 0.113E-02 (trialstep = 0.303E+00)
 search vector abs. value=  0.322E-01
 bond charge predicted
       N       E                     dE             d eps       ncg     rms          rms(c)
DAV:   1    -0.668288348627E+03    0.88429E-02   -0.62781E-01  9576   0.426E+00    0.245E-01
RMM:   2    -0.668302309194E+03   -0.13961E-01   -0.13477E-01 13789   0.856E-01    0.552E-01
RMM:   3    -0.668301459598E+03    0.84960E-03   -0.95553E-03 10308   0.420E-01    0.328E-01
RMM:   4    -0.668301984256E+03   -0.52466E-03   -0.36723E-03 11885   0.165E-01    0.387E-01
RMM:   5    -0.668301092103E+03    0.89215E-03   -0.92061E-04  9268   0.982E-02    0.121E-01
RMM:   6    -0.668301139109E+03   -0.47007E-04   -0.56567E-04  9812   0.558E-02    0.142E-01
RMM:   7    -0.668301029670E+03    0.10944E-03   -0.39034E-04 11379   0.474E-02    0.923E-02
RMM:   8    -0.668301002948E+03    0.26722E-04   -0.10757E-04  6948   0.362E-02    0.542E-02
RMM:   9    -0.668300991143E+03    0.11805E-04   -0.66068E-05  6812   0.208E-02    0.137E-02
RMM:  10    -0.668300996737E+03   -0.55937E-05   -0.23235E-05  5664   0.176E-02
  35 F= -.66830100E+03 E0= -.66824298E+03  d E =-.381061E-02
 trial-energy change:   -0.003811  1 .order   -0.003826   -0.004478   -0.003174
 step:   1.0415(harm=  1.0415)  dis= 0.01948  next Energy=  -668.304874 (dE=-0.769E-02)
 bond charge predicted
       N       E                     dE             d eps       ncg     rms          rms(c)
DAV:   1    -0.668230017397E+03    0.70974E-01   -0.37219E+00  9480   0.103E+01    0.596E-01
RMM:   2    -0.668312400899E+03   -0.82384E-01   -0.79709E-01 13786   0.207E+00    0.134E+00
RMM:   3    -0.668307873548E+03    0.45274E-02   -0.58408E-02 10408   0.104E+00    0.789E-01
RMM:   4    -0.668311049352E+03   -0.31758E-02   -0.21899E-02 12262   0.397E-01    0.941E-01
RMM:   5    -0.668305818445E+03    0.52309E-02   -0.58121E-03 11276   0.235E-01    0.279E-01
RMM:   6    -0.668306309813E+03   -0.49137E-03   -0.38445E-03 11881   0.123E-01    0.377E-01
RMM:   7    -0.668305607795E+03    0.70202E-03   -0.23012E-03 12816   0.113E-01    0.238E-01
RMM:   8    -0.668305419286E+03    0.18851E-03   -0.85967E-04 11218   0.722E-02    0.115E-01
RMM:   9    -0.668305384532E+03    0.34754E-04   -0.44985E-04 10404   0.355E-02    0.470E-02
RMM:  10    -0.668305404137E+03   -0.19605E-04   -0.15436E-04  7909   0.336E-02    0.651E-02
RMM:  11    -0.668305393532E+03    0.10606E-04   -0.12806E-04  8266   0.214E-02    0.224E-02
RMM:  12    -0.668305398838E+03   -0.53069E-05   -0.54120E-05  6332   0.204E-02
  36 F= -.66830540E+03 E0= -.66824703E+03  d E =-.821271E-02
 curvature:  -1.14 expect dE=-0.104E-01 dE for cont linesearch -0.294E-04
 trial: gam= 0.56584 g(F)=  0.495E-02 g(S)=  0.421E-02 ort = 0.913E-03 (trialstep = 0.451E+00)
 search vector abs. value=  0.205E-01
 bond charge predicted
       N       E                     dE             d eps       ncg     rms          rms(c)
DAV:   1    -0.668296048161E+03    0.93454E-02   -0.84806E-01 11160   0.495E+00    0.556E-01
RMM:   2    -0.668348776767E+03   -0.52729E-01   -0.20303E-01 12742   0.128E+00    0.238E+00
RMM:   3    -0.668311611635E+03    0.37165E-01   -0.29337E-02 10696   0.672E-01    0.753E-01
RMM:   4    -0.668310001040E+03    0.16106E-02   -0.10026E-02 12113   0.263E-01    0.398E-01
RMM:   5    -0.668309093943E+03    0.90710E-03   -0.25312E-03 12229   0.133E-01    0.218E-01
RMM:   6    -0.668308995944E+03    0.97998E-04   -0.83194E-04 10794   0.816E-02    0.180E-01
RMM:   7    -0.668308913042E+03    0.82903E-04   -0.74068E-04 11879   0.663E-02    0.162E-01
RMM:   8    -0.668308822004E+03    0.91038E-04   -0.22776E-04  9074   0.558E-02    0.903E-02
RMM:   9    -0.668308794219E+03    0.27785E-04   -0.20316E-04  9653   0.280E-02    0.303E-02
RMM:  10    -0.668308805311E+03   -0.11092E-04   -0.51688E-05  6257   0.244E-02    0.483E-02
RMM:  11    -0.668308801516E+03    0.37950E-05   -0.35673E-05  5927   0.185E-02
  37 F= -.66830880E+03 E0= -.66825050E+03  d E =-.340268E-02
 trial-energy change:   -0.003403  1 .order   -0.003350   -0.004364   -0.002336
 step:   0.8524(harm=  0.9705)  dis= 0.01064  next Energy=  -668.309878 (dE=-0.448E-02)
 bond charge predicted
       N       E                     dE             d eps       ncg     rms          rms(c)
DAV:   1    -0.668300005900E+03    0.87994E-02   -0.67283E-01 11136   0.440E+00    0.496E-01
RMM:   2    -0.668342077430E+03   -0.42072E-01   -0.16115E-01 12606   0.113E+00    0.213E+00
RMM:   3    -0.668312262927E+03    0.29815E-01   -0.22930E-02 10663   0.596E-01    0.672E-01
RMM:   4    -0.668310955455E+03    0.13075E-02   -0.79216E-03 11881   0.235E-01    0.350E-01
RMM:   5    -0.668310281149E+03    0.67431E-03   -0.20119E-03 12016   0.116E-01    0.201E-01
RMM:   6    -0.668310168129E+03    0.11302E-03   -0.64372E-04 10230   0.728E-02    0.149E-01
RMM:   7    -0.668310114337E+03    0.53792E-04   -0.59054E-04 12209   0.582E-02    0.134E-01
RMM:   8    -0.668310060214E+03    0.54122E-04   -0.16981E-04  8424   0.497E-02    0.833E-02
RMM:   9    -0.668310038127E+03    0.22087E-04   -0.15788E-04  9505   0.256E-02    0.261E-02
RMM:  10    -0.668310047447E+03   -0.93194E-05   -0.41211E-05  6050   0.229E-02
  38 F= -.66831005E+03 E0= -.66825177E+03  d E =-.464861E-02
 curvature:  -0.97 expect dE=-0.699E-02 dE for cont linesearch -0.502E-04
 trial: gam= 0.75221 g(F)=  0.274E-02 g(S)=  0.443E-02 ort = 0.103E-02 (trialstep = 0.531E+00)
 search vector abs. value=  0.203E-01
 bond charge predicted
       N       E                     dE             d eps       ncg     rms          rms(c)
DAV:   1    -0.668296359225E+03    0.13679E-01   -0.11247E+00 11136   0.548E+00    0.498E-01
RMM:   2    -0.668337344597E+03   -0.40985E-01   -0.22655E-01 13326   0.125E+00    0.174E+00
RMM:   3    -0.668313789494E+03    0.23555E-01   -0.24926E-02 10427   0.661E-01    0.391E-01
RMM:   4    -0.668315631037E+03   -0.18415E-02   -0.10379E-02 13237   0.230E-01    0.636E-01
RMM:   5    -0.668313363463E+03    0.22676E-02   -0.20728E-03 11489   0.139E-01    0.145E-01
RMM:   6    -0.668313666097E+03   -0.30263E-03   -0.12779E-03 11113   0.892E-02    0.274E-01
RMM:   7    -0.668313206132E+03    0.45997E-03   -0.70323E-04 11273   0.769E-02    0.779E-02
RMM:   8    -0.668313339168E+03   -0.13304E-03   -0.39333E-04 10215   0.535E-02    0.175E-01
RMM:   9    -0.668313184205E+03    0.15496E-03   -0.14332E-04  7927   0.372E-02    0.198E-02
RMM:  10    -0.668313206631E+03   -0.22426E-04   -0.12364E-04  7096   0.231E-02    0.616E-02
RMM:  11    -0.668313189529E+03    0.17102E-04   -0.38391E-05  6028   0.212E-02    0.118E-02
RMM:  12    -0.668313193750E+03   -0.42209E-05   -0.29569E-05  5812   0.149E-02
  39 F= -.66831319E+03 E0= -.66825481E+03  d E =-.314630E-02
 trial-energy change:   -0.003146  1 .order   -0.002990   -0.004219   -0.001761
 step:   0.7759(harm=  0.9119)  dis= 0.00835  next Energy=  -668.313614 (dE=-0.357E-02)
 bond charge predicted
       N       E                     dE             d eps       ncg     rms          rms(c)
DAV:   1    -0.668310250981E+03    0.29385E-02   -0.23880E-01 11544   0.252E+00    0.230E-01
RMM:   2    -0.668319076817E+03   -0.88258E-02   -0.48028E-02 13213   0.570E-01    0.816E-01
RMM:   3    -0.668313921723E+03    0.51551E-02   -0.53350E-03 10282   0.310E-01    0.184E-01
RMM:   4    -0.668314292153E+03   -0.37043E-03   -0.21983E-03 12207   0.108E-01    0.286E-01
RMM:   5    -0.668313835188E+03    0.45697E-03   -0.44643E-04 10183   0.660E-02    0.739E-02
RMM:   6    -0.668313877476E+03   -0.42288E-04   -0.26797E-04  8890   0.440E-02    0.113E-01
RMM:   7    -0.668313800679E+03    0.76797E-04   -0.16198E-04 10160   0.362E-02    0.410E-02
RMM:   8    -0.668313818960E+03   -0.18281E-04   -0.69761E-05  6421   0.301E-02    0.713E-02
RMM:   9    -0.668313792953E+03    0.26007E-04   -0.33253E-05  5748   0.215E-02    0.940E-03
RMM:  10    -0.668313796766E+03   -0.38131E-05   -0.21370E-05  5670   0.157E-02
  40 F= -.66831380E+03 E0= -.66825536E+03  d E =-.374932E-02
 curvature:  -1.02 expect dE=-0.256E-02 dE for cont linesearch -0.812E-04
 ZBRENT: increasing intervall
 opt :   1.2651  next Energy=  -668.313421 (dE=-0.337E-02)
 bond charge predicted
       N       E                     dE             d eps       ncg     rms          rms(c)
DAV:   1    -0.668299092557E+03    0.14700E-01   -0.95268E-01 11136   0.504E+00    0.461E-01
RMM:   2    -0.668334572750E+03   -0.35480E-01   -0.19300E-01 13243   0.115E+00    0.163E+00
RMM:   3    -0.668313913496E+03    0.20659E-01   -0.21351E-02 10461   0.609E-01    0.367E-01
RMM:   4    -0.668315410920E+03   -0.14974E-02   -0.87760E-03 12947   0.211E-01    0.578E-01
RMM:   5    -0.668313557521E+03    0.18534E-02   -0.17485E-03 11336   0.126E-01    0.146E-01
RMM:   6    -0.668313738021E+03   -0.18050E-03   -0.10270E-03 10535   0.800E-02    0.231E-01
RMM:   7    -0.668313421344E+03    0.31668E-03   -0.60358E-04 11548   0.682E-02    0.850E-02
RMM:   8    -0.668313492275E+03   -0.70930E-04   -0.29246E-04  9734   0.516E-02    0.141E-01
RMM:   9    -0.668313391875E+03    0.10040E-03   -0.14586E-04  8526   0.323E-02    0.171E-02
RMM:  10    -0.668313405439E+03   -0.13564E-04   -0.83745E-05  6898   0.227E-02    0.482E-02
RMM:  11    -0.668313395274E+03    0.10166E-04   -0.32413E-05  5870   0.202E-02    0.122E-02
RMM:  12    -0.668313398837E+03   -0.35634E-05   -0.22707E-05  5680   0.147E-02
  41 F= -.66831340E+03 E0= -.66825485E+03  d E =-.335139E-02
 curvature:   4.71 expect dE= 0.441E-01 dE for cont linesearch  0.231E-02
 ZBRENT: bracketing found
 ZBRENT: interpolating
 opt :   0.9165  next Energy=  -668.313886 (dE=-0.384E-02)
 bond charge predicted
       N       E                     dE             d eps       ncg     rms          rms(c)
DAV:   1    -0.668306808085E+03    0.65872E-02   -0.48464E-01 11256   0.359E+00    0.327E-01
RMM:   2    -0.668324513293E+03   -0.17705E-01   -0.96296E-02 13341   0.811E-01    0.116E+00
RMM:   3    -0.668314127811E+03    0.10385E-01   -0.10588E-02 10353   0.445E-01    0.255E-01
RMM:   4    -0.668314932239E+03   -0.80443E-03   -0.45402E-03 12657   0.156E-01    0.415E-01
RMM:   5    -0.668313970964E+03    0.96127E-03   -0.88761E-04 10724   0.921E-02    0.106E-01
RMM:   6    -0.668314050457E+03   -0.79493E-04   -0.47231E-04  9450   0.593E-02    0.161E-01
RMM:   7    -0.668313896644E+03    0.15381E-03   -0.30583E-04 10305   0.500E-02    0.606E-02
RMM:   8    -0.668313936527E+03   -0.39883E-04   -0.12159E-04  7090   0.394E-02    0.105E-01
RMM:   9    -0.668313882189E+03    0.54338E-04   -0.54934E-05  6002   0.260E-02    0.127E-02
RMM:  10    -0.668313893585E+03   -0.11395E-04   -0.43972E-05  6058   0.192E-02    0.397E-02
RMM:  11    -0.668313887870E+03    0.57143E-05   -0.13036E-05  5352   0.154E-02
  42 F= -.66831389E+03 E0= -.66825543E+03  d E =-.384042E-02
 curvature:  -0.18 expect dE=-0.711E-03 dE for cont linesearch -0.128E-06
 trial: gam= 0.69774 g(F)=  0.201E-02 g(S)=  0.189E-02 ort = 0.119E-03 (trialstep = 0.608E+00)
 search vector abs. value=  0.140E-01
 bond charge predicted
       N       E                     dE             d eps       ncg     rms          rms(c)
DAV:   1    -0.668295132047E+03    0.18762E-01   -0.10334E+00 10080   0.543E+00    0.240E-01
RMM:   2    -0.668315482770E+03   -0.20351E-01   -0.20913E-01 13627   0.112E+00    0.387E-01
RMM:   3    -0.668316413127E+03   -0.93036E-03   -0.12756E-02 10058   0.489E-01    0.447E-01
RMM:   4    -0.668315898478E+03    0.51465E-03   -0.52663E-03 13255   0.166E-01    0.176E-01
RMM:   5    -0.668315797275E+03    0.10120E-03   -0.79534E-04 10484   0.720E-02    0.101E-01
RMM:   6    -0.668315800664E+03   -0.33890E-05   -0.52239E-04 11398   0.554E-02    0.148E-01
RMM:   7    -0.668315701606E+03    0.99058E-04   -0.19874E-04  9549   0.463E-02    0.715E-02
RMM:   8    -0.668315732323E+03   -0.30717E-04   -0.17040E-04  8689   0.370E-02    0.860E-02
RMM:   9    -0.668315683861E+03    0.48462E-04   -0.61637E-05  6376   0.274E-02    0.189E-02
RMM:  10    -0.668315693713E+03   -0.98522E-05   -0.49128E-05  6343   0.186E-02
  43 F= -.66831569E+03 E0= -.66825722E+03  d E =-.180584E-02
 trial-energy change:   -0.001806  1 .order   -0.001804   -0.002421   -0.001188
 step:   1.1940(harm=  1.1940)  dis= 0.01008  next Energy=  -668.316264 (dE=-0.238E-02)
 bond charge predicted
       N       E                     dE             d eps       ncg     rms          rms(c)
DAV:   1    -0.668297151315E+03    0.18533E-01   -0.95873E-01 10056   0.524E+00    0.232E-01
RMM:   2    -0.668316138737E+03   -0.18987E-01   -0.19458E-01 13618   0.108E+00    0.388E-01
RMM:   3    -0.668316893749E+03   -0.75501E-03   -0.12053E-02 10099   0.472E-01    0.416E-01
RMM:   4    -0.668316584755E+03    0.30899E-03   -0.52542E-03 13315   0.162E-01    0.202E-01
RMM:   5    -0.668316422493E+03    0.16226E-03   -0.80950E-04 10552   0.732E-02    0.909E-02
RMM:   6    -0.668316455224E+03   -0.32731E-04   -0.53942E-04 11430   0.538E-02    0.149E-01
RMM:   7    -0.668316350658E+03    0.10457E-03   -0.22912E-04  9857   0.472E-02    0.698E-02
RMM:   8    -0.668316382242E+03   -0.31584E-04   -0.17952E-04  8700   0.369E-02    0.864E-02
RMM:   9    -0.668316336336E+03    0.45906E-04   -0.74352E-05  7008   0.271E-02    0.177E-02
RMM:  10    -0.668316346551E+03   -0.10215E-04   -0.52359E-05  6774   0.185E-02    0.437E-02
RMM:  11    -0.668316338471E+03    0.80794E-05   -0.26397E-05  5973   0.171E-02
  44 F= -.66831634E+03 E0= -.66825788E+03  d E =-.245060E-02
 curvature:  -2.09 expect dE=-0.316E-02 dE for cont linesearch -0.146E-07
 trial: gam= 0.19586 g(F)=  0.127E-02 g(S)=  0.239E-03 ort = 0.986E-05 (trialstep = 0.725E+00)
 search vector abs. value=  0.205E-02
 bond charge predicted
       N       E                     dE             d eps       ncg     rms          rms(c)
DAV:   1    -0.668313838889E+03    0.25077E-02   -0.22385E-01 12624   0.258E+00    0.283E-01
RMM:   2    -0.668326164153E+03   -0.12325E-01   -0.49855E-02 11796   0.676E-01    0.111E+00
RMM:   3    -0.668317557541E+03    0.86066E-02   -0.75963E-03 10802   0.345E-01    0.342E-01
RMM:   4    -0.668317363273E+03    0.19427E-03   -0.26578E-03 12552   0.136E-01    0.227E-01
RMM:   5    -0.668317064988E+03    0.29829E-03   -0.61548E-04 11333   0.707E-02    0.965E-02
RMM:   6    -0.668317087113E+03   -0.22125E-04   -0.23920E-04  8931   0.491E-02    0.119E-01
RMM:   7    -0.668317031476E+03    0.55636E-04   -0.19761E-04 10393   0.371E-02    0.713E-02
RMM:   8    -0.668317025241E+03    0.62357E-05   -0.61291E-05  6118   0.344E-02
  45 F= -.66831703E+03 E0= -.66825864E+03  d E =-.686769E-03
 trial-energy change:   -0.000687  1 .order   -0.000693   -0.001096   -0.000289
 step:   0.9857(harm=  0.9857)  dis= 0.00213  next Energy=  -668.317083 (dE=-0.745E-03)
 bond charge predicted
       N       E                     dE             d eps       ncg     rms          rms(c)
DAV:   1    -0.668316629796E+03    0.40168E-03   -0.28669E-02 12864   0.925E-01    0.105E-01
RMM:   2    -0.668318378992E+03   -0.17492E-02   -0.64174E-03 11395   0.243E-01    0.431E-01
RMM:   3    -0.668317119159E+03    0.12598E-02   -0.10630E-03  9779   0.134E-01    0.133E-01
RMM:   4    -0.668317080364E+03    0.38795E-04   -0.37244E-04  9906   0.549E-02    0.781E-02
RMM:   5    -0.668317052719E+03    0.27646E-04   -0.87907E-05  6841   0.278E-02    0.391E-02
RMM:   6    -0.668317052894E+03   -0.17571E-06   -0.30503E-05  5743   0.240E-02
  46 F= -.66831705E+03 E0= -.66825863E+03  d E =-.714423E-03
 curvature:  -0.67 expect dE=-0.460E-03 dE for cont linesearch -0.415E-07
 trial: gam= 0.46616 g(F)=  0.369E-03 g(S)=  0.319E-03 ort =-0.113E-04 (trialstep = 0.777E+00)
 search vector abs. value=  0.112E-02
 bond charge predicted
       N       E                     dE             d eps       ncg     rms          rms(c)
DAV:   1    -0.668315803201E+03    0.12495E-02   -0.13720E-01 12720   0.199E+00    0.246E-01
RMM:   2    -0.668325282662E+03   -0.94795E-02   -0.31053E-02 11648   0.538E-01    0.101E+00
RMM:   3    -0.668317921095E+03    0.73616E-02   -0.53505E-03 10469   0.303E-01    0.289E-01
RMM:   4    -0.668317716199E+03    0.20490E-03   -0.17258E-03 12701   0.104E-01    0.165E-01
RMM:   5    -0.668317538496E+03    0.17770E-03   -0.39034E-04 11360   0.570E-02    0.640E-02
RMM:   6    -0.668317590597E+03   -0.52102E-04   -0.15442E-04  8539   0.418E-02    0.127E-01
RMM:   7    -0.668317504065E+03    0.86533E-04   -0.10761E-04  8462   0.334E-02    0.354E-02
RMM:   8    -0.668317524175E+03   -0.20110E-04   -0.65772E-05  6485   0.289E-02    0.689E-02
RMM:   9    -0.668317496704E+03    0.27471E-04   -0.28819E-05  5596   0.221E-02    0.107E-02
RMM:  10    -0.668317500073E+03   -0.33690E-05   -0.21049E-05  5700   0.145E-02
  47 F= -.66831750E+03 E0= -.66825898E+03  d E =-.447179E-03
 trial-energy change:   -0.000447  1 .order   -0.000351   -0.000531   -0.000171
 step:   0.9065(harm=  1.1479)  dis= 0.00152  next Energy=  -668.317515 (dE=-0.462E-03)
 bond charge predicted
       N       E                     dE             d eps       ncg     rms          rms(c)
DAV:   1    -0.668317479319E+03    0.17386E-04   -0.37996E-03 13296   0.331E-01    0.422E-02
RMM:   2    -0.668317755012E+03   -0.27569E-03   -0.85222E-04 10048   0.906E-02    0.176E-01
RMM:   3    -0.668317535212E+03    0.21980E-03   -0.15508E-04  7379   0.591E-02    0.492E-02
RMM:   4    -0.668317529131E+03    0.60813E-05   -0.47346E-05  6402   0.216E-02
  48 F= -.66831753E+03 E0= -.66825897E+03  d E =-.476237E-03
 curvature:  -0.54 expect dE=-0.151E-03 dE for cont linesearch -0.791E-05
 ZBRENT: increasing intervall
 opt :   1.1646  next Energy=  -668.317538 (dE=-0.485E-03)
 bond charge predicted
       N       E                     dE             d eps       ncg     rms          rms(c)
DAV:   1    -0.668317357646E+03    0.17757E-03   -0.15129E-02 12792   0.657E-01    0.879E-02
RMM:   2    -0.668318552715E+03   -0.11951E-02   -0.35459E-03 11214   0.184E-01    0.372E-01
RMM:   3    -0.668317598331E+03    0.95438E-03   -0.65161E-04  9018   0.109E-01    0.112E-01
RMM:   4    -0.668317556530E+03    0.41801E-04   -0.19836E-04  9490   0.405E-02    0.530E-02
RMM:   5    -0.668317535314E+03    0.21215E-04   -0.46625E-05  6078   0.233E-02    0.205E-02
RMM:   6    -0.668317541178E+03   -0.58642E-05   -0.20261E-05  5467   0.215E-02
  49 F= -.66831754E+03 E0= -.66825895E+03  d E =-.488284E-03
 curvature:  -0.63 expect dE=-0.246E-03 dE for cont linesearch -0.281E-05
 trial: gam= 0.66421 g(F)=  0.299E-03 g(S)=  0.922E-04 ort =-0.709E-04 (trialstep = 0.855E+00)
 search vector abs. value=  0.792E-03
 bond charge predicted
       N       E                     dE             d eps       ncg     rms          rms(c)
DAV:   1    -0.668315457151E+03    0.20782E-02   -0.11519E-01 10104   0.179E+00    0.800E-02
RMM:   2    -0.668317881172E+03   -0.24240E-02   -0.23231E-02 13665   0.378E-01    0.220E-01
RMM:   3    -0.668317761403E+03    0.11977E-03   -0.15223E-03  9641   0.186E-01    0.104E-01
RMM:   4    -0.668317796168E+03   -0.34765E-04   -0.65813E-04 11186   0.612E-02    0.917E-02
RMM:   5    -0.668317754448E+03    0.41720E-04   -0.10246E-04  7093   0.361E-02    0.342E-02
RMM:   6    -0.668317760715E+03   -0.62673E-05   -0.60798E-05  6629   0.240E-02
  50 F= -.66831776E+03 E0= -.66825915E+03  d E =-.219537E-03
 trial-energy change:   -0.000220  1 .order   -0.000195   -0.000294   -0.000096
 step:   1.2663(harm=  1.2663)  dis= 0.00205  next Energy=  -668.317759 (dE=-0.218E-03)
 bond charge predicted
       N       E                     dE             d eps       ncg     rms          rms(c)
DAV:   1    -0.668317253574E+03    0.50087E-03   -0.26286E-02 10680   0.860E-01    0.502E-02
RMM:   2    -0.668318134267E+03   -0.88069E-03   -0.55128E-03 13440   0.181E-01    0.276E-01
RMM:   3    -0.668317768195E+03    0.36607E-03   -0.47113E-04  8456   0.109E-01    0.405E-02
RMM:   4    -0.668317799589E+03   -0.31394E-04   -0.21104E-04  9588   0.369E-02    0.690E-02
RMM:   5    -0.668317775099E+03    0.24490E-04   -0.41645E-05  6061   0.241E-02    0.209E-02
RMM:   6    -0.668317777936E+03   -0.28374E-05   -0.22623E-05  5703   0.178E-02
  51 F= -.66831778E+03 E0= -.66825913E+03  d E =-.236758E-03
 curvature:  -1.46 expect dE=-0.348E-03 dE for cont linesearch -0.413E-05
 trial: gam= 0.53823 g(F)=  0.228E-03 g(S)=  0.109E-04 ort =-0.474E-04 (trialstep = 0.937E+00)
 search vector abs. value=  0.417E-03
 bond charge predicted
       N       E                     dE             d eps       ncg     rms          rms(c)
DAV:   1    -0.668316777537E+03    0.99756E-03   -0.68818E-02  9936   0.129E+00    0.711E-02
RMM:   2    -0.668318303409E+03   -0.15259E-02   -0.12149E-02 13618   0.284E-01    0.283E-01
RMM:   3    -0.668317936225E+03    0.36718E-03   -0.91445E-04  9412   0.141E-01    0.700E-02
RMM:   4    -0.668317997522E+03   -0.61296E-04   -0.42486E-04 10324   0.537E-02    0.975E-02
RMM:   5    -0.668317941251E+03    0.56271E-04   -0.78551E-05  6582   0.316E-02    0.397E-02
RMM:   6    -0.668317940283E+03    0.96759E-06   -0.47410E-05  6277   0.214E-02
  52 F= -.66831794E+03 E0= -.66825926E+03  d E =-.162347E-03
 trial-energy change:   -0.000162  1 .order   -0.000136   -0.000200   -0.000072
 step:   1.4672(harm=  1.4672)  dis= 0.00189  next Energy=  -668.317935 (dE=-0.157E-03)
 bond charge predicted
       N       E                     dE             d eps       ncg     rms          rms(c)
DAV:   1    -0.668317598854E+03    0.34240E-03   -0.21725E-02 10368   0.725E-01    0.583E-02
RMM:   2    -0.668318647226E+03   -0.10484E-02   -0.43639E-03 13433   0.169E-01    0.356E-01
RMM:   3    -0.668317967500E+03    0.67973E-03   -0.47245E-04  8468   0.102E-01    0.470E-02
RMM:   4    -0.668317990652E+03   -0.23153E-04   -0.20387E-04  9516   0.352E-02    0.656E-02
RMM:   5    -0.668317969678E+03    0.20975E-04   -0.35362E-05  5900   0.218E-02    0.242E-02
RMM:   6    -0.668317969504E+03    0.17406E-06   -0.18806E-05  5598   0.172E-02
  53 F= -.66831797E+03 E0= -.66825923E+03  d E =-.191567E-03
 curvature:  -1.43 expect dE=-0.172E-03 dE for cont linesearch -0.142E-07
 trial: gam= 0.45326 g(F)=  0.970E-04 g(S)=  0.226E-04 ort = 0.204E-05 (trialstep = 0.104E+01)
 search vector abs. value=  0.207E-03
 bond charge predicted
       N       E                     dE             d eps       ncg     rms          rms(c)
DAV:   1    -0.668316960276E+03    0.10094E-02   -0.46868E-02 10008   0.128E+00    0.834E-02
RMM:   2    -0.668318890362E+03   -0.19301E-02   -0.12022E-02 13490   0.265E-01    0.399E-01
RMM:   3    -0.668318092128E+03    0.79823E-03   -0.11504E-03  9096   0.153E-01    0.958E-02
RMM:   4    -0.668318104219E+03   -0.12091E-04   -0.39904E-04  9599   0.567E-02    0.830E-02
RMM:   5    -0.668318064859E+03    0.39361E-04   -0.88483E-05  6322   0.317E-02    0.463E-02
RMM:   6    -0.668318059816E+03    0.50425E-05   -0.40694E-05  6002   0.214E-02
  54 F= -.66831806E+03 E0= -.66825931E+03  d E =-.903128E-04
 trial-energy change:   -0.000090  1 .order   -0.000071   -0.000126   -0.000016
 step:   1.2005(harm=  1.2005)  dis= 0.00120  next Energy=  -668.318042 (dE=-0.724E-04)
 reached required accuracy - stopping structural energy minimisation
