HECN                                    
           1
     8.932500    0.000000    0.000000
     0.005753    9.055598    0.000000
     0.032102   -0.015743    8.937128
   Nb   Ta   Hf   N    C    Cr   W 
   7   6   7  13  19   6   6
Direct configuration=     1
   0.99688001  0.99204997  0.99924002
   0.25398003  0.99714995  0.24912000
   0.24803003  0.50165000  0.24955001
   0.50501006  0.49745998  0.99834003
   0.50479003  0.24631001  0.74710002
   0.99427992  0.50449999  0.49779000
   0.49950005  0.75481999  0.74817004
   0.99437004  0.23617001  0.26379999
   0.75718000  0.74102998  0.01100000
   0.00201000  0.25541000  0.73894001
   0.75307001  0.26163001  0.50533002
   0.99514004  0.74492004  0.74511997
   0.25679999  0.49462002  0.74545002
   0.24788999  0.24839000  0.99657997
   0.50833000  0.25676999  0.25376001
   0.74879004  0.98787999  0.26967001
   0.75719000  0.25603001  0.99591997
   0.24762001  0.74973999  0.99974006
   0.25272001  0.24823001  0.50015003
   0.24457999  0.75048999  0.49983999
   0.24982001  0.24942998  0.24825000
   0.26146999  0.99984002  0.99295996
   0.00281000  0.25024000  0.00130000
   0.75313998  0.24617000  0.25492002
   0.74767001  0.99748000  0.01202000
   0.50714994  0.99977000  0.24673000
   0.99051999  0.48088002  0.24100998
   0.50519005  0.76130999  0.00855000
   0.98896989  0.00202000  0.73708999
   0.75744996  0.24437997  0.74896999
   0.73632001  0.00417000  0.51063000
   0.50563996  0.23264999  0.49544997
   0.50008998  0.00061000  0.73471998
   0.99720000  0.99771992  0.25899999
   0.50427997  0.24673000  0.00262000
   0.25133999  0.74958002  0.24910999
   0.24328000  0.50072997  0.99510994
   0.99837005  0.74313996  0.00460000
   0.75633000  0.73891003  0.25767000
   0.75839004  0.50315998  0.00288000
   0.50700002  0.50333002  0.25878999
   0.24900999  0.25315000  0.74854000
   0.24446000  0.99823996  0.50287998
   0.99804009  0.24229999  0.50128003
   0.24177002  0.75340997  0.75018002
   0.25841001  0.50062002  0.50129001
   0.99000004  0.76215003  0.49746000
   0.99203996  0.50055999  0.75138002
   0.75036005  0.74888000  0.74756004
   0.74036002  0.50197000  0.50067003
   0.50575006  0.74958002  0.49720000
   0.50501003  0.50217998  0.73912003
   0.51588997  0.01358000  0.98075008
   0.99841994  0.50976998  0.98613004
   0.50379003  0.73926997  0.25905001
   0.23780002  0.01082000  0.74607998
   0.47957999  0.98308000  0.49717999
   0.74279003  0.97869994  0.76450995
   0.99864998  0.77573999  0.26102000
   0.73551001  0.51468004  0.26666001
   0.02362000  0.99783001  0.49557002
   0.50539000  0.52833005  0.49917999
   0.73876003  0.52828003  0.73814999
   0.75400003  0.72937999  0.49116997
HECN                                    
           1
     8.622094    0.005487   -0.004099
     0.011116    8.692798    0.004910
     0.026875   -0.010244    8.644462
   Nb   Ta   Hf   N    C    Cr   W 
   7   6   7  13  19   6   6
Direct configuration=     2
   0.99770342  0.99043233  0.99747171
   0.25400887  0.99244650  0.24778796
   0.25131875  0.50638533  0.24699101
   0.50288160  0.49475738  0.99775626
   0.50129396  0.24225334  0.75121673
   0.99633957  0.50148504  0.50130185
   0.49826442  0.76087316  0.74921421
   0.99774754  0.23610330  0.26079384
   0.75378476  0.74518599  0.00883839
   0.00433790  0.25351557  0.74052996
   0.75065334  0.25766445  0.50853950
   0.99932678  0.74769893  0.74844315
   0.25507347  0.49732917  0.74976062
   0.24987124  0.24677014  0.99689056
   0.50515641  0.25040085  0.25187557
   0.74050240  0.99038768  0.26683811
   0.75497921  0.25322491  0.99300888
   0.25218687  0.75221605  0.99976017
   0.25626104  0.24817825  0.50007495
   0.24888913  0.75048465  0.49951591
   0.25025518  0.24996185  0.24879799
   0.25922953  0.00039148  0.99392683
   0.00221883  0.24834396  0.00197214
   0.75325284  0.24629649  0.25442339
   0.74802174  0.99643947  0.00754062
   0.50263881  0.99998971  0.24845776
   0.99248821  0.48085241  0.24353207
   0.50563848  0.75937764  0.00609419
   0.98809066  0.00239800  0.74107741
   0.75561662  0.24424713  0.74923647
   0.73796088  0.00418454  0.51020536
   0.50512360  0.23308769  0.49761285
   0.50320342  0.00052822  0.73776320
   0.99975104  0.00203130  0.25239262
   0.50414331  0.24784258 -0.00083146
   0.25221382  0.74906390  0.24951547
   0.24525972  0.49978628  0.99707498
   0.99804164  0.74329442  0.00457780
   0.75249728  0.74314110  0.25191157
   0.75784725  0.50307183  0.00286040
   0.49874136  0.50613859  0.25359376
   0.25068840  0.24993939  0.74865920
   0.25378057  0.99808822  0.50549423
   0.99835605  0.24614974  0.50105469
   0.24482444  0.75348815  0.75033491
   0.25510244  0.50012762  0.49861084
   0.99368722  0.75759246  0.50150434
   0.99324728  0.50059264  0.75160035
   0.74764668  0.75770157  0.74963612
   0.74701637  0.49603189  0.50340500
   0.50333354  0.75727034  0.49578039
   0.50160071  0.50011972  0.74415560
   0.51752373  0.01659588  0.97661635
   0.99945608  0.51508220  0.98189829
   0.50451586  0.73627811  0.25846179
   0.23676891  0.01103536  0.74814681
   0.47626444  0.98173819  0.49838259
   0.73882607  0.97428891  0.76736729
   0.00304201  0.77429652  0.25465704
   0.73778452  0.51168556  0.25799506
   0.02035799  0.00128906  0.49921223
   0.49859864  0.52499295  0.49795912
   0.74087902  0.52095587  0.74546329
   0.75388449  0.73639778  0.49525989
HECN                                    
           1
     8.771262    0.002850   -0.002129
     0.008539    8.867145    0.002551
     0.029387   -0.012887    8.785105
   Nb   Ta   Hf   N    C    Cr   W 
   7   6   7  13  19   6   6
Direct configuration=     3
   0.99729338  0.99124190  0.99834960
   0.25399331  0.99480076  0.24844841
   0.24968358  0.50401505  0.24826297
   0.50394054  0.49610951  0.99804603
   0.50303221  0.24428425  0.74917109
   0.99531233  0.50299602  0.49955571
   0.49888130  0.75784276  0.74869745
   0.99606672  0.23613690  0.26228657
   0.75547698  0.74310374  0.00991433
   0.00317793  0.25446513  0.73973894
   0.75185445  0.25964983  0.50694438
   0.99724247  0.74631003  0.74679190
   0.25593288  0.49597362  0.74762016
   0.24888426  0.24758178  0.99673532
   0.50673480  0.25358781  0.25281075
   0.74462998  0.98912888  0.26824775
   0.75607966  0.25462766  0.99445492
   0.24991401  0.75097794  0.99974980
   0.25449810  0.24820525  0.50011140
   0.24674386  0.75048858  0.49967590
   0.25003857  0.24969588  0.24852578
   0.26034491  0.00011498  0.99344715
   0.00251237  0.24929316  0.00163780
   0.75319681  0.24623306  0.25467014
   0.74784737  0.99695921  0.00976573
   0.50488438  0.99987879  0.24760049
   0.99150770  0.48086757  0.24227855
   0.50541519  0.76034445  0.00731365
   0.98852755  0.00220963  0.73909666
   0.75652926  0.24431314  0.74910447
   0.73714406  0.00417766  0.51041595
   0.50538030  0.23286902  0.49653851
   0.50165260  0.00057101  0.73625048
   0.99848397 -0.00012813  0.25567598
   0.50421254  0.24728458  0.00088368
   0.25177851  0.74932267  0.24931366
   0.24427332  0.50025989  0.99609795
   0.99820520  0.74321699  0.00458895
   0.75440820  0.74102011  0.25477463
   0.75811746  0.50311578  0.00287024
   0.50285518  0.50472850  0.25617815
   0.24985172  0.25154723  0.74859867
   0.24913955  0.99816786  0.50419315
   0.99820004  0.24422253  0.50116766
   0.24330375  0.75345002  0.75025725
   0.25674963  0.50037232  0.49994257
   0.99184907  0.75987636  0.49949282
   0.99264616  0.50057674  0.75149061
   0.74899992  0.75328509  0.74860781
   0.74369985  0.49900747  0.50204292
   0.50453946  0.75341928  0.49648846
   0.50329620  0.50115149  0.74165400
   0.51671232  0.01508542  0.97867058
   0.99894297  0.51242194  0.98400202
   0.50415367  0.73777594  0.25875301
   0.23728183  0.01092781  0.74712025
   0.47791440  0.98240923  0.49778551
   0.74079745  0.97649671  0.76594736
   0.00085646  0.77501871  0.25781690
   0.73665325  0.51318289  0.26229867
   0.02198226 -0.00044258  0.49740443
   0.50197900  0.52666108  0.49856634
   0.73981993  0.52462521  0.74182724
   0.75394330  0.73288569  0.49322992
HECN                                    
           1
     8.816596    0.005459   -0.004726
     0.011223    8.857477    0.005809
     0.026945   -0.009647    8.833228
   Nb   Ta   Hf   N    C    Cr   W 
   7   6   7  13  19   6   6
Direct configuration=     4
   0.99929418  0.99012543  0.99527162
   0.25390501  0.99051108  0.24753861
   0.25319425  0.50878021  0.24512938
   0.50145031  0.49352137  0.99775724
   0.49879295  0.23958240  0.75323529
   0.99884661  0.49940890  0.50330956
   0.49765597  0.76420538  0.74933587
   0.00027009  0.23738614  0.25766705
   0.75081615  0.74858957  0.00640741
   0.00624352  0.25106350  0.74320456
   0.74923590  0.25411321  0.51003104
   0.00094076  0.75013355  0.75150697
   0.25273394  0.49897422  0.75218412
   0.25053507  0.24558715  0.99758083
   0.50259117  0.24768350  0.25040799
   0.73816965  0.99208764  0.26394348
   0.75414061  0.25092896  0.99205636
   0.25539879  0.75387517  0.99985613
   0.25780741  0.24820589  0.49985049
   0.25047309  0.75086263  0.49963001
   0.25064751  0.25021817  0.24897653
   0.25851855  0.00054631  0.99411135
   0.00194466  0.24792083  0.00265019
   0.75276044  0.24648209  0.25377419
   0.74746101  0.99597717  0.00430395
   0.49929160  0.99955686  0.24879410
   0.99338419  0.48304470  0.24459960
   0.50553200  0.75898261  0.00471080
   0.98734954  0.00255734  0.74381937
   0.75427860  0.24464884  0.74934599
   0.73993689  0.00331171  0.51137008
   0.50496196  0.23422230  0.49899974
   0.50518426  0.00055409  0.74024991
   0.99981006  0.00310387  0.24915658
   0.50359305  0.24796941 -0.00217499
   0.25415072  0.74872267  0.24932359
   0.24560659  0.49943713  0.99847985
   0.99913577  0.74278720  0.00495656
   0.74973841  0.74565477  0.25024269
   0.75842406  0.50230824  0.00312353
   0.49459562  0.50739032  0.25070567
   0.25210471  0.24756064  0.74895277
   0.25831008  0.99830122  0.50787608
   0.99921720  0.24888320  0.50069049
   0.24720231  0.75461040  0.75061520
   0.25288530  0.49977144  0.49752869
   0.99610981  0.75497833  0.50252708
   0.99470177  0.50064596  0.75245123
   0.74692027  0.76104121  0.75001918
   0.74890318  0.49477323  0.50351152
   0.50242257  0.76205708  0.49430882
   0.50003468  0.49905228  0.74653392
   0.51810674  0.01798268  0.97381403
   0.00009202  0.51811351  0.97885010
   0.50438027  0.73425784  0.25797906
   0.23539108  0.00996113  0.74958789
   0.47525221  0.98170543  0.49883164
   0.73558409  0.97354501  0.76998813
   0.00492270  0.77121491  0.25060710
   0.73861596  0.50890459  0.25251334
   0.01826125  0.00387461  0.50070212
   0.49646477  0.52108215  0.49654301
   0.74276330  0.51713695  0.75209223
   0.75255317  0.73952343  0.49805323
HECN                                    
           1
     8.815013    0.005367   -0.004635
     0.011129    8.857814    0.005695
     0.027030   -0.009761    8.831548
   Nb   Ta   Hf   N    C    Cr   W 
   7   6   7  13  19   6   6
Direct configuration=     5
   0.99922471  0.99016444  0.99537847
   0.25390804  0.99066100  0.24757015
   0.25307239  0.50861365  0.24523822
   0.50153678  0.49361181  0.99776726
   0.49894011  0.23974675  0.75309414
   0.99872377  0.49953436  0.50317913
   0.49769860  0.76398299  0.74931380
   0.00012415  0.23734246  0.25782743
   0.75097813  0.74839774  0.00652930
   0.00613697  0.25118247  0.74308415
   0.74932676  0.25430674  0.50992381
   0.00081230  0.75000001  0.75134325
   0.25284503  0.49886937  0.75202572
   0.25047770  0.24565689  0.99755142
   0.50273506  0.24788979  0.25049139
   0.73839412  0.99198410  0.26409304
   0.75420795  0.25105819  0.99213962
   0.25520831  0.75377396  0.99985242
   0.25769247  0.24820590  0.49985951
   0.25034356  0.75084959  0.49963157
   0.25062636  0.25019993  0.24896087
   0.25858198  0.00053123  0.99408831
   0.00196435  0.24796880  0.00261503
   0.75277561  0.24647337  0.25380531
   0.74747447  0.99601142  0.00449359
   0.49948585  0.99956807  0.24875271
   0.99331901  0.48296865  0.24451901
   0.50552795  0.75903018  0.00480117
   0.98739041  0.00254524  0.74365540
   0.75435677  0.24463708  0.74933763
   0.73983987  0.00334202  0.51133691
   0.50497648  0.23417503  0.49891430
   0.50506155  0.00055477  0.74011100
   0.99976410  0.00299084  0.24938298
   0.50361461  0.24794543 -0.00206877
   0.25406831  0.74874367  0.24932322
   0.24556025  0.49946593  0.99839711
   0.99910344  0.74280224  0.00494378
   0.74990070  0.74549267  0.25040016
   0.75841340  0.50233647  0.00311472
   0.49488259  0.50729713  0.25089581
   0.25202641  0.24770001  0.74894040
   0.25799151  0.99829670  0.50774810
   0.99918193  0.24872030  0.50070711
   0.24706691  0.75456988  0.75060274
   0.25301954  0.49979237  0.49761254
   0.99596173  0.75514961  0.50242161
   0.99463036  0.50064357  0.75241785
   0.74699258  0.76077012  0.74997030
   0.74872238  0.49492130  0.50346041
   0.50249621  0.76175512  0.49438464
   0.50014789  0.49912569  0.74636448
   0.51805839  0.01788136  0.97398269
   0.00005222  0.51791452  0.97902905
   0.50437237  0.73438080  0.25800589
   0.23545672  0.00999493  0.74950221
   0.47534466  0.98173002  0.49879533
   0.73576510  0.97364817  0.76984783
   0.00478150  0.77134781  0.25085736
   0.73854784  0.50905402  0.25285305
   0.01839051  0.00372372  0.50058771
   0.49665627  0.52127706  0.49661325
   0.74266088  0.51739885  0.75173566
   0.75260148  0.73929147  0.49788585
HECN                                    
           1
     8.836702    0.001461   -0.007473
     0.007207    8.894060    0.006135
     0.024263   -0.009377    8.841827
   Nb   Ta   Hf   N    C    Cr   W 
   7   6   7  13  19   6   6
Direct configuration=     6
   0.00132718  0.98922262  0.99363950
   0.25220475  0.98968128  0.24974600
   0.25388491  0.51039981  0.24449699
   0.50171007  0.49234411  0.99779056
   0.49660446  0.23813991  0.75355889
   0.00080732  0.49844671  0.50578819
   0.49891440  0.76412157  0.74656182
   0.00140417  0.23937174  0.25661610
   0.74951858  0.74911049  0.00460672
   0.00827298  0.24850074  0.74420464
   0.74967544  0.25205774  0.51123797
   0.00067309  0.75086131  0.75313546
   0.25120472  0.49914318  0.75276168
   0.24954573  0.24465522  0.99803099
   0.50118417  0.24839034  0.24954270
   0.73881207  0.99203990  0.26210711
   0.75422171  0.24937817  0.99199948
   0.25726583  0.75487617  0.00013567
   0.25664920  0.24819437  0.50040359
   0.24927997  0.75121595  0.49993904
   0.25076059  0.25006584  0.24921275
   0.25774853  0.00064079  0.99480482
   0.00168354  0.24754925  0.00318264
   0.75204237  0.24629154  0.25351432
   0.74683512  0.99614897  0.00162496
   0.49803681  0.99944677  0.24907297
   0.99349517  0.48597577  0.24652378
   0.50559389  0.75872108  0.00283088
   0.98724113  0.00263291  0.74480008
   0.75389861  0.24626069  0.74896197
   0.74361597  0.00274354  0.51053709
   0.50558901  0.23740749  0.49911259
   0.50732568  0.00092002  0.74296982
   0.99849196 -0.00034321  0.24900447
   0.50297343  0.24746118 -0.00163318
   0.25636653  0.74895301  0.24900178
   0.24483192  0.49998917  0.99899367
   0.00012301  0.74250921  0.00530474
   0.74835831  0.74478996  0.25184537
   0.75943548  0.50224979  0.00370559
   0.49656132  0.50679570  0.25004978
   0.25236521  0.24675492  0.74943209
   0.25700988  0.99920051  0.51005798
   0.99993526  0.24997897  0.50024377
   0.24857599  0.75604322  0.75082012
   0.25173885  0.49970075  0.49814753
   0.99642177  0.75429452  0.50116130
   0.99608906  0.50089767  0.75340526
   0.74838033  0.75803657  0.74873794
   0.74767732  0.49693030  0.50263912
   0.50383047  0.76140282  0.49212719
   0.50069075  0.49906452  0.74601641
   0.51908736  0.01931470  0.97088171
   0.00039447  0.52142414  0.97473533
   0.50404468  0.73054125  0.25932121
   0.23184933  0.00768547  0.75027787
   0.47519288  0.98262231  0.49949366
   0.73116873  0.97529287  0.77362112
   0.00385414  0.77188942  0.24914337
   0.73462190  0.51033381  0.24917873
   0.01982687  0.00491565  0.49983433
   0.49833767  0.52102298  0.49501092
   0.74343029  0.51850638  0.75679185
   0.75130805  0.73678517  0.49919731
HECN                                    
           1
     8.845714   -0.000162   -0.008653
     0.005578    8.909121    0.006318
     0.023113   -0.009218    8.846098
   Nb   Ta   Hf   N    C    Cr   W 
   7   6   7  13  19   6   6
Direct configuration=     7
   0.00219824  0.98883329  0.99291807
   0.25149884  0.98927549  0.25064885
   0.25422192  0.51113912  0.24418943
   0.50178167  0.49181954  0.99780028
   0.49563611  0.23747453  0.75375149
   0.00167109  0.49799694  0.50687133
   0.49941801  0.76417919  0.74541982
   0.00193495  0.24021176  0.25611349
   0.74891348  0.74940522  0.00380857
   0.00915800  0.24739134  0.74467001
   0.74981972  0.25112708  0.51178348
   0.00061579  0.75121767  0.75387926
   0.25052497  0.49925618  0.75306691
   0.24915931  0.24424052  0.99822993
   0.50054130  0.24859722  0.24914875
   0.73898507  0.99206310  0.26128293
   0.75422709  0.24868295  0.99194136
   0.25811891  0.75533266  0.00025348
   0.25621683  0.24818940  0.50062927
   0.24883922  0.75136735  0.50006650
   0.25081624  0.25001037  0.24931731
   0.25740318  0.00068597  0.99510208
   0.00156714  0.24737557  0.00341819
   0.75173838  0.24621616  0.25339346
   0.74656976  0.99620582  0.00043430
   0.49743620  0.99939630  0.24920570
   0.99356900  0.48722018  0.24735579
   0.50562090  0.75859322  0.00201316
   0.98717942  0.00266914  0.74527514
   0.75370896  0.24693250  0.74880596
   0.74518093  0.00249658  0.51020565
   0.50584353  0.23874527  0.49919491
   0.50826460  0.00107153  0.74415661
   0.99796399 -0.00172314  0.24884727
   0.50270763  0.24726067 -0.00145248
   0.25731913  0.74904006  0.24886867
   0.24453021  0.50020556  0.99924116
   0.00054561  0.74238812  0.00545469
   0.74771906  0.74449886  0.25244499
   0.75985919  0.50221410  0.00395096
   0.49725694  0.50658852  0.24969888
   0.25250553  0.24636388  0.74963622
   0.25660347  0.99957431  0.51101651
   0.00024769  0.25049999  0.50005155
   0.24920180  0.75665320  0.75091051
   0.25120806  0.49966260  0.49836940
   0.99661213  0.75394077  0.50063831
   0.99669387  0.50100308  0.75381525
   0.74895488  0.75690564  0.74822671
   0.74724441  0.49776150  0.50229807
   0.50438315  0.76125732  0.49119046
   0.50091570  0.49903931  0.74587203
   0.51951373  0.01990810  0.96959481
   0.00053641  0.52287664  0.97295327
   0.50390832  0.72895227  0.25986714
   0.23035376  0.00672909  0.75059937
   0.47513022  0.98299152  0.49978345
   0.72926435  0.97597258  0.77518652
   0.00346962  0.77211342  0.24843187
   0.73299436  0.51086277  0.24765322
   0.02042235  0.00540918  0.49952182
   0.49903435  0.52091817  0.49434612
   0.74375007  0.51896476  0.75889041
   0.75077163  0.73574775  0.49974149
HECN                                    
           1
     8.791552   -0.001696   -0.009279
     0.003996    8.867932    0.003961
     0.022308   -0.011491    8.806994
   Nb   Ta   Hf   N    C    Cr   W 
   7   6   7  13  19   6   6
Direct configuration=     8
   0.00452382  0.98812603  0.99233854
   0.25046540  0.98885767  0.25352388
   0.25519534  0.51173016  0.24515501
   0.50209133  0.49085854  0.99672885
   0.49363834  0.23801227  0.75327279
   0.00123855  0.49788796  0.50937622
   0.50243761  0.76230423  0.74110601
   0.00180098  0.23946845  0.25552616
   0.74816882  0.74948442  0.00273349
   0.01032486  0.24470232  0.74492426
   0.75065851  0.25117945  0.51252722
   0.00033322  0.75231266  0.75343325
   0.25068044  0.50030836  0.75268636
   0.24792936  0.24392714  0.99904394
   0.49983294  0.24857894  0.24975911
   0.73865853  0.99113205  0.26064410
   0.75442818  0.24810679  0.99212174
   0.26023216  0.75624616  0.00006634
   0.25568518  0.24886047  0.50086955
   0.24888216  0.75166602  0.50013412
   0.25035822  0.25024129  0.24975747
   0.25649324  0.00064795  0.99652781
   0.00117630  0.24661328  0.00365143
   0.75117520  0.24581167  0.25323491
   0.74638217  0.99602250 -0.00079685
   0.49724801  0.00038880  0.25003864
   0.99405791  0.48926097  0.25040546
   0.50622720  0.75789263 -0.00038514
   0.98788456  0.00227367  0.74464920
   0.75355121  0.24823715  0.74851959
   0.74990668  0.00362206  0.50770503
   0.50662772  0.24290771  0.49915352
   0.51029484  0.00073642  0.74554024
   0.99619574 -0.00013070  0.24957234
   0.50196645  0.24639575 -0.00110245
   0.25892054  0.74984567  0.24934995
   0.24335425  0.50088706  0.99914015
   0.00143089  0.74281302  0.00550718
   0.74708049  0.74352726  0.25293878
   0.76138539  0.50203470  0.00499765
   0.49751022  0.50413422  0.24907054
   0.25256589  0.24587521  0.75048822
   0.25601389  0.99971071  0.51309614
   0.00050771  0.25017302  0.50014398
   0.24989642  0.75786803  0.75096292
   0.25151418  0.50006791  0.49937056
   0.99541997  0.75436593  0.49900286
   0.99713179  0.50064994  0.75383987
   0.75061876  0.75633403  0.74709172
   0.74688621  0.49744434  0.50186290
   0.50473541  0.76096009  0.48827576
   0.50241642  0.49939895  0.74445059
   0.52034998  0.02194945  0.96781143
   0.00025146  0.52641882  0.97016047
   0.50415299  0.72624030  0.26280951
   0.22477609  0.00390465  0.75141202
   0.47411736  0.98439297  0.50094245
   0.72488733  0.97547377  0.77761958
   0.00197994  0.76990673  0.24831268
   0.73055897  0.51270728  0.24490067
   0.01966364  0.00617237  0.49820368
   0.50000614  0.51977575  0.49364798
   0.74462179  0.51960669  0.76136929
   0.75049508  0.73268963  0.50077843
HECN                                    
           1
     8.805436   -0.001303   -0.009119
     0.004401    8.878490    0.004565
     0.022514   -0.010908    8.817018
   Nb   Ta   Hf   N    C    Cr   W 
   7   6   7  13  19   6   6
Direct configuration=     9
   0.00392407  0.98830810  0.99248775
   0.25073189  0.98896512  0.25278370
   0.25494424  0.51157785  0.24490634
   0.50201153  0.49110608  0.99700477
   0.49415357  0.23787391  0.75339604
   0.00135006  0.49791588  0.50873130
   0.50165900  0.76278723  0.74221675
   0.00183557  0.23965991  0.25567743
   0.74836089  0.74946413  0.00301030
   0.01002403  0.24539473  0.74485896
   0.75044216  0.25116588  0.51233571
   0.00040606  0.75203072  0.75354802
   0.25064030  0.50003742  0.75278427
   0.24824658  0.24400784  0.99883440
   0.50001562  0.24858364  0.24960198
   0.73874280  0.99137188  0.26080865
   0.75437634  0.24825514  0.99207534
   0.25968709  0.75601083  0.00011441
   0.25582227  0.24868766  0.50080765
   0.24887107  0.75158910  0.50011669
   0.25047633  0.25018181  0.24964414
   0.25672789  0.00065768  0.99616075
   0.00127713  0.24680959  0.00359144
   0.75132047  0.24591587  0.25327577
   0.74643058  0.99606980 -0.00047985
   0.49729649  0.00013316  0.24982412
   0.99393166  0.48873520  0.24962012
   0.50607091  0.75807318  0.00023239
   0.98770273  0.00237552  0.74481037
   0.75359184  0.24790120  0.74859323
   0.74868786  0.00333218  0.50834869
   0.50642528  0.24183575  0.49916387
   0.50977121  0.00082254  0.74518398
   0.99665170 -0.00054076  0.24938558
   0.50215764  0.24661849 -0.00119250
   0.25850747  0.74963811  0.24922595
   0.24365751  0.50071162  0.99916613
   0.00120254  0.74270356  0.00549362
   0.74724522  0.74377746  0.25281172
   0.76099175  0.50208076  0.00472814
   0.49744502  0.50476629  0.24923248
   0.25255033  0.24600099  0.75026889
   0.25616590  0.99967547  0.51256070
   0.00044066  0.25025721  0.50012020
   0.24971721  0.75755515  0.75094933
   0.25143519  0.49996345  0.49911276
   0.99572746  0.75425660  0.49942393
   0.99701886  0.50074086  0.75383355
   0.75018968  0.75648123  0.74738395
   0.74697862  0.49752606  0.50197498
   0.50464463  0.76103682  0.48902622
   0.50202938  0.49930636  0.74481651
   0.52013425  0.02142384  0.96827044
   0.00032485  0.52550683  0.97087930
   0.50408995  0.72693848  0.26205212
   0.22621474  0.00463220  0.75120309
   0.47437850  0.98403203  0.50064397
   0.72601618  0.97560225  0.77699326
   0.00236425  0.77047507  0.24834355
   0.73118706  0.51223257  0.24560929
   0.01985931  0.00597596  0.49854303
   0.49975557  0.52006995  0.49382779
   0.74439689  0.51944118  0.76073099
   0.75056653  0.73347711  0.50051166
HECN                                    
           1
     8.818787   -0.001151   -0.007886
     0.004561    8.889115    0.002275
     0.023809   -0.013209    8.842881
   Nb   Ta   Hf   N    C    Cr   W 
   7   6   7  13  19   6   6
Direct configuration=    10
   0.00562393  0.98796599  0.99295974
   0.25028601  0.98917678  0.25540355
   0.25519623  0.51119968  0.24654745
   0.50201332  0.49047691  0.99550174
   0.49302867  0.23991719  0.75249548
  -0.00038584  0.49828646  0.51016936
   0.50462901  0.75991076  0.73788850
   0.00079980  0.23874093  0.25558288
   0.74811726  0.74943997  0.00253583
   0.00999597  0.24333921  0.74502778
   0.75123496  0.25224114  0.51244773
   0.00037212  0.75324326  0.75185618
   0.25160739  0.50172893  0.75193241
   0.24727112  0.24444564  0.99976310
   0.49998824  0.24779253  0.25075980
   0.73788548  0.99022573  0.26101946
   0.75453122  0.24830591  0.99236084
   0.26179814  0.75656482 -0.00019817
   0.25576206  0.24952421  0.50084725
   0.24931337  0.75173403  0.50009225
   0.24968868  0.25067063  0.25019975
   0.25628271  0.00064919  0.99777632
   0.00087121  0.24602732  0.00357667
   0.75104239  0.24557911  0.25317391
   0.74666066  0.99569224 -0.00029592
   0.49737080  0.00130144  0.25083065
   0.99457166  0.49033385  0.25255042
   0.50692117  0.75717328 -0.00195932
   0.98832401  0.00158998  0.74335179
   0.75355906  0.24870568  0.74858566
   0.75322386  0.00520944  0.50556762
   0.50695743  0.24584013  0.49932633
   0.51070758  0.00018237  0.74482203
   0.99529449  0.00173606  0.24978564
   0.50151911  0.24592114 -0.00108840
   0.25964696  0.75053288  0.24997005
   0.24242785  0.50130528  0.99890439
   0.00205945  0.74366804  0.00503467
   0.74699495  0.74334054  0.25224480
   0.76271160  0.50180827  0.00567955
   0.49628048  0.50191494  0.24844841
   0.25245960  0.24559906  0.75104361
   0.25632221  0.99954039  0.51441970
   0.00044129  0.24947864  0.50041533
   0.25009253  0.75850004  0.75067747
   0.25240763  0.50058076  0.50004128
   0.99427687  0.75501615  0.49827396
   0.99691016  0.50007056  0.75346969
   0.75169175  0.75791778  0.74647692
   0.74744721  0.49557208  0.50183199
   0.50433685  0.76180494  0.48628645
   0.50348304  0.49963252  0.74331651
   0.52006420  0.02315381  0.96813688
  -0.00029767  0.52781576  0.97005254
   0.50448240  0.72576790  0.26564376
   0.22075630  0.00177768  0.75207375
   0.47339755  0.98587738  0.50218508
   0.72368809  0.97430587  0.77768184
   0.00111512  0.76780360  0.24926409
   0.73142783  0.51264057  0.24398226
   0.01709211  0.00613613  0.49737027
   0.49966335  0.51732896  0.49377839
   0.74567771  0.51857236  0.76099891
   0.75087969  0.73166492  0.50110129
HECN                                    
           1
     8.821999   -0.001114   -0.007590
     0.004599    8.891672    0.001723
     0.024120   -0.013763    8.849105
   Nb   Ta   Hf   N    C    Cr   W 
   7   6   7  13  19   6   6
Direct configuration=    11
   0.00603236  0.98788378  0.99307292
   0.25017878  0.98922781  0.25603221
   0.25525673  0.51110888  0.24694120
   0.50201381  0.49032559  0.99514106
   0.49275839  0.24040827  0.75227956
  -0.00080301  0.49837563  0.51051450
   0.50534283  0.75921908  0.73684967
   0.00055093  0.23852004  0.25556017
   0.74805874  0.74943413  0.00242199
   0.00998923  0.24284514  0.74506815
   0.75142545  0.25249959  0.51247464
   0.00036402  0.75353461  0.75145030
   0.25183979  0.50213545  0.75172809
   0.24703669  0.24455093  0.99998600
   0.49998162  0.24760244  0.25103757
   0.73767947  0.98995026  0.26106999
   0.75456843  0.24831813  0.99242934
   0.26230541  0.75669795 -0.00027321
   0.25574759  0.24972529  0.50085680
   0.24941965  0.75176887  0.50008638
   0.24949939  0.25078816  0.25033312
   0.25617568  0.00064725  0.99816399
   0.00077368  0.24583929  0.00357309
   0.75097558  0.24549816  0.25314946
   0.74671594  0.99560150 -0.00025181
   0.49738861  0.00158231  0.25107224
   0.99472534  0.49071828  0.25325362
   0.50712555  0.75695684 -0.00248530
   0.98847335  0.00140108  0.74300173
   0.75355119  0.24889905  0.74858390
   0.75431388  0.00566047  0.50490027
   0.50708527  0.24680265  0.49936554
   0.51093259  0.00002847  0.74473511
   0.99496835  0.00228335  0.24988183
   0.50136567  0.24575353 -0.00106344
   0.25992073  0.75074799  0.25014861
   0.24213238  0.50144796  0.99884166
   0.00226537  0.74389984  0.00492458
   0.74693483  0.74323549  0.25210875
   0.76312482  0.50174283  0.00590776
   0.49600069  0.50122954  0.24826014
   0.25243777  0.24550250  0.75122948
   0.25635971  0.99950804  0.51486575
   0.00044143  0.24929152  0.50048609
   0.25018271  0.75872714  0.75061228
   0.25264126  0.50072919  0.50026408
   0.99392834  0.75519866  0.49799813
   0.99688405  0.49990942  0.75338234
   0.75205270  0.75826301  0.74625931
   0.74755982  0.49510240  0.50179754
   0.50426298  0.76198940  0.48562911
   0.50383239  0.49971082  0.74295656
   0.52004736  0.02356962  0.96810495
  -0.00044723  0.52837070  0.96985433
   0.50457658  0.72548676  0.26650548
   0.21944469  0.00109163  0.75228267
   0.47316178  0.98632103  0.50255501
   0.72312866  0.97399432  0.77784706
   0.00081495  0.76716153  0.24948485
   0.73148573  0.51273854  0.24359187
   0.01642722  0.00617456  0.49708898
   0.49964121  0.51667012  0.49376637
   0.74598546  0.51836353  0.76106310
   0.75095493  0.73122937  0.50124265
HECN                                    
           1
     8.837168   -0.000400   -0.007547
     0.005328    8.893920    0.002858
     0.024203   -0.012635    8.849368
   Nb   Ta   Hf   N    C    Cr   W 
   7   6   7  13  19   6   6
Direct configuration=    12
   0.00554700  0.98755705  0.99387361
   0.24976732  0.98940977  0.25683092
   0.25450672  0.51115178  0.24720929