  64  64   0   0
  0.1094976E+02  0.8867057E-09  0.8902218E-09  0.8878358E-09  0.5000000E-15
  1.000000000000000E-004
  CAR 
 HECN                                    
     13.54590412    -33.41802816  301      8.30890731      1.00000000
    -33.418  0.0000E+00  0.0000E+00
    -33.261  0.0000E+00  0.0000E+00
    -33.105  0.0000E+00  0.0000E+00
    -32.948  0.0000E+00  0.0000E+00
    -32.792  0.0000E+00  0.0000E+00
    -32.635  0.0000E+00  0.0000E+00
    -32.479  0.0000E+00  0.0000E+00
    -32.322  0.0000E+00  0.0000E+00
    -32.166  0.0000E+00  0.0000E+00
    -32.009  0.0000E+00  0.0000E+00
    -31.853  0.5674E-16  0.8882E-17
    -31.696  0.3729E-09  0.5837E-10
    -31.539  0.2327E-04  0.3642E-05
    -31.383  0.1563E-01  0.2450E-02
    -31.226  0.2277E+00  0.3810E-01
    -31.070  0.4918E+00  0.1151E+00
    -30.913  0.6683E+00  0.2197E+00
    -30.757  0.6253E+00  0.3176E+00
    -30.600  0.2544E+00  0.3574E+00
    -30.444  0.1648E-01  0.3600E+00
    -30.287  0.3743E-04  0.3600E+00
    -30.131  0.9869E-09  0.3600E+00
    -29.974  0.2269E-15  0.3600E+00
    -29.817  0.0000E+00  0.3600E+00
    -29.661  0.0000E+00  0.3600E+00
    -29.504  0.0000E+00  0.3600E+00
    -29.348  0.0000E+00  0.3600E+00
    -29.191  0.0000E+00  0.3600E+00
    -29.035  0.0000E+00  0.3600E+00
    -28.878  0.0000E+00  0.3600E+00
    -28.722  0.0000E+00  0.3600E+00
    -28.565  0.7400E-13  0.3600E+00
    -28.409  0.6237E-07  0.3600E+00
    -28.252  0.4675E-03  0.3601E+00
    -28.095  0.4231E-01  0.3667E+00
    -27.939  0.1968E+00  0.3975E+00
    -27.782  0.6543E+00  0.4999E+00
    -27.626  0.8393E+00  0.6313E+00
    -27.469  0.4542E+00  0.7024E+00
    -27.313  0.1071E+00  0.7192E+00
    -27.156  0.5152E-02  0.7200E+00
    -27.000  0.4706E-05  0.7200E+00
    -26.843  0.4146E-10  0.7200E+00
    -26.687  0.0000E+00  0.7200E+00
    -26.530  0.0000E+00  0.7200E+00
    -26.373  0.1116E-11  0.7200E+00
    -26.217  0.4298E-06  0.7200E+00
    -26.060  0.1682E-02  0.7203E+00
    -25.904  0.1082E+00  0.7372E+00
    -25.747  0.2679E+00  0.7791E+00
    -25.591  0.4748E+00  0.8535E+00
    -25.434  0.1068E+01  0.1021E+01
    -25.278  0.4973E+00  0.1098E+01
    -25.121  0.2521E+00  0.1138E+01
    -24.965  0.1329E-01  0.1140E+01
    -24.808  0.1221E-04  0.1140E+01
    -24.651  0.1204E-09  0.1140E+01
    -24.495  0.0000E+00  0.1140E+01
    -24.338  0.2683E-10  0.1140E+01
    -24.182  0.3616E-05  0.1140E+01
    -24.025  0.5164E-02  0.1141E+01
    -23.869  0.1624E+00  0.1166E+01
    -23.712  0.5468E+00  0.1252E+01
    -23.556  0.8225E+00  0.1381E+01
    -23.399  0.6251E+00  0.1478E+01
    -23.243  0.1350E+00  0.1500E+01
    -23.086  0.8018E-02  0.1501E+01
    -22.929  0.1275E+00  0.1521E+01
    -22.773  0.3318E+00  0.1573E+01
    -22.616  0.4550E+00  0.1644E+01
    -22.460  0.2231E+00  0.1679E+01
    -22.303  0.1616E+00  0.1704E+01
    -22.147  0.6877E+00  0.1812E+01
    -21.990  0.3009E+00  0.1859E+01
    -21.834  0.9041E-01  0.1873E+01
    -21.677  0.2604E+00  0.1914E+01
    -21.520  0.3892E-01  0.1920E+01
    -21.364  0.1334E-03  0.1920E+01
    -21.207  0.5286E-08  0.1920E+01
    -21.051  0.1893E-14  0.1920E+01
    -20.894  0.0000E+00  0.1920E+01
    -20.738  0.0000E+00  0.1920E+01
    -20.581  0.0000E+00  0.1920E+01
    -20.425  0.0000E+00  0.1920E+01
    -20.268  0.0000E+00  0.1920E+01
    -20.112  0.0000E+00  0.1920E+01
    -19.955  0.0000E+00  0.1920E+01
    -19.798  0.0000E+00  0.1920E+01
    -19.642  0.0000E+00  0.1920E+01
    -19.485  0.0000E+00  0.1920E+01
    -19.329  0.0000E+00  0.1920E+01
    -19.172  0.0000E+00  0.1920E+01
    -19.016  0.0000E+00  0.1920E+01
    -18.859  0.0000E+00  0.1920E+01
    -18.703  0.0000E+00  0.1920E+01
    -18.546  0.0000E+00  0.1920E+01
    -18.390  0.0000E+00  0.1920E+01
    -18.233  0.0000E+00  0.1920E+01
    -18.076  0.0000E+00  0.1920E+01
    -17.920  0.0000E+00  0.1920E+01
    -17.763  0.0000E+00  0.1920E+01
    -17.607  0.0000E+00  0.1920E+01
    -17.450  0.0000E+00  0.1920E+01
    -17.294  0.0000E+00  0.1920E+01
    -17.137  0.0000E+00  0.1920E+01
    -16.981  0.0000E+00  0.1920E+01
    -16.824  0.0000E+00  0.1920E+01
    -16.668  0.0000E+00  0.1920E+01
    -16.511  0.0000E+00  0.1920E+01
    -16.354  0.0000E+00  0.1920E+01
    -16.198  0.0000E+00  0.1920E+01
    -16.041  0.0000E+00  0.1920E+01
    -15.885  0.0000E+00  0.1920E+01
    -15.728  0.0000E+00  0.1920E+01
    -15.572  0.0000E+00  0.1920E+01
    -15.415  0.0000E+00  0.1920E+01
    -15.259  0.0000E+00  0.1920E+01
    -15.102  0.0000E+00  0.1920E+01
    -14.946  0.0000E+00  0.1920E+01
    -14.789  0.0000E+00  0.1920E+01
    -14.632  0.0000E+00  0.1920E+01
    -14.476  0.0000E+00  0.1920E+01
    -14.319  0.0000E+00  0.1920E+01
    -14.163  0.0000E+00  0.1920E+01
    -14.006  0.0000E+00  0.1920E+01
    -13.850  0.0000E+00  0.1920E+01
    -13.693  0.0000E+00  0.1920E+01
    -13.537  0.0000E+00  0.1920E+01
    -13.380  0.0000E+00  0.1920E+01
    -13.224  0.0000E+00  0.1920E+01
    -13.067  0.0000E+00  0.1920E+01
    -12.910  0.0000E+00  0.1920E+01
    -12.754  0.0000E+00  0.1920E+01
    -12.597  0.0000E+00  0.1920E+01
    -12.441  0.0000E+00  0.1920E+01
    -12.284  0.0000E+00  0.1920E+01
    -12.128  0.0000E+00  0.1920E+01
    -11.971  0.0000E+00  0.1920E+01
    -11.815  0.0000E+00  0.1920E+01
    -11.658  0.0000E+00  0.1920E+01
    -11.502  0.0000E+00  0.1920E+01
    -11.345  0.0000E+00  0.1920E+01
    -11.188  0.0000E+00  0.1920E+01
    -11.032  0.0000E+00  0.1920E+01
    -10.875  0.0000E+00  0.1920E+01
    -10.719  0.0000E+00  0.1920E+01
    -10.562  0.0000E+00  0.1920E+01
    -10.406  0.0000E+00  0.1920E+01
    -10.249  0.0000E+00  0.1920E+01
    -10.093  0.0000E+00  0.1920E+01
     -9.936  0.0000E+00  0.1920E+01
     -9.780  0.0000E+00  0.1920E+01
     -9.623  0.0000E+00  0.1920E+01
     -9.466  0.0000E+00  0.1920E+01
     -9.310  0.0000E+00  0.1920E+01
     -9.153  0.0000E+00  0.1920E+01
     -8.997  0.0000E+00  0.1920E+01
     -8.840  0.3197E-12  0.1920E+01
     -8.684  0.7462E-07  0.1920E+01
     -8.527  0.1888E-03  0.1920E+01
     -8.371  0.1009E-01  0.1922E+01
     -8.214  0.5231E-01  0.1930E+01
     -8.058  0.5792E-01  0.1939E+01
     -7.901  0.2156E-01  0.1942E+01
     -7.744  0.1022E+00  0.1958E+01
     -7.588  0.1270E+00  0.1978E+01
     -7.431  0.1145E+00  0.1996E+01
     -7.275  0.8244E-01  0.2009E+01
     -7.118  0.1173E+00  0.2027E+01
     -6.962  0.1845E+00  0.2056E+01
     -6.805  0.1546E+00  0.2080E+01
     -6.649  0.1631E+00  0.2106E+01
     -6.492  0.2635E+00  0.2147E+01
     -6.335  0.1810E+00  0.2176E+01
     -6.179  0.2842E-01  0.2180E+01
     -6.022  0.2462E-03  0.2180E+01
     -5.866  0.3555E-07  0.2180E+01
     -5.709  0.5212E-13  0.2180E+01
     -5.553  0.0000E+00  0.2180E+01
     -5.396  0.0000E+00  0.2180E+01
     -5.240  0.0000E+00  0.2180E+01
     -5.083  0.1576E-17  0.2180E+01
     -4.927  0.1299E-10  0.2180E+01
     -4.770  0.9361E-06  0.2180E+01
     -4.613  0.7721E-03  0.2180E+01
     -4.457  0.2065E-01  0.2183E+01
     -4.300  0.6890E-01  0.2194E+01
     -4.144  0.4379E-01  0.2201E+01
     -3.987  0.7195E-01  0.2212E+01
     -3.831  0.8205E-01  0.2225E+01
     -3.674  0.1334E+00  0.2246E+01
     -3.518  0.2156E+00  0.2280E+01
     -3.361  0.2243E+00  0.2315E+01
     -3.205  0.2337E+00  0.2351E+01
     -3.048  0.2486E+00  0.2390E+01
     -2.891  0.2432E+00  0.2428E+01
     -2.735  0.1965E+00  0.2459E+01
     -2.578  0.1795E+00  0.2487E+01
     -2.422  0.1773E+00  0.2515E+01
     -2.265  0.1446E+00  0.2538E+01
     -2.109  0.1090E+00  0.2555E+01
     -1.952  0.3005E-01  0.2559E+01
     -1.796  0.3384E-02  0.2560E+01
     -1.639  0.6762E-04  0.2560E+01
     -1.483  0.2345E-07  0.2560E+01
     -1.326  0.7732E-13  0.2560E+01
     -1.169  0.0000E+00  0.2560E+01
     -1.013  0.0000E+00  0.2560E+01
     -0.856  0.0000E+00  0.2560E+01
     -0.700  0.0000E+00  0.2560E+01
     -0.543  0.4794E-15  0.2560E+01
     -0.387  0.7955E-09  0.2560E+01
     -0.230  0.1179E-04  0.2560E+01
     -0.074  0.1948E-02  0.2560E+01
      0.083  0.8301E-02  0.2562E+01
      0.239  0.3115E-01  0.2566E+01
      0.396  0.6539E-01  0.2577E+01
      0.553  0.8792E-01  0.2590E+01
      0.709  0.9660E-01  0.2606E+01
      0.866  0.1170E+00  0.2624E+01
      1.022  0.1440E+00  0.2646E+01
      1.179  0.1720E+00  0.2673E+01
      1.335  0.1942E+00  0.2704E+01
      1.492  0.2436E+00  0.2742E+01
      1.648  0.2901E+00  0.2787E+01
      1.805  0.2618E+00  0.2828E+01
      1.961  0.2771E+00  0.2872E+01
      2.118  0.3006E+00  0.2919E+01
      2.275  0.3403E+00  0.2972E+01
      2.431  0.3240E+00  0.3023E+01
      2.588  0.3496E+00  0.3077E+01
      2.744  0.3922E+00  0.3139E+01
      2.901  0.4279E+00  0.3206E+01
      3.057  0.4808E+00  0.3281E+01
      3.214  0.5288E+00  0.3364E+01
      3.370  0.5912E+00  0.3456E+01
      3.527  0.6280E+00  0.3555E+01
      3.683  0.6231E+00  0.3652E+01
      3.840  0.6293E+00  0.3751E+01
      3.997  0.6260E+00  0.3849E+01
      4.153  0.6259E+00  0.3947E+01
      4.310  0.5709E+00  0.4036E+01
      4.466  0.4742E+00  0.4110E+01
      4.623  0.3995E+00  0.4173E+01
      4.779  0.3186E+00  0.4223E+01
      4.936  0.2794E+00  0.4267E+01
      5.092  0.2832E+00  0.4311E+01
      5.249  0.2875E+00  0.4356E+01
      5.405  0.2157E+00  0.4390E+01
      5.562  0.1584E+00  0.4415E+01
      5.719  0.1840E+00  0.4443E+01
      5.875  0.1442E+00  0.4466E+01
      6.032  0.7525E-01  0.4478E+01
      6.188  0.1088E+00  0.4495E+01
      6.345  0.1579E+00  0.4519E+01
      6.501  0.1858E+00  0.4549E+01
      6.658  0.1534E+00  0.4573E+01
      6.814  0.1757E+00  0.4600E+01
      6.971  0.2110E+00  0.4633E+01
      7.128  0.1826E+00  0.4662E+01
      7.284  0.1602E+00  0.4687E+01
      7.441  0.1728E+00  0.4714E+01
      7.597  0.1834E+00  0.4742E+01
      7.754  0.2282E+00  0.4778E+01
      7.910  0.2562E+00  0.4818E+01
      8.067  0.2486E+00  0.4857E+01
      8.223  0.2392E+00  0.4895E+01
      8.380  0.1740E+00  0.4922E+01
      8.536  0.2173E+00  0.4956E+01
      8.693  0.2586E+00  0.4996E+01
      8.850  0.2791E+00  0.5040E+01
      9.006  0.3043E+00  0.5088E+01
      9.163  0.3745E+00  0.5146E+01
      9.319  0.4266E+00  0.5213E+01
      9.476  0.4488E+00  0.5283E+01
      9.632  0.4432E+00  0.5353E+01
      9.789  0.4957E+00  0.5430E+01
      9.945  0.5200E+00  0.5512E+01
     10.102  0.5562E+00  0.5599E+01
     10.258  0.5853E+00  0.5690E+01
     10.415  0.5372E+00  0.5775E+01
     10.572  0.5288E+00  0.5857E+01
     10.728  0.5019E+00  0.5936E+01
     10.885  0.4960E+00  0.6014E+01
     11.041  0.4521E+00  0.6084E+01
     11.198  0.2988E+00  0.6131E+01
     11.354  0.1319E+00  0.6152E+01
     11.511  0.5022E-01  0.6160E+01
     11.667  0.2229E-02  0.6160E+01
     11.824  0.2335E-05  0.6160E+01
     11.980  0.3201E-10  0.6160E+01
     12.137  0.4203E-17  0.6160E+01
     12.294  0.0000E+00  0.6160E+01
     12.450  0.0000E+00  0.6160E+01
     12.607  0.0000E+00  0.6160E+01
     12.763  0.0000E+00  0.6160E+01
     12.920  0.0000E+00  0.6160E+01
     13.076  0.0000E+00  0.6160E+01
     13.233  0.0000E+00  0.6160E+01
     13.389  0.0000E+00  0.6160E+01
     13.546  0.0000E+00  0.6160E+01
