<?xml version="1.0" encoding="ISO-8859-1"?>
<modeling>
 <generator>
  <i name="program" type="string">vasp </i>
  <i name="version" type="string">6.4.3  </i>
  <i name="subversion" type="string">19Mar24 (build Sep 18 2024 11:30:23) complex                          parallel </i>
  <i name="platform" type="string">LinuxIFC </i>
  <i name="date" type="string">2026 07 08 </i>
  <i name="time" type="string">10:33:50 </i>
 </generator>
 <incar>
  <i type="string" name="SYSTEM">HECN</i>
  <i type="int" name="ISTART">     0</i>
  <i type="string" name="PREC">Normal</i>
  <i type="string" name="ALGO">Fast</i>
  <i type="int" name="ICHARG">     2</i>
  <i type="int" name="NELM">    60</i>
  <i type="int" name="IBRION">     2</i>
  <i name="EDIFF">      0.00001000</i>
  <i name="EDIFFG">     -0.01000000</i>
  <i type="int" name="NSW">   100</i>
  <i type="int" name="ISIF">     3</i>
  <i name="ENCUT">    400.00000000</i>
  <i name="POTIM">      0.50000000</i>
  <i type="logical" name="LREAL"> F  </i>
  <i type="int" name="ISMEAR">     0</i>
  <i name="SIGMA">      0.10000000</i>
  <i type="logical" name="LWAVE"> F  </i>
  <i type="logical" name="LCHARG"> F  </i>
 </incar>
 <primitive_cell>
  <structure name="primitive_cell" >
   <crystal>
    <varray name="basis" >
     <v>       8.86692863       0.01743403       0.04438459 </v>
     <v>       0.01751103       8.90219608      -0.00921509 </v>
     <v>       0.04430111      -0.00917880       8.87824287 </v>
    </varray>
    <i name="volume">    700.78434130 </i>
    <varray name="rec_basis" >
     <v>       0.11278188      -0.00022243      -0.00056299 </v>
     <v>      -0.00022145       0.11233239       0.00011724 </v>
     <v>      -0.00056406       0.00011771       0.11263784 </v>
    </varray>
   </crystal>
   <varray name="positions" >
    <v>       0.00152165       0.98777168       0.00383892 </v>
    <v>       0.24642120       0.99481321       0.25631984 </v>
    <v>       0.25102833       0.50739347       0.24722062 </v>
    <v>       0.49759042       0.48743541       0.99680044 </v>
    <v>       0.48938850       0.24609282       0.75234136 </v>
    <v>       0.00073711       0.49895630       0.50255978 </v>
    <v>       0.50180704       0.74843719       0.74079457 </v>
    <v>       0.99064089       0.23515148       0.26983347 </v>
    <v>       0.76904889       0.74480417       0.99191731 </v>
    <v>       0.02444176       0.26069992       0.74492673 </v>
    <v>       0.76229626       0.26670452       0.48571431 </v>
    <v>       0.99536143       0.73384084       0.76052995 </v>
    <v>       0.25700610       0.50630205       0.75364779 </v>
    <v>       0.24361785       0.24834066       0.99947299 </v>
    <v>       0.49805028       0.25224979       0.24745366 </v>
    <v>       0.74866261       0.99754052       0.25384822 </v>
    <v>       0.75660039       0.25296487       0.98816294 </v>
    <v>       0.26281532       0.75465743       0.00053503 </v>
    <v>       0.24976170       0.25318758       0.50250024 </v>
    <v>       0.24476139       0.74829281       0.50343454 </v>
    <v>       0.24860518       0.24585469       0.25208441 </v>
    <v>       0.25565905       0.00212050       0.00032400 </v>
    <v>       0.99997436       0.25410373       0.00876306 </v>
    <v>       0.74761265       0.24614766       0.24296598 </v>
    <v>       0.75771305       0.99982160       0.00567796 </v>
    <v>       0.49584293       0.99758923       0.24234661 </v>
    <v>       0.00420549       0.49355006       0.24567665 </v>
    <v>       0.50734558       0.75873116       0.99986695 </v>
    <v>       0.98994701       0.01553736       0.75820953 </v>
    <v>       0.74699307       0.24262849       0.74298545 </v>
    <v>       0.73861509       0.00304530       0.50506985 </v>
    <v>       0.50192247       0.24154408       0.49984522 </v>
    <v>       0.50552482       0.00121121       0.73563066 </v>
    <v>       0.00205304       0.99955397       0.24704328 </v>
    <v>       0.50119658       0.25328609       0.99488330 </v>
    <v>       0.25442281       0.75113842       0.25097416 </v>
    <v>       0.24944677       0.50220459       0.00462107 </v>
    <v>       0.00896999       0.75459195       0.00180266 </v>
    <v>       0.74549048       0.74734436       0.24394815 </v>
    <v>       0.75163444       0.50515760       0.99771711 </v>
    <v>       0.49673125       0.50319077       0.24542437 </v>
    <v>       0.25971930       0.24823717       0.75074397 </v>
    <v>       0.24690071       0.00017536       0.49913940 </v>
    <v>       0.99514394       0.25721198       0.51054213 </v>
    <v>       0.25098588       0.75474169       0.75224383 </v>
    <v>       0.24596219       0.50016647       0.49527703 </v>
    <v>       0.99488305       0.74781396       0.50591603 </v>
    <v>       0.00087851       0.49961525       0.75027850 </v>
    <v>       0.74376259       0.74986324       0.74916588 </v>
    <v>       0.75495591       0.49937648       0.49820877 </v>
    <v>       0.49651464       0.74976887       0.50467288 </v>
    <v>       0.49773277       0.50034303       0.75219556 </v>
    <v>       0.51207968       0.01522456       0.98211090 </v>
    <v>       0.00283400       0.51699802       0.99467982 </v>
    <v>       0.50138052       0.74160906       0.26429476 </v>
    <v>       0.23339492       0.99526273       0.74604918 </v>
    <v>       0.48088148       0.98724396       0.50148706 </v>
    <v>       0.74001190       0.98113112       0.77040101 </v>
    <v>       0.99999672       0.75680174       0.25017972 </v>
    <v>       0.74781680       0.49984020       0.24955985 </v>
    <v>       0.00510389       0.00439170       0.50108559 </v>
    <v>       0.49776349       0.50652955       0.49965044 </v>
    <v>       0.73925275       0.50580059       0.74791290 </v>
    <v>       0.75057978       0.73786438       0.49649231 </v>
   </varray>
  </structure>
  <varray name="primitive_index" >
   <v type="int" >        1 </v>
   <v type="int" >        2 </v>
   <v type="int" >        3 </v>
   <v type="int" >        4 </v>
   <v type="int" >        5 </v>
   <v type="int" >        6 </v>
   <v type="int" >        7 </v>
   <v type="int" >        8 </v>
   <v type="int" >        9 </v>
   <v type="int" >       10 </v>
   <v type="int" >       11 </v>
   <v type="int" >       12 </v>
   <v type="int" >       13 </v>
   <v type="int" >       14 </v>
   <v type="int" >       15 </v>
   <v type="int" >       16 </v>
   <v type="int" >       17 </v>
   <v type="int" >       18 </v>
   <v type="int" >       19 </v>
   <v type="int" >       20 </v>
   <v type="int" >       21 </v>
   <v type="int" >       22 </v>
   <v type="int" >       23 </v>
   <v type="int" >       24 </v>
   <v type="int" >       25 </v>
   <v type="int" >       26 </v>
   <v type="int" >       27 </v>
   <v type="int" >       28 </v>
   <v type="int" >       29 </v>
   <v type="int" >       30 </v>
   <v type="int" >       31 </v>
   <v type="int" >       32 </v>
   <v type="int" >       33 </v>
   <v type="int" >       34 </v>
   <v type="int" >       35 </v>
   <v type="int" >       36 </v>
   <v type="int" >       37 </v>
   <v type="int" >       38 </v>
   <v type="int" >       39 </v>
   <v type="int" >       40 </v>
   <v type="int" >       41 </v>
   <v type="int" >       42 </v>
   <v type="int" >       43 </v>
   <v type="int" >       44 </v>
   <v type="int" >       45 </v>
   <v type="int" >       46 </v>
   <v type="int" >       47 </v>
   <v type="int" >       48 </v>
   <v type="int" >       49 </v>
   <v type="int" >       50 </v>
   <v type="int" >       51 </v>
   <v type="int" >       52 </v>
   <v type="int" >       53 </v>
   <v type="int" >       54 </v>
   <v type="int" >       55 </v>
   <v type="int" >       56 </v>
   <v type="int" >       57 </v>
   <v type="int" >       58 </v>
   <v type="int" >       59 </v>
   <v type="int" >       60 </v>
   <v type="int" >       61 </v>
   <v type="int" >       62 </v>
   <v type="int" >       63 </v>
   <v type="int" >       64 </v>
  </varray>
 </primitive_cell>
 <kpoints>
  <generation param="Gamma">
   <v type="int" name="divisions">       3        3        3 </v>
   <v name="usershift">      0.00000000       0.00000000       0.00000000 </v>
   <v name="genvec1">      0.33333333       0.00000000       0.00000000 </v>
   <v name="genvec2">     -0.00000000       0.33333333      -0.00000000 </v>
   <v name="genvec3">      0.00000000       0.00000000       0.33333333 </v>
   <v name="shift">      0.00000000       0.00000000       0.00000000 </v>
  </generation>
  <varray name="kpointlist" >
   <v>       0.00000000       0.00000000       0.00000000 </v>
   <v>       0.33333333       0.00000000      -0.00000000 </v>
   <v>      -0.00000000       0.33333333       0.00000000 </v>
   <v>       0.33333333       0.33333333       0.00000000 </v>
   <v>      -0.33333333       0.33333333      -0.00000000 </v>
   <v>      -0.00000000      -0.00000000       0.33333333 </v>
   <v>       0.33333333       0.00000000       0.33333333 </v>
   <v>      -0.33333333      -0.00000000       0.33333333 </v>
   <v>      -0.00000000       0.33333333       0.33333333 </v>
   <v>       0.33333333       0.33333333       0.33333333 </v>
   <v>      -0.33333333       0.33333333       0.33333333 </v>
   <v>      -0.00000000      -0.33333333       0.33333333 </v>
   <v>       0.33333333      -0.33333333       0.33333333 </v>
   <v>      -0.33333333      -0.33333333       0.33333333 </v>
  </varray>
  <varray name="weights" >
   <v>       0.03703704 </v>
   <v>       0.07407407 </v>
   <v>       0.07407407 </v>
   <v>       0.07407407 </v>
   <v>       0.07407407 </v>
   <v>       0.07407407 </v>
   <v>       0.07407407 </v>
   <v>       0.07407407 </v>
   <v>       0.07407407 </v>
   <v>       0.07407407 </v>
   <v>       0.07407407 </v>
   <v>       0.07407407 </v>
   <v>       0.07407407 </v>
   <v>       0.07407407 </v>
  </varray>
 </kpoints>
 <parameters>
  <separator name="general" >
   <i type="string" name="SYSTEM">HECN</i>
   <i type="logical" name="LCOMPAT"> F  </i>
  </separator>
  <separator name="electronic" >
   <i type="string" name="PREC">normal</i>
   <i name="ENMAX">    400.00000000</i>
   <i name="ENAUG">    644.87300000</i>
   <i name="EDIFF">      0.00001000</i>
   <i type="int" name="IALGO">    68</i>
   <i type="int" name="IWAVPR">    11</i>
   <i type="int" name="NBANDS">   308</i>
   <i type="int" name="NBANDSLOW">    -1</i>
   <i type="int" name="NBANDSHIGH">    -1</i>
   <i name="NELECT">    491.00000000</i>
   <i type="int" name="TURBO">     0</i>
   <i type="int" name="IRESTART">     0</i>
   <i type="int" name="NREBOOT">     0</i>
   <i type="int" name="NMIN">     0</i>
   <i name="EREF">      0.00000000</i>
   <separator name="electronic smearing" >
    <i type="int" name="ISMEAR">     0</i>
    <i name="SIGMA">      0.10000000</i>
    <i name="KSPACING">      0.50000000</i>
    <i type="logical" name="KGAMMA"> T  </i>
    <i type="logical" name="KBLOWUP"> T  </i>
   </separator>
   <separator name="electronic projectors" >
    <i type="logical" name="LREAL"> F  </i>
    <v name="ROPT">      0.00000000      0.00000000      0.00000000      0.00000000      0.00000000      0.00000000      0.00000000</v>
    <i type="int" name="LMAXPAW">  -100</i>
    <i type="int" name="LMAXMIX">     2</i>
    <i type="logical" name="NLSPLINE"> F  </i>
   </separator>
   <separator name="electronic startup" >
    <i type="int" name="ISTART">     0</i>
    <i type="int" name="ICHARG">     2</i>
    <i type="int" name="INIWAV">     1</i>
   </separator>
   <separator name="electronic spin" >
    <i type="int" name="ISPIN">     1</i>
    <i type="logical" name="LNONCOLLINEAR"> F  </i>
    <v name="MAGMOM">      1.00000000      1.00000000      1.00000000      1.00000000      1.00000000      1.00000000      1.00000000      1.00000000      1.00000000      1.00000000      1.00000000      1.00000000      1.00000000      1.00000000      1.00000000      1.00000000      1.00000000      1.00000000      1.00000000      1.00000000
      1.00000000      1.00000000      1.00000000      1.00000000      1.00000000      1.00000000      1.00000000      1.00000000      1.00000000      1.00000000      1.00000000      1.00000000      1.00000000      1.00000000      1.00000000      1.00000000      1.00000000      1.00000000      1.00000000      1.00000000
      1.00000000      1.00000000      1.00000000      1.00000000      1.00000000      1.00000000      1.00000000      1.00000000      1.00000000      1.00000000      1.00000000      1.00000000      1.00000000      1.00000000      1.00000000      1.00000000      1.00000000      1.00000000      1.00000000      1.00000000
      1.00000000      1.00000000      1.00000000      1.00000000</v>
    <i name="NUPDOWN">     -1.00000000</i>
    <i type="logical" name="LSORBIT"> F  </i>
    <v name="SAXIS">      0.00000000      0.00000000      1.00000000</v>
    <i type="logical" name="LSPIRAL"> F  </i>
    <v name="QSPIRAL">      0.00000000      0.00000000      0.00000000</v>
    <i type="logical" name="LZEROZ"> F  </i>
   </separator>
   <separator name="electronic exchange-correlation" >
    <i type="logical" name="LASPH"> F  </i>
   </separator>
   <separator name="electronic convergence" >
    <i type="int" name="NELM">    60</i>
    <i type="int" name="NELMDL">    -5</i>
    <i type="int" name="NELMIN">     2</i>
    <i name="ENINI">    400.00000000</i>
    <separator name="electronic convergence detail" >
     <i type="logical" name="LDIAG"> T  </i>
     <i type="logical" name="LSUBROT"> F  </i>
     <i name="WEIMIN">      0.00100000</i>
     <i name="EBREAK">      0.00000001</i>
     <i name="DEPER">      0.30000000</i>
     <i type="int" name="NRMM">     4</i>
     <i name="TIME">      0.40000000</i>
    </separator>
   </separator>
   <separator name="electronic mixer" >
    <i name="AMIX">      0.40000000</i>
    <i name="BMIX">      1.00000000</i>
    <i name="AMIN">      0.10000000</i>
    <i name="AMIX_MAG">      1.60000000</i>
    <i name="BMIX_MAG">      1.00000000</i>
    <separator name="electronic mixer details" >
     <i type="int" name="IMIX">     4</i>
     <i type="logical" name="MIXFIRST"> F  </i>
     <i type="int" name="MAXMIX">   -45</i>
     <i name="WC">    100.00000000</i>
     <i type="int" name="INIMIX">     1</i>
     <i type="int" name="MIXPRE">     1</i>
     <i type="int" name="MREMOVE">     5</i>
    </separator>
   </separator>
   <separator name="electronic dipolcorrection" >
    <i type="logical" name="LDIPOL"> F  </i>
    <i type="logical" name="LMONO"> F  </i>
    <i type="int" name="IDIPOL">     0</i>
    <i name="EPSILON">      1.00000000</i>
    <v name="DIPOL">   -100.00000000   -100.00000000   -100.00000000</v>
    <i name="EFIELD">      0.00000000</i>
    <i type="logical" name="LVACPOTAV"> F  </i>
   </separator>
  </separator>
  <separator name="grids" >
   <i type="int" name="NGX">    48</i>
   <i type="int" name="NGY">    48</i>
   <i type="int" name="NGZ">    48</i>
   <i type="int" name="NGXF">    96</i>
   <i type="int" name="NGYF">    96</i>
   <i type="int" name="NGZF">    96</i>
   <i type="logical" name="ADDGRID"> F  </i>
  </separator>
  <separator name="ionic" >
   <i type="int" name="NSW">   100</i>
   <i type="int" name="IBRION">     2</i>
   <i type="int" name="MDALGO">     0</i>
   <i type="int" name="ISIF">     3</i>
   <i name="PSTRESS">      0.00000000</i>
   <i name="EDIFFG">     -0.01000000</i>
   <i type="int" name="NFREE">     1</i>
   <i name="POTIM">      0.50000000</i>
   <i name="SMASS">     -3.00000000</i>
   <i name="SCALEE">      1.00000000</i>
  </separator>
  <separator name="ionic md" >
   <i name="TEBEG">      0.00010000</i>
   <i name="TEEND">      0.00010000</i>
   <i type="int" name="NBLOCK">     1</i>
   <i type="int" name="KBLOCK">   100</i>
   <i type="int" name="NPACO">   256</i>
   <i name="APACO">     10.00000000</i>
  </separator>
  <separator name="symmetry" >
   <i type="int" name="ISYM">     2</i>
   <i name="SYMPREC">      0.00001000</i>
  </separator>
  <separator name="dos" >
   <i type="int" name="LORBIT">     0</i>
   <v name="RWIGS">     -1.00000000     -1.00000000     -1.00000000     -1.00000000     -1.00000000     -1.00000000     -1.00000000</v>
   <i type="int" name="NEDOS">   301</i>
   <i name="EMIN">     10.00000000</i>
   <i name="EMAX">    -10.00000000</i>
   <i name="EFERMI">      0.00000000</i>
  </separator>
  <separator name="writing" >
   <i type="int" name="NWRITE">     2</i>
   <i type="logical" name="LWAVE"> F  </i>
   <i type="logical" name="LDOWNSAMPLE"> F  </i>
   <i type="logical" name="LCHARG"> F  </i>
   <i type="logical" name="LPARD"> F  </i>
   <i type="logical" name="LVTOT"> F  </i>
   <i type="logical" name="LVHAR"> F  </i>
   <i type="logical" name="LELF"> F  </i>
   <i type="logical" name="LOPTICS"> F  </i>
   <v name="STM">      0.00000000      0.00000000      0.00000000      0.00000000      0.00000000      0.00000000      0.00000000</v>
  </separator>
  <separator name="performance" >
   <i type="int" name="NPAR">    28</i>
   <i type="int" name="NSIM">     4</i>
   <i type="int" name="NBLK">    -1</i>
   <i type="logical" name="LPLANE"> T  </i>
   <i type="logical" name="LSCALAPACK"> T  </i>
   <i type="logical" name="LSCAAWARE"> F  </i>
   <i type="logical" name="LSCALU"> F  </i>
   <i type="logical" name="LASYNC"> F  </i>
   <i type="logical" name="LORBITALREAL"> F  </i>
  </separator>
  <separator name="miscellaneous" >
   <i type="int" name="IDIOT">     3</i>
   <i type="int" name="PHON_NSTRUCT">    -1</i>
   <i type="logical" name="LMUSIC"> F  </i>
   <v name="POMASS">     47.88000000     95.94000000    178.49000000     14.00100000     12.01100000    183.85000000     92.00000000</v>
   <v name="DARWINR">      0.00000000      0.00000000      0.00000000      0.00000000      0.00000000      0.00000000      0.00000000</v>
   <v name="DARWINV">      1.00000000      1.00000000      1.00000000      1.00000000      1.00000000      1.00000000      1.00000000</v>
   <i type="logical" name="LCORR"> T  </i>
  </separator>
  <i type="logical" name="GGA_COMPAT"> T  </i>
  <i type="logical" name="LBERRY"> F  </i>
  <i type="int" name="ICORELEVEL">     0</i>
  <i type="logical" name="LDAU"> F  </i>
  <i type="int" name="I_CONSTRAINED_M">     0</i>
  <separator name="electronic exchange-correlation" >
   <i type="string" name="GGA    ">PE</i>
   <i type="string" name="XC_C">1</i>
   <i type="int" name="VOSKOWN">     0</i>
   <i type="logical" name="LHFCALC"> F  </i>
   <i type="string" name="PRECFOCK"></i>
   <i type="logical" name="LSYMGRAD"> F  </i>
   <i type="logical" name="LHFONE"> F  </i>
   <i type="logical" name="LRHFCALC"> F  </i>
   <i type="logical" name="LTHOMAS"> F  </i>
   <i type="logical" name="LMODELHF"> F  </i>
   <i type="logical" name="LFOCKACE"> F  </i>
   <i name="ENCUT4O">     -1.00000000</i>
   <i type="int" name="EXXOEP">     0</i>
   <i type="int" name="FOURORBIT">     0</i>
   <i name="AEXX">      0.00000000</i>
   <i name="HFALPHA">      0.00000000</i>
   <i name="MCALPHA">      0.00000000</i>
   <i name="ALDAX">      1.00000000</i>
   <i name="AGGAX">      1.00000000</i>
   <i name="AMGGAX">      1.00000000</i>
   <i name="ALDAC">      1.00000000</i>
   <i name="AGGAC">      1.00000000</i>
   <i name="AMGGAC">      1.00000000</i>
   <i type="int" name="NKREDX">     1</i>
   <i type="int" name="NKREDY">     1</i>
   <i type="int" name="NKREDZ">     1</i>
   <i type="logical" name="SHIFTRED"> F  </i>
   <i type="logical" name="ODDONLY"> F  </i>
   <i type="logical" name="EVENONLY"> F  </i>
   <i type="int" name="LMAXFOCK">     0</i>
   <i type="int" name="NMAXFOCKAE">     0</i>
   <i type="logical" name="LFOCKAEDFT"> F  </i>
   <i name="HFSCREEN">      0.00000000</i>
   <i name="HFSCREENC">      0.00000000</i>
   <i type="int" name="NBANDSGWLOW">     0</i>
  </separator>
  <separator name="vdW DFT" >
   <i type="logical" name="LUSE_VDW"> F  </i>
   <i type="int" name="IVDW_NL">    -1</i>
   <i type="logical" name="LSPIN_VDW"> F  </i>
   <i name="ZAB_VDW">     -0.84910000</i>
   <i name="GAMMA_VDW">      1.39626340</i>
   <i name="ALPHA_VDW">      0.00000000</i>
   <i name="PARAM1">      0.12340000</i>
   <i name="PARAM2">      1.00000000</i>
   <i name="BPARAM">      6.30000000</i>
   <i name="CPARAM">      0.00930000</i>
  </separator>
  <separator name="model GW" >
   <i type="int" name="MODEL_GW">     0</i>
   <i name="MODEL_EPS0">      6.56985320</i>
   <i name="MODEL_ALPHA">      1.00000000</i>
  </separator>
  <separator name="linear response parameters" >
   <i type="logical" name="LEPSILON"> F  </i>
   <i type="logical" name="LRPA"> F  </i>
   <i type="logical" name="LNABLA"> F  </i>
   <i type="logical" name="LVEL"> F  </i>
   <i name="CSHIFT">      0.10000000</i>
   <i name="OMEGAMAX">     -1.00000000</i>
   <i name="DEG_THRESHOLD">      0.00200000</i>
   <i name="RTIME">     -0.10000000</i>
   <i name="WPLASMAI">      0.00000000</i>
   <v name="DFIELD">      0.00000000      0.00000000      0.00000000</v>
   <v name="WPLASMA">      0.00000000      0.00000000      0.00000000      0.00000000      0.00000000      0.00000000      0.00000000      0.00000000      0.00000000</v>
  </separator>
  <separator name="orbital magnetization" >
   <i type="logical" name="NUCIND"> F  </i>
   <v name="MAGPOS">      0.00000000      0.00000000      0.00000000</v>
   <i type="logical" name="LNICSALL"> T  </i>
   <i type="logical" name="ORBITALMAG"> F  </i>
   <i type="logical" name="LMAGBLOCH"> F  </i>
   <i type="logical" name="LCHIMAG"> F  </i>
   <i type="logical" name="LGAUGE"> T  </i>
   <i type="int" name="MAGATOM">     0</i>
   <v name="MAGDIPOL">      0.00000000      0.00000000      0.00000000</v>
   <v name="AVECCONST">      0.00000000      0.00000000      0.00000000</v>
  </separator>
  <separator name="response functions" >
   <i type="logical" name="LALL_IN_ONE"> F  </i>
   <i type="int" name="IALL_IN_ONE">    -1</i>
   <i type="int" name="NBANDS_WAVE">    -1</i>
   <i type="logical" name="LFINITE_TEMPERATURE"> F  </i>
   <i type="logical" name="LADDER"> F  </i>
   <i type="logical" name="LRPAFORCE"> F  </i>
   <i type="logical" name="LFXC"> F  </i>
   <i type="logical" name="LHARTREE"> T  </i>
   <i type="int" name="IBSE">     0</i>
   <v type="int" name="KPOINT">    -1     0     0     0</v>
   <i type="logical" name="LTCTC"> F  </i>
   <i type="logical" name="LTCTE"> F  </i>
   <i type="logical" name="LTETE"> F  </i>
   <i type="logical" name="LTRIPLET"> F  </i>
   <i type="logical" name="LFXCEPS"> F  </i>
   <i type="logical" name="LFXHEG"> F  </i>
   <i type="int" name="NATURALO">     2</i>
   <i type="logical" name="LHOLEGF"> F  </i>
   <i type="logical" name="L2ORDER"> F  </i>
   <i type="logical" name="LDMP1"> F  </i>
   <i type="logical" name="LMP2LT"> F  </i>
   <i type="logical" name="LSMP2LT"> F  </i>
   <i type="logical" name="LGWLF"> F  </i>
   <i name="ENCUTGW">     -1.60000002</i>
   <i name="ENCUTGWSOFT">     -1.60000002</i>
   <i name="ENCUTLF">     -1.00000000</i>
   <i type="logical" name="ESF_SPLINES"> F  </i>
   <i name="ESF_CONV">      0.01000000</i>
   <i type="int" name="ESF_NINTER">    15</i>
   <i type="int" name="LMAXMP2">    -1</i>
   <i name="SCISSOR">      0.00000000</i>
   <i type="int" name="NOMEGA">     0</i>
   <i type="int" name="NOMEGAR">     0</i>
   <i type="int" name="NBANDSGW">    -1</i>
   <i type="int" name="NBANDSO">    -1</i>
   <i type="int" name="NBANDSV">    -1</i>
   <i type="int" name="NELMGW">     1</i>
   <i type="int" name="NELMHF">     1</i>
   <i type="int" name="DIM">     3</i>
   <i type="int" name="IESPILON">     4</i>
   <i type="int" name="ANTIRES">     0</i>
   <i name="OMEGAMAX">    -30.00000000</i>
   <i name="OMEGAMIN">    -30.00000000</i>
   <i name="OMEGATL">   -200.00000000</i>
   <i type="int" name="OMEGAGRID">     0</i>
   <i name="CSHIFT">     -0.10000000</i>
   <i type="logical" name="LSELFENERGY"> F  </i>
   <i type="logical" name="LSPECTRAL"> F  </i>
   <i type="logical" name="LSPECTRALGW"> F  </i>
   <i type="logical" name="LSINGLES"> F  </i>
   <i type="logical" name="LFERMIGW"> F  </i>
   <i type="logical" name="ODDONLYGW"> F  </i>
   <i type="logical" name="EVENONLYGW"> F  </i>
   <i type="int" name="NKREDLFX">     1</i>
   <i type="int" name="NKREDLFY">     1</i>
   <i type="int" name="NKREDLFZ">     1</i>
   <i type="int" name="MAXMEM">  2800</i>
   <i type="int" name="TELESCOPE">     0</i>
   <i type="int" name="NTAUPAR">    -1</i>
   <i type="int" name="NOMEGAPAR">    -1</i>
   <i name="DAMP_NEWTON">      0.80000001</i>
   <i name="LAMBDA">      1.00000000</i>
  </separator>
  <separator name="External order field" >
   <i name="OFIELD_KAPPA">      0.00000000</i>
   <v name="OFIELD_K">      0.00000000      0.00000000      0.00000000</v>
   <i name="OFIELD_Q6_NEAR">      0.00000000</i>
   <i name="OFIELD_Q6_FAR">      0.00000000</i>
   <i name="OFIELD_A">      0.00000000</i>
  </separator>
  <separator name="optional k-points parameters" >
   <i type="int" name="KPOINTS_OPT_MODE">     1</i>
   <i type="logical" name="LKPOINTS_OPT"> F  </i>
  </separator>
  <separator name="solvation model" >
   <i type="logical" name="LSOL"> F  </i>
  </separator>
 </parameters>
 <atominfo>
  <atoms>      64 </atoms>
  <types>       7 </types>
  <array name="atoms" >
   <dimension dim="1">ion</dimension>
   <field type="string">element</field>
   <field type="int">atomtype</field>
   <set>
    <rc><c>Ti</c><c>   1</c></rc>
    <rc><c>Ti</c><c>   1</c></rc>
    <rc><c>Ti</c><c>   1</c></rc>
    <rc><c>Ti</c><c>   1</c></rc>
    <rc><c>Ti</c><c>   1</c></rc>
    <rc><c>Ti</c><c>   1</c></rc>
    <rc><c>Ti</c><c>   1</c></rc>
    <rc><c>Mo</c><c>   2</c></rc>
    <rc><c>Mo</c><c>   2</c></rc>
    <rc><c>Mo</c><c>   2</c></rc>
    <rc><c>Mo</c><c>   2</c></rc>
    <rc><c>Mo</c><c>   2</c></rc>
    <rc><c>Mo</c><c>   2</c></rc>
    <rc><c>Hf</c><c>   3</c></rc>
    <rc><c>Hf</c><c>   3</c></rc>
    <rc><c>Hf</c><c>   3</c></rc>
    <rc><c>Hf</c><c>   3</c></rc>
    <rc><c>Hf</c><c>   3</c></rc>
    <rc><c>Hf</c><c>   3</c></rc>
    <rc><c>Hf</c><c>   3</c></rc>
    <rc><c>N </c><c>   4</c></rc>
    <rc><c>N </c><c>   4</c></rc>
    <rc><c>N </c><c>   4</c></rc>
    <rc><c>N </c><c>   4</c></rc>
    <rc><c>N </c><c>   4</c></rc>
    <rc><c>N </c><c>   4</c></rc>
    <rc><c>N </c><c>   4</c></rc>
    <rc><c>N </c><c>   4</c></rc>
    <rc><c>N </c><c>   4</c></rc>
    <rc><c>N </c><c>   4</c></rc>
    <rc><c>N </c><c>   4</c></rc>
    <rc><c>N </c><c>   4</c></rc>
    <rc><c>N </c><c>   4</c></rc>
    <rc><c>C </c><c>   5</c></rc>
    <rc><c>C </c><c>   5</c></rc>
    <rc><c>C </c><c>   5</c></rc>
    <rc><c>C </c><c>   5</c></rc>
    <rc><c>C </c><c>   5</c></rc>
    <rc><c>C </c><c>   5</c></rc>
    <rc><c>C </c><c>   5</c></rc>
    <rc><c>C </c><c>   5</c></rc>
    <rc><c>C </c><c>   5</c></rc>
    <rc><c>C </c><c>   5</c></rc>
    <rc><c>C </c><c>   5</c></rc>
    <rc><c>C </c><c>   5</c></rc>
    <rc><c>C </c><c>   5</c></rc>
    <rc><c>C </c><c>   5</c></rc>
    <rc><c>C </c><c>   5</c></rc>
    <rc><c>C </c><c>   5</c></rc>
    <rc><c>C </c><c>   5</c></rc>
    <rc><c>C </c><c>   5</c></rc>
    <rc><c>C </c><c>   5</c></rc>
    <rc><c>W </c><c>   6</c></rc>
    <rc><c>W </c><c>   6</c></rc>
    <rc><c>W </c><c>   6</c></rc>
    <rc><c>W </c><c>   6</c></rc>
    <rc><c>W </c><c>   6</c></rc>
    <rc><c>W </c><c>   6</c></rc>
    <rc><c>Nb</c><c>   7</c></rc>
    <rc><c>Nb</c><c>   7</c></rc>
    <rc><c>Nb</c><c>   7</c></rc>
    <rc><c>Nb</c><c>   7</c></rc>
    <rc><c>Nb</c><c>   7</c></rc>
    <rc><c>Nb</c><c>   7</c></rc>
   </set>
  </array>
  <array name="atomtypes" >
   <dimension dim="1">type</dimension>
   <field type="int">atomspertype</field>
   <field type="string">element</field>
   <field>mass</field>
   <field>valence</field>
   <field type="string">pseudopotential</field>
   <set>
    <rc><c>   7</c><c>Ti</c><c>     47.88000000</c><c>     10.00000000</c><c> PAW_PBE Ti_pv 07Sep2000                </c></rc>
    <rc><c>   6</c><c>Mo</c><c>     95.94000000</c><c>     12.00000000</c><c> PAW_PBE Mo_pv 08Apr2002                </c></rc>
    <rc><c>   7</c><c>Hf</c><c>    178.49000000</c><c>     10.00000000</c><c> PAW_PBE Hf_pv 06Sep2000                </c></rc>
    <rc><c>  13</c><c>N </c><c>     14.00100000</c><c>      5.00000000</c><c> PAW_PBE N 08Apr2002                    </c></rc>
    <rc><c>  19</c><c>C </c><c>     12.01100000</c><c>      4.00000000</c><c> PAW_PBE C 08Apr2002                    </c></rc>
    <rc><c>   6</c><c>W </c><c>    183.85000000</c><c>     12.00000000</c><c> PAW_PBE W_pv 06Sep2000                 </c></rc>
    <rc><c>   6</c><c>Nb</c><c>     92.00000000</c><c>     11.00000000</c><c> PAW_PBE Nb_pv 08Apr2002                </c></rc>
   </set>
  </array>
 </atominfo>
 <structure name="initialpos" >
  <crystal>
   <varray name="basis" >
    <v>       8.86692863       0.01743403       0.04438459 </v>
    <v>       0.01751103       8.90219608      -0.00921509 </v>
    <v>       0.04430111      -0.00917880       8.87824287 </v>
   </varray>
   <i name="volume">    700.78434130 </i>
   <varray name="rec_basis" >
    <v>       0.11278188      -0.00022243      -0.00056299 </v>
    <v>      -0.00022145       0.11233239       0.00011724 </v>
    <v>      -0.00056406       0.00011771       0.11263784 </v>
   </varray>
  </crystal>
  <varray name="positions" >
   <v>       0.00152165       0.98777168       0.00383892 </v>
   <v>       0.24642120       0.99481321       0.25631984 </v>
   <v>       0.25102833       0.50739347       0.24722062 </v>
   <v>       0.49759042       0.48743541       0.99680044 </v>
   <v>       0.48938850       0.24609282       0.75234136 </v>
   <v>       0.00073711       0.49895630       0.50255978 </v>
   <v>       0.50180704       0.74843719       0.74079457 </v>
   <v>       0.99064089       0.23515148       0.26983347 </v>
   <v>       0.76904889       0.74480417       0.99191731 </v>
   <v>       0.02444176       0.26069992       0.74492673 </v>
   <v>       0.76229626       0.26670452       0.48571431 </v>
   <v>       0.99536143       0.73384084       0.76052995 </v>
   <v>       0.25700610       0.50630205       0.75364779 </v>
   <v>       0.24361785       0.24834066       0.99947299 </v>
   <v>       0.49805028       0.25224979       0.24745366 </v>
   <v>       0.74866261       0.99754052       0.25384822 </v>
   <v>       0.75660039       0.25296487       0.98816294 </v>
   <v>       0.26281532       0.75465743       0.00053503 </v>
   <v>       0.24976170       0.25318758       0.50250024 </v>
   <v>       0.24476139       0.74829281       0.50343454 </v>
   <v>       0.24860518       0.24585469       0.25208441 </v>
   <v>       0.25565905       0.00212050       0.00032400 </v>
   <v>       0.99997436       0.25410373       0.00876306 </v>
   <v>       0.74761265       0.24614766       0.24296598 </v>
   <v>       0.75771305       0.99982160       0.00567796 </v>
   <v>       0.49584293       0.99758923       0.24234661 </v>
   <v>       0.00420549       0.49355006       0.24567665 </v>
   <v>       0.50734558       0.75873116       0.99986695 </v>
   <v>       0.98994701       0.01553736       0.75820953 </v>
   <v>       0.74699307       0.24262849       0.74298545 </v>
   <v>       0.73861509       0.00304530       0.50506985 </v>
   <v>       0.50192247       0.24154408       0.49984522 </v>
   <v>       0.50552482       0.00121121       0.73563066 </v>
   <v>       0.00205304       0.99955397       0.24704328 </v>
   <v>       0.50119658       0.25328609       0.99488330 </v>
   <v>       0.25442281       0.75113842       0.25097416 </v>
   <v>       0.24944677       0.50220459       0.00462107 </v>
   <v>       0.00896999       0.75459195       0.00180266 </v>
   <v>       0.74549048       0.74734436       0.24394815 </v>
   <v>       0.75163444       0.50515760       0.99771711 </v>
   <v>       0.49673125       0.50319077       0.24542437 </v>
   <v>       0.25971930       0.24823717       0.75074397 </v>
   <v>       0.24690071       0.00017536       0.49913940 </v>
   <v>       0.99514394       0.25721198       0.51054213 </v>
   <v>       0.25098588       0.75474169       0.75224383 </v>
   <v>       0.24596219       0.50016647       0.49527703 </v>
   <v>       0.99488305       0.74781396       0.50591603 </v>
   <v>       0.00087851       0.49961525       0.75027850 </v>
   <v>       0.74376259       0.74986324       0.74916588 </v>
   <v>       0.75495591       0.49937648       0.49820877 </v>
   <v>       0.49651464       0.74976887       0.50467288 </v>
   <v>       0.49773277       0.50034303       0.75219556 </v>
   <v>       0.51207968       0.01522456       0.98211090 </v>
   <v>       0.00283400       0.51699802       0.99467982 </v>
   <v>       0.50138052       0.74160906       0.26429476 </v>
   <v>       0.23339492       0.99526273       0.74604918 </v>
   <v>       0.48088148       0.98724396       0.50148706 </v>
   <v>       0.74001190       0.98113112       0.77040101 </v>
   <v>       0.99999672       0.75680174       0.25017972 </v>
   <v>       0.74781680       0.49984020       0.24955985 </v>
   <v>       0.00510389       0.00439170       0.50108559 </v>
   <v>       0.49776349       0.50652955       0.49965044 </v>
   <v>       0.73925275       0.50580059       0.74791290 </v>
   <v>       0.75057978       0.73786438       0.49649231 </v>
  </varray>
 </structure>
 <calculation>
  <scstep>
   <time name="dav">   19.17   19.34</time>
   <time name="total">   19.20   19.39</time>
   <energy>
    <i name="alphaZ">   4419.85550974 </i>
    <i name="ewald"> -38522.17135465 </i>
    <i name="hartreedc">  -5486.40981045 </i>
    <i name="XCdc">   1529.24787817 </i>
    <i name="pawpsdc">  25361.69608612 </i>
    <i name="pawaedc"> -25019.38684469 </i>
    <i name="eentropy">     -0.07585380 </i>
    <i name="bandstr">   1812.19274430 </i>
    <i name="atom">  41073.82617069 </i>
    <i name="e_fr_energy">   5168.77452541 </i>
    <i name="e_wo_entrp">   5168.85037921 </i>
    <i name="e_0_energy">   5168.81245231 </i>
   </energy>
  </scstep>
  <scstep>
   <time name="dav">   18.85   19.34</time>
   <time name="total">   18.85   19.34</time>
   <energy>
    <i name="e_fr_energy">     43.42258140 </i>
    <i name="e_wo_entrp">     43.53531631 </i>
    <i name="e_0_energy">     43.47894886 </i>
   </energy>
  </scstep>
  <scstep>
   <time name="dav">   48.54   51.17</time>
   <time name="total">   48.54   51.17</time>
   <energy>
    <i name="e_fr_energy">   -723.52928500 </i>
    <i name="e_wo_entrp">   -723.44763120 </i>
    <i name="e_0_energy">   -723.48845810 </i>
   </energy>
  </scstep>
  <scstep>
   <time name="dav">   27.29   27.37</time>
   <time name="total">   27.29   27.37</time>
   <energy>
    <i name="e_fr_energy">   -782.16729461 </i>
    <i name="e_wo_entrp">   -782.08616151 </i>
    <i name="e_0_energy">   -782.12672806 </i>
   </energy>
  </scstep>
  <scstep>
   <time name="dav">   26.34   26.42</time>
   <time name="total">   26.51   26.60</time>
   <energy>
    <i name="e_fr_energy">   -784.80652723 </i>
    <i name="e_wo_entrp">   -784.72123853 </i>
    <i name="e_0_energy">   -784.76388288 </i>
   </energy>
  </scstep>
  <scstep>
   <time name="diag">    1.43    1.44</time>
   <time name="diis">   15.69   15.73</time>
   <time name="orth">    0.32    0.32</time>
   <time name="total">   17.64   17.68</time>
   <energy>
    <i name="e_fr_energy">   -645.19381055 </i>
    <i name="e_wo_entrp">   -645.09879725 </i>
    <i name="e_0_energy">   -645.14630390 </i>
   </energy>
  </scstep>
  <scstep>
   <time name="diag">    1.31    1.31</time>
   <time name="diis">   15.94   16.01</time>
   <time name="orth">    0.35    0.35</time>
   <time name="total">   17.79   17.86</time>
   <energy>
    <i name="e_fr_energy">   -652.91131812 </i>
    <i name="e_wo_entrp">   -652.81060629 </i>
    <i name="e_0_energy">   -652.86096220 </i>
   </energy>
  </scstep>
  <scstep>
   <time name="diag">    1.37    1.38</time>
   <time name="diis">   16.60   16.84</time>
   <time name="orth">    0.36    0.36</time>
   <time name="total">   18.52   18.76</time>
   <energy>
    <i name="e_fr_energy">   -654.61757616 </i>
    <i name="e_wo_entrp">   -654.53378710 </i>
    <i name="e_0_energy">   -654.57568163 </i>
   </energy>
  </scstep>
  <scstep>
   <time name="diag">    1.34    1.34</time>
   <time name="diis">   13.91   13.95</time>
   <time name="orth">    0.32    0.32</time>
   <time name="total">   15.75   15.79</time>
   <energy>
    <i name="e_fr_energy">   -653.32223440 </i>
    <i name="e_wo_entrp">   -653.23670266 </i>
    <i name="e_0_energy">   -653.27946853 </i>
   </energy>
  </scstep>
  <scstep>
   <time name="diag">    1.34    1.34</time>
   <time name="diis">   16.10   16.20</time>
   <time name="orth">    0.42    0.42</time>
   <time name="total">   18.04   18.15</time>
   <energy>
    <i name="e_fr_energy">   -653.38651382 </i>
    <i name="e_wo_entrp">   -653.30570431 </i>
    <i name="e_0_energy">   -653.34610907 </i>
   </energy>
  </scstep>
  <scstep>
   <time name="diag">    1.32    1.32</time>
   <time name="diis">   15.04   15.23</time>
   <time name="orth">    0.35    0.35</time>
   <time name="total">   16.89   17.07</time>
   <energy>
    <i name="e_fr_energy">   -653.37491936 </i>
    <i name="e_wo_entrp">   -653.29302582 </i>
    <i name="e_0_energy">   -653.33397259 </i>
   </energy>
  </scstep>
  <scstep>
   <time name="diag">    1.34    1.34</time>
   <time name="diis">   16.05   16.16</time>
   <time name="orth">    0.32    0.32</time>
   <time name="total">   17.89   18.00</time>
   <energy>
    <i name="e_fr_energy">   -653.38198836 </i>
    <i name="e_wo_entrp">   -653.29934464 </i>
    <i name="e_0_energy">   -653.34066650 </i>
   </energy>
  </scstep>
  <scstep>
   <time name="diag">    1.43    1.43</time>
   <time name="diis">   17.44   17.49</time>
   <time name="orth">    0.32    0.32</time>
   <time name="total">   19.37   19.44</time>
   <energy>
    <i name="e_fr_energy">   -653.42735472 </i>
    <i name="e_wo_entrp">   -653.34417141 </i>
    <i name="e_0_energy">   -653.38576306 </i>
   </energy>
  </scstep>
  <scstep>
   <time name="diag">    1.46    1.47</time>
   <time name="diis">   16.08   16.15</time>
   <time name="orth">    0.33    0.33</time>
   <time name="total">   18.06   18.14</time>
   <energy>
    <i name="e_fr_energy">   -653.45619829 </i>
    <i name="e_wo_entrp">   -653.37312365 </i>
    <i name="e_0_energy">   -653.41466097 </i>
   </energy>
  </scstep>
  <scstep>
   <time name="diag">    1.33    1.34</time>
   <time name="diis">   14.71   14.90</time>
   <time name="orth">    0.32    0.32</time>
   <time name="total">   16.55   16.74</time>
   <energy>
    <i name="e_fr_energy">   -653.46599436 </i>
    <i name="e_wo_entrp">   -653.38312885 </i>
    <i name="e_0_energy">   -653.42456160 </i>
   </energy>
  </scstep>
  <scstep>
   <time name="diag">    1.33    1.33</time>
   <time name="diis">   16.66   16.79</time>
   <time name="orth">    0.32    0.32</time>
   <time name="total">   18.50   18.63</time>
   <energy>
    <i name="e_fr_energy">   -653.47545867 </i>
    <i name="e_wo_entrp">   -653.39251577 </i>
    <i name="e_0_energy">   -653.43398722 </i>
   </energy>
  </scstep>
  <scstep>
   <time name="diag">    1.34    1.34</time>
   <time name="diis">   15.34   16.65</time>
   <time name="orth">    1.56    1.67</time>
   <time name="total">   18.62   20.06</time>
   <energy>
    <i name="e_fr_energy">   -653.47976213 </i>
    <i name="e_wo_entrp">   -653.39675972 </i>
    <i name="e_0_energy">   -653.43826093 </i>
   </energy>
  </scstep>
  <scstep>
   <time name="diag">   11.50   11.91</time>
   <time name="diis">   15.24   15.81</time>
   <time name="orth">    0.32    0.32</time>
   <time name="total">   27.77   28.78</time>
   <energy>
    <i name="e_fr_energy">   -653.48310749 </i>
    <i name="e_wo_entrp">   -653.40009186 </i>
    <i name="e_0_energy">   -653.44159968 </i>
   </energy>
  </scstep>
  <scstep>
   <time name="diag">    1.40    1.40</time>
   <time name="diis">   15.01   15.08</time>
   <time name="orth">    0.35    0.35</time>
   <time name="total">   16.98   17.05</time>
   <energy>
    <i name="e_fr_energy">   -653.48464543 </i>
    <i name="e_wo_entrp">   -653.40159852 </i>
    <i name="e_0_energy">   -653.44312198 </i>
   </energy>
  </scstep>
  <scstep>
   <time name="diag">    1.37    1.40</time>
   <time name="diis">   13.73   13.84</time>
   <time name="orth">    0.32    0.32</time>
   <time name="total">   15.60   15.76</time>
   <energy>
    <i name="e_fr_energy">   -653.48599582 </i>
    <i name="e_wo_entrp">   -653.40296929 </i>
    <i name="e_0_energy">   -653.44448255 </i>
   </energy>
  </scstep>
  <scstep>
   <time name="diag">    1.37    1.37</time>
   <time name="diis">   12.23   12.34</time>
   <time name="orth">    0.37    0.37</time>
   <time name="total">   14.20   14.32</time>
   <energy>
    <i name="e_fr_energy">   -653.48660178 </i>
    <i name="e_wo_entrp">   -653.40351606 </i>
    <i name="e_0_energy">   -653.44505892 </i>
   </energy>
  </scstep>
  <scstep>
   <time name="diag">    1.39    1.40</time>
   <time name="diis">    9.82    9.85</time>
   <time name="orth">    0.32    0.32</time>
   <time name="total">   11.72   11.76</time>
   <energy>
    <i name="e_fr_energy">   -653.48714769 </i>
    <i name="e_wo_entrp">   -653.40405808 </i>
    <i name="e_0_energy">   -653.44560288 </i>
   </energy>
  </scstep>
  <scstep>
   <time name="diag">    1.34    1.35</time>
   <time name="diis">   10.02   10.08</time>
   <time name="orth">    0.32    0.32</time>
   <time name="total">   11.90   11.97</time>
   <energy>
    <i name="e_fr_energy">   -653.48738978 </i>
    <i name="e_wo_entrp">   -653.40429321 </i>
    <i name="e_0_energy">   -653.44584149 </i>
   </energy>
  </scstep>
  <scstep>
   <time name="diag">    1.32    1.32</time>
   <time name="diis">    8.76    8.83</time>
   <time name="orth">    0.33    0.33</time>
   <time name="total">   10.60   10.67</time>
   <energy>
    <i name="e_fr_energy">   -653.48762603 </i>
    <i name="e_wo_entrp">   -653.40452423 </i>
    <i name="e_0_energy">   -653.44607513 </i>
   </energy>
  </scstep>
  <scstep>
   <time name="diag">    1.37    1.38</time>
   <time name="diis">    8.27    8.30</time>
   <time name="orth">    0.34    0.34</time>
   <time name="total">   10.17   10.21</time>
   <energy>
    <i name="e_fr_energy">   -653.48773066 </i>
    <i name="e_wo_entrp">   -653.40462330 </i>
    <i name="e_0_energy">   -653.44617698 </i>
   </energy>
  </scstep>
  <scstep>
   <time name="diag">    1.41    1.44</time>
   <time name="diis">    8.11    8.17</time>
   <time name="orth">    0.32    0.33</time>
   <time name="total">   10.03   10.12</time>
   <energy>
    <i name="e_fr_energy">   -653.48783184 </i>
    <i name="e_wo_entrp">   -653.40472018 </i>
    <i name="e_0_energy">   -653.44627601 </i>
   </energy>
  </scstep>
  <scstep>
   <time name="diag">    1.37    1.38</time>
   <time name="diis">    8.02    8.06</time>
   <time name="orth">    0.32    0.32</time>
   <time name="total">    9.90    9.94</time>
   <energy>
    <i name="e_fr_energy">   -653.48787823 </i>
    <i name="e_wo_entrp">   -653.40476398 </i>
    <i name="e_0_energy">   -653.44632110 </i>
   </energy>
  </scstep>
  <scstep>
   <time name="diag">    1.34    1.34</time>
   <time name="diis">    7.90    7.92</time>
   <time name="orth">    0.33    0.33</time>
   <time name="total">    9.76    9.78</time>
   <energy>
    <i name="e_fr_energy">   -653.48792367 </i>
    <i name="e_wo_entrp">   -653.40480606 </i>
    <i name="e_0_energy">   -653.44636487 </i>
   </energy>
  </scstep>
  <scstep>
   <time name="diag">    1.34    1.34</time>
   <time name="diis">    7.42    7.46</time>
   <time name="orth">    0.32    0.32</time>
   <time name="total">    9.28    9.31</time>
   <energy>
    <i name="e_fr_energy">   -653.48794466 </i>
    <i name="e_wo_entrp">   -653.40482507 </i>
    <i name="e_0_energy">   -653.44638486 </i>
   </energy>
  </scstep>
  <scstep>
   <time name="diag">    1.32    1.32</time>
   <time name="diis">    7.34    7.40</time>
   <time name="orth">    0.35    0.35</time>
   <time name="total">    9.20    9.26</time>
   <energy>
    <i name="e_fr_energy">   -653.48796520 </i>
    <i name="e_wo_entrp">   -653.40484412 </i>
    <i name="e_0_energy">   -653.44640466 </i>
   </energy>
  </scstep>
  <scstep>
   <time name="diag">    1.34    1.35</time>
   <time name="diis">    7.33    7.35</time>
   <time name="orth">    0.36    0.37</time>
   <time name="total">    9.07    9.09</time>
   <energy>
    <i name="alphaZ">   4419.85550974 </i>
    <i name="ewald"> -38522.17135465 </i>
    <i name="hartreedc">  -5021.95882274 </i>
    <i name="XCdc">   1519.10154624 </i>
    <i name="pawpsdc">  27594.20812588 </i>
    <i name="pawaedc"> -27361.89688676 </i>
    <i name="eentropy">     -0.08312241 </i>
    <i name="bandstr">  -4354.36914087 </i>
    <i name="atom">  41073.82617069 </i>
    <i name="e_fr_energy">   -653.48797488 </i>
    <i name="e_wo_entrp">   -653.40485247 </i>
    <i name="e_0_energy">   -653.44641368 </i>
   </energy>
  </scstep>
  <structure>
   <crystal>
    <varray name="basis" >
     <v>       8.86692863       0.01743403       0.04438459 </v>
     <v>       0.01751103       8.90219608      -0.00921509 </v>
     <v>       0.04430111      -0.00917880       8.87824287 </v>
    </varray>
    <i name="volume">    700.78434130 </i>
    <varray name="rec_basis" >
     <v>       0.11278188      -0.00022243      -0.00056299 </v>
     <v>      -0.00022145       0.11233239       0.00011724 </v>
     <v>      -0.00056406       0.00011771       0.11263784 </v>
    </varray>
   </crystal>
   <varray name="positions" >
    <v>       0.00152165       0.98777168       0.00383892 </v>
    <v>       0.24642120       0.99481321       0.25631984 </v>
    <v>       0.25102833       0.50739347       0.24722062 </v>
    <v>       0.49759042       0.48743541       0.99680044 </v>
    <v>       0.48938850       0.24609282       0.75234136 </v>
    <v>       0.00073711       0.49895630       0.50255978 </v>
    <v>       0.50180704       0.74843719       0.74079457 </v>
    <v>       0.99064089       0.23515148       0.26983347 </v>
    <v>       0.76904889       0.74480417       0.99191731 </v>
    <v>       0.02444176       0.26069992       0.74492673 </v>
    <v>       0.76229626       0.26670452       0.48571431 </v>
    <v>       0.99536143       0.73384084       0.76052995 </v>
    <v>       0.25700610       0.50630205       0.75364779 </v>
    <v>       0.24361785       0.24834066       0.99947299 </v>
    <v>       0.49805028       0.25224979       0.24745366 </v>
    <v>       0.74866261       0.99754052       0.25384822 </v>
    <v>       0.75660039       0.25296487       0.98816294 </v>
    <v>       0.26281532       0.75465743       0.00053503 </v>
    <v>       0.24976170       0.25318758       0.50250024 </v>
    <v>       0.24476139       0.74829281       0.50343454 </v>
    <v>       0.24860518       0.24585469       0.25208441 </v>
    <v>       0.25565905       0.00212050       0.00032400 </v>
    <v>       0.99997436       0.25410373       0.00876306 </v>
    <v>       0.74761265       0.24614766       0.24296598 </v>
    <v>       0.75771305       0.99982160       0.00567796 </v>
    <v>       0.49584293       0.99758923       0.24234661 </v>
    <v>       0.00420549       0.49355006       0.24567665 </v>
    <v>       0.50734558       0.75873116       0.99986695 </v>
    <v>       0.98994701       0.01553736       0.75820953 </v>
    <v>       0.74699307       0.24262849       0.74298545 </v>
    <v>       0.73861509       0.00304530       0.50506985 </v>
    <v>       0.50192247       0.24154408       0.49984522 </v>
    <v>       0.50552482       0.00121121       0.73563066 </v>
    <v>       0.00205304       0.99955397       0.24704328 </v>
    <v>       0.50119658       0.25328609       0.99488330 </v>
    <v>       0.25442281       0.75113842       0.25097416 </v>
    <v>       0.24944677       0.50220459       0.00462107 </v>
    <v>       0.00896999       0.75459195       0.00180266 </v>
    <v>       0.74549048       0.74734436       0.24394815 </v>
    <v>       0.75163444       0.50515760       0.99771711 </v>
    <v>       0.49673125       0.50319077       0.24542437 </v>
    <v>       0.25971930       0.24823717       0.75074397 </v>
    <v>       0.24690071       0.00017536       0.49913940 </v>
    <v>       0.99514394       0.25721198       0.51054213 </v>
    <v>       0.25098588       0.75474169       0.75224383 </v>
    <v>       0.24596219       0.50016647       0.49527703 </v>
    <v>       0.99488305       0.74781396       0.50591603 </v>
    <v>       0.00087851       0.49961525       0.75027850 </v>
    <v>       0.74376259       0.74986324       0.74916588 </v>
    <v>       0.75495591       0.49937648       0.49820877 </v>
    <v>       0.49651464       0.74976887       0.50467288 </v>
    <v>       0.49773277       0.50034303       0.75219556 </v>
    <v>       0.51207968       0.01522456       0.98211090 </v>
    <v>       0.00283400       0.51699802       0.99467982 </v>
    <v>       0.50138052       0.74160906       0.26429476 </v>
    <v>       0.23339492       0.99526273       0.74604918 </v>
    <v>       0.48088148       0.98724396       0.50148706 </v>
    <v>       0.74001190       0.98113112       0.77040101 </v>
    <v>       0.99999672       0.75680174       0.25017972 </v>
    <v>       0.74781680       0.49984020       0.24955985 </v>
    <v>       0.00510389       0.00439170       0.50108559 </v>
    <v>       0.49776349       0.50652955       0.49965044 </v>
    <v>       0.73925275       0.50580059       0.74791290 </v>
    <v>       0.75057978       0.73786438       0.49649231 </v>
   </varray>
  </structure>
  <varray name="forces" >
   <v>       0.02580448       0.02795128      -0.01625004 </v>
   <v>       0.00097849      -0.00349156      -0.00862287 </v>
   <v>       0.02021584       0.00489438      -0.01575332 </v>
   <v>      -0.00825053      -0.01806389      -0.00875097 </v>
   <v>       0.00310704       0.00972892      -0.00542158 </v>
   <v>       0.01333694      -0.02522773       0.02553839 </v>
   <v>      -0.01965363       0.00499614       0.00420398 </v>
   <v>      -0.00222417      -0.00238267      -0.00755746 </v>
   <v>       0.04308420      -0.00764675       0.00657111 </v>
   <v>       0.01539708      -0.07178775      -0.01686744 </v>
   <v>       0.00518378       0.02949900      -0.02157710 </v>
   <v>       0.01748514      -0.02113486      -0.00352890 </v>
   <v>      -0.02638183      -0.00605679       0.00944614 </v>
   <v>       0.02329644      -0.01487832      -0.00165948 </v>
   <v>       0.01701371       0.00128406      -0.01602536 </v>
   <v>       0.02067064       0.02342838      -0.05750771 </v>
   <v>      -0.00084622      -0.02647207      -0.01615361 </v>
   <v>      -0.03010453      -0.00822296      -0.02719154 </v>
   <v>       0.01975144      -0.00759968       0.00552070 </v>
   <v>       0.00594470       0.00233565      -0.00948586 </v>
   <v>       0.00199398       0.02951038      -0.00547986 </v>
   <v>      -0.01066639      -0.00997517       0.01642287 </v>
   <v>       0.00577316      -0.00837141      -0.01203055 </v>
   <v>       0.00551245       0.02614061      -0.01653191 </v>
   <v>       0.00801259      -0.02724386      -0.01472474 </v>
   <v>       0.02737587      -0.01907843      -0.00238702 </v>
   <v>       0.01371998       0.01769513       0.00221668 </v>
   <v>       0.02720816      -0.02103917       0.02931502 </v>
   <v>      -0.02120594      -0.05410429       0.03130360 </v>
   <v>      -0.00321476      -0.01109404      -0.03219751 </v>
   <v>      -0.00840091      -0.00024533       0.03376994 </v>
   <v>      -0.01101405       0.01452246       0.01020171 </v>
   <v>      -0.19768409      -0.00026654       0.10911377 </v>
   <v>       0.02457673      -0.00794037       0.03529820 </v>
   <v>       0.02050392       0.01779081      -0.00969833 </v>
   <v>       0.00569164       0.00348700      -0.00675482 </v>
   <v>      -0.00808944       0.00628514       0.01059443 </v>
   <v>      -0.00209278       0.02802416      -0.01677436 </v>
   <v>       0.00836548       0.01974930       0.00356399 </v>
   <v>      -0.00758333      -0.02237603       0.00696510 </v>
   <v>      -0.00043684      -0.00358230      -0.00985803 </v>
   <v>      -0.00827320       0.00395361      -0.00239244 </v>
   <v>       0.02071566       0.00368163      -0.04955306 </v>
   <v>      -0.01925861      -0.02444096      -0.00937606 </v>
   <v>      -0.02124953       0.00038503      -0.02569073 </v>
   <v>       0.00051403      -0.00698672       0.02682593 </v>
   <v>       0.00346210      -0.01298496       0.01117892 </v>
   <v>       0.00974663      -0.03004396       0.01742405 </v>
   <v>      -0.01101321       0.02283178       0.01575288 </v>
   <v>       0.00503633       0.00965410       0.00958303 </v>
   <v>       0.01145501      -0.01142148       0.03596178 </v>
   <v>      -0.00567083       0.00657355       0.01990771 </v>
   <v>      -0.04080593       0.04782977       0.02778556 </v>
   <v>      -0.00645902       0.02494883       0.00433812 </v>
   <v>       0.00368225       0.03207589       0.02336522 </v>
   <v>       0.00398623       0.01561470      -0.04391122 </v>
   <v>       0.02687212      -0.00522465      -0.08168877 </v>
   <v>      -0.02100952       0.03261477      -0.02996125 </v>
   <v>      -0.00860932       0.00686910      -0.00249603 </v>
   <v>      -0.00956924       0.00708720       0.00340906 </v>
   <v>       0.01948589       0.00700063       0.01288962 </v>
   <v>      -0.00440167      -0.01074745       0.01271047 </v>
   <v>       0.01527392       0.03644297       0.03288377 </v>
   <v>       0.01393548      -0.02475423       0.00979815 </v>
  </varray>
  <varray name="stress" >
   <v>     -19.45300538       0.22641852      -0.11405808 </v>
   <v>       0.22641898     -18.86689737      -0.08454560 </v>
   <v>      -0.11405927      -0.08454426     -19.69770498 </v>
  </varray>
  <energy>
   <i name="e_fr_energy">   -653.48797488 </i>
   <i name="e_wo_entrp">   -653.40485247 </i>
   <i name="e_0_energy">   -653.44641368 </i>
  </energy>
  <time name="totalsc">  562.33  570.85</time>
 </calculation>
 <calculation>
  <scstep>
   <time name="dav">   21.56   21.79</time>
   <time name="total">   21.74   21.98</time>
   <energy>
    <i name="alphaZ">   4505.49134278 </i>
    <i name="ewald"> -38769.57079477 </i>
    <i name="hartreedc">  -5054.04358355 </i>
    <i name="XCdc">   1530.38307279 </i>
    <i name="pawpsdc">  27594.18898663 </i>
    <i name="pawaedc"> -27361.87807992 </i>
    <i name="eentropy">     -0.07842169 </i>
    <i name="bandstr">  -4172.57615807 </i>
    <i name="atom">  41073.82617069 </i>
    <i name="e_fr_energy">   -654.25746509 </i>
    <i name="e_wo_entrp">   -654.17904341 </i>
    <i name="e_0_energy">   -654.21825425 </i>
   </energy>
  </scstep>
  <scstep>
   <time name="diag">    1.35    1.36</time>
   <time name="diis">   15.95   16.19</time>
   <time name="orth">    0.34    0.34</time>
   <time name="total">   17.83   18.08</time>
   <energy>
    <i name="e_fr_energy">   -653.61606643 </i>
    <i name="e_wo_entrp">   -653.53604562 </i>
    <i name="e_0_energy">   -653.57605603 </i>
   </energy>
  </scstep>
  <scstep>
   <time name="diag">    1.33    1.34</time>
   <time name="diis">   14.93   15.04</time>
   <time name="orth">    0.33    0.33</time>
   <time name="total">   16.78   16.90</time>
   <energy>
    <i name="e_fr_energy">   -653.48794760 </i>
    <i name="e_wo_entrp">   -653.40679522 </i>
    <i name="e_0_energy">   -653.44737141 </i>
   </energy>
  </scstep>
  <scstep>
   <time name="diag">    1.37    1.38</time>
   <time name="diis">   14.38   14.58</time>
   <time name="orth">    0.32    0.33</time>
   <time name="total">   16.26   16.48</time>
   <energy>
    <i name="e_fr_energy">   -653.41807014 </i>
    <i name="e_wo_entrp">   -653.33841706 </i>
    <i name="e_0_energy">   -653.37824360 </i>
   </energy>
  </scstep>
  <scstep>
   <time name="diag">    3.44    3.46</time>
   <time name="diis">   13.69   16.66</time>
   <time name="orth">    3.16    3.19</time>
   <time name="total">   20.61   23.64</time>
   <energy>
    <i name="e_fr_energy">   -653.40860594 </i>
    <i name="e_wo_entrp">   -653.32799873 </i>
    <i name="e_0_energy">   -653.36830234 </i>
   </energy>
  </scstep>
  <scstep>
   <time name="diag">    9.45    9.51</time>
   <time name="diis">   16.72   16.90</time>
   <time name="orth">    0.33    0.33</time>
   <time name="total">   26.78   27.03</time>
   <energy>
    <i name="e_fr_energy">   -653.40524529 </i>
    <i name="e_wo_entrp">   -653.32504776 </i>
    <i name="e_0_energy">   -653.36514652 </i>
   </energy>
  </scstep>
  <scstep>
   <time name="diag">    1.37    1.38</time>
   <time name="diis">   16.84   17.02</time>
   <time name="orth">    0.32    0.32</time>
   <time name="total">   18.72   18.91</time>
   <energy>
    <i name="e_fr_energy">   -653.40531614 </i>
    <i name="e_wo_entrp">   -653.32496084 </i>
    <i name="e_0_energy">   -653.36513849 </i>
   </energy>
  </scstep>
  <scstep>
   <time name="diag">    1.33    1.33</time>
   <time name="diis">   16.38   16.58</time>
   <time name="orth">    0.37    0.37</time>
   <time name="total">   18.29   18.51</time>
   <energy>
    <i name="e_fr_energy">   -653.40547132 </i>
    <i name="e_wo_entrp">   -653.32515617 </i>
    <i name="e_0_energy">   -653.36531375 </i>
   </energy>
  </scstep>
  <scstep>
   <time name="diag">    1.31    1.32</time>
   <time name="diis">   15.08   15.17</time>
   <time name="orth">    0.34    0.35</time>
   <time name="total">   16.92   17.03</time>
   <energy>
    <i name="e_fr_energy">   -653.40555130 </i>
    <i name="e_wo_entrp">   -653.32526035 </i>
    <i name="e_0_energy">   -653.36540582 </i>
   </energy>
  </scstep>
  <scstep>
   <time name="diag">    1.34    1.34</time>
   <time name="diis">   14.67   14.78</time>
   <time name="orth">    0.32    0.32</time>
   <time name="total">   16.51   16.63</time>
   <energy>
    <i name="e_fr_energy">   -653.40565038 </i>
    <i name="e_wo_entrp">   -653.32538379 </i>
    <i name="e_0_energy">   -653.36551709 </i>
   </energy>
  </scstep>
  <scstep>
   <time name="diag">    1.65    1.70</time>
   <time name="diis">   13.23   13.39</time>
   <time name="orth">    0.32    0.32</time>
   <time name="total">   15.38   15.61</time>
   <energy>
    <i name="e_fr_energy">   -653.40567182 </i>
    <i name="e_wo_entrp">   -653.32538887 </i>
    <i name="e_0_energy">   -653.36553034 </i>
   </energy>
  </scstep>
  <scstep>
   <time name="diag">    1.41    1.42</time>
   <time name="diis">   10.32   10.44</time>
   <time name="orth">    0.33    0.34</time>
   <time name="total">   12.24   12.39</time>
   <energy>
    <i name="e_fr_energy">   -653.40568207 </i>
    <i name="e_wo_entrp">   -653.32540087 </i>
    <i name="e_0_energy">   -653.36554147 </i>
   </energy>
  </scstep>
  <scstep>
   <time name="diag">    1.30    1.31</time>
   <time name="diis">    8.81    8.90</time>
   <time name="orth">    0.32    0.32</time>
   <time name="total">   10.45   10.55</time>
   <energy>
    <i name="alphaZ">   4505.49134278 </i>
    <i name="ewald"> -38769.57079477 </i>
    <i name="hartreedc">  -4947.84319354 </i>
    <i name="XCdc">   1524.19453961 </i>
    <i name="pawpsdc">  27836.54960485 </i>
    <i name="pawaedc"> -27606.96139107 </i>
    <i name="eentropy">     -0.08028624 </i>
    <i name="bandstr">  -4269.01167765 </i>
    <i name="atom">  41073.82617069 </i>
    <i name="e_fr_energy">   -653.40568535 </i>
    <i name="e_wo_entrp">   -653.32539911 </i>
    <i name="e_0_energy">   -653.36554223 </i>
   </energy>
  </scstep>
  <structure>
   <crystal>
    <varray name="basis" >
     <v>       8.81005804       0.01798627       0.04376240 </v>
     <v>       0.01806362       8.84682150      -0.00940405 </v>
     <v>       0.04368242      -0.00936587       8.82058239 </v>
    </varray>
    <i name="volume">    687.46453969 </i>
    <varray name="rec_basis" >
     <v>       0.11350990      -0.00023236      -0.00056238 </v>
     <v>      -0.00023137       0.11303555       0.00012117 </v>
     <v>      -0.00056341       0.00012167       0.11337412 </v>
    </varray>
   </crystal>
   <varray name="positions" >
    <v>       0.00166219       0.98792279       0.00375007 </v>
    <v>       0.24642680       0.99479423       0.25627294 </v>
    <v>       0.25113869       0.50741969       0.24713450 </v>
    <v>       0.49754597       0.48733756       0.99675301 </v>
    <v>       0.48940545       0.24614548       0.75231187 </v>
    <v>       0.00080925       0.49881959       0.50269805 </v>
    <v>       0.50169993       0.74846450       0.74081798 </v>
    <v>       0.99062902       0.23513855       0.26979245 </v>
    <v>       0.76928321       0.74476230       0.99195180 </v>
    <v>       0.02452676       0.26031063       0.74483425 </v>
    <v>       0.76232473       0.26686421       0.48559709 </v>
    <v>       0.99545688       0.73372610       0.76051018 </v>
    <v>       0.25686237       0.50626956       0.75369981 </v>
    <v>       0.24374481       0.24825977       0.99946325 </v>
    <v>       0.49814327       0.25225648       0.24736612 </v>
    <v>       0.74877638       0.99766694       0.25353529 </v>
    <v>       0.75659650       0.25282133       0.98807504 </v>
    <v>       0.26265235       0.75461303       0.00038804 </v>
    <v>       0.24986910       0.25314621       0.50252966 </v>
    <v>       0.24479397       0.74830535       0.50338285 </v>
    <v>       0.24861586       0.24601456       0.25205475 </v>
    <v>       0.25560068       0.00206665       0.00041347 </v>
    <v>       0.00000619       0.25405823       0.00869748 </v>
    <v>       0.74764281       0.24628917       0.24287615 </v>
    <v>       0.75775734       0.99967379       0.00559758 </v>
    <v>       0.49599215       0.99748553       0.24233279 </v>
    <v>       0.00427989       0.49364582       0.24568842 </v>
    <v>       0.50749305       0.75861702       0.00002538 </v>
    <v>       0.98983136       0.01524457       0.75837990 </v>
    <v>       0.74697657       0.24256822       0.74281051 </v>
    <v>       0.73856846       0.00304426       0.50525358 </v>
    <v>       0.50186211       0.24162296       0.49990104 </v>
    <v>       0.50444628       0.00121250       0.73622896 </v>
    <v>       0.00218589       0.99951088       0.24723438 </v>
    <v>       0.50130821       0.25338223       0.99483014 </v>
    <v>       0.25445393       0.75115722       0.25093732 </v>
    <v>       0.24940240       0.50223880       0.00467889 </v>
    <v>       0.00895876       0.75474374       0.00171172 </v>
    <v>       0.74553569       0.74745131       0.24396740 </v>
    <v>       0.75159323       0.50503646       0.99775504 </v>
    <v>       0.49672918       0.50317131       0.24537080 </v>
    <v>       0.25967431       0.24825867       0.75073121 </v>
    <v>       0.24701473       0.00019481       0.49886959 </v>
    <v>       0.99503967       0.25707968       0.51049157 </v>
    <v>       0.25087096       0.75474386       0.75210481 </v>
    <v>       0.24596434       0.50012875       0.49542275 </v>
    <v>       0.99490173       0.74774361       0.50597661 </v>
    <v>       0.00093139       0.49945243       0.75037274 </v>
    <v>       0.74370199       0.74998718       0.74925191 </v>
    <v>       0.75498294       0.49942880       0.49826076 </v>
    <v>       0.49657611       0.74970706       0.50486792 </v>
    <v>       0.49770131       0.50037882       0.75230393 </v>
    <v>       0.51185639       0.01548435       0.98226327 </v>
    <v>       0.00279847       0.51713332       0.99470371 </v>
    <v>       0.50139958       0.74178298       0.26442181 </v>
    <v>       0.23341763       0.99534706       0.74581054 </v>
    <v>       0.48102996       0.98721490       0.50104240 </v>
    <v>       0.73989805       0.98130793       0.77023896 </v>
    <v>       0.99994987       0.75683904       0.25016643 </v>
    <v>       0.74776457       0.49987873       0.24957867 </v>
    <v>       0.00520949       0.00442951       0.50115514 </v>
    <v>       0.49773932       0.50647142       0.49971957 </v>
    <v>       0.73933456       0.50599810       0.74809138 </v>
    <v>       0.75065560       0.73773014       0.49654503 </v>
   </varray>
  </structure>
  <varray name="forces" >
   <v>       0.05327587       0.11936730      -0.01913329 </v>
   <v>       0.03345842       0.03710618      -0.06059280 </v>
   <v>      -0.00650029      -0.05770964       0.01034009 </v>
   <v>       0.01193902       0.08974292       0.00923524 </v>
   <v>       0.07417411       0.02755119      -0.04274681 </v>
   <v>       0.01933314       0.00483886      -0.01988291 </v>
   <v>      -0.03772701       0.02011929       0.08868653 </v>
   <v>       0.08149860       0.10089022      -0.13348056 </v>
   <v>      -0.11266865       0.05488341       0.07757293 </v>
   <v>      -0.14348143      -0.09235626       0.09235338 </v>
   <v>      -0.15500761      -0.10459540       0.05886044 </v>
   <v>       0.04344932       0.15495783      -0.10036818 </v>
   <v>      -0.05106534      -0.04004379      -0.01467882 </v>
   <v>       0.04034250       0.00056853       0.04368805 </v>
   <v>       0.00177939      -0.01959794      -0.00301243 </v>
   <v>       0.00645732       0.02432480      -0.02070426 </v>
   <v>      -0.01386667      -0.02992593       0.02087617 </v>
   <v>      -0.00926354      -0.00648378       0.00618947 </v>
   <v>       0.02249450      -0.01256189      -0.04748965 </v>
   <v>      -0.00132861      -0.00130708      -0.02554390 </v>
   <v>      -0.04712469       0.03612575      -0.01267010 </v>
   <v>      -0.02037926      -0.00471316       0.04641928 </v>
   <v>       0.00374494      -0.02707830       0.00608729 </v>
   <v>       0.00813514       0.03332327      -0.04984616 </v>
   <v>       0.04223443      -0.03362163       0.04185331 </v>
   <v>      -0.03354461      -0.02942830      -0.01462572 </v>
   <v>       0.03253436      -0.00834323       0.04526989 </v>
   <v>       0.08206782      -0.05779889       0.01082213 </v>
   <v>      -0.09168239      -0.09164686       0.03506417 </v>
   <v>       0.00094171      -0.02631626      -0.10538844 </v>
   <v>      -0.00136757       0.02519089       0.07941486 </v>
   <v>       0.05604693       0.01462263       0.06160322 </v>
   <v>      -0.25772919      -0.01166736       0.08181158 </v>
   <v>       0.04399743      -0.00393401      -0.01947338 </v>
   <v>      -0.00362879       0.07661422      -0.02715536 </v>
   <v>      -0.01529016       0.00144556      -0.00845752 </v>
   <v>       0.04233172      -0.00771995       0.02468414 </v>
   <v>       0.06714565       0.08662719       0.01913637 </v>
   <v>       0.02901689       0.01913374      -0.02180972 </v>
   <v>      -0.05845674      -0.02946496       0.02377756 </v>
   <v>      -0.03312849      -0.02849019      -0.04035779 </v>
   <v>       0.05961505       0.02223033       0.00071409 </v>
   <v>      -0.01304753       0.00834845      -0.07345970 </v>
   <v>       0.04941757       0.00576957      -0.00003525 </v>
   <v>      -0.00025591      -0.04026603      -0.01391257 </v>
   <v>      -0.02866034      -0.00062833      -0.00254536 </v>
   <v>       0.02136640      -0.02709010       0.02142100 </v>
   <v>      -0.01160748      -0.07676705      -0.05414042 </v>
   <v>      -0.03137683      -0.02736434      -0.01747539 </v>
   <v>       0.03001978       0.00273665       0.02186862 </v>
   <v>       0.01215899      -0.03234164       0.07875483 </v>
   <v>      -0.01355208      -0.00903920       0.03479695 </v>
   <v>      -0.08150943      -0.07369083       0.13174756 </v>
   <v>       0.00073506      -0.13605483       0.07893711 </v>
   <v>      -0.01648545       0.10710955      -0.11657711 </v>
   <v>       0.10873452       0.06193363       0.02186650 </v>
   <v>       0.15377735       0.08579203      -0.13547926 </v>
   <v>       0.04940660       0.14648323      -0.17761160 </v>
   <v>       0.02074961      -0.08447635       0.02019260 </v>
   <v>       0.02796217      -0.03750341      -0.04049457 </v>
   <v>      -0.10460621      -0.03602873       0.05492273 </v>
   <v>       0.00637736      -0.11439374       0.02504755 </v>
   <v>       0.07528816      -0.07090783       0.01881582 </v>
   <v>      -0.01766557       0.12352002       0.02631756 </v>
  </varray>
  <varray name="stress" >
   <v>      42.08939416      -0.20759940       0.14814769 </v>
   <v>      -0.20759817      41.16029009       0.06020068 </v>
   <v>       0.14815062       0.06020198      41.12589972 </v>
  </varray>
  <energy>
   <i name="e_fr_energy">   -653.40568535 </i>
   <i name="e_wo_entrp">   -653.32539911 </i>
   <i name="e_0_energy">   -653.36554223 </i>
  </energy>
  <time name="totalsc">  260.75  266.23</time>
 </calculation>
 <calculation>
  <scstep>
   <time name="dav">   20.63   20.81</time>
   <time name="total">   20.82   21.00</time>
   <energy>
    <i name="alphaZ">   4448.46688351 </i>
    <i name="ewald"> -38605.18780906 </i>
    <i name="hartreedc">  -4926.98065554 </i>
    <i name="XCdc">   1516.73576108 </i>
    <i name="pawpsdc">  27836.56648228 </i>
    <i name="pawaedc"> -27606.96638765 </i>
    <i name="eentropy">     -0.08425276 </i>
    <i name="bandstr">  -4390.27682202 </i>
    <i name="atom">  41073.82617069 </i>
    <i name="e_fr_energy">   -653.90062945 </i>
    <i name="e_wo_entrp">   -653.81637669 </i>
    <i name="e_0_energy">   -653.85850307 </i>
   </energy>
  </scstep>
  <scstep>
   <time name="diag">    1.39    1.40</time>
   <time name="diis">   15.92   16.04</time>
   <time name="orth">    0.32    0.32</time>
   <time name="total">   17.82   17.95</time>
   <energy>
    <i name="e_fr_energy">   -653.62360785 </i>
    <i name="e_wo_entrp">   -653.54039796 </i>
    <i name="e_0_energy">   -653.58200291 </i>
   </energy>
  </scstep>
  <scstep>
   <time name="diag">    1.32    1.33</time>
   <time name="diis">   15.18   15.28</time>
   <time name="orth">    0.32    0.32</time>
   <time name="total">   17.00   17.11</time>
   <energy>
    <i name="e_fr_energy">   -653.55968979 </i>
    <i name="e_wo_entrp">   -653.47785759 </i>
    <i name="e_0_energy">   -653.51877369 </i>
   </energy>
  </scstep>
  <scstep>
   <time name="diag">    1.30    1.31</time>
   <time name="diis">   14.22   14.41</time>
   <time name="orth">    0.35    0.35</time>
   <time name="total">   16.07   16.27</time>
   <energy>
    <i name="e_fr_energy">   -653.52494011 </i>
    <i name="e_wo_entrp">   -653.44227871 </i>
    <i name="e_0_energy">   -653.48360941 </i>
   </energy>
  </scstep>
  <scstep>
   <time name="diag">    1.38    1.39</time>
   <time name="diis">   14.72   14.82</time>
   <time name="orth">    0.37    0.37</time>
   <time name="total">   16.68   16.79</time>
   <energy>
    <i name="e_fr_energy">   -653.51859529 </i>
    <i name="e_wo_entrp">   -653.43670433 </i>
    <i name="e_0_energy">   -653.47764981 </i>
   </energy>
  </scstep>
  <scstep>
   <time name="diag">    1.32    1.33</time>
   <time name="diis">   16.14   16.40</time>
   <time name="orth">    0.32    0.32</time>
   <time name="total">   17.97   18.23</time>
   <energy>
    <i name="e_fr_energy">   -653.51660040 </i>
    <i name="e_wo_entrp">   -653.43437527 </i>
    <i name="e_0_energy">   -653.47548783 </i>
   </energy>
  </scstep>
  <scstep>
   <time name="diag">    3.49    5.02</time>
   <time name="diis">   17.72   18.31</time>
   <time name="orth">    1.93    1.94</time>
   <time name="total">   23.57   25.70</time>
   <energy>
    <i name="e_fr_energy">   -653.51643573 </i>
    <i name="e_wo_entrp">   -653.43433562 </i>
    <i name="e_0_energy">   -653.47538568 </i>
   </energy>
  </scstep>
  <scstep>
   <time name="diag">    9.40    9.54</time>
   <time name="diis">   14.85   16.43</time>
   <time name="orth">    0.33    0.33</time>
   <time name="total">   24.87   26.59</time>
   <energy>
    <i name="e_fr_energy">   -653.51644180 </i>
    <i name="e_wo_entrp">   -653.43431939 </i>
    <i name="e_0_energy">   -653.47538059 </i>
   </energy>
  </scstep>
  <scstep>
   <time name="diag">    1.42    1.46</time>
   <time name="diis">   14.45   14.62</time>
   <time name="orth">    0.32    0.32</time>
   <time name="total">   16.38   16.59</time>
   <energy>
    <i name="e_fr_energy">   -653.51642532 </i>
    <i name="e_wo_entrp">   -653.43427696 </i>
    <i name="e_0_energy">   -653.47535114 </i>
   </energy>
  </scstep>
  <scstep>
   <time name="diag">    1.35    1.35</time>
   <time name="diis">   14.07   14.22</time>
   <time name="orth">    0.34    0.35</time>
   <time name="total">   15.95   16.11</time>
   <energy>
    <i name="e_fr_energy">   -653.51642293 </i>
    <i name="e_wo_entrp">   -653.43425744 </i>
    <i name="e_0_energy">   -653.47534018 </i>
   </energy>
  </scstep>
  <scstep>
   <time name="diag">    1.31    1.31</time>
   <time name="diis">   11.30   11.37</time>
   <time name="orth">    0.32    0.32</time>
   <time name="total">   12.96   13.04</time>
   <energy>
    <i name="alphaZ">   4448.46688351 </i>
    <i name="ewald"> -38605.18780906 </i>
    <i name="hartreedc">  -4997.04826040 </i>
    <i name="XCdc">   1520.80826472 </i>
    <i name="pawpsdc">  27674.90207612 </i>
    <i name="pawaedc"> -27443.43052080 </i>
    <i name="eentropy">     -0.08215945 </i>
    <i name="bandstr">  -4325.77106416 </i>
    <i name="atom">  41073.82617069 </i>
    <i name="e_fr_energy">   -653.51641882 </i>
    <i name="e_wo_entrp">   -653.43425937 </i>
    <i name="e_0_energy">   -653.47533910 </i>
   </energy>
  </scstep>
  <structure>
   <crystal>
    <varray name="basis" >
     <v>       8.84776559       0.01762011       0.04417494 </v>
     <v>       0.01769723       8.88353713      -0.00927876 </v>
     <v>       0.04409264      -0.00924183       8.85881367 </v>
    </varray>
    <i name="volume">    696.27707998 </i>
    <varray name="rec_basis" >
     <v>       0.11302615      -0.00022575      -0.00056280 </v>
     <v>      -0.00022477       0.11256835       0.00011855 </v>
     <v>      -0.00056385       0.00011903       0.11288486 </v>
    </varray>
   </crystal>
   <varray name="positions" >
    <v>       0.00156842       0.98782198       0.00380936 </v>
    <v>       0.24642306       0.99480689       0.25630424 </v>
    <v>       0.25106505       0.50740221       0.24719197 </v>
    <v>       0.49757563       0.48740284       0.99678467 </v>
    <v>       0.48939414       0.24611035       0.75233155 </v>
    <v>       0.00076110       0.49891080       0.50260577 </v>
    <v>       0.50177141       0.74844628       0.74080236 </v>
    <v>       0.99063694       0.23514717       0.26981982 </v>
    <v>       0.76912684       0.74479025       0.99192878 </v>
    <v>       0.02447002       0.26057037       0.74489598 </v>
    <v>       0.76230574       0.26675767       0.48567532 </v>
    <v>       0.99539318       0.73380266       0.76052337 </v>
    <v>       0.25695828       0.50629122       0.75366510 </v>
    <v>       0.24366008       0.24831374       0.99946975 </v>
    <v>       0.49808122       0.25225202       0.24742454 </v>
    <v>       0.74870047       0.99758261       0.25374412 </v>
    <v>       0.75659909       0.25291710       0.98813371 </v>
    <v>       0.26276111       0.75464265       0.00048614 </v>
    <v>       0.24979743       0.25317382       0.50251003 </v>
    <v>       0.24477223       0.74829699       0.50341735 </v>
    <v>       0.24860874       0.24590790       0.25207454 </v>
    <v>       0.25563963       0.00210257       0.00035376 </v>
    <v>       0.99998495       0.25408859       0.00874125 </v>
    <v>       0.74762270       0.24619476       0.24293610 </v>
    <v>       0.75772778       0.99977241       0.00565123 </v>
    <v>       0.49589256       0.99755472       0.24234201 </v>
    <v>       0.00423025       0.49358193       0.24568056 </v>
    <v>       0.50739463       0.75869318       0.99991964 </v>
    <v>       0.98990852       0.01543991       0.75826621 </v>
    <v>       0.74698758       0.24260844       0.74292726 </v>
    <v>       0.73859957       0.00304495       0.50513097 </v>
    <v>       0.50190239       0.24157033       0.49986379 </v>
    <v>       0.50516600       0.00121157       0.73582970 </v>
    <v>       0.00209723       0.99953963       0.24710684 </v>
    <v>       0.50123372       0.25331809       0.99486561 </v>
    <v>       0.25443317       0.75114468       0.25096190 </v>
    <v>       0.24943201       0.50221597       0.00464030 </v>
    <v>       0.00896626       0.75464247       0.00177241 </v>
    <v>       0.74550553       0.74737995       0.24395455 </v>
    <v>       0.75162073       0.50511728       0.99772973 </v>
    <v>       0.49673056       0.50318430       0.24540655 </v>
    <v>       0.25970433       0.24824432       0.75073973 </v>
    <v>       0.24693865       0.00018185       0.49904965 </v>
    <v>       0.99510925       0.25716795       0.51052532 </v>
    <v>       0.25094765       0.75474241       0.75219759 </v>
    <v>       0.24596290       0.50015392       0.49532550 </v>
    <v>       0.99488926       0.74779055       0.50593618 </v>
    <v>       0.00089609       0.49956106       0.75030985 </v>
    <v>       0.74374243       0.74990448       0.74919450 </v>
    <v>       0.75496490       0.49939389       0.49822606 </v>
    <v>       0.49653508       0.74974830       0.50473775 </v>
    <v>       0.49772230       0.50035494       0.75223161 </v>
    <v>       0.51200541       0.01531100       0.98216158 </v>
    <v>       0.00282218       0.51704305       0.99468777 </v>
    <v>       0.50138686       0.74166694       0.26433702 </v>
    <v>       0.23340249       0.99529080       0.74596980 </v>
    <v>       0.48093089       0.98723431       0.50133915 </v>
    <v>       0.73997404       0.98118996       0.77034711 </v>
    <v>       0.99998113       0.75681415       0.25017530 </v>
    <v>       0.74779943       0.49985302       0.24956611 </v>
    <v>       0.00513902       0.00440429       0.50110872 </v>
    <v>       0.49775545       0.50651020       0.49967343 </v>
    <v>       0.73927997       0.50586632       0.74797226 </v>
    <v>       0.75060500       0.73781971       0.49650984 </v>
   </varray>
  </structure>
  <varray name="forces" >
   <v>       0.03625838       0.05939313      -0.01799756 </v>
   <v>       0.01126116       0.00950493      -0.02577406 </v>
   <v>       0.01147846      -0.01596433      -0.00775323 </v>
   <v>      -0.00191255       0.01724596      -0.00335407 </v>
   <v>       0.02693903       0.01594813      -0.01762672 </v>
   <v>       0.01544328      -0.01570673       0.01097685 </v>
   <v>      -0.02630640       0.01010816       0.03271921 </v>
   <v>       0.02541985       0.03159758      -0.04956764 </v>
   <v>      -0.00703159       0.01289704       0.03065977 </v>
   <v>      -0.03668290      -0.08064247       0.01811576 </v>
   <v>      -0.04721109      -0.01342712       0.00464099 </v>
   <v>       0.02695376       0.03709203      -0.03596493 </v>
   <v>      -0.03540227      -0.01760785       0.00143416 </v>
   <v>       0.03009721      -0.01090566       0.01429137 </v>
   <v>       0.01247785      -0.00609239      -0.01197781 </v>
   <v>       0.01554052       0.02453315      -0.04782322 </v>
[...]
      </set>
     </set>
    </set>
   </array>
  </eigenvalues>
  <separator name="orbital magnetization" >
   <v name="MAGDIPOLOUT">      0.00000000      0.00000000      0.00000000</v>
  </separator>
  <dos>
   <i name="efermi">      8.30890731 </i>
   <total>
    <array>
     <dimension dim="1">gridpoints</dimension>
     <dimension dim="2">spin</dimension>
     <field>energy</field>
     <field>total</field>
     <field>integrated</field>
     <set>
      <set comment="spin 1">
       <r>   -33.4180     0.0000     0.0000 </r>
       <r>   -33.2615     0.0000     0.0000 </r>
       <r>   -33.1049     0.0000     0.0000 </r>
       <r>   -32.9484     0.0000     0.0000 </r>
       <r>   -32.7918     0.0000     0.0000 </r>
       <r>   -32.6353     0.0000     0.0000 </r>
       <r>   -32.4787     0.0000     0.0000 </r>
       <r>   -32.3222     0.0000     0.0000 </r>
       <r>   -32.1657     0.0000     0.0000 </r>
       <r>   -32.0091     0.0000     0.0000 </r>
       <r>   -31.8526     0.0000     0.0000 </r>
       <r>   -31.6960     0.0000     0.0000 </r>
       <r>   -31.5395     0.0023     0.0004 </r>
       <r>   -31.3829     1.5626     0.2450 </r>
       <r>   -31.2264    22.7701     3.8096 </r>
       <r>   -31.0698    49.1794    11.5084 </r>
       <r>   -30.9133    66.8338    21.9710 </r>
       <r>   -30.7567    62.5266    31.7593 </r>
       <r>   -30.6002    25.4366    35.7413 </r>
       <r>   -30.4436     1.6485    35.9994 </r>
       <r>   -30.2871     0.0037    36.0000 </r>
       <r>   -30.1306     0.0000    36.0000 </r>
       <r>   -29.9740     0.0000    36.0000 </r>
       <r>   -29.8175     0.0000    36.0000 </r>
       <r>   -29.6609     0.0000    36.0000 </r>
       <r>   -29.5044     0.0000    36.0000 </r>
       <r>   -29.3478     0.0000    36.0000 </r>
       <r>   -29.1913     0.0000    36.0000 </r>
       <r>   -29.0347     0.0000    36.0000 </r>
       <r>   -28.8782     0.0000    36.0000 </r>
       <r>   -28.7216     0.0000    36.0000 </r>
       <r>   -28.5651     0.0000    36.0000 </r>
       <r>   -28.4085     0.0000    36.0000 </r>
       <r>   -28.2520     0.0467    36.0073 </r>
       <r>   -28.0954     4.2310    36.6697 </r>
       <r>   -27.9389    19.6847    39.7512 </r>
       <r>   -27.7824    65.4258    49.9934 </r>
       <r>   -27.6258    83.9326    63.1328 </r>
       <r>   -27.4693    45.4179    70.2428 </r>
       <r>   -27.3127    10.7093    71.9193 </r>
       <r>   -27.1562     0.5152    71.9999 </r>
       <r>   -26.9996     0.0005    72.0000 </r>
       <r>   -26.8431     0.0000    72.0000 </r>
       <r>   -26.6865     0.0000    72.0000 </r>
       <r>   -26.5300     0.0000    72.0000 </r>
       <r>   -26.3734     0.0000    72.0000 </r>
       <r>   -26.2169     0.0000    72.0000 </r>
       <r>   -26.0603     0.1682    72.0263 </r>
       <r>   -25.9038    10.8225    73.7206 </r>
       <r>   -25.7473    26.7874    77.9140 </r>
       <r>   -25.5907    47.4763    85.3463 </r>
       <r>   -25.4342   106.7688   102.0606 </r>
       <r>   -25.2776    49.7309   109.8458 </r>
       <r>   -25.1211    25.2063   113.7917 </r>
       <r>   -24.9645     1.3293   113.9998 </r>
       <r>   -24.8080     0.0012   114.0000 </r>
       <r>   -24.6514     0.0000   114.0000 </r>
       <r>   -24.4949     0.0000   114.0000 </r>
       <r>   -24.3383     0.0000   114.0000 </r>
       <r>   -24.1818     0.0004   114.0001 </r>
       <r>   -24.0252     0.5164   114.0809 </r>
       <r>   -23.8687    16.2365   116.6227 </r>
       <r>   -23.7121    54.6792   125.1825 </r>
       <r>   -23.5556    82.2492   138.0583 </r>
       <r>   -23.3991    62.5133   147.8446 </r>
       <r>   -23.2425    13.5049   149.9587 </r>
       <r>   -23.0860     0.8018   150.0842 </r>
       <r>   -22.9294    12.7540   152.0808 </r>
       <r>   -22.7729    33.1839   157.2756 </r>
       <r>   -22.6163    45.4959   164.3979 </r>
       <r>   -22.4598    22.3073   167.8900 </r>
       <r>   -22.3032    16.1553   170.4191 </r>
       <r>   -22.1467    68.7742   181.1854 </r>
       <r>   -21.9901    30.0928   185.8963 </r>
       <r>   -21.8336     9.0412   187.3117 </r>
       <r>   -21.6770    26.0435   191.3887 </r>
       <r>   -21.5205     3.8916   191.9979 </r>
       <r>   -21.3640     0.0133   192.0000 </r>
       <r>   -21.2074     0.0000   192.0000 </r>
       <r>   -21.0509     0.0000   192.0000 </r>
       <r>   -20.8943     0.0000   192.0000 </r>
       <r>   -20.7378     0.0000   192.0000 </r>
       <r>   -20.5812     0.0000   192.0000 </r>
       <r>   -20.4247     0.0000   192.0000 </r>
       <r>   -20.2681     0.0000   192.0000 </r>
       <r>   -20.1116     0.0000   192.0000 </r>
       <r>   -19.9550     0.0000   192.0000 </r>
       <r>   -19.7985     0.0000   192.0000 </r>
       <r>   -19.6419     0.0000   192.0000 </r>
       <r>   -19.4854     0.0000   192.0000 </r>
       <r>   -19.3288     0.0000   192.0000 </r>
       <r>   -19.1723     0.0000   192.0000 </r>
       <r>   -19.0158     0.0000   192.0000 </r>
       <r>   -18.8592     0.0000   192.0000 </r>
       <r>   -18.7027     0.0000   192.0000 </r>
       <r>   -18.5461     0.0000   192.0000 </r>
       <r>   -18.3896     0.0000   192.0000 </r>
       <r>   -18.2330     0.0000   192.0000 </r>
       <r>   -18.0765     0.0000   192.0000 </r>
       <r>   -17.9199     0.0000   192.0000 </r>
       <r>   -17.7634     0.0000   192.0000 </r>
       <r>   -17.6068     0.0000   192.0000 </r>
       <r>   -17.4503     0.0000   192.0000 </r>
       <r>   -17.2937     0.0000   192.0000 </r>
       <r>   -17.1372     0.0000   192.0000 </r>
       <r>   -16.9807     0.0000   192.0000 </r>
       <r>   -16.8241     0.0000   192.0000 </r>
       <r>   -16.6676     0.0000   192.0000 </r>
       <r>   -16.5110     0.0000   192.0000 </r>
       <r>   -16.3545     0.0000   192.0000 </r>
       <r>   -16.1979     0.0000   192.0000 </r>
       <r>   -16.0414     0.0000   192.0000 </r>
       <r>   -15.8848     0.0000   192.0000 </r>
       <r>   -15.7283     0.0000   192.0000 </r>
       <r>   -15.5717     0.0000   192.0000 </r>
       <r>   -15.4152     0.0000   192.0000 </r>
       <r>   -15.2586     0.0000   192.0000 </r>
       <r>   -15.1021     0.0000   192.0000 </r>
       <r>   -14.9455     0.0000   192.0000 </r>
       <r>   -14.7890     0.0000   192.0000 </r>
       <r>   -14.6325     0.0000   192.0000 </r>
       <r>   -14.4759     0.0000   192.0000 </r>
       <r>   -14.3194     0.0000   192.0000 </r>
       <r>   -14.1628     0.0000   192.0000 </r>
       <r>   -14.0063     0.0000   192.0000 </r>
       <r>   -13.8497     0.0000   192.0000 </r>
       <r>   -13.6932     0.0000   192.0000 </r>
       <r>   -13.5366     0.0000   192.0000 </r>
       <r>   -13.3801     0.0000   192.0000 </r>
       <r>   -13.2235     0.0000   192.0000 </r>
       <r>   -13.0670     0.0000   192.0000 </r>
       <r>   -12.9104     0.0000   192.0000 </r>
       <r>   -12.7539     0.0000   192.0000 </r>
       <r>   -12.5974     0.0000   192.0000 </r>
       <r>   -12.4408     0.0000   192.0000 </r>
       <r>   -12.2843     0.0000   192.0000 </r>
       <r>   -12.1277     0.0000   192.0000 </r>
       <r>   -11.9712     0.0000   192.0000 </r>
       <r>   -11.8146     0.0000   192.0000 </r>
       <r>   -11.6581     0.0000   192.0000 </r>
       <r>   -11.5015     0.0000   192.0000 </r>
       <r>   -11.3450     0.0000   192.0000 </r>
       <r>   -11.1884     0.0000   192.0000 </r>
       <r>   -11.0319     0.0000   192.0000 </r>
       <r>   -10.8753     0.0000   192.0000 </r>
       <r>   -10.7188     0.0000   192.0000 </r>
       <r>   -10.5622     0.0000   192.0000 </r>
       <r>   -10.4057     0.0000   192.0000 </r>
       <r>   -10.2492     0.0000   192.0000 </r>
       <r>   -10.0926     0.0000   192.0000 </r>
       <r>    -9.9361     0.0000   192.0000 </r>
       <r>    -9.7795     0.0000   192.0000 </r>
       <r>    -9.6230     0.0000   192.0000 </r>
       <r>    -9.4664     0.0000   192.0000 </r>
       <r>    -9.3099     0.0000   192.0000 </r>
       <r>    -9.1533     0.0000   192.0000 </r>
       <r>    -8.9968     0.0000   192.0000 </r>
       <r>    -8.8402     0.0000   192.0000 </r>
       <r>    -8.6837     0.0000   192.0000 </r>
       <r>    -8.5271     0.0189   192.0030 </r>
       <r>    -8.3706     1.0094   192.1610 </r>
       <r>    -8.2141     5.2310   192.9799 </r>
       <r>    -8.0575     5.7925   193.8867 </r>
       <r>    -7.9010     2.1562   194.2242 </r>
       <r>    -7.7444    10.2158   195.8234 </r>
       <r>    -7.5879    12.7018   197.8119 </r>
       <r>    -7.4313    11.4495   199.6042 </r>
       <r>    -7.2748     8.2444   200.8949 </r>
       <r>    -7.1182    11.7268   202.7307 </r>
       <r>    -6.9617    18.4478   205.6186 </r>
       <r>    -6.8051    15.4558   208.0382 </r>
       <r>    -6.6486    16.3146   210.5921 </r>
       <r>    -6.4920    26.3504   214.7172 </r>
       <r>    -6.3355    18.1033   217.5512 </r>
       <r>    -6.1789     2.8421   217.9961 </r>
       <r>    -6.0224     0.0246   218.0000 </r>
       <r>    -5.8659     0.0000   218.0000 </r>
       <r>    -5.7093     0.0000   218.0000 </r>
       <r>    -5.5528     0.0000   218.0000 </r>
       <r>    -5.3962     0.0000   218.0000 </r>
       <r>    -5.2397     0.0000   218.0000 </r>
       <r>    -5.0831     0.0000   218.0000 </r>
       <r>    -4.9266     0.0000   218.0000 </r>
       <r>    -4.7700     0.0001   218.0000 </r>
       <r>    -4.6135     0.0772   218.0121 </r>
       <r>    -4.4569     2.0646   218.3353 </r>
       <r>    -4.3004     6.8902   219.4139 </r>
       <r>    -4.1438     4.3787   220.0994 </r>
       <r>    -3.9873     7.1948   221.2257 </r>
       <r>    -3.8308     8.2054   222.5103 </r>
       <r>    -3.6742    13.3353   224.5978 </r>
       <r>    -3.5177    21.5618   227.9733 </r>
       <r>    -3.3611    22.4343   231.4853 </r>
       <r>    -3.2046    23.3735   235.1443 </r>
       <r>    -3.0480    24.8563   239.0355 </r>
       <r>    -2.8915    24.3166   242.8421 </r>
       <r>    -2.7349    19.6549   245.9190 </r>
       <r>    -2.5784    17.9541   248.7297 </r>
       <r>    -2.4218    17.7305   251.5053 </r>
       <r>    -2.2653    14.4619   253.7693 </r>
       <r>    -2.1087    10.8996   255.4756 </r>
       <r>    -1.9522     3.0046   255.9460 </r>
       <r>    -1.7956     0.3384   255.9989 </r>
       <r>    -1.6391     0.0068   256.0000 </r>
       <r>    -1.4826     0.0000   256.0000 </r>
       <r>    -1.3260     0.0000   256.0000 </r>
       <r>    -1.1695     0.0000   256.0000 </r>
       <r>    -1.0129     0.0000   256.0000 </r>
       <r>    -0.8564     0.0000   256.0000 </r>
       <r>    -0.6998     0.0000   256.0000 </r>
       <r>    -0.5433     0.0000   256.0000 </r>
       <r>    -0.3867     0.0000   256.0000 </r>
       <r>    -0.2302     0.0012   256.0002 </r>
       <r>    -0.0736     0.1948   256.0307 </r>
       <r>     0.0829     0.8301   256.1606 </r>
       <r>     0.2395     3.1146   256.6482 </r>
       <r>     0.3960     6.5386   257.6718 </r>
       <r>     0.5525     8.7917   259.0481 </r>
       <r>     0.7091     9.6600   260.5604 </r>
       <r>     0.8656    11.6990   262.3918 </r>
       <r>     1.0222    14.4010   264.6462 </r>
       <r>     1.1787    17.2014   267.3390 </r>
       <r>     1.3353    19.4226   270.3796 </r>
       <r>     1.4918    24.3609   274.1932 </r>
       <r>     1.6484    29.0060   278.7340 </r>
       <r>     1.8049    26.1813   282.8326 </r>
       <r>     1.9615    27.7088   287.1703 </r>
       <r>     2.1180    30.0587   291.8759 </r>
       <r>     2.2746    34.0270   297.2027 </r>
       <r>     2.4311    32.3992   302.2747 </r>
       <r>     2.5877    34.9621   307.7479 </r>
       <r>     2.7442    39.2151   313.8869 </r>
       <r>     2.9007    42.7925   320.5859 </r>
       <r>     3.0573    48.0791   328.1125 </r>
       <r>     3.2138    52.8766   336.3901 </r>
       <r>     3.3704    59.1216   345.6454 </r>
       <r>     3.5269    62.8033   355.4770 </r>
       <r>     3.6835    62.3135   365.2320 </r>
       <r>     3.8400    62.9310   375.0836 </r>
       <r>     3.9966    62.5997   384.8834 </r>
       <r>     4.1531    62.5919   394.6819 </r>
       <r>     4.3097    57.0892   403.6190 </r>
       <r>     4.4662    47.4244   411.0432 </r>
       <r>     4.6228    39.9521   417.2975 </r>
       <r>     4.7793    31.8623   422.2855 </r>
       <r>     4.9358    27.9436   426.6599 </r>
       <r>     5.0924    28.3167   431.0928 </r>
       <r>     5.2489    28.7508   435.5936 </r>
       <r>     5.4055    21.5741   438.9710 </r>
       <r>     5.5620    15.8391   441.4506 </r>
       <r>     5.7186    18.3970   444.3305 </r>
       <r>     5.8751    14.4200   446.5879 </r>
       <r>     6.0317     7.5245   447.7659 </r>
       <r>     6.1882    10.8810   449.4693 </r>
       <r>     6.3448    15.7880   451.9408 </r>
       <r>     6.5013    18.5840   454.8501 </r>
       <r>     6.6579    15.3369   457.2510 </r>
       <r>     6.8144    17.5698   460.0015 </r>
       <r>     6.9710    21.0970   463.3042 </r>
       <r>     7.1275    18.2635   466.1632 </r>
       <r>     7.2840    16.0233   468.6716 </r>
       <r>     7.4406    17.2775   471.3764 </r>
       <r>     7.5971    18.3368   474.2469 </r>
       <r>     7.7537    22.8197   477.8193 </r>
       <r>     7.9102    25.6227   481.8304 </r>
       <r>     8.0668    24.8640   485.7228 </r>
       <r>     8.2233    23.9215   489.4676 </r>
       <r>     8.3799    17.3966   492.1910 </r>
       <r>     8.5364    21.7335   495.5933 </r>
       <r>     8.6930    25.8592   499.6415 </r>
       <r>     8.8495    27.9056   504.0100 </r>
       <r>     9.0061    30.4305   508.7738 </r>
       <r>     9.1626    37.4498   514.6364 </r>
       <r>     9.3192    42.6630   521.3151 </r>
       <r>     9.4757    44.8782   528.3407 </r>
       <r>     9.6322    44.3207   535.2789 </r>
       <r>     9.7888    49.5694   543.0388 </r>
       <r>     9.9453    51.9968   551.1787 </r>
       <r>    10.1019    55.6243   559.8865 </r>
       <r>    10.2584    58.5273   569.0487 </r>
       <r>    10.4150    53.7169   577.4579 </r>
       <r>    10.5715    52.8785   585.7359 </r>
       <r>    10.7281    50.1925   593.5933 </r>
       <r>    10.8846    49.6050   601.3588 </r>
       <r>    11.0412    45.2109   608.4364 </r>
       <r>    11.1977    29.8797   613.1140 </r>
       <r>    11.3543    13.1908   615.1790 </r>
       <r>    11.5108     5.0216   615.9651 </r>
       <r>    11.6673     0.2229   616.0000 </r>
       <r>    11.8239     0.0002   616.0000 </r>
       <r>    11.9804     0.0000   616.0000 </r>
       <r>    12.1370     0.0000   616.0000 </r>
       <r>    12.2935     0.0000   616.0000 </r>
       <r>    12.4501     0.0000   616.0000 </r>
       <r>    12.6066     0.0000   616.0000 </r>
       <r>    12.7632     0.0000   616.0000 </r>
       <r>    12.9197     0.0000   616.0000 </r>
       <r>    13.0763     0.0000   616.0000 </r>
       <r>    13.2328     0.0000   616.0000 </r>
       <r>    13.3894     0.0000   616.0000 </r>
       <r>    13.5459     0.0000   616.0000 </r>
      </set>
     </set>
    </array>
   </total>
  </dos>
 </calculation>
 <structure name="finalpos" >
  <crystal>
   <varray name="basis" >
    <v>       8.85872724       0.02350429       0.03681730 </v>
    <v>       0.02364916       8.87481650      -0.00976547 </v>
    <v>       0.03682275      -0.00968099       8.85160366 </v>
   </varray>
   <i name="volume">    695.89154453 </i>
   <varray name="rec_basis" >
    <v>       0.11288579      -0.00030133      -0.00046994 </v>
    <v>      -0.00029948       0.11267932       0.00012448 </v>
    <v>      -0.00046987       0.00012557       0.11297597 </v>
   </varray>
  </crystal>
  <varray name="positions" >
   <v>       0.00680957       0.99123550       0.99840967 </v>
   <v>       0.24901380       0.99494907       0.25799401 </v>
   <v>       0.25054378       0.50754291       0.24733832 </v>
   <v>       0.49784558       0.48829744       0.99617739 </v>
   <v>       0.49077979       0.24515494       0.75227699 </v>
   <v>       0.00211667       0.49921858       0.50869157 </v>
   <v>       0.50139345       0.74851782       0.74504379 </v>
   <v>       0.99146943       0.23482410       0.26872373 </v>
   <v>       0.77057879       0.74481101       0.99322782 </v>
   <v>       0.02469678       0.24546825       0.74223975 </v>
   <v>       0.76397607       0.26621626       0.48599408 </v>
   <v>       0.99770037       0.73478055       0.76056686 </v>
   <v>       0.25629450       0.50636347       0.75406132 </v>
   <v>       0.24426132       0.24874088       0.99928554 </v>
   <v>       0.49935910       0.25308407       0.24671988 </v>
   <v>       0.75004817       0.99837059       0.25267079 </v>
   <v>       0.75694989       0.25219962       0.98759253 </v>
   <v>       0.26192040       0.75544598       0.00060874 </v>
   <v>       0.25153464       0.25275519       0.50165618 </v>
   <v>       0.24580704       0.74861663       0.50409281 </v>
   <v>       0.24946245       0.24697410       0.25160833 </v>
   <v>       0.25675271       0.00284824       0.00159588 </v>
   <v>       0.00037364       0.25339018       0.00735773 </v>
   <v>       0.74847399       0.24687072       0.24260729 </v>
   <v>       0.75833933       0.99960262       0.00320305 </v>
   <v>       0.49645453       0.99788421       0.23856222 </v>
   <v>       0.00485567       0.49415442       0.24574936 </v>
   <v>       0.50737533       0.75737180       0.00053279 </v>
   <v>       0.97646248       0.00665073       0.75817914 </v>
   <v>       0.74512705       0.23930400       0.74162452 </v>
   <v>       0.73878427       0.00341227       0.50786649 </v>
   <v>       0.50302208       0.24141369       0.49975387 </v>
   <v>       0.48611523       0.00094193       0.73834731 </v>
   <v>       0.00381609       0.99989429       0.24797483 </v>
   <v>       0.50172789       0.25415394       0.99429844 </v>
   <v>       0.25497737       0.75157559       0.25148436 </v>
   <v>       0.24942746       0.50303525       0.00483422 </v>
   <v>       0.00938823       0.75624342       0.00230602 </v>
   <v>       0.74649835       0.74829172       0.24392404 </v>
   <v>       0.75144063       0.50483555       0.99866502 </v>
   <v>       0.49758995       0.50393214       0.24625210 </v>
   <v>       0.25988323       0.25078487       0.75003144 </v>
   <v>       0.25202154       0.00000198       0.50077077 </v>
   <v>       0.99698997       0.25627601       0.50862773 </v>
   <v>       0.24953407       0.75784628       0.75250549 </v>
   <v>       0.24649798       0.50018145       0.49582423 </v>
   <v>       0.99559608       0.74693587       0.50643997 </v>
   <v>       0.00068299       0.49291629       0.75197008 </v>
   <v>       0.74350686       0.75242512       0.75043609 </v>
   <v>       0.75536597       0.49880333       0.49881362 </v>
   <v>       0.49692619       0.74866314       0.50712552 </v>
   <v>       0.49764476       0.50089102       0.75248116 </v>
   <v>       0.51233605       0.01561706       0.98301993 </v>
   <v>       0.00237252       0.51800687       0.99147458 </v>
   <v>       0.50263167       0.74392482       0.26447123 </v>
   <v>       0.22811708       0.00138969       0.74535305 </v>
   <v>       0.48945421       0.98373459       0.48920039 </v>
   <v>       0.72733319       0.98405350       0.76833484 </v>
   <v>       0.00059919       0.75804956       0.25048064 </v>
   <v>       0.74926683       0.50058104       0.24907383 </v>
   <v>       0.00443845       0.00411144       0.50544903 </v>
   <v>       0.49742056       0.50732461       0.50125114 </v>
   <v>       0.74169718       0.50914191       0.74993061 </v>
   <v>       0.75012023       0.73896654       0.49683651 </v>
  </varray>
 </structure>
</modeling>
