HECN                                    
           1
     8.866929    0.017434    0.044385
     0.017511    8.902196   -0.009215
     0.044301   -0.009179    8.878243
   Ti   Mo   Hf   N    C    W    Nb
     7     6     7    13    19     6     6
Direct configuration=     1
   0.00152165  0.98777168  0.00383892
   0.24642120  0.99481321  0.25631984
   0.25102833  0.50739347  0.24722062
   0.49759042  0.48743541  0.99680044
   0.48938850  0.24609282  0.75234136
   0.00073711  0.49895630  0.50255978
   0.50180704  0.74843719  0.74079457
   0.99064089  0.23515148  0.26983347
   0.76904889  0.74480417  0.99191731
   0.02444176  0.26069992  0.74492673
   0.76229626  0.26670452  0.48571431
   0.99536143  0.73384084  0.76052995
   0.25700610  0.50630205  0.75364779
   0.24361785  0.24834066  0.99947299
   0.49805028  0.25224979  0.24745366
   0.74866261  0.99754052  0.25384822
   0.75660039  0.25296487  0.98816294
   0.26281532  0.75465743  0.00053503
   0.24976170  0.25318758  0.50250024
   0.24476139  0.74829281  0.50343454
   0.24860518  0.24585469  0.25208441
   0.25565905  0.00212050  0.00032400
   0.99997436  0.25410373  0.00876306
   0.74761265  0.24614766  0.24296598
   0.75771305  0.99982160  0.00567796
   0.49584293  0.99758923  0.24234661
   0.00420549  0.49355006  0.24567665
   0.50734558  0.75873116  0.99986695
   0.98994701  0.01553736  0.75820953
   0.74699307  0.24262849  0.74298545
   0.73861509  0.00304530  0.50506985
   0.50192247  0.24154408  0.49984522
   0.50552482  0.00121121  0.73563066
   0.00205304  0.99955397  0.24704328
   0.50119658  0.25328609  0.99488330
   0.25442281  0.75113842  0.25097416
   0.24944677  0.50220459  0.00462107
   0.00896999  0.75459195  0.00180266
   0.74549048  0.74734436  0.24394815
   0.75163444  0.50515760  0.99771711
   0.49673125  0.50319077  0.24542437
   0.25971930  0.24823717  0.75074397
   0.24690071  0.00017536  0.49913940
   0.99514394  0.25721198  0.51054213
   0.25098588  0.75474169  0.75224383
   0.24596219  0.50016647  0.49527703
   0.99488305  0.74781396  0.50591603
   0.00087851  0.49961525  0.75027850
   0.74376259  0.74986324  0.74916588
   0.75495591  0.49937648  0.49820877
   0.49651464  0.74976887  0.50467288
   0.49773277  0.50034303  0.75219556
   0.51207968  0.01522456  0.98211090
   0.00283400  0.51699802  0.99467982
   0.50138052  0.74160906  0.26429476
   0.23339492  0.99526273  0.74604918
   0.48088148  0.98724396  0.50148706
   0.74001190  0.98113112  0.77040101
   0.99999672  0.75680174  0.25017972
   0.74781680  0.49984020  0.24955985
   0.00510389  0.00439170  0.50108559
   0.49776349  0.50652955  0.49965044
   0.73925275  0.50580059  0.74791290
   0.75057978  0.73786438  0.49649231
HECN                                    
           1
     8.810058    0.017986    0.043762
     0.018064    8.846822   -0.009404
     0.043682   -0.009366    8.820582
   Ti   Mo   Hf   N    C    W    Nb
     7     6     7    13    19     6     6
Direct configuration=     2
   0.00166219  0.98792279  0.00375007
   0.24642680  0.99479423  0.25627294
   0.25113869  0.50741969  0.24713450
   0.49754597  0.48733756  0.99675301
   0.48940545  0.24614548  0.75231187
   0.00080925  0.49881959  0.50269805
   0.50169993  0.74846450  0.74081798
   0.99062902  0.23513855  0.26979245
   0.76928321  0.74476230  0.99195180
   0.02452676  0.26031063  0.74483425
   0.76232473  0.26686421  0.48559709
   0.99545688  0.73372610  0.76051018
   0.25686237  0.50626956  0.75369981
   0.24374481  0.24825977  0.99946325
   0.49814327  0.25225648  0.24736612
   0.74877638  0.99766694  0.25353529
   0.75659650  0.25282133  0.98807504
   0.26265235  0.75461303  0.00038804
   0.24986910  0.25314621  0.50252966
   0.24479397  0.74830535  0.50338285
   0.24861586  0.24601456  0.25205475
   0.25560068  0.00206665  0.00041347
   0.00000619  0.25405823  0.00869748
   0.74764281  0.24628917  0.24287615
   0.75775734  0.99967379  0.00559758
   0.49599215  0.99748553  0.24233279
   0.00427989  0.49364582  0.24568842
   0.50749305  0.75861702  0.00002538
   0.98983136  0.01524457  0.75837990
   0.74697657  0.24256822  0.74281051
   0.73856846  0.00304426  0.50525358
   0.50186211  0.24162296  0.49990104
   0.50444628  0.00121250  0.73622896
   0.00218589  0.99951088  0.24723438
   0.50130821  0.25338223  0.99483014
   0.25445393  0.75115722  0.25093732
   0.24940240  0.50223880  0.00467889
   0.00895876  0.75474374  0.00171172
   0.74553569  0.74745131  0.24396740
   0.75159323  0.50503646  0.99775504
   0.49672918  0.50317131  0.24537080
   0.25967431  0.24825867  0.75073121
   0.24701473  0.00019481  0.49886959
   0.99503967  0.25707968  0.51049157
   0.25087096  0.75474386  0.75210481
   0.24596434  0.50012875  0.49542275
   0.99490173  0.74774361  0.50597661
   0.00093139  0.49945243  0.75037274
   0.74370199  0.74998718  0.74925191
   0.75498294  0.49942880  0.49826076
   0.49657611  0.74970706  0.50486792
   0.49770131  0.50037882  0.75230393
   0.51185639  0.01548435  0.98226327
   0.00279847  0.51713332  0.99470371
   0.50139958  0.74178298  0.26442181
   0.23341763  0.99534706  0.74581054
   0.48102996  0.98721490  0.50104240
   0.73989805  0.98130793  0.77023896
   0.99994987  0.75683904  0.25016643
   0.74776457  0.49987873  0.24957867
   0.00520949  0.00442951  0.50115514
   0.49773932  0.50647142  0.49971957
   0.73933456  0.50599810  0.74809138
   0.75065560  0.73773014  0.49654503
HECN                                    
           1
     8.847766    0.017620    0.044175
     0.017697    8.883537   -0.009279
     0.044093   -0.009242    8.858814
   Ti   Mo   Hf   N    C    W    Nb
     7     6     7    13    19     6     6
Direct configuration=     3
   0.00156842  0.98782198  0.00380936
   0.24642306  0.99480689  0.25630424
   0.25106505  0.50740221  0.24719197
   0.49757563  0.48740284  0.99678467
   0.48939414  0.24611035  0.75233155
   0.00076110  0.49891080  0.50260577
   0.50177141  0.74844628  0.74080236
   0.99063694  0.23514717  0.26981982
   0.76912684  0.74479025  0.99192878
   0.02447002  0.26057037  0.74489598
   0.76230574  0.26675767  0.48567532
   0.99539318  0.73380266  0.76052337
   0.25695828  0.50629122  0.75366510
   0.24366008  0.24831374  0.99946975
   0.49808122  0.25225202  0.24742454
   0.74870047  0.99758261  0.25374412
   0.75659909  0.25291710  0.98813371
   0.26276111  0.75464265  0.00048614
   0.24979743  0.25317382  0.50251003
   0.24477223  0.74829699  0.50341735
   0.24860874  0.24590790  0.25207454
   0.25563963  0.00210257  0.00035376
   0.99998495  0.25408859  0.00874125
   0.74762270  0.24619476  0.24293610
   0.75772778  0.99977241  0.00565123
   0.49589256  0.99755472  0.24234201
   0.00423025  0.49358193  0.24568056
   0.50739463  0.75869318  0.99991964
   0.98990852  0.01543991  0.75826621
   0.74698758  0.24260844  0.74292726
   0.73859957  0.00304495  0.50513097
   0.50190239  0.24157033  0.49986379
   0.50516600  0.00121157  0.73582970
   0.00209723  0.99953963  0.24710684
   0.50123372  0.25331809  0.99486561
   0.25443317  0.75114468  0.25096190
   0.24943201  0.50221597  0.00464030
   0.00896626  0.75464247  0.00177241
   0.74550553  0.74737995  0.24395455
   0.75162073  0.50511728  0.99772973
   0.49673056  0.50318430  0.24540655
   0.25970433  0.24824432  0.75073973
   0.24693865  0.00018185  0.49904965
   0.99510925  0.25716795  0.51052532
   0.25094765  0.75474241  0.75219759
   0.24596290  0.50015392  0.49532550
   0.99488926  0.74779055  0.50593618
   0.00089609  0.49956106  0.75030985
   0.74374243  0.74990448  0.74919450
   0.75496490  0.49939389  0.49822606
   0.49653508  0.74974830  0.50473775
   0.49772230  0.50035494  0.75223161
   0.51200541  0.01531100  0.98216158
   0.00282218  0.51704305  0.99468777
   0.50138686  0.74166694  0.26433702
   0.23340249  0.99529080  0.74596980
   0.48093089  0.98723431  0.50133915
   0.73997404  0.98118996  0.77034711
   0.99998113  0.75681415  0.25017530
   0.74779943  0.49985302  0.24956611
   0.00513902  0.00440429  0.50110872
   0.49775545  0.50651020  0.49967343
   0.73927997  0.50586632  0.74797226
   0.75060500  0.73781971  0.49650984
HECN                                    
           1
     8.847126    0.017865    0.044080
     0.017943    8.883225   -0.009399
     0.044004   -0.009362    8.856946
   Ti   Mo   Hf   N    C    W    Nb
     7     6     7    13    19     6     6
Direct configuration=     4
   0.00174639  0.98810843  0.00371960
   0.24647710  0.99485054  0.25618006
   0.25112487  0.50732809  0.24715094
   0.49756441  0.48747947  0.99676672
   0.48952262  0.24618761  0.75224635
   0.00083743  0.49883029  0.50266369
   0.50164108  0.74849559  0.74095869
   0.99075748  0.23529492  0.26958331
   0.76910378  0.74484924  0.99207546
   0.02430086  0.26017261  0.74497766
   0.76208381  0.26670241  0.48569277
   0.99552565  0.73397154  0.76035210
   0.25678421  0.50620709  0.75367507
   0.24380817  0.24825835  0.99953604
   0.49814496  0.25222346  0.24736351
   0.74878023  0.99770374  0.25350324
   0.75657341  0.25277282  0.98810955
   0.26263827  0.75460451  0.00040015
   0.24990785  0.25312569  0.50245453
   0.24479113  0.74830526  0.50334340
   0.24854109  0.24606869  0.25203880
   0.25557220  0.00206013  0.00048154
   0.00001064  0.25401872  0.00870680
   0.74765597  0.24634099  0.24280297
   0.75782092  0.99961934  0.00566810
   0.49593519  0.99743780  0.24231414
   0.00432798  0.49363190  0.24575760
   0.50762236  0.75853024  0.00003706
   0.98968568  0.01510678  0.75843126
   0.74698112  0.24252876  0.74265110
   0.73856814  0.00308272  0.50537890
   0.50194879  0.24164563  0.49999550
   0.50406024  0.00119590  0.73635041
   0.00225198  0.99950522  0.24720350
   0.50129911  0.25349745  0.99479131
   0.25442961  0.75116102  0.25092808
   0.24946928  0.50222770  0.00471561
   0.00906115  0.75487278  0.00174435
   0.74558102  0.74747727  0.24393289
   0.75150317  0.50499482  0.99779083
   0.49667829  0.50312520  0.24531143
   0.25976489  0.24829162  0.75073218
   0.24698949  0.00020654  0.49876552
   0.99511671  0.25708960  0.51049350
   0.25087128  0.75468222  0.75208654
   0.24591998  0.50012984  0.49541748
   0.99493242  0.74770581  0.50600869
   0.00091313  0.49933848  0.75028531
   0.74365568  0.74993936  0.74922286
   0.75502709  0.49943207  0.49829244
   0.49659323  0.74965870  0.50498437
   0.49768167  0.50036336  0.75235356
   0.51173300  0.01536771  0.98246244
   0.00280047  0.51692006  0.99482662
   0.50137306  0.74194977  0.26423646
   0.23359388  0.99544450  0.74584738
   0.48126789  0.98734816  0.50082974
   0.73999000  0.98153664  0.76996041
   0.99998370  0.75670454  0.25020097
   0.74780969  0.49981907  0.24951475
   0.00504250  0.00437204  0.50123739
   0.49774701  0.50629402  0.49975702
   0.73944802  0.50588192  0.74811679
   0.75062831  0.73792390  0.49658323
HECN                                    
           1
     8.846447    0.018125    0.043979
     0.018204    8.882892   -0.009526
     0.043909   -0.009489    8.854961
   Ti   Mo   Hf   N    C    W    Nb
     7     6     7    13    19     6     6
Direct configuration=     5
   0.00193554  0.98841289  0.00362419
   0.24653454  0.99489692  0.25604806
   0.25118845  0.50724932  0.24710732
   0.49755248  0.48756092  0.99674765
   0.48965917  0.24626972  0.75215577
   0.00091856  0.49874471  0.50272526
   0.50150255  0.74854800  0.74112487
   0.99088559  0.23545194  0.26933188
   0.76907926  0.74491195  0.99223139
   0.02412108  0.25974985  0.74506448
   0.76184792  0.26664368  0.48571131
   0.99566645  0.73415104  0.76017004
   0.25659919  0.50611768  0.75368567
   0.24396558  0.24819947  0.99960650
   0.49821270  0.25219310  0.24729864
   0.74886499  0.99783248  0.25324717
   0.75654612  0.25261946  0.98808387
   0.26250770  0.75456398  0.00030873
   0.25002521  0.25307453  0.50239553
   0.24481122  0.74831404  0.50326478
   0.24846918  0.24623959  0.25200080
   0.25550053  0.00201503  0.00061738
   0.00003795  0.25394446  0.00867019
   0.74769133  0.24649641  0.24266146
   0.75791993  0.99945665  0.00568603
   0.49598050  0.99731352  0.24228451
   0.00443185  0.49368500  0.24583950
   0.50786442  0.75835705  0.00016188
   0.98944883  0.01475272  0.75860672
   0.74697425  0.24244408  0.74235753
   0.73853473  0.00312287  0.50564247
   0.50199810  0.24172566  0.50013551
   0.50288493  0.00117929  0.73690395
   0.00241646  0.99946863  0.24730625
   0.50136861  0.25368809  0.99471232
   0.25442583  0.75117839  0.25089212
   0.24950890  0.50224017  0.00479567
   0.00916199  0.75511758  0.00171453
   0.74566126  0.74758070  0.24390987
   0.75137822  0.50486466  0.99785578
   0.49662273  0.50306239  0.24521031
   0.25982924  0.24834189  0.75072416
   0.24704352  0.00023277  0.49846348
   0.99512464  0.25700632  0.51045968
   0.25079011  0.75461826  0.75196849
   0.24587435  0.50010426  0.49551525
   0.99497829  0.74761574  0.50608577
   0.00093125  0.49910191  0.75025922
   0.74356346  0.74997642  0.74925301
   0.75509319  0.49947264  0.49836301
   0.49665504  0.74956348  0.50524654
   0.49763848  0.50037232  0.75248320
   0.51144346  0.01542799  0.98278226
   0.00277740  0.51678935  0.99497422
   0.50135839  0.74225038  0.26412956
   0.23379730  0.99560784  0.74571724
   0.48162608  0.98746916  0.50028822
   0.74000695  0.98190511  0.76954933
   0.99998643  0.75658804  0.25022825
   0.74782059  0.49978299  0.24946016
   0.00493990  0.00433777  0.50137417
   0.49773804  0.50606426  0.49984587
   0.73962665  0.50589849  0.74827042
   0.75065308  0.73803465  0.49666125
HECN                                    
           1
     8.846120    0.018250    0.043930
     0.018330    8.882733   -0.009588
     0.043864   -0.009551    8.854006
   Ti   Mo   Hf   N    C    W    Nb
     7     6     7    13    19     6     6
Direct configuration=     6
   0.00202659  0.98855943  0.00357826
   0.24656219  0.99491925  0.25598451
   0.25121906  0.50721140  0.24708632
   0.49754673  0.48760012  0.99673846
   0.48972490  0.24630924  0.75211216
   0.00095762  0.49870351  0.50275490
   0.50143587  0.74857324  0.74120488
   0.99094726  0.23552752  0.26921084
   0.76906746  0.74494214  0.99230646
   0.02403454  0.25954636  0.74510628
   0.76173437  0.26661542  0.48572024
   0.99573422  0.73423743  0.76008239
   0.25651012  0.50607464  0.75369077
   0.24404136  0.24817113  0.99964043
   0.49824531  0.25217849  0.24726740
   0.74890579  0.99789445  0.25312389
   0.75653298  0.25254565  0.98807150
   0.26244485  0.75454447  0.00026472
   0.25008171  0.25304990  0.50236713
   0.24482089  0.74831827  0.50322694
   0.24843456  0.24632185  0.25198250
   0.25546604  0.00199332  0.00068277
   0.00005109  0.25390872  0.00865256
   0.74770835  0.24657122  0.24259333
   0.75796759  0.99937834  0.00569466
   0.49600231  0.99725369  0.24227024
   0.00448186  0.49371056  0.24587893
   0.50798094  0.75827369  0.00022197
   0.98933483  0.01458230  0.75869118
   0.74697095  0.24240331  0.74221619
   0.73851864  0.00314219  0.50576936
   0.50202184  0.24176419  0.50020292
   0.50231918  0.00117131  0.73717043
   0.00249563  0.99945102  0.24735572
   0.50140206  0.25377984  0.99467430
   0.25442400  0.75118675  0.25087481
   0.24952797  0.50224617  0.00483421
   0.00921053  0.75523541  0.00170018
   0.74569989  0.74763048  0.24389879
   0.75131807  0.50480201  0.99788705
   0.49659598  0.50303216  0.24516162
   0.25986022  0.24836609  0.75072030
   0.24706953  0.00024540  0.49831807
   0.99512846  0.25696623  0.51044340
   0.25075104  0.75458747  0.75191166
   0.24585239  0.50009195  0.49556232
   0.99500037  0.74757239  0.50612288
   0.00093998  0.49898804  0.75024665
   0.74351908  0.74999427  0.74926752
   0.75512500  0.49949217  0.49839699
   0.49668480  0.74951764  0.50537276
   0.49761769  0.50037663  0.75254562
   0.51130408  0.01545702  0.98293624
   0.00276629  0.51672643  0.99504528
   0.50135132  0.74239507  0.26407810
   0.23389522  0.99568646  0.74565459
   0.48179850  0.98752739  0.50002752
   0.74001510  0.98208246  0.76935143
   0.99998774  0.75653197  0.25024139
   0.74782584  0.49976562  0.24943387
   0.00489052  0.00432128  0.50144003
   0.49773373  0.50595367  0.49988865
   0.73971263  0.50590646  0.74834439
   0.75066500  0.73808795  0.49669881
HECN                                    
           1
     8.846753    0.018376    0.043705
     0.018460    8.880784   -0.009242
     0.043633   -0.009201    8.855356
   Ti   Mo   Hf   N    C    W    Nb
     7     6     7    13    19     6     6
Direct configuration=     7
   0.00234707  0.98880006  0.00350718
   0.24663503  0.99490065  0.25590570
   0.25133180  0.50720829  0.24710220
   0.49758393  0.48768866  0.99673279
   0.48976266  0.24637199  0.75217058
   0.00099221  0.49855501  0.50289689
   0.50135765  0.74861123  0.74141442
   0.99093678  0.23553341  0.26924244
   0.76925335  0.74487131  0.99227876
   0.02424380  0.25909122  0.74497891
   0.76176289  0.26676219  0.48563044
   0.99576196  0.73416576  0.76010063
   0.25636557  0.50592167  0.75371821
   0.24416740  0.24820056  0.99956938
   0.49834189  0.25219677  0.24711020
   0.74915474  0.99798887  0.25296090
   0.75641496  0.25235258  0.98806087
   0.26238211  0.75451604  0.00025088
   0.24994784  0.25291779  0.50237954
   0.24503175  0.74841061  0.50314804
   0.24850247  0.24649480  0.25191439
   0.25545956  0.00199623  0.00081134
   0.00009775  0.25384595  0.00861094
   0.74771175  0.24667071  0.24242895
   0.75794072  0.99934256  0.00548079
   0.49603671  0.99722609  0.24221401
   0.00454336  0.49374728  0.24596343
   0.50801019  0.75815646  0.00034127
   0.98889685  0.01411132  0.75881882
   0.74689482  0.24223670  0.74203616
   0.73848279  0.00321246  0.50604181
   0.50209556  0.24181188  0.50030991
   0.50100939  0.00108613  0.73765862
   0.00256359  0.99947430  0.24746112
   0.50141675  0.25387840  0.99460801
   0.25445336  0.75117915  0.25079356
   0.24949922  0.50220297  0.00484820
   0.00913053  0.75524198  0.00159235
   0.74574833  0.74770373  0.24402155
   0.75128330  0.50473265  0.99797824
   0.49664996  0.50313811  0.24522938
   0.25980026  0.24842156  0.75072890
   0.24726606  0.00021176  0.49820609
   0.99505875  0.25681150  0.51027176
   0.25064476  0.75457843  0.75183234
   0.24586476  0.50004208  0.49560368
   0.99506589  0.74750277  0.50613803
   0.00091363  0.49883063  0.75036019
   0.74344432  0.75022125  0.74944784
   0.75514739  0.49953810  0.49841545
   0.49673111  0.74945625  0.50539231
   0.49765531  0.50041868  0.75253432
   0.51142177  0.01561672  0.98325060
   0.00268740  0.51704136  0.99497003
   0.50139699  0.74246169  0.26424678
   0.23411887  0.99592552  0.74529741
   0.48198289  0.98731430  0.49945244
   0.73952756  0.98206576  0.76919630
   0.00002746  0.75656830  0.25012287
   0.74774570  0.49983000  0.24939883
   0.00497957  0.00439483  0.50155235
   0.49784057  0.50597371  0.50003539
   0.73987874  0.50614433  0.74844728
   0.75059854  0.73807660  0.49677767
HECN                                    
           1
     8.847210    0.018466    0.043542
     0.018553    8.879378   -0.008992
     0.043467   -0.008949    8.856330
   Ti   Mo   Hf   N    C    W    Nb
     7     6     7    13    19     6     6
Direct configuration=     8
   0.00257831  0.98897373  0.00345590
   0.24668759  0.99488722  0.25584884
   0.25141315  0.50720604  0.24711366
   0.49761078  0.48775257  0.99672869
   0.48978991  0.24641728  0.75221273
   0.00101718  0.49844782  0.50299934
   0.50130121  0.74863865  0.74156560
   0.99092922  0.23553765  0.26926525
   0.76938747  0.74482019  0.99225878
   0.02439479  0.25876272  0.74488703
   0.76178347  0.26686812  0.48556566
   0.99578198  0.73411403  0.76011379
   0.25626126  0.50581126  0.75373801
   0.24425835  0.24822180  0.99951812
   0.49841158  0.25220997  0.24699679
   0.74933437  0.99805703  0.25284330
   0.75632980  0.25221323  0.98805321
   0.26233684  0.75449553  0.00024089
   0.24985125  0.25282244  0.50238849
   0.24518389  0.74847727  0.50309112
   0.24855148  0.24661964  0.25186525
   0.25545489  0.00199832  0.00090410
   0.00013142  0.25380065  0.00858091
   0.74771419  0.24674252  0.24231035
   0.75792133  0.99931674  0.00532649
   0.49606154  0.99720616  0.24217344
   0.00458773  0.49377378  0.24602440
   0.50803131  0.75807185  0.00042735
   0.98858084  0.01377139  0.75891092
   0.74683990  0.24211645  0.74190626
   0.73845692  0.00326317  0.50623838
   0.50214875  0.24184630  0.50038710
   0.50006434  0.00102464  0.73801082
   0.00261263  0.99949111  0.24753717
   0.50142735  0.25394953  0.99456018
   0.25447454  0.75117368  0.25073494
   0.24947848  0.50217178  0.00485830
   0.00907280  0.75524672  0.00151455
   0.74578328  0.74775660  0.24411012
   0.75125821  0.50468259  0.99804404
   0.49668891  0.50321457  0.24527826
   0.25975699  0.24846160  0.75073509
   0.24740786  0.00018747  0.49812531
   0.99500846  0.25669982  0.51014793
   0.25056807  0.75457192  0.75177510
   0.24587368  0.50000608  0.49563352
   0.99511317  0.74745252  0.50614897
   0.00089463  0.49871701  0.75044211
   0.74339037  0.75038508  0.74957793
   0.75516354  0.49957124  0.49842876
   0.49676452  0.74941195  0.50540642
   0.49768245  0.50044903  0.75252617
   0.51150669  0.01573198  0.98347740
   0.00263047  0.51726867  0.99491573
   0.50142994  0.74250976  0.26436847
   0.23428023  0.99609807  0.74503970
   0.48211593  0.98716051  0.49903754
   0.73917577  0.98205371  0.76908437
   0.00005611  0.75659453  0.25003735
   0.74768787  0.49987647  0.24937354
   0.00504382  0.00444792  0.50163339
   0.49791766  0.50598818  0.50014127
   0.73999860  0.50631601  0.74852151
   0.75055058  0.73806840  0.49683457
HECN                                    
           1
     8.848123    0.018647    0.043215
     0.018740    8.876566   -0.008493
     0.043134   -0.008445    8.858277
   Ti   Mo   Hf   N    C    W    Nb
     7     6     7    13    19     6     6
Direct configuration=     9
   0.00304075  0.98932113  0.00335335
   0.24679270  0.99486037  0.25573514
   0.25157585  0.50720153  0.24713657
   0.49766446  0.48788040  0.99672049
   0.48984441  0.24650787  0.75229701
   0.00106712  0.49823339  0.50320422
   0.50118835  0.74869348  0.74186793
   0.99091411  0.23554614  0.26931085
   0.76965571  0.74471793  0.99221883
   0.02469676  0.25810561  0.74470332
   0.76182461  0.26708003  0.48543609
   0.99582201  0.73401056  0.76014012
   0.25605267  0.50559042  0.75377761
   0.24444022  0.24826429  0.99941561
   0.49855095  0.25223638  0.24676998
   0.74969360  0.99819336  0.25260814
   0.75615950  0.25193450  0.98803788
   0.26224630  0.75445449  0.00022091
   0.24965809  0.25263171  0.50240640
   0.24548816  0.74861059  0.50297730
   0.24864947  0.24686934  0.25176696
   0.25544555  0.00200251  0.00108959
   0.00019875  0.25371003  0.00852086
   0.74771908  0.24688617  0.24207318
   0.75788254  0.99926511  0.00501792
   0.49611118  0.99716631  0.24209231
   0.00467649  0.49382677  0.24614632
   0.50807354  0.75790260  0.00059950
   0.98794885  0.01309143  0.75909510
   0.74673004  0.24187592  0.74164652
   0.73840520  0.00336460  0.50663147
   0.50225514  0.24191515  0.50054146
   0.49817434  0.00090166  0.73871511
   0.00271071  0.99952471  0.24768924
   0.50144854  0.25409182  0.99446453
   0.25451689  0.75116272  0.25061772
   0.24943700  0.50210940  0.00487849
   0.00895735  0.75525622  0.00135896
   0.74585319  0.74786234  0.24428724
   0.75120804  0.50458245  0.99817562
   0.49676681  0.50336753  0.24537600
   0.25967046  0.24854169  0.75074748
   0.24769145  0.00013890  0.49796376
   0.99490786  0.25647644  0.50990031
   0.25041469  0.75455889  0.75166065
   0.24589153  0.49993408  0.49569319
   0.99520772  0.74735199  0.50617084
   0.00085663  0.49848973  0.75060593
   0.74328250  0.75071277  0.74983807
   0.75519585  0.49963754  0.49845538
   0.49683135  0.74932332  0.50543465
   0.49773673  0.50050974  0.75250987
   0.51167653  0.01596251  0.98393095
   0.00251661  0.51772336  0.99480712
   0.50149585  0.74260592  0.26461184
   0.23460292  0.99644324  0.74452434
   0.48238198  0.98685291  0.49820783
   0.73847223  0.98202963  0.76886051
   0.00011340  0.75664699  0.24986634
   0.74757222  0.49996943  0.24932297
   0.00517233  0.00455409  0.50179545
   0.49807183  0.50601710  0.50035300
   0.74023829  0.50665942  0.74866996
   0.75045468  0.73805200  0.49694834
HECN                                    
           1
     8.847635    0.018550    0.043390
     0.018640    8.878069   -0.008760
     0.043312   -0.008714    8.857236
   Ti   Mo   Hf   N    C    W    Nb
     7     6     7    13    19     6     6
Direct configuration=    10
   0.00279358  0.98913536  0.00340816
   0.24673652  0.99487473  0.25579591
   0.25148888  0.50720394  0.24712432
   0.49763576  0.48781205  0.99672488
   0.48981528  0.24645943  0.75225197
   0.00104042  0.49834806  0.50309471
   0.50124867  0.74866417  0.74170636
   0.99092219  0.23554160  0.26928648
   0.76951233  0.74477262  0.99224017
   0.02453535  0.25845699  0.74480148
   0.76180263  0.26696671  0.48550534
   0.99580061  0.73406589  0.76012605
   0.25616416  0.50570851  0.75375645
   0.24434301  0.24824157  0.99947039
   0.49847646  0.25222225  0.24689119
   0.74950160  0.99812046  0.25273382
   0.75625052  0.25208354  0.98804607
   0.26229470  0.75447643  0.00023159
   0.24976134  0.25273370  0.50239682
   0.24532553  0.74853930  0.50303813
   0.24859710  0.24673581  0.25181949
   0.25545054  0.00200028  0.00099046
   0.00016276  0.25375848  0.00855295
   0.74771647  0.24680935  0.24219994
   0.75790328  0.99929271  0.00518284
   0.49608465  0.99718762  0.24213567
   0.00462905  0.49379844  0.24608116
   0.50805096  0.75799311  0.00050749
   0.98828664  0.01345503  0.75899666
   0.74678876  0.24200453  0.74178533
   0.73843284  0.00331037  0.50642139
   0.50219827  0.24187834  0.50045896
   0.49918454  0.00096743  0.73833874
   0.00265828  0.99950675  0.24760796
   0.50143721  0.25401573  0.99451565
   0.25449425  0.75116857  0.25068037
   0.24945917  0.50214276  0.00486770
   0.00901906  0.75525113  0.00144212
   0.74581582  0.74780580  0.24419258
   0.75123485  0.50463600  0.99810529
   0.49672517  0.50328574  0.24532377
   0.25971671  0.24849886  0.75074087
   0.24753987  0.00016487  0.49805009
   0.99496163  0.25659588  0.51003264
   0.25049668  0.75456585  0.75172182
   0.24588199  0.49997258  0.49566129
   0.99515718  0.74740575  0.50615915
   0.00087693  0.49861127  0.75051837
   0.74334016  0.75053755  0.74969905
   0.75517858  0.49960209  0.49844116
   0.49679563  0.74937071  0.50541956
   0.49770772  0.50047727  0.75251858
   0.51158574  0.01583925  0.98368855
   0.00257748  0.51748022  0.99486518
   0.50146061  0.74255451  0.26448177
   0.23443046  0.99625866  0.74479978
   0.48223979  0.98701737  0.49865125
   0.73884828  0.98204249  0.76898016
   0.00008278  0.75661893  0.24995774
   0.74763404  0.49991972  0.24935001
   0.00510364  0.00449732  0.50170884
   0.49798942  0.50600164  0.50023984
   0.74011017  0.50647580  0.74859063
   0.75050594  0.73806078  0.49688754
HECN                                    
           1
     8.848081    0.018607    0.043481
     0.018692    8.880613   -0.008600
     0.043414   -0.008559    8.855318
   Ti   Mo   Hf   N    C    W    Nb
     7     6     7    13    19     6     6
Direct configuration=    11
   0.00312948  0.98932631  0.00329284
   0.24680487  0.99486052  0.25583405
   0.25155857  0.50720056  0.24718235
   0.49770899  0.48793552  0.99664469
   0.48976489  0.24644569  0.75234506
   0.00109416  0.49834901  0.50326934
   0.50119406  0.74863568  0.74184371
   0.99087065  0.23558904  0.26925183
   0.76961584  0.74467139  0.99228808
   0.02456136  0.25786585  0.74454229
   0.76185380  0.26701781  0.48537780
   0.99589272  0.73413221  0.76010240
   0.25614844  0.50558622  0.75374936
   0.24427459  0.24829864  0.99945754
   0.49847642  0.25230160  0.24689180
   0.74968202  0.99813620  0.25277584
   0.75628045  0.25207548  0.98787573
   0.26232150  0.75450038  0.00020745
   0.24984677  0.25273845  0.50228893
   0.24533325  0.74841183  0.50299944
   0.24871626  0.24683487  0.25178657
   0.25549951  0.00203810  0.00102505
   0.00020130  0.25367360  0.00846374
   0.74776722  0.24683669  0.24212816
   0.75793964  0.99925140  0.00498197
   0.49615238  0.99723335  0.24212962
   0.00462669  0.49383048  0.24611875
   0.50790530  0.75793723  0.00056660
   0.98769486  0.01297902  0.75900227
   0.74664269  0.24184994  0.74177755
   0.73837303  0.00336892  0.50655235
   0.50222414  0.24185748  0.50045201
   0.49794450  0.00084245  0.73862413
   0.00273142  0.99956327  0.24765567
   0.50142898  0.25413197  0.99452810
   0.25453976  0.75116708  0.25062771
   0.24939719  0.50219129  0.00485707
   0.00907041  0.75544240  0.00143638
   0.74583688  0.74787397  0.24429791
   0.75129103  0.50464542  0.99815784
   0.49681371  0.50337858  0.24549515
   0.25979528  0.24859796  0.75068256
   0.24772332  0.00012201  0.49796895
   0.99493998  0.25653443  0.51000263
   0.25033823  0.75461228  0.75172898
   0.24597021  0.49993086  0.49565922
   0.99522547  0.74737139  0.50610781
   0.00083983  0.49824298  0.75067741
   0.74325209  0.75061409  0.74981631
   0.75518757  0.49961900  0.49844203
   0.49686705  0.74927893  0.50555969
   0.49774889  0.50052759  0.75246299
   0.51186546  0.01581453  0.98383319
   0.00251031  0.51751014  0.99469513
   0.50158166  0.74262373  0.26458956
   0.23467546  0.99648356  0.74449204
   0.48262105  0.98684423  0.49816127
   0.73789211  0.98218871  0.76894195
   0.00014875  0.75665307  0.24991653
   0.74762762  0.50006688  0.24933106
   0.00521379  0.00437995  0.50195652
   0.49799611  0.50605122  0.50041822
   0.74025526  0.50677397  0.74874154
   0.75051545  0.73815320  0.49692997
HECN                                    
           1
     8.848702    0.018687    0.043608
     0.018765    8.884155   -0.008377
     0.043557   -0.008342    8.852647
   Ti   Mo   Hf   N    C    W    Nb