<?xml version="1.0" encoding="ISO-8859-1"?>
<modeling>
 <generator>
  <i name="program" type="string">vasp </i>
  <i name="version" type="string">5.4.4.18Apr17-6-g9f103f2a35  </i>
  <i name="subversion" type="string">(build Oct 18 2021 20:38:43) complex            parallel </i>
  <i name="platform" type="string">LinuxIFC </i>
  <i name="date" type="string">2024 06 07 </i>
  <i name="time" type="string">16:04:36 </i>
 </generator>
 <incar>
  <i type="string" name="SYSTEM">HECN</i>
  <i type="int" name="ISTART">     0</i>
  <i type="string" name="PREC">normal</i>
  <i type="string" name="ALGO">Fast</i>
  <i type="int" name="ICHARG">     2</i>
  <i type="int" name="NELM">    60</i>
  <i type="int" name="IBRION">     2</i>
  <i name="EDIFF">      0.00001000</i>
  <i name="EDIFFG">     -0.01000000</i>
  <i type="int" name="NSW">   100</i>
  <i type="int" name="ISIF">     3</i>
  <i name="ENCUT">    400.00000000</i>
  <i name="POTIM">      0.50000000</i>
  <i type="logical" name="LREAL"> F  </i>
  <i type="int" name="ISMEAR">     0</i>
  <i name="SIGMA">      0.10000000</i>
  <i type="logical" name="LWAVE"> F  </i>
  <i type="logical" name="LCHARG"> F  </i>
  <v type="int" name="KPOINT_BSE">    -1     0     0     0</v>
  <i type="int" name="NELM">    60</i>
 </incar>
 <structure name="primitive_cell" >
  <crystal>
   <varray name="basis" >
    <v>       8.93249989       0.00000000       0.00000000 </v>
    <v>       0.00575300       9.05559834       0.00000000 </v>
    <v>       0.03210180      -0.01574346       8.93712807 </v>
   </varray>
   <i name="volume">    722.91652451 </i>
   <varray name="rec_basis" >
    <v>       0.11195074      -0.00007112      -0.00040225 </v>
    <v>       0.00000000       0.11042893       0.00019453 </v>
    <v>       0.00000000       0.00000000       0.11189277 </v>
   </varray>
  </crystal>
  <varray name="positions" >
   <v>      -0.00311999      -0.00795003      -0.00075998 </v>
   <v>      -0.25232999      -0.00252000       0.01202000 </v>
   <v>      -0.00162995      -0.25686004       0.00460000 </v>
   <v>      -0.00280000      -0.00228008       0.25899999 </v>
   <v>       0.00281000       0.25024000       0.00130000 </v>
   <v>      -0.01103011       0.00202000      -0.26291001 </v>
   <v>       0.26146999      -0.00015998      -0.00704004 </v>
   <v>      -0.00135002      -0.22426001       0.26102000 </v>
   <v>      -0.25720997      -0.02130006      -0.23549005 </v>
   <v>       0.23780002       0.01082000      -0.25392002 </v>
   <v>      -0.24282000      -0.25897003       0.01100000 </v>
   <v>       0.24762001      -0.25026001      -0.00025994 </v>
   <v>      -0.00485996      -0.25507996      -0.25488003 </v>
   <v>      -0.24281000       0.25603001      -0.00408003 </v>
   <v>       0.25398003      -0.00285005       0.24912000 </v>
   <v>       0.24788999       0.24839000      -0.00342003 </v>
   <v>      -0.00562996       0.23617001       0.26379999 </v>
   <v>      -0.25120996      -0.01212001       0.26967001 </v>
   <v>       0.00201000       0.25541000      -0.26105999 </v>
   <v>       0.24177002      -0.24659003      -0.24981998 </v>
   <v>      -0.24963995      -0.25112000      -0.25243996 </v>
   <v>      -0.24255004       0.24437997      -0.25103001 </v>
   <v>       0.25133999      -0.25041998       0.24910999 </v>
   <v>      -0.24367000      -0.26108997       0.25767000 </v>
   <v>      -0.24686002       0.24616999       0.25492002 </v>
   <v>       0.24982001       0.24942998       0.24825000 </v>
   <v>       0.24900999       0.25315000      -0.25146000 </v>
   <v>      -0.48411003       0.01358000      -0.01924992 </v>
   <v>      -0.00158006      -0.49023002      -0.01386996 </v>
   <v>       0.02362000      -0.00216999       0.49557002 </v>
   <v>      -0.49480995      -0.23869001       0.00855000 </v>
   <v>      -0.49285006      -0.00023001       0.24673000 </v>
   <v>      -0.24160996      -0.49684002       0.00288000 </v>
   <v>      -0.00999997      -0.23784997       0.49746000 </v>
   <v>      -0.00948001       0.48088003       0.24100999 </v>
   <v>       0.24446000      -0.00176004      -0.49712002 </v>
   <v>      -0.26367999       0.00417000      -0.48937000 </v>
   <v>       0.24328000      -0.49927003      -0.00489006 </v>
   <v>      -0.49572003       0.24673000       0.00262000 </v>
   <v>      -0.00796004      -0.49944001      -0.24861998 </v>
   <v>      -0.00195991       0.24229999      -0.49871997 </v>
   <v>      -0.49991002       0.00061000      -0.26528002 </v>
   <v>      -0.26123997      -0.47171998      -0.26185001 </v>
   <v>       0.49950005      -0.24518001      -0.25182996 </v>
   <v>       0.24457999      -0.24951001       0.49983999 </v>
   <v>      -0.24599997      -0.27062001       0.49116997 </v>
   <v>      -0.49520997       0.24631001      -0.25289998 </v>
   <v>       0.24803003      -0.49835000       0.24955001 </v>
   <v>      -0.26448999      -0.48531996       0.26666001 </v>
   <v>      -0.49167000       0.25676999       0.25376001 </v>
   <v>      -0.49620997      -0.26073003       0.25905001 </v>
   <v>      -0.24692999       0.26163001      -0.49466998 </v>
   <v>       0.25272001       0.24823001      -0.49984997 </v>
   <v>       0.25679999       0.49462002      -0.25454998 </v>
   <v>       0.47957999      -0.01691999       0.49717999 </v>
   <v>      -0.49498994       0.49745998      -0.00165997 </v>
   <v>      -0.00572008      -0.49550001       0.49779000 </v>
   <v>      -0.49436004       0.23264998       0.49544997 </v>
   <v>      -0.49424994      -0.25041998       0.49720000 </v>
   <v>      -0.49299998      -0.49666998       0.25878999 </v>
   <v>      -0.49498997      -0.49782002      -0.26087997 </v>
   <v>      -0.25963999      -0.49803000      -0.49932997 </v>
   <v>       0.25841001      -0.49937998      -0.49870999 </v>
   <v>      -0.49461000      -0.47166995       0.49917999 </v>
  </varray>
 </structure>
 <varray name="primitive_index" >
  <v type="int" >        1 </v>
  <v type="int" >       25 </v>
  <v type="int" >       38 </v>
  <v type="int" >       34 </v>
  <v type="int" >       23 </v>
  <v type="int" >       29 </v>
  <v type="int" >       22 </v>
  <v type="int" >       59 </v>
  <v type="int" >       58 </v>
  <v type="int" >       56 </v>
  <v type="int" >        9 </v>
  <v type="int" >       18 </v>
  <v type="int" >       12 </v>
  <v type="int" >       17 </v>
  <v type="int" >        2 </v>
  <v type="int" >       14 </v>
  <v type="int" >        8 </v>
  <v type="int" >       16 </v>
  <v type="int" >       10 </v>
  <v type="int" >       45 </v>
  <v type="int" >       49 </v>
  <v type="int" >       30 </v>
  <v type="int" >       36 </v>
  <v type="int" >       39 </v>
  <v type="int" >       24 </v>
  <v type="int" >       21 </v>
  <v type="int" >       42 </v>
  <v type="int" >       53 </v>
  <v type="int" >       54 </v>
  <v type="int" >       61 </v>
  <v type="int" >       28 </v>
  <v type="int" >       26 </v>
  <v type="int" >       40 </v>
  <v type="int" >       47 </v>
  <v type="int" >       27 </v>
  <v type="int" >       43 </v>
  <v type="int" >       31 </v>
  <v type="int" >       37 </v>
  <v type="int" >       35 </v>
  <v type="int" >       48 </v>
  <v type="int" >       44 </v>
  <v type="int" >       33 </v>
  <v type="int" >       63 </v>
  <v type="int" >        7 </v>
  <v type="int" >       20 </v>
  <v type="int" >       64 </v>
  <v type="int" >        5 </v>
  <v type="int" >        3 </v>
  <v type="int" >       60 </v>
  <v type="int" >       15 </v>
  <v type="int" >       55 </v>
  <v type="int" >       11 </v>
  <v type="int" >       19 </v>
  <v type="int" >       13 </v>
  <v type="int" >       57 </v>
  <v type="int" >        4 </v>
  <v type="int" >        6 </v>
  <v type="int" >       32 </v>
  <v type="int" >       51 </v>
  <v type="int" >       41 </v>
  <v type="int" >       52 </v>
  <v type="int" >       50 </v>
  <v type="int" >       46 </v>
  <v type="int" >       62 </v>
 </varray>
 <kpoints>
  <generation param="Gamma">
   <v type="int" name="divisions">       3        3        3 </v>
   <v name="usershift">      0.00000000       0.00000000       0.00000000 </v>
   <v name="genvec1">      0.33333333      -0.00000000      -0.00000000 </v>
   <v name="genvec2">      0.00000000       0.33333333       0.00000000 </v>
   <v name="genvec3">      0.00000000       0.00000000       0.33333333 </v>
   <v name="shift">      0.00000000       0.00000000       0.00000000 </v>
  </generation>
  <varray name="kpointlist" >
   <v>       0.00000000       0.00000000       0.00000000 </v>
   <v>       0.33333333       0.00000000       0.00000000 </v>
   <v>       0.00000000       0.33333333       0.00000000 </v>
   <v>       0.33333333       0.33333333       0.00000000 </v>
   <v>      -0.33333333       0.33333333       0.00000000 </v>
   <v>       0.00000000       0.00000000       0.33333333 </v>
   <v>       0.33333333       0.00000000       0.33333333 </v>
   <v>      -0.33333333       0.00000000       0.33333333 </v>
   <v>       0.00000000       0.33333333       0.33333333 </v>
   <v>       0.33333333       0.33333333       0.33333333 </v>
   <v>      -0.33333333       0.33333333       0.33333333 </v>
   <v>       0.00000000      -0.33333333       0.33333333 </v>
   <v>       0.33333333      -0.33333333       0.33333333 </v>
   <v>      -0.33333333      -0.33333333       0.33333333 </v>
  </varray>
  <varray name="weights" >
   <v>       0.03703704 </v>
   <v>       0.07407407 </v>
   <v>       0.07407407 </v>
   <v>       0.07407407 </v>
   <v>       0.07407407 </v>
   <v>       0.07407407 </v>
   <v>       0.07407407 </v>
   <v>       0.07407407 </v>
   <v>       0.07407407 </v>
   <v>       0.07407407 </v>
   <v>       0.07407407 </v>
   <v>       0.07407407 </v>
   <v>       0.07407407 </v>
   <v>       0.07407407 </v>
  </varray>
 </kpoints>
 <parameters>
  <separator name="general" >
   <i type="string" name="SYSTEM">HECN</i>
   <i type="logical" name="LCOMPAT"> F  </i>
  </separator>
  <separator name="electronic" >
   <i type="string" name="PREC">normal</i>
   <i name="ENMAX">    400.00000000</i>
   <i name="ENAUG">    644.87300000</i>
   <i name="EDIFF">      0.00001000</i>
   <i type="int" name="IALGO">    68</i>
   <i type="int" name="IWAVPR">    11</i>
   <i type="int" name="NBANDS">   312</i>
   <i name="NELECT">    517.00000000</i>
   <i type="int" name="TURBO">     0</i>
   <i type="int" name="IRESTART">     0</i>
   <i type="int" name="NREBOOT">     0</i>
   <i type="int" name="NMIN">     0</i>
   <i name="EREF">      0.00000000</i>
   <separator name="electronic smearing" >
    <i type="int" name="ISMEAR">     0</i>
    <i name="SIGMA">      0.10000000</i>
    <i name="KSPACING">      0.50000000</i>
    <i type="logical" name="KGAMMA"> T  </i>
   </separator>
   <separator name="electronic projectors" >
    <i type="logical" name="LREAL"> F  </i>
    <v name="ROPT">      0.00000000      0.00000000      0.00000000      0.00000000      0.00000000      0.00000000      0.00000000</v>
    <i type="int" name="LMAXPAW">  -100</i>
    <i type="int" name="LMAXMIX">     2</i>
    <i type="logical" name="NLSPLINE"> F  </i>
   </separator>
   <separator name="electronic startup" >
    <i type="int" name="ISTART">     0</i>
    <i type="int" name="ICHARG">     2</i>
    <i type="int" name="INIWAV">     1</i>
   </separator>
   <separator name="electronic spin" >
    <i type="int" name="ISPIN">     1</i>
    <i type="logical" name="LNONCOLLINEAR"> F  </i>
    <v name="MAGMOM">      1.00000000      1.00000000      1.00000000      1.00000000      1.00000000      1.00000000      1.00000000      1.00000000      1.00000000      1.00000000      1.00000000      1.00000000      1.00000000      1.00000000      1.00000000      1.00000000      1.00000000      1.00000000      1.00000000      1.00000000
      1.00000000      1.00000000      1.00000000      1.00000000      1.00000000      1.00000000      1.00000000      1.00000000      1.00000000      1.00000000      1.00000000      1.00000000      1.00000000      1.00000000      1.00000000      1.00000000      1.00000000      1.00000000      1.00000000      1.00000000
      1.00000000      1.00000000      1.00000000      1.00000000      1.00000000      1.00000000      1.00000000      1.00000000      1.00000000      1.00000000      1.00000000      1.00000000      1.00000000      1.00000000      1.00000000      1.00000000      1.00000000      1.00000000      1.00000000      1.00000000
      1.00000000      1.00000000      1.00000000      1.00000000</v>
    <i name="NUPDOWN">     -1.00000000</i>
    <i type="logical" name="LSORBIT"> F  </i>
    <v name="SAXIS">      0.00000000      0.00000000      1.00000000</v>
    <i type="logical" name="LSPIRAL"> F  </i>
    <v name="QSPIRAL">      0.00000000      0.00000000      0.00000000</v>
    <i type="logical" name="LZEROZ"> F  </i>
   </separator>
   <separator name="electronic exchange-correlation" >
    <i type="logical" name="LASPH"> F  </i>
    <i type="logical" name="LMETAGGA"> F  </i>
   </separator>
   <separator name="electronic convergence" >
    <i type="int" name="NELM">    60</i>
    <i type="int" name="NELMDL">    -5</i>
    <i type="int" name="NELMIN">     2</i>
    <i name="ENINI">    400.00000000</i>
    <separator name="electronic convergence detail" >
     <i type="logical" name="LDIAG"> T  </i>
     <i type="logical" name="LSUBROT"> F  </i>
     <i name="WEIMIN">      0.00100000</i>
     <i name="EBREAK">      0.00000001</i>
     <i name="DEPER">      0.30000000</i>
     <i type="int" name="NRMM">     4</i>
     <i name="TIME">      0.40000000</i>
    </separator>
   </separator>
   <separator name="electronic mixer" >
    <i name="AMIX">      0.40000000</i>
    <i name="BMIX">      1.00000000</i>
    <i name="AMIN">      0.10000000</i>
    <i name="AMIX_MAG">      1.60000000</i>
    <i name="BMIX_MAG">      1.00000000</i>
    <separator name="electronic mixer details" >
     <i type="int" name="IMIX">     4</i>
     <i type="logical" name="MIXFIRST"> F  </i>
     <i type="int" name="MAXMIX">   -45</i>
     <i name="WC">    100.00000000</i>
     <i type="int" name="INIMIX">     1</i>
     <i type="int" name="MIXPRE">     1</i>
     <i type="int" name="MREMOVE">     5</i>
    </separator>
   </separator>
   <separator name="electronic dipolcorrection" >
    <i type="logical" name="LDIPOL"> F  </i>
    <i type="logical" name="LMONO"> F  </i>
    <i type="int" name="IDIPOL">     0</i>
    <i name="EPSILON">      1.00000000</i>
    <v name="DIPOL">   -100.00000000   -100.00000000   -100.00000000</v>
    <i name="EFIELD">      0.00000000</i>
   </separator>
  </separator>
  <separator name="grids" >
   <i type="int" name="NGX">    48</i>
   <i type="int" name="NGY">    48</i>
   <i type="int" name="NGZ">    48</i>
   <i type="int" name="NGXF">    96</i>
   <i type="int" name="NGYF">    96</i>
   <i type="int" name="NGZF">    96</i>
   <i type="logical" name="ADDGRID"> F  </i>
  </separator>
  <separator name="ionic" >
   <i type="int" name="NSW">   100</i>
   <i type="int" name="IBRION">     2</i>
   <i type="int" name="MDALGO">     0</i>
   <i type="int" name="ISIF">     3</i>
   <i name="PSTRESS">      0.00000000</i>
   <i name="EDIFFG">     -0.01000000</i>
   <i type="int" name="NFREE">     1</i>
   <i name="POTIM">      0.50000000</i>
   <i name="SMASS">     -3.00000000</i>
   <i name="SCALEE">      1.00000000</i>
  </separator>
  <separator name="ionic md" >
   <i name="TEBEG">      0.00010000</i>
   <i name="TEEND">      0.00010000</i>
   <i type="int" name="NBLOCK">     1</i>
   <i type="int" name="KBLOCK">   100</i>
   <i type="int" name="NPACO">   256</i>
   <i name="APACO">     16.00000000</i>
  </separator>
  <separator name="symmetry" >
   <i type="int" name="ISYM">     2</i>
   <i name="SYMPREC">      0.00001000</i>
  </separator>
  <separator name="dos" >
   <i type="int" name="LORBIT">     0</i>
   <v name="RWIGS">     -1.00000000     -1.00000000     -1.00000000     -1.00000000     -1.00000000     -1.00000000     -1.00000000</v>
   <i type="int" name="NEDOS">   301</i>
   <i name="EMIN">     10.00000000</i>
   <i name="EMAX">    -10.00000000</i>
   <i name="EFERMI">      0.00000000</i>
  </separator>
  <separator name="writing" >
   <i type="int" name="NWRITE">     2</i>
   <i type="logical" name="LWAVE"> F  </i>
   <i type="logical" name="LDOWNSAMPLE"> F  </i>
   <i type="logical" name="LCHARG"> F  </i>
   <i type="logical" name="LPARD"> F  </i>
   <i type="logical" name="LVTOT"> F  </i>
   <i type="logical" name="LVHAR"> F  </i>
   <i type="logical" name="LELF"> F  </i>
   <i type="logical" name="LOPTICS"> F  </i>
   <v name="STM">      0.00000000      0.00000000      0.00000000      0.00000000      0.00000000      0.00000000      0.00000000</v>
  </separator>
  <separator name="performance" >
   <i type="int" name="NPAR">    24</i>
   <i type="int" name="NSIM">     4</i>
   <i type="int" name="NBLK">    -1</i>
   <i type="logical" name="LPLANE"> T  </i>
   <i type="logical" name="LSCALAPACK"> T  </i>
   <i type="logical" name="LSCAAWARE"> F  </i>
   <i type="logical" name="LSCALU"> F  </i>
   <i type="logical" name="LASYNC"> F  </i>
   <i type="logical" name="LORBITALREAL"> F  </i>
  </separator>
  <separator name="miscellaneous" >
   <i type="int" name="IDIOT">     3</i>
   <i type="int" name="ISPECIAL">     0</i>
   <i type="logical" name="LMUSIC"> F  </i>
   <v name="POMASS">    178.49000000     92.91000000     47.88000000     14.00100000     12.01100000     51.99600000    183.85000000</v>
   <v name="DARWINR">      0.00000000      0.00000000      0.00000000      0.00000000      0.00000000      0.00000000      0.00000000</v>
   <v name="DARWINV">      1.00000000      1.00000000      1.00000000      1.00000000      1.00000000      1.00000000      1.00000000</v>
   <i type="logical" name="LCORR"> T  </i>
  </separator>
  <i type="logical" name="GGA_COMPAT"> T  </i>
  <i type="logical" name="LBERRY"> F  </i>
  <i type="int" name="ICORELEVEL">     0</i>
  <i type="logical" name="LDAU"> F  </i>
  <i type="int" name="I_CONSTRAINED_M">     0</i>
  <separator name="electronic exchange-correlation" >
   <i type="string" name="GGA">--</i>
   <i type="int" name="VOSKOWN">     0</i>
   <i type="logical" name="LHFCALC"> F  </i>
   <i type="string" name="PRECFOCK"></i>
   <i type="logical" name="LSYMGRAD"> F  </i>
   <i type="logical" name="LHFONE"> F  </i>
   <i type="logical" name="LRHFCALC"> F  </i>
   <i type="logical" name="LTHOMAS"> F  </i>
   <i type="logical" name="LMODELHF"> F  </i>
   <i name="ENCUT4O">     -1.00000000</i>
   <i type="int" name="EXXOEP">     0</i>
   <i type="int" name="FOURORBIT">     0</i>
   <i name="AEXX">      0.00000000</i>
   <i name="HFALPHA">      0.00000000</i>
   <i name="MCALPHA">      0.00000000</i>
   <i name="ALDAX">      1.00000000</i>
   <i name="AGGAX">      1.00000000</i>
   <i name="ALDAC">      1.00000000</i>
   <i name="AGGAC">      1.00000000</i>
   <i type="int" name="NKREDX">     1</i>
   <i type="int" name="NKREDY">     1</i>
   <i type="int" name="NKREDZ">     1</i>
   <i type="logical" name="SHIFTRED"> F  </i>
   <i type="logical" name="ODDONLY"> F  </i>
   <i type="logical" name="EVENONLY"> F  </i>
   <i type="int" name="LMAXFOCK">     0</i>
   <i type="int" name="NMAXFOCKAE">     0</i>
   <i type="logical" name="LFOCKAEDFT"> F  </i>
   <i name="HFSCREEN">      0.00000000</i>
   <i name="HFSCREENC">      0.00000000</i>
   <i type="int" name="NBANDSGWLOW">     0</i>
  </separator>
  <separator name="vdW DFT" >
   <i type="logical" name="LUSE_VDW"> F  </i>
   <i name="Zab_VDW">     -0.84910000</i>
   <i name="PARAM1">      0.12340000</i>
   <i name="PARAM2">      1.00000000</i>
   <i name="PARAM3">      0.00000000</i>
  </separator>
  <separator name="model GW" >
   <i type="int" name="MODEL_GW">     0</i>
   <i name="MODEL_EPS0">      6.77734242</i>
   <i name="MODEL_ALPHA">      1.00000000</i>
  </separator>
  <separator name="linear response parameters" >
   <i type="logical" name="LEPSILON"> F  </i>
   <i type="logical" name="LRPA"> F  </i>
   <i type="logical" name="LNABLA"> F  </i>
   <i type="logical" name="LVEL"> F  </i>
   <i type="int" name="KINTER">     0</i>
   <i name="CSHIFT">      0.10000000</i>
   <i name="OMEGAMAX">     -1.00000000</i>
   <i name="DEG_THRESHOLD">      0.00200000</i>
   <i name="RTIME">     -0.10000000</i>
   <i name="WPLASMAI">      0.00000000</i>
   <v name="DFIELD">      0.00000000      0.00000000      0.00000000</v>
   <v name="WPLASMA">      0.00000000      0.00000000      0.00000000      0.00000000      0.00000000      0.00000000      0.00000000      0.00000000      0.00000000</v>
  </separator>
  <separator name="orbital magnetization" >
   <i type="logical" name="NUCIND"> F  </i>
   <v name="MAGPOS">      0.00000000      0.00000000      0.00000000</v>
   <i type="logical" name="LNICSALL"> T  </i>
   <i type="logical" name="ORBITALMAG"> F  </i>
   <i type="logical" name="LMAGBLOCH"> F  </i>
   <i type="logical" name="LCHIMAG"> F  </i>
   <i type="logical" name="LGAUGE"> T  </i>
   <i type="int" name="MAGATOM">     0</i>
   <v name="MAGDIPOL">      0.00000000      0.00000000      0.00000000</v>
   <v name="AVECCONST">      0.00000000      0.00000000      0.00000000</v>
  </separator>
  <separator name="response functions" >
   <i type="logical" name="LADDER"> F  </i>
   <i type="logical" name="LRPAFORCE"> F  </i>
   <i type="logical" name="LFXC"> F  </i>
   <i type="logical" name="LHARTREE"> T  </i>
   <i type="int" name="IBSE">     0</i>
   <v type="int" name="KPOINT">    -1     0     0     0</v>
   <i type="logical" name="LTCTE"> F  </i>
   <i type="logical" name="LTETE"> F  </i>
   <i type="logical" name="LTRIPLET"> F  </i>
   <i type="logical" name="LFXCEPS"> F  </i>
   <i type="logical" name="LFXHEG"> F  </i>
   <i type="int" name="NATURALO">     2</i>
   <i type="logical" name="L2ORDER"> F  </i>
   <i type="logical" name="LMP2LT"> F  </i>
   <i type="logical" name="LUSEW"> F  </i>
   <i name="ENCUTGW">     -2.00000000</i>
   <i name="ENCUTGWSOFT">     -2.00000000</i>
   <i name="ENCUTLF">     -1.00000000</i>
   <i type="int" name="LMAXMP2">    -1</i>
   <i name="SCISSOR">      0.00000000</i>
   <i type="int" name="NOMEGA">     0</i>
   <i type="int" name="NOMEGAR">     0</i>
   <i type="int" name="NBANDSGW">    -1</i>
   <i type="int" name="NBANDSO">    -1</i>
   <i type="int" name="NBANDSV">    -1</i>
   <i type="int" name="NELM">    60</i>
   <i type="int" name="NELMHF">     1</i>
   <i type="int" name="DIM">     3</i>
   <i type="int" name="ANTIRES">     0</i>
   <i name="OMEGAMAX">    -30.00000000</i>
   <i name="OMEGAMIN">    -30.00000000</i>
   <i name="OMEGATL">   -200.00000000</i>
   <i type="int" name="OMEGAGRID">   140</i>
   <i name="CSHIFT">     -0.10000000</i>
   <i type="logical" name="SELFENERGY"> F  </i>
   <i type="logical" name="LSPECTRAL"> F  </i>
   <i type="logical" name="LSPECTRALGW"> F  </i>
   <i type="logical" name="LSINGLES"> F  </i>
   <i type="logical" name="LFERMIGW"> F  </i>
   <i type="logical" name="ODDONLYGW"> F  </i>
   <i type="logical" name="EVENONLYGW"> F  </i>
   <i type="int" name="NKREDLFX">     1</i>
   <i type="int" name="NKREDLFY">     1</i>
   <i type="int" name="NKREDLFZ">     1</i>
   <i type="int" name="MAXMEM">  2800</i>
   <i type="int" name="TELESCOPE">     0</i>
   <i type="int" name="TAUPAR">     1</i>
   <i type="int" name="OMEGAPAR">    -1</i>
   <i name="LAMBDA">      1.00000000</i>
  </separator>
  <separator name="External order field" >
   <i name="OFIELD_KAPPA">      0.00000000</i>
   <v name="OFIELD_K">      0.00000000      0.00000000      0.00000000</v>
   <i name="OFIELD_Q6_NEAR">      0.00000000</i>
   <i name="OFIELD_Q6_FAR">      0.00000000</i>
   <i name="OFIELD_A">      0.00000000</i>
  </separator>
 </parameters>
 <atominfo>
  <atoms>      64 </atoms>
  <types>       7 </types>
  <array name="atoms" >
   <dimension dim="1">ion</dimension>
   <field type="string">element</field>
   <field type="int">atomtype</field>
   <set>
    <rc><c>Hf</c><c>   1</c></rc>
    <rc><c>Hf</c><c>   1</c></rc>
    <rc><c>Hf</c><c>   1</c></rc>
    <rc><c>Hf</c><c>   1</c></rc>
    <rc><c>Hf</c><c>   1</c></rc>
    <rc><c>Hf</c><c>   1</c></rc>
    <rc><c>Hf</c><c>   1</c></rc>
    <rc><c>Nb</c><c>   2</c></rc>
    <rc><c>Nb</c><c>   2</c></rc>
    <rc><c>Nb</c><c>   2</c></rc>
    <rc><c>Nb</c><c>   2</c></rc>
    <rc><c>Nb</c><c>   2</c></rc>
    <rc><c>Nb</c><c>   2</c></rc>
    <rc><c>Ti</c><c>   3</c></rc>
    <rc><c>Ti</c><c>   3</c></rc>
    <rc><c>Ti</c><c>   3</c></rc>
    <rc><c>Ti</c><c>   3</c></rc>
    <rc><c>Ti</c><c>   3</c></rc>
    <rc><c>Ti</c><c>   3</c></rc>
    <rc><c>Ti</c><c>   3</c></rc>
    <rc><c>N </c><c>   4</c></rc>
    <rc><c>N </c><c>   4</c></rc>
    <rc><c>N </c><c>   4</c></rc>
    <rc><c>N </c><c>   4</c></rc>
    <rc><c>N </c><c>   4</c></rc>
    <rc><c>N </c><c>   4</c></rc>
    <rc><c>N </c><c>   4</c></rc>
    <rc><c>N </c><c>   4</c></rc>
    <rc><c>N </c><c>   4</c></rc>
    <rc><c>N </c><c>   4</c></rc>
    <rc><c>N </c><c>   4</c></rc>
    <rc><c>N </c><c>   4</c></rc>
    <rc><c>N </c><c>   4</c></rc>
    <rc><c>C </c><c>   5</c></rc>
    <rc><c>C </c><c>   5</c></rc>
    <rc><c>C </c><c>   5</c></rc>
    <rc><c>C </c><c>   5</c></rc>
    <rc><c>C </c><c>   5</c></rc>
    <rc><c>C </c><c>   5</c></rc>
    <rc><c>C </c><c>   5</c></rc>
    <rc><c>C </c><c>   5</c></rc>
    <rc><c>C </c><c>   5</c></rc>
    <rc><c>C </c><c>   5</c></rc>
    <rc><c>C </c><c>   5</c></rc>
    <rc><c>C </c><c>   5</c></rc>
    <rc><c>C </c><c>   5</c></rc>
    <rc><c>C </c><c>   5</c></rc>
    <rc><c>C </c><c>   5</c></rc>
    <rc><c>C </c><c>   5</c></rc>
    <rc><c>C </c><c>   5</c></rc>
    <rc><c>C </c><c>   5</c></rc>
    <rc><c>C </c><c>   5</c></rc>
    <rc><c>Cr</c><c>   6</c></rc>
    <rc><c>Cr</c><c>   6</c></rc>
    <rc><c>Cr</c><c>   6</c></rc>
    <rc><c>Cr</c><c>   6</c></rc>
    <rc><c>Cr</c><c>   6</c></rc>
    <rc><c>Cr</c><c>   6</c></rc>
    <rc><c>W </c><c>   7</c></rc>
    <rc><c>W </c><c>   7</c></rc>
    <rc><c>W </c><c>   7</c></rc>
    <rc><c>W </c><c>   7</c></rc>
    <rc><c>W </c><c>   7</c></rc>
    <rc><c>W </c><c>   7</c></rc>
   </set>
  </array>
  <array name="atomtypes" >
   <dimension dim="1">type</dimension>
   <field type="int">atomspertype</field>
   <field type="string">element</field>
   <field>mass</field>
   <field>valence</field>
   <field type="string">pseudopotential</field>
   <set>
    <rc><c>   7</c><c>Hf</c><c>    178.49000000</c><c>     10.00000000</c><c> PAW_PBE Hf_pv 06Sep2000                </c></rc>
    <rc><c>   6</c><c>Nb</c><c>     92.91000000</c><c>     13.00000000</c><c> PAW_PBE Nb_sv 17Jan2003                </c></rc>
    <rc><c>   7</c><c>Ti</c><c>     47.88000000</c><c>     12.00000000</c><c> PAW_PBE Ti_sv 07Sep2000                </c></rc>
    <rc><c>  13</c><c>N </c><c>     14.00100000</c><c>      5.00000000</c><c> PAW_PBE N 08Apr2002                    </c></rc>
    <rc><c>  19</c><c>C </c><c>     12.01100000</c><c>      4.00000000</c><c> PAW_PBE C 08Apr2002                    </c></rc>
    <rc><c>   6</c><c>Cr</c><c>     51.99600000</c><c>     12.00000000</c><c> PAW_PBE Cr_pv 07Sep2000                </c></rc>
    <rc><c>   6</c><c>W </c><c>    183.85000000</c><c>     12.00000000</c><c> PAW_PBE W_pv 06Sep2000                 </c></rc>
   </set>
  </array>
 </atominfo>
 <structure name="initialpos" >
  <crystal>
   <varray name="basis" >
    <v>       8.93249989       0.00000000       0.00000000 </v>
    <v>       0.00575300       9.05559834       0.00000000 </v>
    <v>       0.03210180      -0.01574346       8.93712807 </v>
   </varray>
   <i name="volume">    722.91652451 </i>
   <varray name="rec_basis" >
    <v>       0.11195074      -0.00007112      -0.00040225 </v>
    <v>       0.00000000       0.11042893       0.00019453 </v>
    <v>       0.00000000       0.00000000       0.11189277 </v>
   </varray>
  </crystal>
  <varray name="positions" >
   <v>       0.99688001       0.99204997       0.99924002 </v>
   <v>       0.25398003       0.99714995       0.24912000 </v>
   <v>       0.24803003       0.50165000       0.24955001 </v>
   <v>       0.50501006       0.49745998       0.99834003 </v>
   <v>       0.50479003       0.24631001       0.74710002 </v>
   <v>       0.99427992       0.50449999       0.49779000 </v>
   <v>       0.49950005       0.75481999       0.74817004 </v>
   <v>       0.99437004       0.23617001       0.26379999 </v>
   <v>       0.75718000       0.74102998       0.01100000 </v>
   <v>       0.00201000       0.25541000       0.73894001 </v>
   <v>       0.75307001       0.26163001       0.50533002 </v>
   <v>       0.99514004       0.74492004       0.74511997 </v>
   <v>       0.25679999       0.49462002       0.74545002 </v>
   <v>       0.24788999       0.24839000       0.99657997 </v>
   <v>       0.50833000       0.25676999       0.25376001 </v>
   <v>       0.74879004       0.98787999       0.26967001 </v>
   <v>       0.75719000       0.25603001       0.99591997 </v>
   <v>       0.24762001       0.74973999       0.99974006 </v>
   <v>       0.25272001       0.24823001       0.50015003 </v>
   <v>       0.24457999       0.75048999       0.49983999 </v>
   <v>       0.24982001       0.24942998       0.24825000 </v>
   <v>       0.26146999       0.99984002       0.99295996 </v>
   <v>       0.00281000       0.25024000       0.00130000 </v>
   <v>       0.75313998       0.24617000       0.25492002 </v>
   <v>       0.74767001       0.99748000       0.01202000 </v>
   <v>       0.50714994       0.99977000       0.24673000 </v>
   <v>       0.99051999       0.48088002       0.24100998 </v>
   <v>       0.50519005       0.76130999       0.00855000 </v>
   <v>       0.98896989       0.00202000       0.73708999 </v>
   <v>       0.75744996       0.24437997       0.74896999 </v>
   <v>       0.73632001       0.00417000       0.51063000 </v>
   <v>       0.50563996       0.23264999       0.49544997 </v>
   <v>       0.50008998       0.00061000       0.73471998 </v>
   <v>       0.99720000       0.99771992       0.25899999 </v>
   <v>       0.50427997       0.24673000       0.00262000 </v>
   <v>       0.25133999       0.74958002       0.24910999 </v>
   <v>       0.24328000       0.50072997       0.99510994 </v>
   <v>       0.99837005       0.74313996       0.00460000 </v>
   <v>       0.75633000       0.73891003       0.25767000 </v>
   <v>       0.75839004       0.50315998       0.00288000 </v>
   <v>       0.50700002       0.50333002       0.25878999 </v>
   <v>       0.24900999       0.25315000       0.74854000 </v>
   <v>       0.24446000       0.99823996       0.50287998 </v>
   <v>       0.99804009       0.24229999       0.50128003 </v>
   <v>       0.24177002       0.75340997       0.75018002 </v>
   <v>       0.25841001       0.50062002       0.50129001 </v>
   <v>       0.99000004       0.76215003       0.49746000 </v>
   <v>       0.99203996       0.50055999       0.75138002 </v>
   <v>       0.75036005       0.74888000       0.74756004 </v>
   <v>       0.74036002       0.50197000       0.50067003 </v>
   <v>       0.50575006       0.74958002       0.49720000 </v>
   <v>       0.50501003       0.50217998       0.73912003 </v>
   <v>       0.51588997       0.01358000       0.98075008 </v>
   <v>       0.99841994       0.50976998       0.98613004 </v>
   <v>       0.50379003       0.73926997       0.25905001 </v>
   <v>       0.23780002       0.01082000       0.74607998 </v>
   <v>       0.47957999       0.98308000       0.49717999 </v>
   <v>       0.74279003       0.97869994       0.76450995 </v>
   <v>       0.99864998       0.77573999       0.26102000 </v>
   <v>       0.73551001       0.51468004       0.26666001 </v>
   <v>       0.02362000       0.99783001       0.49557002 </v>
   <v>       0.50539000       0.52833005       0.49917999 </v>
   <v>       0.73876003       0.52828003       0.73814999 </v>
   <v>       0.75400003       0.72937999       0.49116997 </v>
  </varray>
 </structure>
 <calculation>
  <scstep>
   <time name="dav">   21.14   21.22</time>
   <time name="total">   21.18   21.27</time>
   <energy>
    <i name="alphaZ">   4025.22193345 </i>
    <i name="ewald"> -42740.18742903 </i>
    <i name="hartreedc">  -8905.17968148 </i>
    <i name="XCdc">   1990.69220100 </i>
    <i name="pawpsdc">  31511.11555261 </i>
    <i name="pawaedc"> -31424.58467444 </i>
    <i name="eentropy">     -0.08216387 </i>
    <i name="bandstr">   2430.39549493 </i>
    <i name="atom">  50139.78385737 </i>
    <i name="e_fr_energy">   7027.17509053 </i>
    <i name="e_wo_entrp">   7027.25725440 </i>
    <i name="e_0_energy">   7027.21617246 </i>
   </energy>
  </scstep>
  <scstep>
   <time name="dav">   22.13   22.17</time>
   <time name="total">   22.14   22.17</time>
   <energy>
    <i name="e_fr_energy">    531.46267310 </i>
    <i name="e_wo_entrp">    531.57164506 </i>
    <i name="e_0_energy">    531.51715908 </i>
   </energy>
  </scstep>
  <scstep>
   <time name="dav">   32.39   32.44</time>
   <time name="total">   32.39   32.44</time>
   <energy>
    <i name="e_fr_energy">   -621.65248929 </i>
    <i name="e_wo_entrp">   -621.54254456 </i>
    <i name="e_0_energy">   -621.59751692 </i>
   </energy>
  </scstep>
  <scstep>
   <time name="dav">   35.01   35.09</time>
   <time name="total">   35.02   35.09</time>
   <energy>
    <i name="e_fr_energy">   -773.11756793 </i>
    <i name="e_wo_entrp">   -773.01680900 </i>
    <i name="e_0_energy">   -773.06718847 </i>
   </energy>
  </scstep>
  <scstep>
   <time name="dav">   38.61   38.64</time>
   <time name="total">   38.88   38.91</time>
   <energy>
    <i name="e_fr_energy">   -792.49913252 </i>
    <i name="e_wo_entrp">   -792.39780412 </i>
    <i name="e_0_energy">   -792.44846832 </i>
   </energy>
  </scstep>
  <scstep>
   <time name="diag">    1.78    1.78</time>
   <time name="diis">   19.81   19.83</time>
   <time name="orth">    0.45    0.45</time>
   <time name="total">   22.33   22.36</time>
   <energy>
    <i name="e_fr_energy">   -928.98576462 </i>
    <i name="e_wo_entrp">   -928.77051924 </i>
    <i name="e_0_energy">   -928.87814193 </i>
   </energy>
  </scstep>
  <scstep>
   <time name="diag">    1.79    1.79</time>
   <time name="diis">   22.86   22.89</time>
   <time name="orth">    0.43    0.43</time>
   <time name="total">   25.37   25.41</time>
   <energy>
    <i name="e_fr_energy">   -655.91906525 </i>
    <i name="e_wo_entrp">   -655.75913449 </i>
    <i name="e_0_energy">   -655.83909987 </i>
   </energy>
  </scstep>
  <scstep>
   <time name="diag">    1.88    1.90</time>
   <time name="diis">   22.57   22.60</time>
   <time name="orth">    0.43    0.43</time>
   <time name="total">   25.18   25.23</time>
   <energy>
    <i name="e_fr_energy">   -650.59816291 </i>
    <i name="e_wo_entrp">   -650.43169892 </i>
    <i name="e_0_energy">   -650.51493091 </i>
   </energy>
  </scstep>
  <scstep>
   <time name="diag">    1.82    1.82</time>
   <time name="diis">   22.43   22.45</time>
   <time name="orth">    0.43    0.43</time>
   <time name="total">   24.97   25.00</time>
   <energy>
    <i name="e_fr_energy">   -647.48634190 </i>
    <i name="e_wo_entrp">   -647.31870033 </i>
    <i name="e_0_energy">   -647.40252112 </i>
   </energy>
  </scstep>
  <scstep>
   <time name="diag">    1.78    1.80</time>
   <time name="diis">   22.22   22.28</time>
   <time name="orth">    0.43    0.43</time>
   <time name="total">   24.72   24.81</time>
   <energy>
    <i name="e_fr_energy">   -644.49213461 </i>
    <i name="e_wo_entrp">   -644.32431574 </i>
    <i name="e_0_energy">   -644.40822517 </i>
   </energy>
  </scstep>
  <scstep>
   <time name="diag">    1.79    1.79</time>
   <time name="diis">   21.84   21.95</time>
   <time name="orth">    0.43    0.43</time>
   <time name="total">   24.36   24.48</time>
   <energy>
    <i name="e_fr_energy">   -646.63762695 </i>
    <i name="e_wo_entrp">   -646.47462373 </i>
    <i name="e_0_energy">   -646.55612534 </i>
   </energy>
  </scstep>
  <scstep>
   <time name="diag">    1.79    1.79</time>
   <time name="diis">   22.53   22.58</time>
   <time name="orth">    0.44    0.44</time>
   <time name="total">   25.06   25.12</time>
   <energy>
    <i name="e_fr_energy">   -644.44304554 </i>
    <i name="e_wo_entrp">   -644.27821639 </i>
    <i name="e_0_energy">   -644.36063096 </i>
   </energy>
  </scstep>
  <scstep>
   <time name="diag">    1.78    1.79</time>
   <time name="diis">   23.04   23.17</time>
   <time name="orth">    0.43    0.43</time>
   <time name="total">   25.55   25.69</time>
   <energy>
    <i name="e_fr_energy">   -644.37252298 </i>
    <i name="e_wo_entrp">   -644.20554794 </i>
    <i name="e_0_energy">   -644.28903546 </i>
   </energy>
  </scstep>
  <scstep>
   <time name="diag">    1.79    1.80</time>
   <time name="diis">   21.84   21.89</time>
   <time name="orth">    0.43    0.43</time>
   <time name="total">   24.36   24.42</time>
   <energy>
    <i name="e_fr_energy">   -643.65096673 </i>
    <i name="e_wo_entrp">   -643.46432093 </i>
    <i name="e_0_energy">   -643.55764383 </i>
   </energy>
  </scstep>
  <scstep>
   <time name="diag">    1.78    1.78</time>
   <time name="diis">   21.79   21.86</time>
   <time name="orth">    0.43    0.43</time>
   <time name="total">   24.29   24.37</time>
   <energy>
    <i name="e_fr_energy">   -643.78633520 </i>
    <i name="e_wo_entrp">   -643.62610607 </i>
    <i name="e_0_energy">   -643.70622063 </i>
   </energy>
  </scstep>
  <scstep>
   <time name="diag">    1.79    1.79</time>
   <time name="diis">   20.79   20.85</time>
   <time name="orth">    0.43    0.43</time>
   <time name="total">   23.30   23.36</time>
   <energy>
    <i name="e_fr_energy">   -643.34202361 </i>
    <i name="e_wo_entrp">   -643.16722473 </i>
    <i name="e_0_energy">   -643.25462417 </i>
   </energy>
  </scstep>
  <scstep>
   <time name="diag">    1.79    1.79</time>
   <time name="diis">   22.60   22.63</time>
   <time name="orth">    0.43    0.44</time>
   <time name="total">   25.11   25.17</time>
   <energy>
    <i name="e_fr_energy">   -643.49695587 </i>
    <i name="e_wo_entrp">   -643.32987766 </i>
    <i name="e_0_energy">   -643.41341676 </i>
   </energy>
  </scstep>
  <scstep>
   <time name="diag">    1.79    1.79</time>
   <time name="diis">   22.84   22.92</time>
   <time name="orth">    0.43    0.43</time>
   <time name="total">   25.35   25.44</time>
   <energy>
    <i name="e_fr_energy">   -643.28032081 </i>
    <i name="e_wo_entrp">   -643.10360994 </i>
    <i name="e_0_energy">   -643.19196537 </i>
   </energy>
  </scstep>
  <scstep>
   <time name="diag">    1.80    1.80</time>
   <time name="diis">   22.79   22.83</time>
   <time name="orth">    0.43    0.43</time>
   <time name="total">   25.32   25.36</time>
   <energy>
    <i name="e_fr_energy">   -643.34073205 </i>
    <i name="e_wo_entrp">   -643.16456903 </i>
    <i name="e_0_energy">   -643.25265054 </i>
   </energy>
  </scstep>
  <scstep>
   <time name="diag">    1.82    1.84</time>
   <time name="diis">   21.76   21.84</time>
   <time name="orth">    0.43    0.43</time>
   <time name="total">   24.31   24.40</time>
   <energy>
    <i name="e_fr_energy">   -643.30069879 </i>
    <i name="e_wo_entrp">   -643.12451318 </i>
    <i name="e_0_energy">   -643.21260598 </i>
   </energy>
  </scstep>
  <scstep>
   <time name="diag">    1.79    1.79</time>
   <time name="diis">   21.92   21.95</time>
   <time name="orth">    0.43    0.43</time>
   <time name="total">   24.44   24.47</time>
   <energy>
    <i name="e_fr_energy">   -643.30167601 </i>
    <i name="e_wo_entrp">   -643.12513470 </i>
    <i name="e_0_energy">   -643.21340535 </i>
   </energy>
  </scstep>
  <scstep>
   <time name="diag">    1.78    1.79</time>
   <time name="diis">   22.57   22.72</time>
   <time name="orth">    0.43    0.43</time>
   <time name="total">   25.08   25.23</time>
   <energy>
    <i name="e_fr_energy">   -643.30545422 </i>
    <i name="e_wo_entrp">   -643.12879254 </i>
    <i name="e_0_energy">   -643.21712338 </i>
   </energy>
  </scstep>
  <scstep>
   <time name="diag">    1.79    1.79</time>
   <time name="diis">   24.18   24.23</time>
   <time name="orth">    0.43    0.43</time>
   <time name="total">   26.69   26.74</time>
   <energy>
    <i name="e_fr_energy">   -643.30974813 </i>
    <i name="e_wo_entrp">   -643.13281282 </i>
    <i name="e_0_energy">   -643.22128047 </i>
   </energy>
  </scstep>
  <scstep>
   <time name="diag">    1.78    1.79</time>
   <time name="diis">   22.83   22.86</time>
   <time name="orth">    0.44    0.44</time>
   <time name="total">   25.34   25.38</time>
   <energy>
    <i name="e_fr_energy">   -643.31195967 </i>
    <i name="e_wo_entrp">   -643.13502929 </i>
    <i name="e_0_energy">   -643.22349448 </i>
   </energy>
  </scstep>
  <scstep>
   <time name="diag">    1.83    1.85</time>
   <time name="diis">   22.72   22.75</time>
   <time name="orth">    0.43    0.43</time>
   <time name="total">   25.28   25.33</time>
   <energy>
    <i name="e_fr_energy">   -643.31373651 </i>
    <i name="e_wo_entrp">   -643.13686943 </i>
    <i name="e_0_energy">   -643.22530297 </i>
   </energy>
  </scstep>
  <scstep>
   <time name="diag">    1.79    1.79</time>
   <time name="diis">   21.82   21.86</time>
   <time name="orth">    0.43    0.43</time>
   <time name="total">   24.34   24.37</time>
   <energy>
    <i name="e_fr_energy">   -643.31482173 </i>
    <i name="e_wo_entrp">   -643.13797388 </i>
    <i name="e_0_energy">   -643.22639780 </i>
   </energy>
  </scstep>
  <scstep>
   <time name="diag">    1.78    1.78</time>
   <time name="diis">   20.80   20.83</time>
   <time name="orth">    0.43    0.43</time>
   <time name="total">   23.30   23.33</time>
   <energy>
    <i name="e_fr_energy">   -643.31572303 </i>
    <i name="e_wo_entrp">   -643.13886519 </i>
    <i name="e_0_energy">   -643.22729411 </i>
   </energy>
  </scstep>
  <scstep>
   <time name="diag">    1.77    1.78</time>
   <time name="diis">   19.40   19.44</time>
   <time name="orth">    0.43    0.43</time>
   <time name="total">   21.90   21.95</time>
   <energy>
    <i name="e_fr_energy">   -643.31620011 </i>
    <i name="e_wo_entrp">   -643.13933975 </i>
    <i name="e_0_energy">   -643.22776993 </i>
   </energy>
  </scstep>
  <scstep>
   <time name="diag">    1.78    1.78</time>
   <time name="diis">   18.85   18.86</time>
   <time name="orth">    0.43    0.43</time>
   <time name="total">   21.35   21.37</time>
   <energy>
    <i name="e_fr_energy">   -643.31663933 </i>
    <i name="e_wo_entrp">   -643.13977047 </i>
    <i name="e_0_energy">   -643.22820490 </i>
   </energy>
  </scstep>
  <scstep>
   <time name="diag">    1.78    1.79</time>
   <time name="diis">   18.68   18.71</time>
   <time name="orth">    0.44    0.45</time>
   <time name="total">   21.21   21.25</time>
   <energy>
    <i name="e_fr_energy">   -643.31684285 </i>
    <i name="e_wo_entrp">   -643.13997806 </i>
    <i name="e_0_energy">   -643.22841045 </i>
   </energy>
  </scstep>
  <scstep>
   <time name="diag">    1.77    1.77</time>
   <time name="diis">   18.18   18.22</time>
   <time name="orth">    0.43    0.43</time>
   <time name="total">   20.68   20.72</time>
   <energy>
    <i name="e_fr_energy">   -643.31704620 </i>
    <i name="e_wo_entrp">   -643.14017838 </i>
    <i name="e_0_energy">   -643.22861229 </i>
   </energy>
  </scstep>
  <scstep>
   <time name="diag">    1.79    1.79</time>
   <time name="diis">   18.27   18.29</time>
   <time name="orth">    0.43    0.43</time>
   <time name="total">   20.79   20.80</time>
   <energy>
    <i name="e_fr_energy">   -643.31714014 </i>
    <i name="e_wo_entrp">   -643.14027898 </i>
    <i name="e_0_energy">   -643.22870956 </i>
   </energy>
  </scstep>
  <scstep>
   <time name="diag">    1.80    1.80</time>
   <time name="diis">   18.01   18.14</time>
   <time name="orth">    0.43    0.43</time>
   <time name="total">   20.54   20.66</time>
   <energy>
    <i name="e_fr_energy">   -643.31723206 </i>
    <i name="e_wo_entrp">   -643.14036997 </i>
    <i name="e_0_energy">   -643.22880101 </i>
   </energy>
  </scstep>
  <scstep>
   <time name="diag">    1.77    1.78</time>
   <time name="diis">   17.30   17.35</time>
   <time name="orth">    0.43    0.43</time>
   <time name="total">   19.80   19.85</time>
   <energy>
    <i name="e_fr_energy">   -643.31727629 </i>
    <i name="e_wo_entrp">   -643.14041999 </i>
    <i name="e_0_energy">   -643.22884814 </i>
   </energy>
  </scstep>
  <scstep>
   <time name="diag">    1.79    1.79</time>
   <time name="diis">   17.23   17.28</time>
   <time name="orth">    0.43    0.43</time>
   <time name="total">   19.74   19.79</time>
   <energy>
    <i name="e_fr_energy">   -643.31731814 </i>
    <i name="e_wo_entrp">   -643.14045672 </i>
    <i name="e_0_energy">   -643.22888743 </i>
   </energy>
  </scstep>
  <scstep>
   <time name="diag">    1.79    1.80</time>
   <time name="diis">   16.83   16.90</time>
   <time name="orth">    0.43    0.43</time>
   <time name="total">   19.35   19.42</time>
   <energy>
    <i name="e_fr_energy">   -643.31733966 </i>
    <i name="e_wo_entrp">   -643.14048352 </i>
    <i name="e_0_energy">   -643.22891159 </i>
   </energy>
  </scstep>
  <scstep>
   <time name="diag">    1.78    1.78</time>
   <time name="diis">   16.05   16.10</time>
   <time name="orth">    0.43    0.43</time>
   <time name="total">   18.56   18.61</time>
   <energy>
    <i name="e_fr_energy">   -643.31735795 </i>
    <i name="e_wo_entrp">   -643.14049678 </i>
    <i name="e_0_energy">   -643.22892736 </i>
   </energy>
  </scstep>
  <scstep>
   <time name="diag">    1.77    1.77</time>
   <time name="diis">   15.66   15.68</time>
   <time name="orth">    0.43    0.43</time>
   <time name="total">   18.16   18.18</time>
   <energy>
    <i name="e_fr_energy">   -643.31736852 </i>
    <i name="e_wo_entrp">   -643.14051071 </i>
    <i name="e_0_energy">   -643.22893961 </i>
   </energy>
  </scstep>
  <scstep>
   <time name="diag">    1.77    1.77</time>
   <time name="diis">   15.05   15.06</time>
   <time name="orth">    0.43    0.43</time>
   <time name="total">   17.29   17.30</time>
   <energy>
    <i name="alphaZ">   4025.22193345 </i>
    <i name="ewald"> -42740.18742903 </i>
    <i name="hartreedc">  -8291.74269767 </i>
    <i name="XCdc">   1974.53483676 </i>
    <i name="pawpsdc">  32385.09502906 </i>
    <i name="pawaedc"> -32338.87086953 </i>
    <i name="eentropy">     -0.17685799 </i>
    <i name="bandstr">  -5796.97517933 </i>
    <i name="atom">  50139.78385737 </i>
    <i name="e_fr_energy">   -643.31737691 </i>
    <i name="e_wo_entrp">   -643.14051892 </i>
    <i name="e_0_energy">   -643.22894791 </i>
   </energy>
  </scstep>
  <structure>
   <crystal>
    <varray name="basis" >
     <v>       8.93249989       0.00000000       0.00000000 </v>
     <v>       0.00575300       9.05559834       0.00000000 </v>
     <v>       0.03210180      -0.01574346       8.93712807 </v>
    </varray>
    <i name="volume">    722.91652451 </i>
    <varray name="rec_basis" >
     <v>       0.11195074      -0.00007112      -0.00040225 </v>
     <v>       0.00000000       0.11042893       0.00019453 </v>
     <v>       0.00000000       0.00000000       0.11189277 </v>
    </varray>
   </crystal>
   <varray name="positions" >
    <v>       0.99688001       0.99204997       0.99924002 </v>
    <v>       0.25398003       0.99714995       0.24912000 </v>
    <v>       0.24803003       0.50165000       0.24955001 </v>
    <v>       0.50501006       0.49745998       0.99834003 </v>
    <v>       0.50479003       0.24631001       0.74710002 </v>
    <v>       0.99427992       0.50449999       0.49779000 </v>
    <v>       0.49950005       0.75481999       0.74817004 </v>
    <v>       0.99437004       0.23617001       0.26379999 </v>
    <v>       0.75718000       0.74102998       0.01100000 </v>
    <v>       0.00201000       0.25541000       0.73894001 </v>
    <v>       0.75307001       0.26163001       0.50533002 </v>
    <v>       0.99514004       0.74492004       0.74511997 </v>
    <v>       0.25679999       0.49462002       0.74545002 </v>
    <v>       0.24788999       0.24839000       0.99657997 </v>
    <v>       0.50833000       0.25676999       0.25376001 </v>
    <v>       0.74879004       0.98787999       0.26967001 </v>
    <v>       0.75719000       0.25603001       0.99591997 </v>
    <v>       0.24762001       0.74973999       0.99974006 </v>
    <v>       0.25272001       0.24823001       0.50015003 </v>
    <v>       0.24457999       0.75048999       0.49983999 </v>
    <v>       0.24982001       0.24942998       0.24825000 </v>
    <v>       0.26146999       0.99984002       0.99295996 </v>
    <v>       0.00281000       0.25024000       0.00130000 </v>
    <v>       0.75313998       0.24617000       0.25492002 </v>
    <v>       0.74767001       0.99748000       0.01202000 </v>
    <v>       0.50714994       0.99977000       0.24673000 </v>
    <v>       0.99051999       0.48088002       0.24100998 </v>
    <v>       0.50519005       0.76130999       0.00855000 </v>
    <v>       0.98896989       0.00202000       0.73708999 </v>
    <v>       0.75744996       0.24437997       0.74896999 </v>
    <v>       0.73632001       0.00417000       0.51063000 </v>
    <v>       0.50563996       0.23264999       0.49544997 </v>
    <v>       0.50008998       0.00061000       0.73471998 </v>
    <v>       0.99720000       0.99771992       0.25899999 </v>
    <v>       0.50427997       0.24673000       0.00262000 </v>
    <v>       0.25133999       0.74958002       0.24910999 </v>
    <v>       0.24328000       0.50072997       0.99510994 </v>
    <v>       0.99837005       0.74313996       0.00460000 </v>
    <v>       0.75633000       0.73891003       0.25767000 </v>
    <v>       0.75839004       0.50315998       0.00288000 </v>
    <v>       0.50700002       0.50333002       0.25878999 </v>
    <v>       0.24900999       0.25315000       0.74854000 </v>
    <v>       0.24446000       0.99823996       0.50287998 </v>
    <v>       0.99804009       0.24229999       0.50128003 </v>
    <v>       0.24177002       0.75340997       0.75018002 </v>
    <v>       0.25841001       0.50062002       0.50129001 </v>
    <v>       0.99000004       0.76215003       0.49746000 </v>
    <v>       0.99203996       0.50055999       0.75138002 </v>
    <v>       0.75036005       0.74888000       0.74756004 </v>
    <v>       0.74036002       0.50197000       0.50067003 </v>
    <v>       0.50575006       0.74958002       0.49720000 </v>
    <v>       0.50501003       0.50217998       0.73912003 </v>
    <v>       0.51588997       0.01358000       0.98075008 </v>
    <v>       0.99841994       0.50976998       0.98613004 </v>
    <v>       0.50379003       0.73926997       0.25905001 </v>
    <v>       0.23780002       0.01082000       0.74607998 </v>
    <v>       0.47957999       0.98308000       0.49717999 </v>
    <v>       0.74279003       0.97869994       0.76450995 </v>
    <v>       0.99864998       0.77573999       0.26102000 </v>
    <v>       0.73551001       0.51468004       0.26666001 </v>
    <v>       0.02362000       0.99783001       0.49557002 </v>
    <v>       0.50539000       0.52833005       0.49917999 </v>
    <v>       0.73876003       0.52828003       0.73814999 </v>
    <v>       0.75400003       0.72937999       0.49116997 </v>
   </varray>
  </structure>
  <varray name="forces" >
   <v>      -0.15517387       0.89196928      -0.84152815 </v>
   <v>       1.96949805       0.37273067      -0.84940921 </v>
   <v>      -0.01916175      -0.34069065      -0.62063697 </v>
   <v>      -0.65169839       0.05001744       0.49024771 </v>
   <v>      -0.07936862      -1.56114793      -0.12780397 </v>
   <v>       0.78395344      -0.51064737       0.23904986 </v>
   <v>      -0.91785091       2.15066905       0.92946230 </v>
   <v>      -0.15194910      -0.48568658      -0.69534966 </v>
   <v>      -0.43885727       0.62233865       0.05281690 </v>
   <v>       0.39238472      -0.29485192       0.80501638 </v>
   <v>      -0.65449955      -1.01900635      -0.36931933 </v>
   <v>       0.90219936       0.23289263       0.80672698 </v>
   <v>      -0.77635731       0.16324354       0.71528321 </v>
   <v>       0.18264297       0.08733251      -0.47747710 </v>
   <v>       0.29903577      -0.83857500      -0.26086572 </v>
   <v>      -1.27470167       0.49725190      -0.01159539 </v>
   <v>      -0.41380499      -0.10459836      -0.07869089 </v>
   <v>      -0.21337568      -0.23963747      -0.14861849 </v>
   <v>       0.14795945      -0.23010077       0.43535077 </v>
   <v>       0.29241413       0.20071644       0.18106584 </v>
   <v>       0.35523919       0.00186620       0.10738137 </v>
   <v>      -0.63199007       0.09766668       0.21528377 </v>
   <v>      -0.09892460      -0.42027846      -0.16489211 </v>
   <v>      -0.63006942      -0.02643574      -0.35191214 </v>
   <v>      -0.15233092       0.31723710      -0.72134905 </v>
   <v>       0.10314245      -0.03128968       0.46235583 </v>
   <v>       0.31523876       0.60820426       0.58034867 </v>
   <v>      -0.35563924      -0.41080313      -0.64179776 </v>
   <v>       0.08603113       0.04811012       0.73669276 </v>
   <v>      -0.70433995       0.07015009       0.58641856 </v>
   <v>       0.38678458      -0.32499312      -0.86053102 </v>
   <v>      -0.56213513       0.23625378      -0.07759265 </v>
   <v>       0.43705164      -0.05216608       0.68519557 </v>
   <v>      -0.30457885       0.63897763      -0.99979674 </v>
   <v>       0.21031630      -0.31078576       0.05006052 </v>
   <v>      -0.04295823      -0.11410622      -0.00271075 </v>
   <v>       0.09905870       0.11796312       0.34723037 </v>
   <v>       0.83442988      -0.18167148       0.00675068 </v>
   <v>      -0.62999896       1.25532204      -0.82201439 </v>
   <v>       0.22764070      -0.77422025      -0.11273512 </v>
   <v>      -1.13053668      -0.29083899      -0.81276594 </v>
   <v>       0.22061392      -0.70582665      -0.03593030 </v>
   <v>       1.73551178      -0.15939584       0.51580765 </v>
   <v>       0.77435286       0.58741790       0.10016693 </v>
   <v>       0.42663970       0.12980812       0.00267128 </v>
   <v>      -0.49293364       0.13422344      -0.51165034 </v>
   <v>       1.16615316      -0.62978873       0.52358973 </v>
   <v>       0.12354512       0.00628637       0.26645416 </v>
   <v>      -0.48913750       1.61450827       0.22986800 </v>
   <v>       1.18195173      -1.03871558       0.40909401 </v>
   <v>      -0.89565744       1.46461534      -0.55626221 </v>
   <v>      -0.64491255      -0.21819083       1.02854467 </v>
   <v>       0.60326441       0.40107266       0.04279970 </v>
   <v>       0.21050567       0.30652678      -0.64186855 </v>
   <v>       0.00472011      -0.04334016      -0.12658615 </v>
   <v>      -0.05851779       0.49477731       0.14243537 </v>
   <v>      -0.61860016       0.08257250       0.01623974 </v>
   <v>      -0.57743996      -0.82842389       0.57778309 </v>
   <v>       0.72933252      -0.54027205      -0.82451329 </v>
   <v>       0.26648047      -1.11801954      -1.47684661 </v>
   <v>      -0.68497108       0.59339085       1.03586701 </v>
   <v>      -0.83028322      -0.93158628      -0.52676608 </v>
   <v>       1.06526469      -1.72159117       1.04115211 </v>
   <v>      -0.25060287       2.02156930       0.38460460 </v>
  </varray>
  <varray name="stress" >
   <v>    -153.92561612       8.19125795      -3.00828851 </v>
   <v>       8.19125926    -153.82272599      -0.40171550 </v>
   <v>      -3.00828888      -0.40171820    -150.75464029 </v>
  </varray>
  <energy>
   <i name="e_fr_energy">   -643.31737691 </i>
   <i name="e_wo_entrp">   -643.22894791 </i>
   <i name="e_0_energy">     -0.17685799 </i>
  </energy>
  <time name="totalsc">  977.87  980.27</time>
 </calculation>
 <calculation>
  <scstep>
   <time name="dav">   28.39   28.46</time>
   <time name="total">   28.68   28.76</time>
   <energy>
    <i name="alphaZ">   4724.37093610 </i>
    <i name="ewald"> -45132.78652266 </i>
    <i name="hartreedc">  -8704.67535657 </i>
    <i name="XCdc">   2086.48504393 </i>
    <i name="pawpsdc">  32385.10015379 </i>
    <i name="pawaedc"> -32338.87271201 </i>
    <i name="eentropy">     -0.07480999 </i>
    <i name="bandstr">  -3884.75622673 </i>
    <i name="atom">  50139.78385737 </i>
    <i name="e_fr_energy">   -725.42563678 </i>
    <i name="e_wo_entrp">   -725.35082678 </i>
    <i name="e_0_energy">   -725.38823178 </i>
   </energy>
  </scstep>
  <scstep>
   <time name="diag">    1.78    1.78</time>
   <time name="diis">   17.71   17.73</time>
   <time name="orth">    0.43    0.43</time>
   <time name="total">   20.20   20.22</time>
   <energy>
    <i name="e_fr_energy">   -839.20848928 </i>
    <i name="e_wo_entrp">   -839.11557289 </i>
    <i name="e_0_energy">   -839.16203109 </i>
   </energy>
  </scstep>
  <scstep>
   <time name="diag">    1.80    1.81</time>
   <time name="diis">   19.93   20.01</time>
   <time name="orth">    0.44    0.44</time>
   <time name="total">   22.47   22.58</time>
   <energy>
    <i name="e_fr_energy">   -655.91808697 </i>
    <i name="e_wo_entrp">   -655.79679626 </i>
    <i name="e_0_energy">   -655.85744161 </i>
   </energy>
  </scstep>
  <scstep>
   <time name="diag">    1.81    1.82</time>
   <time name="diis">   18.25   18.33</time>
   <time name="orth">    0.44    0.44</time>
   <time name="total">   20.79   20.87</time>
   <energy>
    <i name="e_fr_energy">   -657.36359879 </i>
    <i name="e_wo_entrp">   -657.25219598 </i>
    <i name="e_0_energy">   -657.30789739 </i>
   </energy>
  </scstep>
  <scstep>
   <time name="diag">    1.79    1.81</time>
   <time name="diis">   17.96   18.00</time>
   <time name="orth">    0.43    0.43</time>
   <time name="total">   20.47   20.53</time>
   <energy>
    <i name="e_fr_energy">   -648.98950066 </i>
    <i name="e_wo_entrp">   -648.86812185 </i>
    <i name="e_0_energy">   -648.92881125 </i>
   </energy>
  </scstep>
  <scstep>
   <time name="diag">    1.78    1.78</time>
   <time name="diis">   21.49   21.53</time>
   <time name="orth">    0.43    0.43</time>
   <time name="total">   23.99   24.04</time>
   <energy>
    <i name="e_fr_energy">   -643.98642829 </i>
    <i name="e_wo_entrp">   -643.85891245 </i>
    <i name="e_0_energy">   -643.92267037 </i>
   </energy>
  </scstep>
  <scstep>
   <time name="diag">    1.79    1.80</time>
   <time name="diis">   20.46   20.49</time>
   <time name="orth">    0.43    0.43</time>
   <time name="total">   22.98   23.02</time>
   <energy>
    <i name="e_fr_energy">   -642.43752459 </i>
    <i name="e_wo_entrp">   -642.30336720 </i>
    <i name="e_0_energy">   -642.37044589 </i>
   </energy>
  </scstep>
  <scstep>
   <time name="diag">    1.78    1.78</time>
   <time name="diis">   20.07   20.12</time>
   <time name="orth">    0.46    0.46</time>
   <time name="total">   22.62   22.69</time>
   <energy>
    <i name="e_fr_energy">   -642.85539679 </i>
    <i name="e_wo_entrp">   -642.71688209 </i>
    <i name="e_0_energy">   -642.78613944 </i>
   </energy>
  </scstep>
  <scstep>
   <time name="diag">    1.78    1.81</time>
   <time name="diis">   20.60   20.66</time>
   <time name="orth">    0.43    0.43</time>
   <time name="total">   23.10   23.20</time>
   <energy>
    <i name="e_fr_energy">   -641.92314920 </i>
    <i name="e_wo_entrp">   -641.79932052 </i>
    <i name="e_0_energy">   -641.86123486 </i>
   </energy>
  </scstep>
  <scstep>
   <time name="diag">    1.78    1.78</time>
   <time name="diis">   23.77   23.84</time>
   <time name="orth">    0.43    0.43</time>
   <time name="total">   26.27   26.35</time>
   <energy>
    <i name="e_fr_energy">   -642.10530683 </i>
    <i name="e_wo_entrp">   -641.97674871 </i>
    <i name="e_0_energy">   -642.04102777 </i>
   </energy>
  </scstep>
  <scstep>
   <time name="diag">    1.77    1.77</time>
   <time name="diis">   23.11   23.15</time>
   <time name="orth">    0.43    0.43</time>
   <time name="total">   25.60   25.65</time>
   <energy>
    <i name="e_fr_energy">   -642.01084790 </i>
    <i name="e_wo_entrp">   -641.88129752 </i>
    <i name="e_0_energy">   -641.94607271 </i>
   </energy>
  </scstep>
  <scstep>
   <time name="diag">    1.78    1.79</time>
   <time name="diis">   22.40   22.44</time>
   <time name="orth">    0.43    0.43</time>
   <time name="total">   24.91   24.96</time>
   <energy>
    <i name="e_fr_energy">   -642.01305384 </i>
    <i name="e_wo_entrp">   -641.88349291 </i>
    <i name="e_0_energy">   -641.94827338 </i>
   </energy>
  </scstep>
  <scstep>
   <time name="diag">    1.77    1.78</time>
   <time name="diis">   23.52   23.55</time>
   <time name="orth">    0.43    0.43</time>
   <time name="total">   26.01   26.06</time>
   <energy>
    <i name="e_fr_energy">   -642.04976126 </i>
    <i name="e_wo_entrp">   -641.92349401 </i>
    <i name="e_0_energy">   -641.98662763 </i>
   </energy>
  </scstep>
  <scstep>
   <time name="diag">    1.79    1.79</time>
   <time name="diis">   24.02   24.07</time>
   <time name="orth">    0.43    0.43</time>
   <time name="total">   26.53   26.59</time>
   <energy>
    <i name="e_fr_energy">   -642.04148528 </i>
    <i name="e_wo_entrp">   -641.91294102 </i>
    <i name="e_0_energy">   -641.97721315 </i>
   </energy>
  </scstep>
  <scstep>
   <time name="diag">    1.78    1.78</time>
   <time name="diis">   23.55   23.59</time>
   <time name="orth">    0.43    0.43</time>
   <time name="total">   26.06   26.10</time>
   <energy>
    <i name="e_fr_energy">   -642.05738336 </i>
    <i name="e_wo_entrp">   -641.92794271 </i>
    <i name="e_0_energy">   -641.99266303 </i>
   </energy>
  </scstep>
  <scstep>
   <time name="diag">    1.82    1.83</time>
   <time name="diis">   23.74   23.78</time>
   <time name="orth">    0.43    0.43</time>
   <time name="total">   26.29   26.34</time>
   <energy>
    <i name="e_fr_energy">   -642.06353348 </i>
    <i name="e_wo_entrp">   -641.93463347 </i>
    <i name="e_0_energy">   -641.99908348 </i>
   </energy>
  </scstep>
  <scstep>
   <time name="diag">    1.77    1.77</time>
   <time name="diis">   23.96   24.02</time>
   <time name="orth">    0.43    0.43</time>
   <time name="total">   26.46   26.52</time>
   <energy>
    <i name="e_fr_energy">   -642.06545618 </i>
    <i name="e_wo_entrp">   -641.93647202 </i>
    <i name="e_0_energy">   -642.00096410 </i>
   </energy>
  </scstep>
  <scstep>
   <time name="diag">    1.77    1.78</time>
   <time name="diis">   24.41   24.48</time>
   <time name="orth">    0.43    0.43</time>
   <time name="total">   26.90   26.98</time>
   <energy>
    <i name="e_fr_energy">   -642.06703960 </i>
    <i name="e_wo_entrp">   -641.93809408 </i>
    <i name="e_0_energy">   -642.00256684 </i>
   </energy>
  </scstep>
  <scstep>
   <time name="diag">    1.78    1.78</time>
   <time name="diis">   23.52   23.56</time>
   <time name="orth">    0.43    0.43</time>
   <time name="total">   26.02   26.06</time>
   <energy>
    <i name="e_fr_energy">   -642.06816935 </i>
    <i name="e_wo_entrp">   -641.93927946 </i>
    <i name="e_0_energy">   -642.00372440 </i>
   </energy>
  </scstep>
  <scstep>
   <time name="diag">    1.79    1.81</time>
   <time name="diis">   23.25   23.30</time>
   <time name="orth">    0.43    0.43</time>
   <time name="total">   25.77   25.84</time>
   <energy>
    <i name="e_fr_energy">   -642.06884516 </i>
    <i name="e_wo_entrp">   -641.93998746 </i>
    <i name="e_0_energy">   -642.00441631 </i>
   </energy>
  </scstep>
  <scstep>
   <time name="diag">    1.78    1.78</time>
   <time name="diis">   22.26   22.32</time>
   <time name="orth">    0.43    0.43</time>
   <time name="total">   24.77   24.84</time>
   <energy>
    <i name="e_fr_energy">   -642.06935507 </i>
    <i name="e_wo_entrp">   -641.94048649 </i>
    <i name="e_0_energy">   -642.00492078 </i>
   </energy>
  </scstep>
  <scstep>
   <time name="diag">    1.77    1.78</time>
   <time name="diis">   22.29   22.40</time>
   <time name="orth">    0.43    0.43</time>
   <time name="total">   24.79   24.90</time>
   <energy>
    <i name="e_fr_energy">   -642.06959468 </i>
    <i name="e_wo_entrp">   -641.94073405 </i>
    <i name="e_0_energy">   -642.00516436 </i>
   </energy>
  </scstep>
  <scstep>
   <time name="diag">    1.80    1.81</time>
   <time name="diis">   21.14   21.21</time>
   <time name="orth">    0.43    0.43</time>
   <time name="total">   23.67   23.75</time>
   <energy>
    <i name="e_fr_energy">   -642.06976988 </i>
    <i name="e_wo_entrp">   -641.94090050 </i>
    <i name="e_0_energy">   -642.00533519 </i>
   </energy>
  </scstep>
  <scstep>
   <time name="diag">    1.78    1.78</time>
   <time name="diis">   21.17   21.20</time>
   <time name="orth">    0.43    0.43</time>
   <time name="total">   23.68   23.71</time>
   <energy>
    <i name="e_fr_energy">   -642.06986838 </i>
    <i name="e_wo_entrp">   -641.94100876 </i>
    <i name="e_0_energy">   -642.00543857 </i>
   </energy>
  </scstep>
  <scstep>
   <time name="diag">    1.78    1.78</time>
   <time name="diis">   19.68   19.71</time>
   <time name="orth">    0.43    0.43</time>
   <time name="total">   22.18   22.21</time>
   <energy>
    <i name="e_fr_energy">   -642.06993698 </i>
    <i name="e_wo_entrp">   -641.94108518 </i>
    <i name="e_0_energy">   -642.00551108 </i>
   </energy>
  </scstep>
  <scstep>
   <time name="diag">    1.78    1.78</time>
   <time name="diis">   19.47   19.53</time>
   <time name="orth">    0.43    0.44</time>
   <time name="total">   21.97   22.05</time>
   <energy>
    <i name="e_fr_energy">   -642.06997745 </i>
    <i name="e_wo_entrp">   -641.94113160 </i>
    <i name="e_0_energy">   -642.00555452 </i>
   </energy>
  </scstep>
  <scstep>
   <time name="diag">    1.77    1.77</time>
   <time name="diis">   19.72   19.81</time>
   <time name="orth">    0.43    0.43</time>
   <time name="total">   22.22   22.32</time>
   <energy>
    <i name="e_fr_energy">   -642.07000545 </i>
    <i name="e_wo_entrp">   -641.94115445 </i>
    <i name="e_0_energy">   -642.00557995 </i>
   </energy>
  </scstep>
  <scstep>
   <time name="diag">    1.78    1.78</time>
   <time name="diis">   17.55   17.62</time>
   <time name="orth">    0.43    0.43</time>
   <time name="total">   20.05   20.13</time>
   <energy>
    <i name="e_fr_energy">   -642.07002168 </i>
    <i name="e_wo_entrp">   -641.94117382 </i>
    <i name="e_0_energy">   -642.00559775 </i>
   </energy>
  </scstep>
  <scstep>
   <time name="diag">    1.78    1.78</time>
   <time name="diis">   16.67   16.73</time>
   <time name="orth">    0.43    0.43</time>
   <time name="total">   19.18   19.23</time>
   <energy>
    <i name="e_fr_energy">   -642.07003226 </i>
    <i name="e_wo_entrp">   -641.94118582 </i>
    <i name="e_0_energy">   -642.00560904 </i>
   </energy>
  </scstep>
  <scstep>
   <time name="diag">    1.78    1.78</time>
   <time name="diis">   16.63   16.65</time>
   <time name="orth">    0.43    0.43</time>
   <time name="total">   18.86   18.89</time>
   <energy>
    <i name="alphaZ">   4724.37093610 </i>
    <i name="ewald"> -45132.78652266 </i>
    <i name="hartreedc">  -7488.32721292 </i>
    <i name="XCdc">   2017.51517576 </i>
    <i name="pawpsdc">  34213.76230276 </i>
    <i name="pawaedc"> -34154.58185547 </i>
    <i name="eentropy">     -0.12884498 </i>
    <i name="bandstr">  -4961.67787521 </i>
    <i name="atom">  50139.78385737 </i>
    <i name="e_fr_energy">   -642.07003925 </i>
    <i name="e_wo_entrp">   -641.94119427 </i>
    <i name="e_0_energy">   -642.00561676 </i>
   </energy>
  </scstep>
  <structure>
   <crystal>
    <varray name="basis" >
     <v>       8.46485875       0.02488585      -0.00913948 </v>
     <v>       0.03068061       8.58184558      -0.00124316 </v>
     <v>       0.02123311      -0.01605146       8.47885267 </v>
    </varray>
    <i name="volume">    615.93373803 </i>
    <varray name="rec_basis" >
     <v>       0.11813638      -0.00042239      -0.00029664 </v>
     <v>      -0.00034234       0.11652631       0.00022146 </v>
     <v>       0.00012729       0.00001663       0.11794020 </v>
    </varray>
   </crystal>
   <varray name="positions" >
    <v>       0.99605522       0.99679393       0.99469744 </v>
    <v>       0.26463210       0.99912766       0.24453488 </v>
    <v>       0.24793975       0.49982919       0.24619981 </v>
    <v>       0.50148069       0.49773104       0.00098639 </v>
    <v>       0.50436921       0.23799198       0.74641013 </v>
    <v>       0.99851101       0.50178182       0.49908039 </v>
    <v>       0.49451751       0.76628615       0.75318728 </v>
    <v>       0.99356455       0.23357605       0.26004649 </v>
    <v>       0.75480665       0.74434591       0.01128511 </v>
    <v>       0.00411458       0.25384677       0.74328549 </v>
    <v>       0.74954585       0.25619791       0.50333643 </v>
    <v>       0.99999619       0.74616832       0.74947469 </v>
    <v>       0.25259260       0.49549640       0.74931112 </v>
    <v>       0.24888537       0.24885077       0.99400254 </v>
    <v>       0.50995298       0.25230013       0.25235185 </v>
    <v>       0.74190415       0.99052894       0.26960742 </v>
    <v>       0.75495700       0.25547203       0.99549520 </v>
    <v>       0.24647132       0.74846196       0.99893781 </v>
    <v>       0.25351145       0.24700826       0.50250006 </v>
    <v>       0.24615506       0.75156098       0.50081738 </v>
    <v>       0.25173650       0.24944093       0.24882964 </v>
    <v>       0.25805222       0.00036235       0.99412207 </v>
    <v>       0.00228037       0.24799947       0.00040991 </v>
    <v>       0.74974402       0.24602586       0.25302039 </v>
    <v>       0.74686021       0.99916327       0.00812615 </v>
    <v>       0.50769812       0.99960764       0.24922580 </v>
    <v>       0.99220919       0.48412561       0.24414271 </v>
    <v>       0.50328318       0.75911546       0.00508557 </v>
    <v>       0.98942006       0.00228321       0.74106666 </v>
    <v>       0.75363434       0.24475919       0.75213548 </v>
    <v>       0.73842677       0.00243056       0.50598485 </v>
    <v>       0.50260467       0.23390787       0.49503112 </v>
    <v>       0.50243729       0.00033852       0.73841867 </v>
    <v>       0.99557224       0.00111462       0.25360309 </v>
    <v>       0.50541594       0.24507479       0.00289023 </v>
    <v>       0.25110842       0.74897210       0.24909536 </v>
    <v>       0.24380786       0.50136167       0.99698429 </v>
    <v>       0.00287713       0.74217219       0.00463644 </v>
    <v>       0.75293914       0.74558990       0.25323276 </v>
    <v>       0.75962433       0.49903435       0.00227146 </v>
    <v>       0.50091099       0.50177298       0.25440267 </v>
    <v>       0.25020460       0.24938945       0.74834605 </v>
    <v>       0.25382369       0.99739564       0.50566431 </v>
    <v>       0.00221825       0.24543034       0.50182073 </v>
    <v>       0.24407372       0.75410153       0.75019444 </v>
    <v>       0.25575724       0.50133028       0.49852812 </v>
    <v>       0.99629020       0.75879981       0.50028634 </v>
    <v>       0.99270201       0.50059598       0.75281834 </v>
    <v>       0.74770832       0.75748326       0.74880087 </v>
    <v>       0.74673913       0.49644020       0.50287832 </v>
    <v>       0.50091856       0.75737737       0.49419730 </v>
    <v>       0.50150777       0.50102725       0.74467212 </v>
    <v>       0.51914587       0.01571707       0.98098111 </v>
    <v>       0.99956825       0.51139695       0.98266523 </v>
    <v>       0.50381813       0.73903789       0.25836670 </v>
    <v>       0.23747952       0.01345721       0.74684885 </v>
    <v>       0.47623846       0.98352005       0.49726766 </v>
    <v>       0.73966302       0.97429203       0.76762883 </v>
    <v>       0.00260681       0.77285402       0.25656927 </v>
    <v>       0.73698171       0.50871006       0.25868799 </v>
    <v>       0.01989847       0.00100095       0.50116163 </v>
    <v>       0.50091922       0.52336219       0.49633651 </v>
    <v>       0.74449902       0.51911822       0.74377013 </v>
    <v>       0.75263218       0.74015327       0.49324607 </v>
   </varray>
  </structure>
  <varray name="forces" >
   <v>       0.39174787       0.30230831      -0.40914821 </v>
   <v>      -0.02196214       0.30810924      -0.31189367 </v>
   <v>      -0.56063988      -0.57084275       0.09186375 </v>
   <v>      -0.21112899       0.13832352      -0.09774374 </v>
   <v>      -0.20109069       0.37404672       0.23404266 </v>
   <v>       0.76100928      -0.20207669      -0.04882641 </v>
   <v>      -0.41512450      -1.03099195       0.25932563 </v>
   <v>       0.23552351       0.83603788      -1.09673031 </v>
   <v>      -0.32536197       0.55070566      -0.76707431 </v>
   <v>      -0.28931048      -0.43854969       1.20884126 </v>
   <v>       0.04354307      -1.26845063      -0.12060916 </v>
   <v>      -0.17223259       0.45150486       0.78473339 </v>
   <v>      -0.56718269       0.14324118       0.16970836 </v>
   <v>       0.39014086      -0.28529229       0.09961264 </v>
   <v>      -0.33677887      -0.36888419      -0.45169804 </v>
   <v>      -0.42096199       0.69773080      -0.85564570 </v>
   <v>      -0.50963365      -0.53072300       0.31843421 </v>
   <v>       0.21506545       0.13210459       0.07088580 </v>
   <v>       0.22468692      -0.17721552      -0.12877495 </v>
   <v>       0.35974131       0.12918224       0.00760319 </v>
   <v>       0.42579412      -0.18427740      -0.05876794 </v>
   <v>       0.20333861       0.10651079      -0.47427436 </v>
   <v>       0.05240296       0.63366859       0.04798876 </v>
   <v>      -0.73677083      -0.18631129      -0.94638593 </v>
   <v>      -0.44178915       0.66390571      -0.43656661 </v>
   <v>       0.69578037      -0.12734468      -0.13957522 </v>
   <v>       0.08343784       1.19899995      -0.49311473 </v>
   <v>      -0.75157849       0.33471396       0.29647694 </v>
   <v>      -0.16557098       0.07016902       0.54103651 </v>
   <v>      -0.03684603       0.14233521       0.53143727 </v>
   <v>       0.71727875      -0.52623058       0.17484908 </v>
   <v>      -0.83699419       0.51398172      -0.36404431 </v>
   <v>       0.09843484       0.40928909       0.51685161 </v>
   <v>       0.07202729      -0.47012693      -0.32038637 </v>
   <v>      -0.19170745      -0.30528261       0.35080820 </v>
   <v>       0.69970047       0.05208238      -0.07984987 </v>
   <v>      -0.46297823      -0.04483622      -0.10140139 </v>
   <v>       0.50192260      -0.14784822       0.11429625 </v>
   <v>      -0.87314519       0.84133650      -0.06630353 </v>
   <v>       0.35670660      -0.69152994       0.03509878 </v>
   <v>      -0.73989228      -0.42224002      -0.44059823 </v>
   <v>       0.34712861      -0.55904591       0.02690212 </v>
   <v>       0.60210922       0.13846502       0.47106442 </v>
   <v>       0.65916070       0.51874293      -0.00867849 </v>
   <v>       0.21292027       0.51961619       0.11134840 </v>
   <v>      -0.25532460      -0.03903428      -0.02101544 </v>
   <v>       0.98676038      -0.53955581       0.26558917 </v>
   <v>       0.68038043      -0.17012735       0.28765730 </v>
   <v>       0.02829563      -0.17916485       0.04797180 </v>
   <v>       0.00948245       0.45545434      -0.32091610 </v>
   <v>      -0.84259222       0.75253153      -0.15068805 </v>
   <v>      -0.16467723       0.05045357       0.18155402 </v>
   <v>      -0.00790533      -0.55445714       0.33829207 </v>
   <v>       0.33017722      -0.41687536       0.36095543 </v>
   <v>      -0.49927562       0.14081395      -0.61595565 </v>
   <v>      -0.22965013      -0.16785311       0.33812638 </v>
   <v>       0.55403434       0.64569574      -0.28917592 </v>
   <v>      -0.31361611       1.06209757       0.55664261 </v>
   <v>       0.54880454      -1.08760549      -0.95132718 </v>
   <v>       0.80873564      -0.95742751      -1.02004377 </v>
   <v>      -0.45860200       0.46399782       0.15422766 </v>
   <v>       0.07686186      -1.11599359       0.04159675 </v>
   <v>       0.37648129      -0.70104516       1.82808630 </v>
   <v>      -0.70929082       0.68908361       0.72330492 </v>
  </varray>
  <varray name="stress" >
   <v>     364.76205167       3.97544149       3.33985174 </v>
   <v>       3.97544003     315.61007184      -2.15000050 </v>
   <v>       3.33984924      -2.15000062     359.93725804 </v>
  </varray>
  <energy>
   <i name="e_fr_energy">   -642.07003925 </i>
   <i name="e_wo_entrp">   -642.00561676 </i>
   <i name="e_0_energy">     -0.12884498 </i>
  </energy>
  <time name="totalsc">  758.98  760.99</time>
 </calculation>
 <calculation>
  <scstep>
   <time name="dav">   29.03   29.14</time>
   <time name="total">   29.35   29.46</time>
   <energy>
    <i name="alphaZ">   4341.58571997 </i>
    <i name="ewald"> -43871.33811493 </i>
    <i name="hartreedc">  -7283.34973885 </i>
    <i name="XCdc">   1959.72806183 </i>
    <i name="pawpsdc">  34213.62717772 </i>
    <i name="pawaedc"> -34154.54405747 </i>
    <i name="eentropy">     -0.15586234 </i>
    <i name="bandstr">  -6020.78194872 </i>
    <i name="atom">  50139.78385737 </i>
    <i name="e_fr_energy">   -675.44490541 </i>
    <i name="e_wo_entrp">   -675.28904307 </i>
    <i name="e_0_energy">   -675.36697424 </i>
   </energy>
  </scstep>
  <scstep>
   <time name="diag">    1.82    1.86</time>
   <time name="diis">   22.02   22.08</time>
   <time name="orth">    0.43    0.43</time>
   <time name="total">   24.56   24.66</time>
   <energy>
    <i name="e_fr_energy">   -850.30369571 </i>
    <i name="e_wo_entrp">   -850.18201286 </i>
    <i name="e_0_energy">   -850.24285429 </i>
   </energy>
  </scstep>
  <scstep>
   <time name="diag">    1.78    1.79</time>
   <time name="diis">   19.28   19.31</time>
   <time name="orth">    0.45    0.45</time>
   <time name="total">   21.81   21.86</time>
   <energy>
    <i name="e_fr_energy">   -666.17944914 </i>
    <i name="e_wo_entrp">   -666.06752158 </i>
    <i name="e_0_energy">   -666.12348536 </i>
   </energy>
  </scstep>
  <scstep>
   <time name="diag">    1.82    1.85</time>
   <time name="diis">   18.59   18.61</time>
   <time name="orth">    0.43    0.43</time>
   <time name="total">   21.13   21.19</time>
   <energy>
    <i name="e_fr_energy">   -668.91542511 </i>
    <i name="e_wo_entrp">   -668.81858058 </i>
    <i name="e_0_energy">   -668.86700284 </i>
   </energy>
  </scstep>
  <scstep>
   <time name="diag">    1.81    1.83</time>
   <time name="diis">   20.43   20.45</time>
   <time name="orth">    0.43    0.43</time>
   <time name="total">   22.97   23.00</time>
   <energy>
    <i name="e_fr_energy">   -662.67924775 </i>
    <i name="e_wo_entrp">   -662.55454631 </i>
    <i name="e_0_energy">   -662.61689703 </i>
   </energy>
  </scstep>
  <scstep>
   <time name="diag">    1.79    1.79</time>
   <time name="diis">   18.95   18.98</time>
   <time name="orth">    0.45    0.45</time>
   <time name="total">   21.49   21.53</time>
   <energy>
    <i name="e_fr_energy">   -649.47374001 </i>
    <i name="e_wo_entrp">   -649.32544571 </i>
    <i name="e_0_energy">   -649.39959286 </i>
   </energy>
  </scstep>
  <scstep>
   <time name="diag">    1.85    1.88</time>
   <time name="diis">   20.99   21.01</time>
   <time name="orth">    0.43    0.43</time>
[...]
      </set>
     </set>
    </set>
   </array>
  </eigenvalues>
  <separator name="orbital magnetization" >
   <v name="MAGDIPOLOUT">      0.00000000      0.00000000      0.00000000</v>
  </separator>
  <dos>
   <i name="efermi">      8.99769245 </i>
   <total>
    <array>
     <dimension dim="1">gridpoints</dimension>
     <dimension dim="2">spin</dimension>
     <field>energy</field>
     <field>total</field>
     <field>integrated</field>
     <set>
      <set comment="spin 1">
       <r>   -51.7543     0.0000     0.0000 </r>
       <r>   -51.5337     0.0000     0.0000 </r>
       <r>   -51.3130     0.0000     0.0000 </r>
       <r>   -51.0923     0.0000     0.0000 </r>
       <r>   -50.8717     0.0000     0.0000 </r>
       <r>   -50.6510     0.0000     0.0000 </r>
       <r>   -50.4304     0.0000     0.0000 </r>
       <r>   -50.2097     0.0000     0.0000 </r>
       <r>   -49.9891     0.0000     0.0000 </r>
       <r>   -49.7684     0.0000     0.0000 </r>
       <r>   -49.5477     0.0000     0.0000 </r>
       <r>   -49.3271     0.0000     0.0000 </r>
       <r>   -49.1064     0.0000     0.0000 </r>
       <r>   -48.8858     0.2137     0.0471 </r>
       <r>   -48.6651    10.8965     2.4515 </r>
       <r>   -48.4445    21.9403     7.2928 </r>
       <r>   -48.2238    24.1723    12.6266 </r>
       <r>   -48.0031     6.2045    13.9957 </r>
       <r>   -47.7825     0.0197    14.0000 </r>
       <r>   -47.5618     0.0000    14.0000 </r>
       <r>   -47.3412     0.0003    14.0001 </r>
       <r>   -47.1205     1.9159    14.4228 </r>
       <r>   -46.8999    17.1492    18.2069 </r>
       <r>   -46.6792    19.2735    22.4597 </r>
       <r>   -46.4586    13.8631    25.5187 </r>
       <r>   -46.2379     2.1804    25.9999 </r>
       <r>   -46.0172     0.0006    26.0000 </r>
       <r>   -45.7966     0.0000    26.0000 </r>
       <r>   -45.5759     0.0000    26.0000 </r>
       <r>   -45.3553     0.0000    26.0000 </r>
       <r>   -45.1346     0.0000    26.0000 </r>
       <r>   -44.9140     0.0000    26.0000 </r>
       <r>   -44.6933     0.0000    26.0000 </r>
       <r>   -44.4726     0.0000    26.0000 </r>
       <r>   -44.2520     0.0000    26.0000 </r>
       <r>   -44.0313     0.0000    26.0000 </r>
       <r>   -43.8107     0.0000    26.0000 </r>
       <r>   -43.5900     0.0000    26.0000 </r>
       <r>   -43.3694     0.0000    26.0000 </r>
       <r>   -43.1487     0.0000    26.0000 </r>
       <r>   -42.9280     0.0000    26.0000 </r>
       <r>   -42.7074     0.0000    26.0000 </r>
       <r>   -42.4867     0.0000    26.0000 </r>
       <r>   -42.2661     0.0000    26.0000 </r>
       <r>   -42.0454     0.0000    26.0000 </r>
       <r>   -41.8248     0.0000    26.0000 </r>
       <r>   -41.6041     0.0000    26.0000 </r>
       <r>   -41.3834     0.0000    26.0000 </r>
       <r>   -41.1628     0.0000    26.0000 </r>
       <r>   -40.9421     0.0000    26.0000 </r>
       <r>   -40.7215     0.0000    26.0000 </r>
       <r>   -40.5008     0.0000    26.0000 </r>
       <r>   -40.2802     0.0000    26.0000 </r>
       <r>   -40.0595     0.0000    26.0000 </r>
       <r>   -39.8388     0.0000    26.0000 </r>
       <r>   -39.6182     0.0000    26.0000 </r>
       <r>   -39.3975     0.0000    26.0000 </r>
       <r>   -39.1769     0.0000    26.0000 </r>
       <r>   -38.9562     0.0000    26.0000 </r>
       <r>   -38.7356     0.0000    26.0000 </r>
       <r>   -38.5149     0.0000    26.0000 </r>
       <r>   -38.2942     0.0000    26.0000 </r>
       <r>   -38.0736     0.0000    26.0000 </r>
       <r>   -37.8529     0.0000    26.0000 </r>
       <r>   -37.6323     0.0000    26.0000 </r>
       <r>   -37.4116     0.0000    26.0000 </r>
       <r>   -37.1910     0.0000    26.0000 </r>
       <r>   -36.9703     0.0000    26.0000 </r>
       <r>   -36.7496     0.0000    26.0000 </r>
       <r>   -36.5290     0.0000    26.0000 </r>
       <r>   -36.3083     0.0000    26.0000 </r>
       <r>   -36.0877     0.0000    26.0000 </r>
       <r>   -35.8670     0.0000    26.0000 </r>
       <r>   -35.6464     0.0000    26.0000 </r>
       <r>   -35.4257     0.0000    26.0000 </r>
       <r>   -35.2050     0.0000    26.0000 </r>
       <r>   -34.9844     0.3934    26.0868 </r>
       <r>   -34.7637    11.3009    28.5804 </r>
       <r>   -34.5431    81.2510    46.5090 </r>
       <r>   -34.3224    67.9766    61.5085 </r>
       <r>   -34.1018     2.2270    62.0000 </r>
       <r>   -33.8811     0.0002    62.0000 </r>
       <r>   -33.6605     0.0000    62.0000 </r>
       <r>   -33.4398     0.0000    62.0000 </r>
       <r>   -33.2191     0.0000    62.0000 </r>
       <r>   -32.9985     0.0000    62.0000 </r>
       <r>   -32.7778     0.0000    62.0000 </r>
       <r>   -32.5572     0.0000    62.0000 </r>
       <r>   -32.3365     0.0000    62.0000 </r>
       <r>   -32.1159     0.0000    62.0000 </r>
       <r>   -31.8952     0.0000    62.0000 </r>
       <r>   -31.6745     0.0000    62.0000 </r>
       <r>   -31.4539     0.0000    62.0000 </r>
       <r>   -31.2332     0.0000    62.0000 </r>
       <r>   -31.0126     0.0000    62.0000 </r>
       <r>   -30.7919     0.0000    62.0000 </r>
       <r>   -30.5713     0.1261    62.0278 </r>
       <r>   -30.3506    25.3394    67.6191 </r>
       <r>   -30.1299    89.4980    87.3675 </r>
       <r>   -29.9093    44.7249    97.2364 </r>
       <r>   -29.6886     3.4600    97.9998 </r>
       <r>   -29.4680     0.0007    98.0000 </r>
       <r>   -29.2473     0.0000    98.0000 </r>
       <r>   -29.0267     0.0000    98.0000 </r>
       <r>   -28.8060     0.0000    98.0000 </r>
       <r>   -28.5853     0.0000    98.0000 </r>
       <r>   -28.3647     0.0000    98.0000 </r>
       <r>   -28.1440     0.0000    98.0000 </r>
       <r>   -27.9234     0.0000    98.0000 </r>
       <r>   -27.7027     0.0000    98.0000 </r>
       <r>   -27.4821     0.0000    98.0000 </r>
       <r>   -27.2614     0.0000    98.0000 </r>
       <r>   -27.0407     0.0000    98.0000 </r>
       <r>   -26.8201     0.0000    98.0000 </r>
       <r>   -26.5994     0.0000    98.0000 </r>
       <r>   -26.3788     0.0000    98.0000 </r>
       <r>   -26.1581     0.0000    98.0000 </r>
       <r>   -25.9375     0.0000    98.0000 </r>
       <r>   -25.7168     0.0000    98.0000 </r>
       <r>   -25.4961     0.0001    98.0000 </r>
       <r>   -25.2755     1.5066    98.3324 </r>
       <r>   -25.0548    33.0818   105.6322 </r>
       <r>   -24.8342    58.9511   118.6401 </r>
       <r>   -24.6135    76.7232   135.5696 </r>
       <r>   -24.3929    19.9890   139.9803 </r>
       <r>   -24.1722     0.0891   140.0000 </r>
       <r>   -23.9515     0.0000   140.0000 </r>
       <r>   -23.7309     0.0000   140.0000 </r>
       <r>   -23.5102     0.3500   140.0772 </r>
       <r>   -23.2896    14.0201   143.1709 </r>
       <r>   -23.0689    42.6798   152.5884 </r>
       <r>   -22.8483    62.0397   166.2779 </r>
       <r>   -22.6276    32.2912   173.4032 </r>
       <r>   -22.4069    11.7380   175.9933 </r>
       <r>   -22.1863     0.7766   176.1646 </r>
       <r>   -21.9656    19.4055   180.4466 </r>
       <r>   -21.7450    22.9427   185.5091 </r>
       <r>   -21.5243    72.6350   201.5365 </r>
       <r>   -21.3037    60.0575   214.7886 </r>
       <r>   -21.0830    13.9514   217.8671 </r>
       <r>   -20.8624     0.6024   218.0000 </r>
       <r>   -20.6417     0.0000   218.0000 </r>
       <r>   -20.4210     0.0000   218.0000 </r>
       <r>   -20.2004     0.0000   218.0000 </r>
       <r>   -19.9797     0.0000   218.0000 </r>
       <r>   -19.7591     0.0000   218.0000 </r>
       <r>   -19.5384     0.0000   218.0000 </r>
       <r>   -19.3178     0.0000   218.0000 </r>
       <r>   -19.0971     0.0000   218.0000 </r>
       <r>   -18.8764     0.0000   218.0000 </r>
       <r>   -18.6558     0.0000   218.0000 </r>
       <r>   -18.4351     0.0000   218.0000 </r>
       <r>   -18.2145     0.0000   218.0000 </r>
       <r>   -17.9938     0.0000   218.0000 </r>
       <r>   -17.7732     0.0000   218.0000 </r>
       <r>   -17.5525     0.0000   218.0000 </r>
       <r>   -17.3318     0.0000   218.0000 </r>
       <r>   -17.1112     0.0000   218.0000 </r>
       <r>   -16.8905     0.0000   218.0000 </r>
       <r>   -16.6699     0.0000   218.0000 </r>
       <r>   -16.4492     0.0000   218.0000 </r>
       <r>   -16.2286     0.0000   218.0000 </r>
       <r>   -16.0079     0.0000   218.0000 </r>
       <r>   -15.7872     0.0000   218.0000 </r>
       <r>   -15.5666     0.0000   218.0000 </r>
       <r>   -15.3459     0.0000   218.0000 </r>
       <r>   -15.1253     0.0000   218.0000 </r>
       <r>   -14.9046     0.0000   218.0000 </r>
       <r>   -14.6840     0.0000   218.0000 </r>
       <r>   -14.4633     0.0000   218.0000 </r>
       <r>   -14.2426     0.0000   218.0000 </r>
       <r>   -14.0220     0.0000   218.0000 </r>
       <r>   -13.8013     0.0000   218.0000 </r>
       <r>   -13.5807     0.0000   218.0000 </r>
       <r>   -13.3600     0.0000   218.0000 </r>
       <r>   -13.1394     0.0000   218.0000 </r>
       <r>   -12.9187     0.0000   218.0000 </r>
       <r>   -12.6980     0.0000   218.0000 </r>
       <r>   -12.4774     0.0000   218.0000 </r>
       <r>   -12.2567     0.0000   218.0000 </r>
       <r>   -12.0361     0.0000   218.0000 </r>
       <r>   -11.8154     0.0000   218.0000 </r>
       <r>   -11.5948     0.0000   218.0000 </r>
       <r>   -11.3741     0.0000   218.0000 </r>
       <r>   -11.1534     0.0000   218.0000 </r>
       <r>   -10.9328     0.0000   218.0000 </r>
       <r>   -10.7121     0.0000   218.0000 </r>
       <r>   -10.4915     0.0000   218.0000 </r>
       <r>   -10.2708     0.0000   218.0000 </r>
       <r>   -10.0502     0.0000   218.0000 </r>
       <r>    -9.8295     0.0000   218.0000 </r>
       <r>    -9.6088     0.0000   218.0000 </r>
       <r>    -9.3882     0.0000   218.0000 </r>
       <r>    -9.1675     0.0000   218.0000 </r>
       <r>    -8.9469     0.0000   218.0000 </r>
       <r>    -8.7262     0.0000   218.0000 </r>
       <r>    -8.5056     0.0000   218.0000 </r>
       <r>    -8.2849     0.0000   218.0000 </r>
       <r>    -8.0642     0.0000   218.0000 </r>
       <r>    -7.8436     0.0000   218.0000 </r>
       <r>    -7.6229     0.0000   218.0000 </r>
       <r>    -7.4023     0.1684   218.0372 </r>
       <r>    -7.1816     5.1352   219.1703 </r>
       <r>    -6.9610     7.6323   220.8544 </r>
       <r>    -6.7403     7.7760   222.5702 </r>
       <r>    -6.5197    14.1346   225.6891 </r>
       <r>    -6.2990     8.3659   227.5351 </r>
       <r>    -6.0783    18.8875   231.7028 </r>
       <r>    -5.8577    22.5602   236.6808 </r>
       <r>    -5.6370    21.2801   241.3764 </r>
       <r>    -5.4164    11.0353   243.8114 </r>
       <r>    -5.1957     0.8545   244.0000 </r>
       <r>    -4.9751     0.0000   244.0000 </r>
       <r>    -4.7544     0.0000   244.0000 </r>
       <r>    -4.5337     0.0000   244.0000 </r>
       <r>    -4.3131     0.0201   244.0044 </r>
       <r>    -4.0924     2.2951   244.5109 </r>
       <r>    -3.8718     6.0468   245.8452 </r>
       <r>    -3.6511     1.3622   246.1457 </r>
       <r>    -3.4305     7.7643   247.8590 </r>
       <r>    -3.2098     7.7518   249.5695 </r>
       <r>    -2.9891    12.9297   252.4225 </r>
       <r>    -2.7685    18.4508   256.4938 </r>
       <r>    -2.5478    19.7150   260.8441 </r>
       <r>    -2.3272    23.6154   266.0550 </r>
       <r>    -2.1065    21.1384   270.7193 </r>
       <r>    -1.8859    17.2296   274.5211 </r>
       <r>    -1.6652    14.8370   277.7950 </r>
       <r>    -1.4445    12.0786   280.4602 </r>
       <r>    -1.2239     5.4551   281.6639 </r>
       <r>    -1.0032     1.4990   281.9947 </r>
       <r>    -0.7826     0.0240   282.0000 </r>
       <r>    -0.5619     0.0000   282.0000 </r>
       <r>    -0.3413     0.0000   282.0000 </r>
       <r>    -0.1206     0.0000   282.0000 </r>
       <r>     0.1001     0.0000   282.0000 </r>
       <r>     0.3207     0.0000   282.0000 </r>
       <r>     0.5414     0.0001   282.0000 </r>
       <r>     0.7620     0.1824   282.0403 </r>
       <r>     0.9827     0.6676   282.1876 </r>
       <r>     1.2033     4.0861   283.0892 </r>
       <r>     1.4240     8.3376   284.9290 </r>
       <r>     1.6447     9.3006   286.9812 </r>
       <r>     1.8653    15.3462   290.3674 </r>
       <r>     2.0860    17.0848   294.1373 </r>
       <r>     2.3066    26.3631   299.9545 </r>
       <r>     2.5273    28.7724   306.3034 </r>
       <r>     2.7479    27.3950   312.3482 </r>
       <r>     2.9686    28.4735   318.6311 </r>
       <r>     3.1893    33.5547   326.0352 </r>
       <r>     3.4099    36.3694   334.0604 </r>
       <r>     3.6306    40.7490   343.0519 </r>
       <r>     3.8512    49.7804   354.0363 </r>
       <r>     4.0719    57.7162   366.7718 </r>
       <r>     4.2925    60.8656   380.2022 </r>
       <r>     4.5132    60.1362   393.4717 </r>
       <r>     4.7339    59.6971   406.6442 </r>
       <r>     4.9545    54.9495   418.7692 </r>
       <r>     5.1752    49.4063   429.6711 </r>
       <r>     5.3958    43.7455   439.3238 </r>
       <r>     5.6165    36.7334   447.4293 </r>
       <r>     5.8371    30.3697   454.1306 </r>
       <r>     6.0578    27.6899   460.2405 </r>
       <r>     6.2784    24.5946   465.6675 </r>
       <r>     6.4991    16.4560   469.2986 </r>
       <r>     6.7198    15.0360   472.6164 </r>
       <r>     6.9404     7.0261   474.1668 </r>
       <r>     7.1611    11.9080   476.7943 </r>
       <r>     7.3817    15.6526   480.2482 </r>
       <r>     7.6024    16.2121   483.8255 </r>
       <r>     7.8230    21.7239   488.6190 </r>
       <r>     8.0437    22.8637   493.6641 </r>
       <r>     8.2644    18.3162   497.7056 </r>
       <r>     8.4850    24.2096   503.0477 </r>
       <r>     8.7057    29.1338   509.4762 </r>
       <r>     8.9263    26.7541   515.3797 </r>
       <r>     9.1470    24.5870   520.8050 </r>
       <r>     9.3676    30.0469   527.4351 </r>
       <r>     9.5883    39.4695   536.1443 </r>
       <r>     9.8090    42.8237   545.5936 </r>
       <r>    10.0296    47.3378   556.0390 </r>
       <r>    10.2503    50.7886   567.2459 </r>
       <r>    10.4709    51.4088   578.5896 </r>
       <r>    10.6916    51.8775   590.0367 </r>
       <r>    10.9122    50.3870   601.1550 </r>
       <r>    11.1329    51.1302   612.4372 </r>
       <r>    11.3536    43.3038   621.9925 </r>
       <r>    11.5742     9.0577   623.9911 </r>
       <r>    11.7949     0.0403   624.0000 </r>
       <r>    12.0155     0.0000   624.0000 </r>
       <r>    12.2362     0.0000   624.0000 </r>
       <r>    12.4568     0.0000   624.0000 </r>
       <r>    12.6775     0.0000   624.0000 </r>
       <r>    12.8982     0.0000   624.0000 </r>
       <r>    13.1188     0.0000   624.0000 </r>
       <r>    13.3395     0.0000   624.0000 </r>
       <r>    13.5601     0.0000   624.0000 </r>
       <r>    13.7808     0.0000   624.0000 </r>
       <r>    14.0014     0.0000   624.0000 </r>
       <r>    14.2221     0.0000   624.0000 </r>
       <r>    14.4428     0.0000   624.0000 </r>
      </set>
     </set>
    </array>
   </total>
  </dos>
 </calculation>
 <structure name="finalpos" >
  <crystal>
   <varray name="basis" >
    <v>       8.78784290       0.02386556      -0.01014947 </v>
    <v>       0.03031706       8.77343248       0.00404198 </v>
    <v>       0.02136322      -0.01106385       8.77359726 </v>
   </varray>
   <i name="volume">    676.43632138 </i>
   <varray name="rec_basis" >
    <v>       0.11379432      -0.00039309      -0.00027758 </v>
    <v>      -0.00030938       0.11398148       0.00014449 </v>
    <v>       0.00013178      -0.00005297       0.11397795 </v>
   </varray>
  </crystal>
  <varray name="positions" >
   <v>       0.00022087       0.99896777       0.99670550 </v>
   <v>       0.26783243       0.00294953       0.24592555 </v>
   <v>       0.24593598       0.49418272       0.24656335 </v>
   <v>       0.50004217       0.49988924       0.00176123 </v>
   <v>       0.50721784       0.24454910       0.74314861 </v>
   <v>      -0.00010037       0.50194354       0.50143368 </v>
   <v>       0.49561512       0.75967284       0.75088730 </v>
   <v>       0.98794208       0.24014007       0.25244958 </v>
   <v>       0.75637071       0.74602331       0.01050203 </v>
   <v>       0.00214148       0.25095409       0.74969328 </v>
   <v>       0.75370564       0.24906368       0.49447327 </v>
   <v>      -0.00084899       0.74961994       0.75221497 </v>
   <v>       0.24918558       0.49441671       0.75031221 </v>
   <v>       0.25674136       0.24273289       0.98966130 </v>
   <v>       0.50981012       0.25341618       0.25144223 </v>
   <v>       0.73305263       0.99378834       0.26104834 </v>
   <v>       0.74428972       0.24489432       0.00020057 </v>
   <v>       0.24693745       0.74850386       0.99680717 </v>
   <v>       0.25103285       0.24616900       0.50674352 </v>
   <v>       0.25082897       0.75243188       0.50360353 </v>
   <v>       0.25181883       0.24784836       0.24800092 </v>
   <v>       0.25416569       0.00211659       0.99639811 </v>
   <v>       0.00172296       0.25223953      -0.00001232 </v>
   <v>       0.74313379       0.23994393       0.24366811 </v>
   <v>       0.74648168       0.00115919       0.00454424 </v>
   <v>       0.50791205       0.00031486       0.25752899 </v>
   <v>       0.99501330       0.50245955       0.24565689 </v>
   <v>       0.49765550       0.76007983       0.00470874 </v>
   <v>       0.98523126       0.00391917       0.74310402 </v>
   <v>       0.75323058       0.25029524       0.75160938 </v>
   <v>       0.76011639       0.00236169       0.49299673 </v>
   <v>       0.49896301       0.24694910       0.49289501 </v>
   <v>       0.52264248       0.00160696       0.74572203 </v>
   <v>       0.99852149      -0.00025768       0.25139402 </v>
   <v>       0.50180702       0.24059156       0.00128709 </v>
   <v>       0.25388333       0.74966382       0.24981165 </v>
   <v>       0.24249859       0.49995355       0.99598899 </v>
   <v>       0.00457760       0.74301425       0.00503051 </v>
   <v>       0.74660694       0.74633954       0.25353167 </v>
   <v>       0.76165742       0.49400053       0.00546270 </v>
   <v>       0.49927947       0.50120554       0.25077956 </v>
   <v>       0.25173735       0.24470292       0.74866903 </v>
   <v>       0.25487679       0.00023238       0.51064775 </v>
   <v>       0.00506426       0.24911350       0.50051001 </v>
   <v>       0.24444936       0.75880267       0.75115273 </v>
   <v>       0.25492254       0.50180923       0.49982052 </v>
   <v>      -0.00138511       0.75708762       0.49919548 </v>
   <v>       0.99930409       0.50112395       0.75372742 </v>
   <v>       0.74883456       0.75444388       0.74906951 </v>
   <v>       0.74715644       0.49770977       0.50628262 </v>
   <v>       0.49793049       0.76487594       0.48992649 </v>
   <v>       0.50473577       0.50232928       0.74411155 </v>
   <v>       0.52186619       0.01033767       0.97329110 </v>
   <v>      -0.00080431       0.51272745       0.98000898 </v>
   <v>       0.47739855       0.73622593       0.25830062 </v>
   <v>       0.22205727       0.01365635       0.74131814 </v>
   <v>       0.47233722       0.99293833       0.51836282 </v>
   <v>       0.73915680       0.96952753       0.78260138 </v>
   <v>       0.01625207       0.76607518       0.25354384 </v>
   <v>       0.74044620       0.49203107       0.25430753 </v>
   <v>       0.01730699       0.00445395       0.49747785 </v>
   <v>       0.50324613       0.51712550       0.48965929 </v>
   <v>       0.75398926       0.51520374       0.76223515 </v>
   <v>       0.74424841       0.73735182       0.49009608 </v>
  </varray>
 </structure>
</modeling>
