HECN                                    
           1
     8.932500    0.000000    0.000000
     0.005753    9.055598    0.000000
     0.032102   -0.015743    8.937128
   Hf   Nb   Ti   N    C    Cr   W 
   7   6   7  13  19   6   6
Direct configuration=     1
   0.99688001  0.99204997  0.99924002
   0.25398003  0.99714995  0.24912000
   0.24803003  0.50165000  0.24955001
   0.50501006  0.49745998  0.99834003
   0.50479003  0.24631001  0.74710002
   0.99427992  0.50449999  0.49779000
   0.49950005  0.75481999  0.74817004
   0.99437004  0.23617001  0.26379999
   0.75718000  0.74102998  0.01100000
   0.00201000  0.25541000  0.73894001
   0.75307001  0.26163001  0.50533002
   0.99514004  0.74492004  0.74511997
   0.25679999  0.49462002  0.74545002
   0.24788999  0.24839000  0.99657997
   0.50833000  0.25676999  0.25376001
   0.74879004  0.98787999  0.26967001
   0.75719000  0.25603001  0.99591997
   0.24762001  0.74973999  0.99974006
   0.25272001  0.24823001  0.50015003
   0.24457999  0.75048999  0.49983999
   0.24982001  0.24942998  0.24825000
   0.26146999  0.99984002  0.99295996
   0.00281000  0.25024000  0.00130000
   0.75313998  0.24617000  0.25492002
   0.74767001  0.99748000  0.01202000
   0.50714994  0.99977000  0.24673000
   0.99051999  0.48088002  0.24100998
   0.50519005  0.76130999  0.00855000
   0.98896989  0.00202000  0.73708999
   0.75744996  0.24437997  0.74896999
   0.73632001  0.00417000  0.51063000
   0.50563996  0.23264999  0.49544997
   0.50008998  0.00061000  0.73471998
   0.99720000  0.99771992  0.25899999
   0.50427997  0.24673000  0.00262000
   0.25133999  0.74958002  0.24910999
   0.24328000  0.50072997  0.99510994
   0.99837005  0.74313996  0.00460000
   0.75633000  0.73891003  0.25767000
   0.75839004  0.50315998  0.00288000
   0.50700002  0.50333002  0.25878999
   0.24900999  0.25315000  0.74854000
   0.24446000  0.99823996  0.50287998
   0.99804009  0.24229999  0.50128003
   0.24177002  0.75340997  0.75018002
   0.25841001  0.50062002  0.50129001
   0.99000004  0.76215003  0.49746000
   0.99203996  0.50055999  0.75138002
   0.75036005  0.74888000  0.74756004
   0.74036002  0.50197000  0.50067003
   0.50575006  0.74958002  0.49720000
   0.50501003  0.50217998  0.73912003
   0.51588997  0.01358000  0.98075008
   0.99841994  0.50976998  0.98613004
   0.50379003  0.73926997  0.25905001
   0.23780002  0.01082000  0.74607998
   0.47957999  0.98308000  0.49717999
   0.74279003  0.97869994  0.76450995
   0.99864998  0.77573999  0.26102000
   0.73551001  0.51468004  0.26666001
   0.02362000  0.99783001  0.49557002
   0.50539000  0.52833005  0.49917999
   0.73876003  0.52828003  0.73814999
   0.75400003  0.72937999  0.49116997
HECN                                    
           1
     8.464859    0.024886   -0.009139
     0.030681    8.581846   -0.001243
     0.021233   -0.016051    8.478853
   Hf   Nb   Ti   N    C    Cr   W 
   7   6   7  13  19   6   6
Direct configuration=     2
   0.99605522  0.99679393  0.99469744
   0.26463210  0.99912766  0.24453488
   0.24793975  0.49982919  0.24619981
   0.50148069  0.49773104  0.00098639
   0.50436921  0.23799198  0.74641013
   0.99851101  0.50178182  0.49908039
   0.49451751  0.76628615  0.75318728
   0.99356455  0.23357605  0.26004649
   0.75480665  0.74434591  0.01128511
   0.00411458  0.25384677  0.74328549
   0.74954585  0.25619791  0.50333643
   0.99999619  0.74616832  0.74947469
   0.25259260  0.49549640  0.74931112
   0.24888537  0.24885077  0.99400254
   0.50995298  0.25230013  0.25235185
   0.74190415  0.99052894  0.26960742
   0.75495700  0.25547203  0.99549520
   0.24647132  0.74846196  0.99893781
   0.25351145  0.24700826  0.50250006
   0.24615506  0.75156098  0.50081738
   0.25173650  0.24944093  0.24882964
   0.25805222  0.00036235  0.99412207
   0.00228037  0.24799947  0.00040991
   0.74974402  0.24602586  0.25302039
   0.74686021  0.99916327  0.00812615
   0.50769812  0.99960764  0.24922580
   0.99220919  0.48412561  0.24414271
   0.50328318  0.75911546  0.00508557
   0.98942006  0.00228321  0.74106666
   0.75363434  0.24475919  0.75213548
   0.73842677  0.00243056  0.50598485
   0.50260467  0.23390787  0.49503112
   0.50243729  0.00033852  0.73841867
   0.99557224  0.00111462  0.25360309
   0.50541594  0.24507479  0.00289023
   0.25110842  0.74897210  0.24909536
   0.24380786  0.50136167  0.99698429
   0.00287713  0.74217219  0.00463644
   0.75293914  0.74558990  0.25323276
   0.75962433  0.49903435  0.00227146
   0.50091099  0.50177298  0.25440267
   0.25020460  0.24938945  0.74834605
   0.25382369  0.99739564  0.50566431
   0.00221825  0.24543034  0.50182073
   0.24407372  0.75410153  0.75019444
   0.25575724  0.50133028  0.49852812
   0.99629020  0.75879981  0.50028634
   0.99270201  0.50059598  0.75281834
   0.74770832  0.75748326  0.74880087
   0.74673913  0.49644020  0.50287832
   0.50091856  0.75737737  0.49419730
   0.50150777  0.50102725  0.74467212
   0.51914587  0.01571707  0.98098111
   0.99956825  0.51139695  0.98266523
   0.50381813  0.73903789  0.25836670
   0.23747952  0.01345721  0.74684885
   0.47623846  0.98352005  0.49726766
   0.73966302  0.97429203  0.76762883
   0.00260681  0.77285402  0.25656927
   0.73698171  0.50871006  0.25868799
   0.01989847  0.00100095  0.50116163
   0.50091922  0.52336219  0.49633651
   0.74449902  0.51911822  0.74377013
   0.75263218  0.74015327  0.49324607
HECN                                    
           1
     8.708458    0.011923   -0.004379
     0.017696    8.828629   -0.000596
     0.026895   -0.015891    8.717574
   Hf   Nb   Ti   N    C    Cr   W 
   7   6   7  13  19   6   6
Direct configuration=     3
   0.99651909  0.99418530  0.99719174
   0.25878271  0.99805786  0.24704595
   0.24798839  0.50083013  0.24803949
   0.50341962  0.49757624 -0.00046457
   0.50458732  0.24256355  0.74678983
   0.99617998  0.50328257  0.49836959
   0.49727217  0.75997523  0.75043453
   0.99400532  0.23500086  0.26210809
   0.75611653  0.74251943  0.01112971
   0.00295255  0.25470908  0.74089841
   0.75147535  0.25917831  0.50443356
   0.99732624  0.74548960  0.74708068
   0.25490451  0.49500771  0.74719354
   0.24834051  0.24859926  0.99541710
   0.50905436  0.25475978  0.25312442
   0.74569365  0.98906192  0.26964566
   0.75618381  0.25577521  0.99572979
   0.24710113  0.74916269  0.99937908
   0.25307299  0.24768092  0.50120936
   0.24529042  0.75097472  0.50027971
   0.25068269  0.24943792  0.24851024
   0.25993111  0.00006971  0.99348598
   0.00256837  0.24923025  0.00089912
   0.75161166  0.24609981  0.25406544
   0.74731044  0.99823700  0.01026448
   0.50739503  0.99969758  0.24785513
   0.99128409  0.48234407  0.24242138
   0.50432985  0.76031894  0.00698908
   0.98917066  0.00213897  0.73888292
   0.75573049  0.24454445  0.75039964
   0.73726863  0.00339036  0.50853424
   0.50427546  0.23321164  0.49526280
   0.50114433  0.00049123  0.73638647
   0.99647580 -0.00075357  0.25656705
   0.50478863  0.24598640  0.00274131
   0.25123472  0.74930589  0.24910358
   0.24351761  0.50101515  0.99595478
   0.00039801  0.74271133  0.00461384
   0.75481667  0.74191306  0.25567058
   0.75893945  0.50130410  0.00260518
   0.50425816  0.50261945  0.25681533
   0.24954188  0.25145844  0.74845213
   0.24867348  0.99787446  0.50413004
  -0.00007365  0.24371629  0.50152113
   0.24280851  0.75372507  0.75018510
   0.25721826  0.50093583  0.50004610
   0.99282536  0.76065116  0.49873103
   0.99233729  0.50057715  0.75202821
   0.74917932  0.75274997  0.74812046
   0.74322219  0.49948979  0.50166248
   0.50358897  0.75308389  0.49584823
   0.50342773  0.50165491  0.74162581
   0.51735949  0.01454755  0.98085216
   0.99894177  0.51050472  0.98456683
   0.50380271  0.73916555  0.25874189
   0.23765956  0.01200704  0.74642667
   0.47807595  0.98327284  0.49722147
   0.74137283  0.97670974  0.76591855
   0.00042970  0.77444697  0.25901090
   0.73616771  0.51199449  0.26306476
   0.02194602 -0.00074835  0.49809341
   0.50337034  0.52608597  0.49790081
   0.74132596  0.52416297  0.74068162
   0.75340049  0.73422917  0.49210611
HECN                                    
           1
     8.738810    0.032690   -0.007652
     0.038836    8.809774   -0.003590
     0.023695   -0.018741    8.751528
   Hf   Nb   Ti   N    C    Cr   W 
   7   6   7  13  19   6   6
Direct configuration=     4
   0.99679434  0.99886924  0.99250963
   0.26745985  0.00040140  0.24273310
   0.24691519  0.49820582  0.24540730
   0.49997411  0.49814512  0.00155057
   0.50395807  0.23637676  0.74679523
   0.00121482  0.50065983  0.49918452
   0.49258226  0.76755868  0.75513916
   0.99400912  0.23419144  0.25671796
   0.75337074  0.74654195  0.00988469
   0.00426054  0.25240926  0.74706027
   0.74867398  0.25249741  0.50258578
   0.00090257  0.74743539  0.75229354
   0.25024623  0.49608200  0.75086040
   0.24996242  0.24831596  0.99350939
   0.50969736  0.25044751  0.25105400
   0.73917650  0.99242242  0.26807448
   0.75327509  0.25436243  0.99592709
   0.24653454  0.74839894  0.99885704
   0.25421954  0.24626159  0.50280508
   0.24732368  0.75216521  0.50106075
   0.25313933  0.24909974  0.24879929
   0.25773528  0.00072025  0.99359441
   0.00225656  0.24853904  0.00021065
   0.74720837  0.24565413  0.25067709
   0.74549981  0.00083019  0.00621254
   0.50903189  0.99942926  0.24946797
   0.99272310  0.48739674  0.24378855
   0.50132729  0.75933351  0.00462777
   0.98931445  0.00252856  0.74316706
   0.75247952  0.24522319  0.75410027
   0.74044452  0.00079590  0.50505444
   0.50024656  0.23514926  0.49423149
   0.50323748  0.00078220  0.74048757
   0.99534892  0.00132505  0.25171084
   0.50533781  0.24389174  0.00378616
   0.25241152  0.74888051  0.24884555
   0.24307052  0.50142949  0.99725469
   0.00519354  0.74147796  0.00485452
   0.75019158  0.74891360  0.25181208
   0.76066652  0.49645714  0.00222929
   0.49774869  0.50059140  0.25229187
   0.25111876  0.24716623  0.74842108
   0.25789196  0.99740937  0.50729149
   0.00458692  0.24720464  0.50198593
   0.24515615  0.75531241  0.75051132
   0.25457416  0.50139983  0.49784368
   0.99980371  0.75698782  0.50155138
   0.99415913  0.50022577  0.75394088
   0.74719461  0.75961899  0.74914709
   0.74816541  0.49626618  0.50268810
   0.49791302  0.76104069  0.49311731
   0.50028060  0.50086535  0.74640466
   0.52008954  0.01524836  0.98147485
   0.00058919  0.51101857  0.98239250
   0.50277163  0.73936233  0.25704705
   0.23682613  0.01402831  0.74771664
   0.47582025  0.98458601  0.49646924
   0.73799409  0.97468322  0.76977704
   0.00503009  0.76974519  0.25321746
   0.73932357  0.50532780  0.25452227
   0.01806393  0.00297150  0.50302797
   0.49989365  0.51987212  0.49566898
   0.74695255  0.51569057  0.74908123
   0.75063708  0.74377127  0.49548787
HECN                                    
           1
     8.736701    0.031246   -0.007424
     0.037366    8.811084   -0.003382
     0.023917   -0.018543    8.749169
   Hf   Nb   Ti   N    C    Cr   W 
   7   6   7  13  19   6   6
Direct configuration=     5
   0.99677619  0.99854317  0.99283364
   0.26685941  0.00023969  0.24303139
   0.24698914  0.49838848  0.24558961
   0.50021278  0.49810490  0.00141114
   0.50400061  0.23680755  0.74679502
   0.00086566  0.50084329  0.49912803
   0.49290822  0.76702966  0.75481341
   0.99400886  0.23424793  0.25709112
   0.75356161  0.74626138  0.00997085
   0.00416941  0.25256951  0.74663373
   0.74886691  0.25296229  0.50271393
   0.00065509  0.74730034  0.75193253
   0.25056892  0.49600635  0.75060665
   0.24985010  0.24833599  0.99364142
   0.50965215  0.25074799  0.25119742
   0.73962846  0.99218735  0.26818334
   0.75347629  0.25446035  0.99591354
   0.24657366  0.74845205  0.99889321
   0.25413986  0.24636060  0.50269462
   0.24718305  0.75208261  0.50100660
   0.25296913  0.24912369  0.24877923
   0.25788746  0.00067458  0.99358695
   0.00227806  0.24858715  0.00025834
   0.74751333  0.24568452  0.25091178
   0.74562575  0.00064937  0.00649302
   0.50891844  0.99944818  0.24935628
   0.99262425  0.48704505  0.24369375
   0.50153513  0.75940170  0.00479133
   0.98930445  0.00250136  0.74287047
   0.75270469  0.24517531  0.75384415
   0.74022422  0.00097719  0.50529531
   0.50052594  0.23501367  0.49430295
   0.50309246  0.00076218  0.74020360
   0.99542744  0.00118021  0.25204700
   0.50529940  0.24403769  0.00371387
   0.25232996  0.74891033  0.24886340
   0.24310152  0.50140053  0.99716471
   0.00486120  0.74156463  0.00483776
   0.75051318  0.74842537  0.25207915
   0.76054611  0.49679500  0.00225539
   0.49819929  0.50073168  0.25260523
   0.25100883  0.24746542  0.74842329
   0.25725337  0.99744319  0.50707241
   0.00426472  0.24696244  0.50195355
   0.24499382  0.75520224  0.75048864
   0.25475741  0.50136713  0.49799620
   0.99931973  0.75724403  0.50135605
   0.99403285  0.50025050  0.75380844
   0.74733319  0.75914025  0.74907591
   0.74782250  0.49649147  0.50261705
   0.49830753  0.76048567  0.49330632
   0.50049830  0.50091972  0.74607393
   0.51990057  0.01519998  0.98143165
   0.00047524  0.51098310  0.98254297
   0.50284312  0.73934849  0.25716440
   0.23688415  0.01388737  0.74762731
   0.47597671  0.98449421  0.49652134
   0.73822765  0.97482373  0.76951006
   0.00471084  0.77007352  0.25361851
   0.73910411  0.50579281  0.25511372
   0.01833329  0.00271169  0.50268638
   0.50013344  0.52030437  0.49582372
   0.74656123  0.51628137  0.74849981
   0.75082998  0.74310618  0.49525361
HECN                                    
           1
     8.765354    0.032539   -0.004338
     0.038815    8.803800   -0.005474
     0.027111   -0.020605    8.772243
   Hf   Nb   Ti   N    C    Cr   W 
   7   6   7  13  19   6   6
Direct configuration=     6
   0.99725683  0.99865882  0.99253053
   0.26687503  0.00027601  0.24230341
   0.24587798  0.49692069  0.24602653
   0.50006887  0.49798219  0.00115079
   0.50375310  0.23798122  0.74735561
   0.00142545  0.50022926  0.50025478
   0.49262695  0.76394242  0.75476676
   0.99270151  0.23522713  0.25592064
   0.75396638  0.74661444  0.00824031
   0.00384615  0.25174401  0.74805439
   0.75027293  0.24988074  0.50175399
   0.00005481  0.74727644  0.75394187
   0.24947138  0.49540466  0.75109569
   0.25134323  0.24722874  0.99277687
   0.50995440  0.25019636  0.24976925
   0.73799202  0.99370176  0.26621165
   0.75098263  0.25258720  0.99681566
   0.24630455  0.74849924  0.99933155
   0.25422939  0.24530437  0.50360251
   0.24811964  0.75288744  0.50102021
   0.25372290  0.24794092  0.24854429
   0.25672291  0.00146049  0.99360275
   0.00248527  0.24945359  0.00034788
   0.74600277  0.24535814  0.24885093
   0.74537015  0.00231336  0.00355961
   0.51011504  0.99968880  0.24952976
   0.99322173  0.49116642  0.24417751
   0.50000034  0.75933091  0.00433286
   0.98949267  0.00292468  0.74392529
   0.75223332  0.24658808  0.75451661
   0.74446079 -0.00020419  0.50376447
   0.49881935  0.23812748  0.49415169
   0.50458234  0.00166485  0.74324331
   0.99672985 -0.00251321  0.25194817
   0.50449851  0.24318853  0.00367358
   0.25331344  0.74958192  0.24856659
   0.24227101  0.50103168  0.99668646
   0.00480720  0.74202770  0.00548537
   0.74839129  0.74931150  0.25354119
   0.76081542  0.49609737  0.00246294
   0.49901122  0.49995586  0.25294378
   0.25135579  0.24629022  0.74846057
   0.25619539  0.99843007  0.50832858
   0.00554227  0.24790526  0.50183309
   0.24476673  0.75635580  0.75098525
   0.25492050  0.50137804  0.49835723
   0.00079503  0.75615730  0.50089829
   0.99604857  0.50011332  0.75427177
   0.74733730  0.75716773  0.74882113
   0.74754537  0.49857231  0.50215847
   0.49717332  0.75987792  0.49277925
   0.50108546  0.50150066  0.74560217
   0.52203367  0.01399679  0.98155197
   0.00105170  0.51136781  0.98168363
   0.50098866  0.73739302  0.25693819
   0.23441798  0.01383370  0.74776309
   0.47630232  0.98546507  0.49574672
   0.73542883  0.97617462  0.77320970
   0.00600154  0.77179235  0.25163939
   0.73727773  0.50575306  0.25329942
   0.02091767  0.00352500  0.50238447
   0.50197592  0.52052561  0.49399775
   0.74768887  0.51695067  0.75334477
   0.74895902  0.74243539  0.49516718
HECN                                    
           1
     8.774708    0.032961   -0.003330
     0.039289    8.801422   -0.006157
     0.028154   -0.021279    8.779776
   Hf   Nb   Ti   N    C    Cr   W 
   7   6   7  13  19   6   6
Direct configuration=     7
   0.99741326  0.99869657  0.99243179
   0.26688019  0.00028782  0.24206638
   0.24551644  0.49644119  0.24616881
   0.50002208  0.49794208  0.00106603
   0.50367243  0.23836475  0.74753826
   0.00160751  0.50002869  0.50062154
   0.49253560  0.76293372  0.75475137
   0.99227618  0.23554703  0.25553975
   0.75409827  0.74672965  0.00767681
   0.00374085  0.25147441  0.74851695
   0.75073073  0.24887375  0.50144102
  -0.00014075  0.74726880  0.75459619
   0.24911422  0.49520815  0.75125501
   0.25182925  0.24686683  0.99249510
   0.51005295  0.25001601  0.24930415
   0.73745967  0.99419650  0.26556996
   0.75017120  0.25197535  0.99710954
   0.24621693  0.74851471  0.99947431
   0.25425847  0.24495932  0.50389804
   0.24842436  0.75315037  0.50102460
   0.25396827  0.24755441  0.24846761
   0.25634392  0.00171733  0.99360810
   0.00255264  0.24973669  0.00037707
   0.74551150  0.24525141  0.24818005
   0.74528723  0.00285684  0.00260462
   0.51050437  0.99976738  0.24958612
   0.99341587  0.49251304  0.24433528
   0.49950097  0.75930782  0.00418376
   0.98955377  0.00306306  0.74426877
   0.75207977  0.24704976  0.75473573
   0.74583961 -0.00059049  0.50326544
   0.49826388  0.23914494  0.49410287
   0.50506675  0.00195995  0.74423295
   0.99715386 -0.00372004  0.25191555
   0.50423795  0.24291111  0.00366048
   0.25363346  0.74980129  0.24846989
   0.24200084  0.50091116  0.99653080
   0.00478952  0.74217906  0.00569628
   0.74770061  0.74960123  0.25401756
   0.76090307  0.49586943  0.00253044
   0.49927543  0.49970236  0.25305386
   0.25146875  0.24590622  0.74847258
   0.25585093  0.99875265  0.50873780
   0.00595794  0.24821324  0.50179380
   0.24469272  0.75673276  0.75114707
   0.25497352  0.50138162  0.49847476
   0.00127520  0.75580212  0.50074898
   0.99670444  0.50006845  0.75442239
   0.74733877  0.75652322  0.74873802
   0.74745514  0.49925217  0.50200934
   0.49680435  0.75967936  0.49260772
   0.50127654  0.50169042  0.74544854
   0.52272784  0.01360358  0.98159081
   0.00123936  0.51149342  0.98140378
   0.50038536  0.73675416  0.25686459
   0.23361548  0.01381628  0.74780758
   0.47640831  0.98578222  0.49549454
   0.73451759  0.97661641  0.77441476
   0.00642167  0.77235375  0.25099496
   0.73668364  0.50574001  0.25270888
   0.02175862  0.00379060  0.50228593
   0.50257566  0.52059768  0.49340301
   0.74805520  0.51716966  0.75492225
   0.74835026  0.74221629  0.49513921
HECN                                    
           1
     8.750617    0.029964   -0.003303
     0.036276    8.774634   -0.002937
     0.028084   -0.018038    8.741747
   Hf   Nb   Ti   N    C    Cr   W 
   7   6   7  13  19   6   6
Direct configuration=     8
   0.99800330  0.99909843  0.99328316
   0.26707938  0.00081232  0.24237695
   0.24554884  0.49528726  0.24677981
   0.49945559  0.49812724  0.00151733
   0.50426573  0.24069470  0.74689525
   0.00029876  0.50034532  0.50124311
   0.49327471  0.76143536  0.75366693
   0.99082924  0.23477526  0.25522237
   0.75478558  0.74728597  0.00723165
   0.00322336  0.25080651  0.74854821
   0.75230926  0.24750638  0.50013000
  -0.00065632  0.74748291  0.75511086
   0.24926678  0.49451145  0.75074589
   0.25311828  0.24535616  0.99185768
   0.50992505  0.25005026  0.24860457
   0.73737639  0.99484062  0.26404862
   0.74775433  0.24966090  0.99823333
   0.24578391  0.74861734  0.99973477
   0.25438252  0.24470648  0.50461585
   0.24926384  0.75341739  0.50099686
   0.25406031  0.24685287  0.24808066
   0.25492891  0.00226579  0.99390842
   0.00274822  0.25094269  0.00064527
   0.74486540  0.24509997  0.24667383
   0.74639941  0.00371522  0.00087864
   0.51017481  0.00021117  0.24946077
   0.99382653  0.49579021  0.24515251
   0.49862837  0.75905345  0.00398838
   0.98995508  0.00314121  0.74378033
   0.75204531  0.24810245  0.75443255
   0.75027379 -0.00030310  0.50136813
   0.49789532  0.24256976  0.49421618
   0.50680076  0.00106365  0.74715292
   0.99827035 -0.00145294  0.25218807
   0.50310429  0.24223188  0.00314588
   0.25403460  0.74954255  0.24830790
   0.24167443  0.50024453  0.99658824
   0.00406181  0.74280667  0.00625479
   0.74657721  0.74970535  0.25414609
   0.76085719  0.49604009  0.00317204
   0.49878319  0.49852176  0.25271155
   0.25122249  0.24543997  0.74877189
   0.25646193  0.99935899  0.50903060
   0.00638122  0.24797462  0.50164637
   0.24387386  0.75756186  0.75161632
   0.25584400  0.50141886  0.49922766
   0.00097863  0.75627369  0.49962886
   0.99777011  0.50005862  0.75446284
   0.74719495  0.75606621  0.74871369
   0.74755587  0.49940387  0.50260064
   0.49670845  0.75927858  0.49234201
   0.50258495  0.50226983  0.74420219
   0.52439288  0.01244065  0.98106767
   0.00123884  0.51236842  0.98064099
   0.49797189  0.73486756  0.25727312
   0.23029834  0.01351395  0.74782734
   0.47635053  0.98668654  0.49561290
   0.73133347  0.97624582  0.77785351
   0.00751115  0.76928657  0.25085087
   0.73592826  0.50647678  0.25227945
   0.02218255  0.00369736  0.50218870
   0.50385861  0.51987247  0.49194287
   0.74982742  0.51712743  0.75873393
   0.74727616  0.74134759  0.49438935
HECN                                    
           1
     8.752703    0.030223   -0.003306
     0.036537    8.776953   -0.003216
     0.028090   -0.018318    8.745039
   Hf   Nb   Ti   N    C    Cr   W 
   7   6   7  13  19   6   6
Direct configuration=     9
   0.99795207  0.99906354  0.99320914
   0.26706207  0.00076677  0.24234996
   0.24554606  0.49538749  0.24672664
   0.49950477  0.49811119  0.00147809
   0.50421416  0.24049232  0.74695123
   0.00041238  0.50031788  0.50118907
   0.49321058  0.76156543  0.75376118
   0.99095489  0.23484232  0.25524995
   0.75472589  0.74723762  0.00727038
   0.00326831  0.25086453  0.74854547
   0.75217225  0.24762504  0.50024396
  -0.00061156  0.74746435  0.75506611
   0.24925355  0.49457194  0.75079014
   0.25300641  0.24548730  0.99191306
   0.50993615  0.25004727  0.24866540
   0.73738361  0.99478464  0.26418093
   0.74796423  0.24986201  0.99813554
   0.24582150  0.74860845  0.99971212
   0.25437176  0.24472846  0.50455342
   0.24919095  0.75339418  0.50099928
   0.25405234  0.24691378  0.24811428
   0.25505175  0.00221821  0.99388232
   0.00273121  0.25083796  0.00062198
   0.74492150  0.24511309  0.24680480
   0.74630283  0.00364059  0.00102876
   0.51020341  0.00017264  0.24947168
   0.99379078  0.49550562  0.24508156
   0.49870413  0.75907556  0.00400536
   0.98992023  0.00313439  0.74382280
   0.75204827  0.24801102  0.75445895
   0.74988881 -0.00032825  0.50153313
   0.49792722  0.24227235  0.49420644
   0.50665024  0.00114153  0.74689898
   0.99817335 -0.00164985  0.25216445
   0.50320273  0.24229088  0.00319060
   0.25399978  0.74956500  0.24832198
   0.24170279  0.50030244  0.99658322
   0.00412497  0.74275220  0.00620625
   0.74667474  0.74969635  0.25413492
   0.76086117  0.49602529  0.00311625
   0.49882596  0.49862429  0.25274128
   0.25124388  0.24548047  0.74874585
   0.25640887  0.99930633  0.50900516
   0.00634448  0.24799533  0.50165918
   0.24394493  0.75748989  0.75157554
   0.25576842  0.50141563  0.49916219
   0.00100436  0.75623271  0.49972628
   0.99767759  0.50005944  0.75445932
   0.74720745  0.75610590  0.74871579
   0.74754712  0.49939071  0.50254922
   0.49671679  0.75931338  0.49236510
   0.50247134  0.50221944  0.74431059
   0.52424836  0.01254158  0.98111312
   0.00123886  0.51229240  0.98070734
   0.49818147  0.73503148  0.25723753
   0.23058634  0.01354030  0.74782562
   0.47635552  0.98660801  0.49560264
   0.73160992  0.97627820  0.77755447
   0.00741665  0.76955291  0.25086330
   0.73599382  0.50641280  0.25231682
   0.02214574  0.00370544  0.50219716
   0.50374725  0.51993537  0.49206981
   0.74967356  0.51713116  0.75840248
   0.74736943  0.74142304  0.49445452
HECN                                    
           1
     8.777792    0.027057   -0.005074
     0.033405    8.795543    0.001386
     0.026402   -0.013769    8.763730
   Hf   Nb   Ti   N    C    Cr   W 
   7   6   7  13  19   6   6
Direct configuration=    10
   0.99885381  0.99956202  0.99466606
   0.26702754  0.00112966  0.24342033
   0.24595110  0.49447137  0.24740403
   0.49871623  0.49876944  0.00192198
   0.50526085  0.24207995  0.74538049
  -0.00097745  0.50119720  0.50125434
   0.49374834  0.76100997  0.75242566
   0.98994115  0.23496201  0.25493313
   0.75493207  0.74815734  0.00756480
   0.00251933  0.25035423  0.74824630
   0.75317303  0.24730120  0.49867141
  -0.00086917  0.74813128  0.75433651
   0.24978804  0.49426829  0.74996494
   0.25398268  0.24405243  0.99164217
   0.50928553  0.25029866  0.24877440
   0.73856523  0.99446955  0.26294516
   0.74595472  0.24771785  0.99930492
   0.24549819  0.74856650  0.99953328
   0.25437637  0.24510664  0.50494677
   0.24995322  0.75314881  0.50103374
   0.25371270  0.24676587  0.24779171
   0.25389943  0.00230750  0.99410239
   0.00274023  0.25217799  0.00102002
   0.74481849  0.24515474  0.24573010
   0.74821046  0.00374640  0.00134688
   0.50944781  0.00067703  0.24915665
   0.99383094  0.49842304  0.24575668
   0.49823339  0.75882067  0.00427204
   0.99002566  0.00280806  0.74299310
   0.75235382  0.24862899  0.75367432
   0.75411452  0.00093169  0.49961640
   0.49844108  0.24552461  0.49410818
   0.50817721  0.00067186  0.74897858
   0.99883423  0.00015067  0.25237175
   0.50210275  0.24172310  0.00256579
   0.25430746  0.74863593  0.24846155
   0.24160025  0.49965825  0.99680193
   0.00360774  0.74330014  0.00617137
   0.74593048  0.74991155  0.25302027
   0.76081023  0.49636875  0.00434423
   0.49739409  0.49718079  0.25174180
   0.25098018  0.24527388  0.74905625
   0.25828730  0.99937953  0.50908310
   0.00641832  0.24745089  0.50137357
   0.24335126  0.75802788  0.75178994
   0.25629411  0.50146828  0.49993712
  -0.00002795  0.75697146  0.49908303
   0.99823211  0.50015220  0.75436182
   0.74718333  0.75713330  0.74877682
   0.74791263  0.49795528  0.50399262
   0.49709407  0.75998609  0.49186812
   0.50388619  0.50241388  0.74337540
   0.52469050  0.01158486  0.98052673
   0.00098907  0.51312662  0.98056529
   0.49504771  0.73326284  0.25780597
   0.22732522  0.01312978  0.74764502
   0.47667660  0.98770843  0.49689496
   0.72913571  0.97484284  0.77964475
   0.00844138  0.76692341  0.25165450
   0.73646326  0.50689122  0.25231898
   0.02065441  0.00319106  0.50180996
   0.50416092  0.51777197  0.49105271
   0.75188605  0.51598876  0.76114888
   0.74664420  0.74104327  0.49383842
HECN                                    
           1
     8.776362    0.027238   -0.004973
     0.033584    8.794483    0.001124
     0.026498   -0.014028    8.762665
   Hf   Nb   Ti   N    C    Cr   W 
   7   6   7  13  19   6   6
Direct configuration=    11
   0.99880252  0.99953368  0.99458318
   0.26702949  0.00110905  0.24335945
   0.24592809  0.49452350  0.24736546
   0.49876104  0.49873202  0.00189676
   0.50520133  0.24198956  0.74546989
  -0.00089845  0.50114720  0.50125067
   0.49371780  0.76104152  0.75250162
   0.98999878  0.23495521  0.25495117
   0.75492033  0.74810502  0.00754808
   0.00256192  0.25038327  0.74826331
   0.75311616  0.24731955  0.49876085
  -0.00085454  0.74809332  0.75437804
   0.24975767  0.49428553  0.75001187
   0.25392721  0.24413403  0.99165753
   0.50932251  0.25028437  0.24876821
   0.73849807  0.99448741  0.26301544
   0.74606899  0.24783991  0.99923835
   0.24551657  0.74856889  0.99954346
   0.25437610  0.24508513  0.50492441
   0.24990989  0.75316275  0.50103176
   0.25373202  0.24677428  0.24781006
   0.25396493  0.00230245  0.99408989
   0.00273968  0.25210177  0.00099741
   0.74482436  0.24515234  0.24579125
   0.74810201  0.00374035  0.00132877
   0.50949076  0.00064834  0.24917460
   0.99382859  0.49825708  0.24571836
   0.49826016  0.75883519  0.00425686
   0.99001968  0.00282660  0.74304029
   0.75233644  0.24859381  0.75371898
   0.75387429  0.00085987  0.49972543
   0.49841180  0.24533957  0.49411386
   0.50809039  0.00069861  0.74886024
   0.99879662  0.00004823  0.25236000
   0.50216530  0.24175541  0.00260133
   0.25428999  0.74868878  0.24845357
   0.24160609  0.49969491  0.99678947
   0.00363714  0.74326897  0.00617338
   0.74597280  0.74989929  0.25308370
   0.76081311  0.49634924  0.00427439
   0.49747553  0.49726292  0.25179863
   0.25099517  0.24528565  0.74903858
   0.25818052  0.99937533  0.50907865
   0.00641413  0.24748186  0.50138980
   0.24338499  0.75799729  0.75177776
   0.25626421  0.50146529  0.49989303
   0.00003073  0.75692944  0.49911966
   0.99820058  0.50014691  0.75436736
   0.74718468  0.75707485  0.74877338
   0.74789187  0.49803698  0.50391046
   0.49707261  0.75994780  0.49189641
   0.50380576  0.50240276  0.74342859
   0.52466540  0.01163926  0.98056006
   0.00100326  0.51307916  0.98057340
   0.49522589  0.73336354  0.25777362
   0.22751062  0.01315320  0.74765532
   0.47665831  0.98764586  0.49682147
   0.72927637  0.97492462  0.77952582
   0.00838317  0.76707301  0.25160940
   0.73643657  0.50686399  0.25231887
   0.02073921  0.00322035  0.50183199
   0.50413746  0.51789501  0.49111051
   0.75176026  0.51605379  0.76099257
   0.74668545  0.74106488  0.49387347
HECN                                    
           1
     8.773611    0.027448   -0.006914
     0.033835    8.777881    0.001649
     0.024552   -0.013471    8.767658
   Hf   Nb   Ti   N    C    Cr   W 
   7   6   7  13  19   6   6
Direct configuration=    12
   0.99961298  0.99967089  0.99522539
   0.26671721  0.00082734  0.24447731
   0.24583220  0.49421653  0.24756528