  64  64   0   0
  0.2218804E+02  0.1124000E-08  0.1124000E-08  0.1124000E-08  0.5000000E-15
  1.000000000000000E-004
  CAR 
 HECN                                    
     13.50343824    -60.83339654  301      7.45513700      1.00000000
    -60.833  0.0000E+00  0.0000E+00
    -60.586  0.0000E+00  0.0000E+00
    -60.338  0.0000E+00  0.0000E+00
    -60.090  0.0000E+00  0.0000E+00
    -59.842  0.0000E+00  0.0000E+00
    -59.594  0.0000E+00  0.0000E+00
    -59.347  0.0000E+00  0.0000E+00
    -59.099  0.0000E+00  0.0000E+00
    -58.851  0.0000E+00  0.0000E+00
    -58.603  0.0000E+00  0.0000E+00
    -58.356  0.0000E+00  0.0000E+00
    -58.108  0.0000E+00  0.0000E+00
    -57.860  0.4045E-09  0.1002E-09
    -57.612  0.1353E-02  0.3352E-03
    -57.364  0.2542E+00  0.6333E-01
    -57.117  0.2241E+00  0.1188E+00
    -56.869  0.4645E-02  0.1200E+00
    -56.621  0.1224E-07  0.1200E+00
    -56.373  0.0000E+00  0.1200E+00
    -56.125  0.0000E+00  0.1200E+00
    -55.878  0.0000E+00  0.1200E+00
    -55.630  0.0000E+00  0.1200E+00
    -55.382  0.0000E+00  0.1200E+00
    -55.134  0.0000E+00  0.1200E+00
    -54.886  0.0000E+00  0.1200E+00
    -54.639  0.0000E+00  0.1200E+00
    -54.391  0.0000E+00  0.1200E+00
    -54.143  0.0000E+00  0.1200E+00
    -53.895  0.0000E+00  0.1200E+00
    -53.648  0.0000E+00  0.1200E+00
    -53.400  0.0000E+00  0.1200E+00
    -53.152  0.0000E+00  0.1200E+00
    -52.904  0.0000E+00  0.1200E+00
    -52.656  0.0000E+00  0.1200E+00
    -52.409  0.0000E+00  0.1200E+00
    -52.161  0.0000E+00  0.1200E+00
    -51.913  0.0000E+00  0.1200E+00
    -51.665  0.0000E+00  0.1200E+00
    -51.417  0.0000E+00  0.1200E+00
    -51.170  0.0000E+00  0.1200E+00
    -50.922  0.0000E+00  0.1200E+00
    -50.674  0.0000E+00  0.1200E+00
    -50.426  0.0000E+00  0.1200E+00
    -50.178  0.0000E+00  0.1200E+00
    -49.931  0.0000E+00  0.1200E+00
    -49.683  0.0000E+00  0.1200E+00
    -49.435  0.0000E+00  0.1200E+00
    -49.187  0.0000E+00  0.1200E+00
    -48.940  0.0000E+00  0.1200E+00
    -48.692  0.0000E+00  0.1200E+00
    -48.444  0.0000E+00  0.1200E+00
    -48.196  0.0000E+00  0.1200E+00
    -47.948  0.0000E+00  0.1200E+00
    -47.701  0.0000E+00  0.1200E+00
    -47.453  0.0000E+00  0.1200E+00
    -47.205  0.0000E+00  0.1200E+00
    -46.957  0.0000E+00  0.1200E+00
    -46.709  0.0000E+00  0.1200E+00
    -46.462  0.0000E+00  0.1200E+00
    -46.214  0.0000E+00  0.1200E+00
    -45.966  0.0000E+00  0.1200E+00
    -45.718  0.0000E+00  0.1200E+00
    -45.470  0.0000E+00  0.1200E+00
    -45.223  0.0000E+00  0.1200E+00
    -44.975  0.0000E+00  0.1200E+00
    -44.727  0.0000E+00  0.1200E+00
    -44.479  0.0000E+00  0.1200E+00
    -44.232  0.0000E+00  0.1200E+00
    -43.984  0.0000E+00  0.1200E+00
    -43.736  0.0000E+00  0.1200E+00
    -43.488  0.0000E+00  0.1200E+00
    -43.240  0.0000E+00  0.1200E+00
    -42.993  0.0000E+00  0.1200E+00
    -42.745  0.0000E+00  0.1200E+00
    -42.497  0.0000E+00  0.1200E+00
    -42.249  0.1567E-10  0.1200E+00
    -42.001  0.2373E-03  0.1201E+00
    -41.754  0.6218E-01  0.1355E+00
    -41.506  0.2205E-01  0.1409E+00
    -41.258  0.2336E+00  0.1988E+00
    -41.010  0.2411E+00  0.2586E+00
    -40.762  0.5826E-02  0.2600E+00
    -40.515  0.1546E-07  0.2600E+00
    -40.267  0.0000E+00  0.2600E+00
    -40.019  0.0000E+00  0.2600E+00
    -39.771  0.0000E+00  0.2600E+00
    -39.524  0.0000E+00  0.2600E+00
    -39.276  0.0000E+00  0.2600E+00
    -39.028  0.0000E+00  0.2600E+00
    -38.780  0.0000E+00  0.2600E+00
    -38.532  0.0000E+00  0.2600E+00
    -38.285  0.0000E+00  0.2600E+00
    -38.037  0.0000E+00  0.2600E+00
    -37.789  0.0000E+00  0.2600E+00
    -37.541  0.0000E+00  0.2600E+00
    -37.293  0.0000E+00  0.2600E+00
    -37.046  0.0000E+00  0.2600E+00
    -36.798  0.0000E+00  0.2600E+00
    -36.550  0.0000E+00  0.2600E+00
    -36.302  0.0000E+00  0.2600E+00
    -36.054  0.0000E+00  0.2600E+00
    -35.807  0.0000E+00  0.2600E+00
    -35.559  0.0000E+00  0.2600E+00
    -35.311  0.0000E+00  0.2600E+00
    -35.063  0.0000E+00  0.2600E+00
    -34.816  0.0000E+00  0.2600E+00
    -34.568  0.0000E+00  0.2600E+00
    -34.320  0.0000E+00  0.2600E+00
    -34.072  0.0000E+00  0.2600E+00
    -33.824  0.0000E+00  0.2600E+00
    -33.577  0.0000E+00  0.2600E+00
    -33.329  0.0000E+00  0.2600E+00
    -33.081  0.0000E+00  0.2600E+00
    -32.833  0.0000E+00  0.2600E+00
    -32.585  0.0000E+00  0.2600E+00
    -32.338  0.0000E+00  0.2600E+00
    -32.090  0.0000E+00  0.2600E+00
    -31.842  0.5548E-08  0.2600E+00
    -31.594  0.6814E-02  0.2617E+00
    -31.346  0.5914E+00  0.4082E+00
    -31.099  0.7675E+00  0.5984E+00
    -30.851  0.8712E-01  0.6200E+00
    -30.603  0.2162E-04  0.6200E+00
    -30.355  0.1158E-12  0.6200E+00
    -30.108  0.0000E+00  0.6200E+00
    -29.860  0.0000E+00  0.6200E+00
    -29.612  0.0000E+00  0.6200E+00
    -29.364  0.0000E+00  0.6200E+00
    -29.116  0.0000E+00  0.6200E+00
    -28.869  0.0000E+00  0.6200E+00
    -28.621  0.4845E-11  0.6200E+00
    -28.373  0.1411E-03  0.6200E+00
    -28.125  0.1097E+00  0.6472E+00
    -27.877  0.4240E+00  0.7523E+00
    -27.630  0.5991E+00  0.9007E+00
    -27.382  0.3022E+00  0.9756E+00
    -27.134  0.1774E-01  0.9800E+00
    -26.886  0.3265E-06  0.9800E+00
    -26.638  0.0000E+00  0.9800E+00
    -26.391  0.0000E+00  0.9800E+00
    -26.143  0.0000E+00  0.9800E+00
    -25.895  0.0000E+00  0.9800E+00
    -25.647  0.0000E+00  0.9800E+00
    -25.400  0.0000E+00  0.9800E+00
    -25.152  0.0000E+00  0.9800E+00
    -24.904  0.0000E+00  0.9800E+00
    -24.656  0.0000E+00  0.9800E+00
    -24.408  0.0000E+00  0.9800E+00
    -24.161  0.5055E-09  0.9800E+00
    -23.913  0.1160E-02  0.9803E+00
    -23.665  0.1363E+00  0.1014E+01
    -23.417  0.4986E+00  0.1138E+01
    -23.169  0.3869E+00  0.1233E+01
    -22.922  0.4251E+00  0.1339E+01
    -22.674  0.1680E+00  0.1380E+01
    -22.426  0.7881E-01  0.1400E+01
    -22.178  0.1081E-04  0.1400E+01
    -21.930  0.1789E-13  0.1400E+01
    -21.683  0.0000E+00  0.1400E+01
    -21.435  0.0000E+00  0.1400E+01
    -21.187  0.0000E+00  0.1400E+01
    -20.939  0.0000E+00  0.1400E+01
    -20.692  0.3229E-13  0.1400E+01
    -20.444  0.1034E-04  0.1400E+01
    -20.196  0.4505E-01  0.1411E+01
    -19.948  0.1933E+00  0.1459E+01
    -19.700  0.3702E+00  0.1551E+01
    -19.453  0.7188E+00  0.1729E+01
    -19.205  0.3372E+00  0.1812E+01
    -18.957  0.3040E-01  0.1820E+01
    -18.709  0.4366E-05  0.1820E+01
    -18.461  0.6603E-14  0.1820E+01
    -18.214  0.0000E+00  0.1820E+01
    -17.966  0.0000E+00  0.1820E+01
    -17.718  0.0000E+00  0.1820E+01
    -17.470  0.0000E+00  0.1820E+01
    -17.222  0.0000E+00  0.1820E+01
    -16.975  0.0000E+00  0.1820E+01
    -16.727  0.0000E+00  0.1820E+01
    -16.479  0.0000E+00  0.1820E+01
    -16.231  0.0000E+00  0.1820E+01
    -15.984  0.0000E+00  0.1820E+01
    -15.736  0.0000E+00  0.1820E+01
    -15.488  0.0000E+00  0.1820E+01
    -15.240  0.0000E+00  0.1820E+01
    -14.992  0.0000E+00  0.1820E+01
    -14.745  0.0000E+00  0.1820E+01
    -14.497  0.0000E+00  0.1820E+01
    -14.249  0.0000E+00  0.1820E+01
    -14.001  0.0000E+00  0.1820E+01
    -13.753  0.0000E+00  0.1820E+01
    -13.506  0.0000E+00  0.1820E+01
    -13.258  0.0000E+00  0.1820E+01
    -13.010  0.0000E+00  0.1820E+01
    -12.762  0.0000E+00  0.1820E+01
    -12.514  0.0000E+00  0.1820E+01
    -12.267  0.0000E+00  0.1820E+01
    -12.019  0.0000E+00  0.1820E+01
    -11.771  0.0000E+00  0.1820E+01
    -11.523  0.0000E+00  0.1820E+01
    -11.276  0.0000E+00  0.1820E+01
    -11.028  0.0000E+00  0.1820E+01
    -10.780  0.0000E+00  0.1820E+01
    -10.532  0.0000E+00  0.1820E+01
    -10.284  0.0000E+00  0.1820E+01
    -10.037  0.0000E+00  0.1820E+01
     -9.789  0.0000E+00  0.1820E+01
     -9.541  0.0000E+00  0.1820E+01
     -9.293  0.1676E-15  0.1820E+01
     -9.045  0.1642E-06  0.1820E+01
     -8.798  0.2587E-02  0.1821E+01
     -8.550  0.5157E-01  0.1833E+01
     -8.302  0.9173E-01  0.1856E+01
     -8.054  0.1371E+00  0.1890E+01
     -7.806  0.1320E+00  0.1923E+01
     -7.559  0.2858E+00  0.1994E+01
     -7.311  0.1826E+00  0.2039E+01
     -7.063  0.5689E-02  0.2040E+01
     -6.815  0.1280E+00  0.2072E+01
     -6.568  0.3224E-01  0.2080E+01
     -6.320  0.2231E-05  0.2080E+01
     -6.072  0.1916E-14  0.2080E+01
     -5.824  0.0000E+00  0.2080E+01
     -5.576  0.1617E-13  0.2080E+01
     -5.329  0.2214E-05  0.2080E+01
     -5.081  0.7205E-02  0.2082E+01
     -4.833  0.6365E-01  0.2098E+01
     -4.585  0.3564E-01  0.2106E+01
     -4.337  0.1008E+00  0.2131E+01
     -4.090  0.1092E+00  0.2158E+01
     -3.842  0.1970E+00  0.2207E+01
     -3.594  0.2671E+00  0.2273E+01
     -3.346  0.2722E+00  0.2341E+01
     -3.098  0.1990E+00  0.2390E+01
     -2.851  0.1681E+00  0.2432E+01
     -2.603  0.9440E-01  0.2455E+01
     -2.355  0.1885E-01  0.2460E+01
     -2.107  0.3597E-03  0.2460E+01
     -1.860  0.3603E-08  0.2460E+01
     -1.612  0.0000E+00  0.2460E+01
     -1.364  0.0000E+00  0.2460E+01
     -1.116  0.0000E+00  0.2460E+01
     -0.868  0.5582E-10  0.2460E+01
     -0.621  0.6847E-04  0.2460E+01
     -0.373  0.4439E-02  0.2461E+01
     -0.125  0.2399E-01  0.2467E+01
      0.123  0.9588E-01  0.2491E+01
      0.371  0.1196E+00  0.2520E+01
      0.618  0.1461E+00  0.2557E+01
      0.866  0.2115E+00  0.2609E+01
      1.114  0.2715E+00  0.2676E+01
      1.362  0.2781E+00  0.2745E+01
      1.610  0.3019E+00  0.2820E+01
      1.857  0.3557E+00  0.2908E+01
      2.105  0.3568E+00  0.2997E+01
      2.353  0.4384E+00  0.3105E+01
      2.601  0.5007E+00  0.3229E+01
      2.848  0.5488E+00  0.3365E+01
      3.096  0.5803E+00  0.3509E+01
      3.344  0.6001E+00  0.3658E+01
      3.592  0.5833E+00  0.3802E+01
      3.840  0.5642E+00  0.3942E+01
      4.087  0.4542E+00  0.4055E+01
      4.335  0.3715E+00  0.4147E+01
      4.583  0.3014E+00  0.4221E+01
      4.831  0.2625E+00  0.4286E+01
      5.079  0.1594E+00  0.4326E+01
      5.326  0.1680E+00  0.4368E+01
      5.574  0.9790E-01  0.4392E+01
      5.822  0.1364E+00  0.4426E+01
      6.070  0.1669E+00  0.4467E+01
      6.318  0.1625E+00  0.4507E+01
      6.565  0.2125E+00  0.4560E+01
      6.813  0.2006E+00  0.4610E+01
      7.061  0.1964E+00  0.4658E+01
      7.309  0.2338E+00  0.4716E+01
      7.556  0.2215E+00  0.4771E+01
      7.804  0.2507E+00  0.4833E+01
      8.052  0.3435E+00  0.4918E+01
      8.300  0.4064E+00  0.5019E+01
      8.548  0.4378E+00  0.5127E+01
      8.795  0.4223E+00  0.5232E+01
      9.043  0.4057E+00  0.5333E+01
      9.291  0.4238E+00  0.5438E+01
      9.539  0.4140E+00  0.5540E+01
      9.787  0.4265E+00  0.5646E+01
     10.034  0.3714E+00  0.5738E+01
     10.282  0.8865E-01  0.5760E+01
     10.530  0.2129E-03  0.5760E+01
     10.778  0.4302E-10  0.5760E+01
     11.026  0.0000E+00  0.5760E+01
     11.273  0.0000E+00  0.5760E+01
     11.521  0.0000E+00  0.5760E+01
     11.769  0.0000E+00  0.5760E+01
     12.017  0.0000E+00  0.5760E+01
     12.264  0.0000E+00  0.5760E+01
     12.512  0.0000E+00  0.5760E+01
     12.760  0.0000E+00  0.5760E+01
     13.008  0.0000E+00  0.5760E+01
     13.256  0.0000E+00  0.5760E+01
     13.503  0.0000E+00  0.5760E+01
