<?xml version="1.0" encoding="ISO-8859-1"?>
<modeling>
 <generator>
  <i name="program" type="string">vasp </i>
  <i name="version" type="string">5.4.4.18Apr17-6-g9f103f2a35  </i>
  <i name="subversion" type="string">(build Oct 18 2021 20:38:43) complex            parallel </i>
  <i name="platform" type="string">LinuxIFC </i>
  <i name="date" type="string">2024 05 30 </i>
  <i name="time" type="string">10:56:59 </i>
 </generator>
 <incar>
  <i type="string" name="SYSTEM">HECN</i>
  <i type="int" name="ISTART">     0</i>
  <i type="string" name="PREC">normal</i>
  <i type="string" name="ALGO">Fast</i>
  <i type="int" name="ICHARG">     2</i>
  <i type="int" name="NELM">    60</i>
  <i type="int" name="IBRION">     2</i>
  <i name="EDIFF">      0.00001000</i>
  <i name="EDIFFG">     -0.01000000</i>
  <i type="int" name="NSW">   100</i>
  <i type="int" name="ISIF">     3</i>
  <i name="ENCUT">    400.00000000</i>
  <i name="POTIM">      0.50000000</i>
  <i type="logical" name="LREAL"> F  </i>
  <i type="int" name="ISMEAR">     0</i>
  <i name="SIGMA">      0.10000000</i>
  <i type="logical" name="LWAVE"> F  </i>
  <i type="logical" name="LCHARG"> F  </i>
  <v type="int" name="KPOINT_BSE">    -1     0     0     0</v>
  <i type="int" name="NELM">    60</i>
 </incar>
 <structure name="primitive_cell" >
  <crystal>
   <varray name="basis" >
    <v>      11.23999977       0.00000000       0.00000000 </v>
    <v>       0.00000000      11.23999977       0.00000000 </v>
    <v>       0.00000000       0.00000000      11.23999977 </v>
   </varray>
   <i name="volume">   1420.03453724 </i>
   <varray name="rec_basis" >
    <v>       0.08896797       0.00000000       0.00000000 </v>
    <v>       0.00000000       0.08896797       0.00000000 </v>
    <v>       0.00000000       0.00000000       0.08896797 </v>
   </varray>
  </crystal>
  <varray name="positions" >
   <v>       0.00000000       0.00000000       0.00000000 </v>
   <v>      -0.24999996       0.00000000       0.00000000 </v>
   <v>       0.00000000       0.00000000      -0.24999996 </v>
   <v>       0.00000000      -0.24999996       0.00000000 </v>
   <v>       0.25000000       0.00000000       0.00000000 </v>
   <v>       0.00000000       0.25000000       0.00000000 </v>
   <v>       0.00000000       0.00000000       0.25000000 </v>
   <v>      -0.24999996      -0.24999996       0.00000000 </v>
   <v>       0.00000000      -0.24999996      -0.24999996 </v>
   <v>      -0.24999996       0.00000000      -0.24999996 </v>
   <v>       0.00000000       0.25000000      -0.24999996 </v>
   <v>      -0.24999996       0.00000000       0.25000000 </v>
   <v>      -0.24999996       0.25000000       0.00000000 </v>
   <v>       0.25000000      -0.24999996       0.00000000 </v>
   <v>       0.25000000       0.00000000      -0.24999996 </v>
   <v>       0.00000000      -0.24999996       0.25000000 </v>
   <v>       0.25000000       0.00000000       0.25000000 </v>
   <v>       0.00000000       0.25000000       0.25000000 </v>
   <v>       0.25000000       0.25000000       0.00000000 </v>
   <v>      -0.24999996      -0.24999996      -0.24999996 </v>
   <v>      -0.24999996       0.25000000      -0.24999996 </v>
   <v>       0.25000000      -0.24999996      -0.24999996 </v>
   <v>      -0.24999996      -0.24999996       0.25000000 </v>
   <v>      -0.24999996       0.25000000       0.25000000 </v>
   <v>       0.25000000      -0.24999996       0.25000000 </v>
   <v>       0.25000000       0.25000000      -0.24999996 </v>
   <v>       0.25000000       0.25000000       0.25000000 </v>
   <v>      -0.50000000       0.00000000       0.00000000 </v>
   <v>       0.00000000      -0.50000000       0.00000000 </v>
   <v>       0.00000000       0.00000000      -0.50000000 </v>
   <v>      -0.50000000      -0.24999996       0.00000000 </v>
   <v>      -0.24999996       0.00000000      -0.50000000 </v>
   <v>      -0.50000000       0.00000000      -0.24999996 </v>
   <v>      -0.24999996      -0.50000000       0.00000000 </v>
   <v>       0.00000000      -0.24999996      -0.50000000 </v>
   <v>       0.00000000      -0.50000000      -0.24999996 </v>
   <v>      -0.50000000       0.00000000       0.25000000 </v>
   <v>       0.00000000      -0.50000000       0.25000000 </v>
   <v>      -0.50000000       0.25000000       0.00000000 </v>
   <v>       0.25000000      -0.50000000       0.00000000 </v>
   <v>       0.25000000       0.00000000      -0.50000000 </v>
   <v>       0.00000000       0.25000000      -0.50000000 </v>
   <v>      -0.24999996      -0.24999996      -0.50000000 </v>
   <v>      -0.50000000      -0.24999996      -0.24999996 </v>
   <v>      -0.24999996      -0.50000000      -0.24999996 </v>
   <v>      -0.50000000       0.25000000      -0.24999996 </v>
   <v>      -0.24999996       0.25000000      -0.50000000 </v>
   <v>       0.25000000      -0.50000000      -0.24999996 </v>
   <v>       0.25000000      -0.24999996      -0.50000000 </v>
   <v>      -0.50000000      -0.24999996       0.25000000 </v>
   <v>      -0.24999996      -0.50000000       0.25000000 </v>
   <v>       0.25000000      -0.50000000       0.25000000 </v>
   <v>      -0.50000000       0.25000000       0.25000000 </v>
   <v>       0.25000000       0.25000000      -0.50000000 </v>
   <v>      -0.50000000      -0.50000000       0.00000000 </v>
   <v>       0.00000000      -0.50000000      -0.50000000 </v>
   <v>      -0.50000000       0.00000000      -0.50000000 </v>
   <v>      -0.24999996      -0.50000000      -0.50000000 </v>
   <v>      -0.50000000      -0.24999996      -0.50000000 </v>
   <v>      -0.50000000      -0.50000000      -0.24999996 </v>
   <v>      -0.50000000       0.25000000      -0.50000000 </v>
   <v>      -0.50000000      -0.50000000       0.25000000 </v>
   <v>       0.25000000      -0.50000000      -0.50000000 </v>
   <v>      -0.50000000      -0.50000000      -0.50000000 </v>
  </varray>
 </structure>
 <varray name="primitive_index" >
  <v type="int" >        1 </v>
  <v type="int" >       25 </v>
  <v type="int" >       29 </v>
  <v type="int" >       38 </v>
  <v type="int" >       22 </v>
  <v type="int" >       23 </v>
  <v type="int" >       34 </v>
  <v type="int" >        9 </v>
  <v type="int" >       12 </v>
  <v type="int" >       58 </v>
  <v type="int" >       10 </v>
  <v type="int" >       16 </v>
  <v type="int" >       17 </v>
  <v type="int" >       18 </v>
  <v type="int" >       56 </v>
  <v type="int" >       59 </v>
  <v type="int" >        2 </v>
  <v type="int" >        8 </v>
  <v type="int" >       14 </v>
  <v type="int" >       49 </v>
  <v type="int" >       30 </v>
  <v type="int" >       45 </v>
  <v type="int" >       39 </v>
  <v type="int" >       24 </v>
  <v type="int" >       36 </v>
  <v type="int" >       42 </v>
  <v type="int" >       21 </v>
  <v type="int" >       53 </v>
  <v type="int" >       54 </v>
  <v type="int" >       61 </v>
  <v type="int" >       28 </v>
  <v type="int" >       31 </v>
  <v type="int" >       33 </v>
  <v type="int" >       40 </v>
  <v type="int" >       47 </v>
  <v type="int" >       48 </v>
  <v type="int" >       26 </v>
  <v type="int" >       27 </v>
  <v type="int" >       35 </v>
  <v type="int" >       37 </v>
  <v type="int" >       43 </v>
  <v type="int" >       44 </v>
  <v type="int" >       64 </v>
  <v type="int" >        7 </v>
  <v type="int" >       63 </v>
  <v type="int" >        5 </v>
  <v type="int" >       11 </v>
  <v type="int" >       13 </v>
  <v type="int" >       20 </v>
  <v type="int" >       55 </v>
  <v type="int" >       60 </v>
  <v type="int" >        3 </v>
  <v type="int" >       15 </v>
  <v type="int" >       19 </v>
  <v type="int" >        4 </v>
  <v type="int" >        6 </v>
  <v type="int" >       57 </v>
  <v type="int" >       50 </v>
  <v type="int" >       51 </v>
  <v type="int" >       52 </v>
  <v type="int" >       32 </v>
  <v type="int" >       41 </v>
  <v type="int" >       46 </v>
  <v type="int" >       62 </v>
 </varray>
 <kpoints>
  <generation param="Gamma">
   <v type="int" name="divisions">       3        3        3 </v>
   <v name="usershift">      0.00000000       0.00000000       0.00000000 </v>
   <v name="genvec1">      0.33333333       0.00000000       0.00000000 </v>
   <v name="genvec2">      0.00000000       0.33333333       0.00000000 </v>
   <v name="genvec3">      0.00000000       0.00000000       0.33333333 </v>
   <v name="shift">      0.00000000       0.00000000       0.00000000 </v>
  </generation>
  <varray name="kpointlist" >
   <v>       0.00000000       0.00000000       0.00000000 </v>
   <v>       0.33333333       0.00000000       0.00000000 </v>
   <v>       0.00000000       0.33333333       0.00000000 </v>
   <v>       0.33333333       0.33333333       0.00000000 </v>
   <v>      -0.33333333       0.33333333       0.00000000 </v>
   <v>       0.00000000       0.00000000       0.33333333 </v>
   <v>       0.33333333       0.00000000       0.33333333 </v>
   <v>      -0.33333333       0.00000000       0.33333333 </v>
   <v>       0.00000000       0.33333333       0.33333333 </v>
   <v>       0.33333333       0.33333333       0.33333333 </v>
   <v>      -0.33333333       0.33333333       0.33333333 </v>
   <v>       0.00000000      -0.33333333       0.33333333 </v>
   <v>       0.33333333      -0.33333333       0.33333333 </v>
   <v>      -0.33333333      -0.33333333       0.33333333 </v>
  </varray>
  <varray name="weights" >
   <v>       0.03703704 </v>
   <v>       0.07407407 </v>
   <v>       0.07407407 </v>
   <v>       0.07407407 </v>
   <v>       0.07407407 </v>
   <v>       0.07407407 </v>
   <v>       0.07407407 </v>
   <v>       0.07407407 </v>
   <v>       0.07407407 </v>
   <v>       0.07407407 </v>
   <v>       0.07407407 </v>
   <v>       0.07407407 </v>
   <v>       0.07407407 </v>
   <v>       0.07407407 </v>
  </varray>
 </kpoints>
 <parameters>
  <separator name="general" >
   <i type="string" name="SYSTEM">HECN</i>
   <i type="logical" name="LCOMPAT"> F  </i>
  </separator>
  <separator name="electronic" >
   <i type="string" name="PREC">normal</i>
   <i name="ENMAX">    400.00000000</i>
   <i name="ENAUG">    644.87300000</i>
   <i name="EDIFF">      0.00001000</i>
   <i type="int" name="IALGO">    68</i>
   <i type="int" name="IWAVPR">    11</i>
   <i type="int" name="NBANDS">   288</i>
   <i name="NELECT">    475.00000000</i>
   <i type="int" name="TURBO">     0</i>
   <i type="int" name="IRESTART">     0</i>
   <i type="int" name="NREBOOT">     0</i>
   <i type="int" name="NMIN">     0</i>
   <i name="EREF">      0.00000000</i>
   <separator name="electronic smearing" >
    <i type="int" name="ISMEAR">     0</i>
    <i name="SIGMA">      0.10000000</i>
    <i name="KSPACING">      0.50000000</i>
    <i type="logical" name="KGAMMA"> T  </i>
   </separator>
   <separator name="electronic projectors" >
    <i type="logical" name="LREAL"> F  </i>
    <v name="ROPT">      0.00000000      0.00000000      0.00000000      0.00000000      0.00000000      0.00000000      0.00000000</v>
    <i type="int" name="LMAXPAW">  -100</i>
    <i type="int" name="LMAXMIX">     2</i>
    <i type="logical" name="NLSPLINE"> F  </i>
   </separator>
   <separator name="electronic startup" >
    <i type="int" name="ISTART">     0</i>
    <i type="int" name="ICHARG">     2</i>
    <i type="int" name="INIWAV">     1</i>
   </separator>
   <separator name="electronic spin" >
    <i type="int" name="ISPIN">     1</i>
    <i type="logical" name="LNONCOLLINEAR"> F  </i>
    <v name="MAGMOM">      1.00000000      1.00000000      1.00000000      1.00000000      1.00000000      1.00000000      1.00000000      1.00000000      1.00000000      1.00000000      1.00000000      1.00000000      1.00000000      1.00000000      1.00000000      1.00000000      1.00000000      1.00000000      1.00000000      1.00000000
      1.00000000      1.00000000      1.00000000      1.00000000      1.00000000      1.00000000      1.00000000      1.00000000      1.00000000      1.00000000      1.00000000      1.00000000      1.00000000      1.00000000      1.00000000      1.00000000      1.00000000      1.00000000      1.00000000      1.00000000
      1.00000000      1.00000000      1.00000000      1.00000000      1.00000000      1.00000000      1.00000000      1.00000000      1.00000000      1.00000000      1.00000000      1.00000000      1.00000000      1.00000000      1.00000000      1.00000000      1.00000000      1.00000000      1.00000000      1.00000000
      1.00000000      1.00000000      1.00000000      1.00000000</v>
    <i name="NUPDOWN">     -1.00000000</i>
    <i type="logical" name="LSORBIT"> F  </i>
    <v name="SAXIS">      0.00000000      0.00000000      1.00000000</v>
    <i type="logical" name="LSPIRAL"> F  </i>
    <v name="QSPIRAL">      0.00000000      0.00000000      0.00000000</v>
    <i type="logical" name="LZEROZ"> F  </i>
   </separator>
   <separator name="electronic exchange-correlation" >
    <i type="logical" name="LASPH"> F  </i>
    <i type="logical" name="LMETAGGA"> F  </i>
   </separator>
   <separator name="electronic convergence" >
    <i type="int" name="NELM">    60</i>
    <i type="int" name="NELMDL">    -5</i>
    <i type="int" name="NELMIN">     2</i>
    <i name="ENINI">    400.00000000</i>
    <separator name="electronic convergence detail" >
     <i type="logical" name="LDIAG"> T  </i>
     <i type="logical" name="LSUBROT"> F  </i>
     <i name="WEIMIN">      0.00100000</i>
     <i name="EBREAK">      0.00000001</i>
     <i name="DEPER">      0.30000000</i>
     <i type="int" name="NRMM">     4</i>
     <i name="TIME">      0.40000000</i>
    </separator>
   </separator>
   <separator name="electronic mixer" >
    <i name="AMIX">      0.40000000</i>
    <i name="BMIX">      1.00000000</i>
    <i name="AMIN">      0.10000000</i>
    <i name="AMIX_MAG">      1.60000000</i>
    <i name="BMIX_MAG">      1.00000000</i>
    <separator name="electronic mixer details" >
     <i type="int" name="IMIX">     4</i>
     <i type="logical" name="MIXFIRST"> F  </i>
     <i type="int" name="MAXMIX">   -45</i>
     <i name="WC">    100.00000000</i>
     <i type="int" name="INIMIX">     1</i>
     <i type="int" name="MIXPRE">     1</i>
     <i type="int" name="MREMOVE">     5</i>
    </separator>
   </separator>
   <separator name="electronic dipolcorrection" >
    <i type="logical" name="LDIPOL"> F  </i>
    <i type="logical" name="LMONO"> F  </i>
    <i type="int" name="IDIPOL">     0</i>
    <i name="EPSILON">      1.00000000</i>
    <v name="DIPOL">   -100.00000000   -100.00000000   -100.00000000</v>
    <i name="EFIELD">      0.00000000</i>
   </separator>
  </separator>
  <separator name="grids" >
   <i type="int" name="NGX">    56</i>
   <i type="int" name="NGY">    56</i>
   <i type="int" name="NGZ">    56</i>
   <i type="int" name="NGXF">   112</i>
   <i type="int" name="NGYF">   112</i>
   <i type="int" name="NGZF">   112</i>
   <i type="logical" name="ADDGRID"> F  </i>
  </separator>
  <separator name="ionic" >
   <i type="int" name="NSW">   100</i>
   <i type="int" name="IBRION">     2</i>
   <i type="int" name="MDALGO">     0</i>
   <i type="int" name="ISIF">     3</i>
   <i name="PSTRESS">      0.00000000</i>
   <i name="EDIFFG">     -0.01000000</i>
   <i type="int" name="NFREE">     1</i>
   <i name="POTIM">      0.50000000</i>
   <i name="SMASS">     -3.00000000</i>
   <i name="SCALEE">      1.00000000</i>
  </separator>
  <separator name="ionic md" >
   <i name="TEBEG">      0.00010000</i>
   <i name="TEEND">      0.00010000</i>
   <i type="int" name="NBLOCK">     1</i>
   <i type="int" name="KBLOCK">   100</i>
   <i type="int" name="NPACO">   256</i>
   <i name="APACO">     16.00000000</i>
  </separator>
  <separator name="symmetry" >
   <i type="int" name="ISYM">     2</i>
   <i name="SYMPREC">      0.00001000</i>
  </separator>
  <separator name="dos" >
   <i type="int" name="LORBIT">     0</i>
   <v name="RWIGS">     -1.00000000     -1.00000000     -1.00000000     -1.00000000     -1.00000000     -1.00000000     -1.00000000</v>
   <i type="int" name="NEDOS">   301</i>
   <i name="EMIN">     10.00000000</i>
   <i name="EMAX">    -10.00000000</i>
   <i name="EFERMI">      0.00000000</i>
  </separator>
  <separator name="writing" >
   <i type="int" name="NWRITE">     2</i>
   <i type="logical" name="LWAVE"> F  </i>
   <i type="logical" name="LDOWNSAMPLE"> F  </i>
   <i type="logical" name="LCHARG"> F  </i>
   <i type="logical" name="LPARD"> F  </i>
   <i type="logical" name="LVTOT"> F  </i>
   <i type="logical" name="LVHAR"> F  </i>
   <i type="logical" name="LELF"> F  </i>
   <i type="logical" name="LOPTICS"> F  </i>
   <v name="STM">      0.00000000      0.00000000      0.00000000      0.00000000      0.00000000      0.00000000      0.00000000</v>
  </separator>
  <separator name="performance" >
   <i type="int" name="NPAR">    24</i>
   <i type="int" name="NSIM">     4</i>
   <i type="int" name="NBLK">    -1</i>
   <i type="logical" name="LPLANE"> T  </i>
   <i type="logical" name="LSCALAPACK"> T  </i>
   <i type="logical" name="LSCAAWARE"> F  </i>
   <i type="logical" name="LSCALU"> F  </i>
   <i type="logical" name="LASYNC"> F  </i>
   <i type="logical" name="LORBITALREAL"> F  </i>
  </separator>
  <separator name="miscellaneous" >
   <i type="int" name="IDIOT">     3</i>
   <i type="int" name="ISPECIAL">     0</i>
   <i type="logical" name="LMUSIC"> F  </i>
   <v name="POMASS">     91.22400000    180.94800000    178.49000000     14.00100000     12.01100000     95.94000000     50.94100000</v>
   <v name="DARWINR">      0.00000000      0.00000000      0.00000000      0.00000000      0.00000000      0.00000000      0.00000000</v>
   <v name="DARWINV">      1.00000000      1.00000000      1.00000000      1.00000000      1.00000000      1.00000000      1.00000000</v>
   <i type="logical" name="LCORR"> T  </i>
  </separator>
  <i type="logical" name="GGA_COMPAT"> T  </i>
  <i type="logical" name="LBERRY"> F  </i>
  <i type="int" name="ICORELEVEL">     0</i>
  <i type="logical" name="LDAU"> F  </i>
  <i type="int" name="I_CONSTRAINED_M">     0</i>
  <separator name="electronic exchange-correlation" >
   <i type="string" name="GGA">--</i>
   <i type="int" name="VOSKOWN">     0</i>
   <i type="logical" name="LHFCALC"> F  </i>
   <i type="string" name="PRECFOCK"></i>
   <i type="logical" name="LSYMGRAD"> F  </i>
   <i type="logical" name="LHFONE"> F  </i>
   <i type="logical" name="LRHFCALC"> F  </i>
   <i type="logical" name="LTHOMAS"> F  </i>
   <i type="logical" name="LMODELHF"> F  </i>
   <i name="ENCUT4O">     -1.00000000</i>
   <i type="int" name="EXXOEP">     0</i>
   <i type="int" name="FOURORBIT">     0</i>
   <i name="AEXX">      0.00000000</i>
   <i name="HFALPHA">      0.00000000</i>
   <i name="MCALPHA">      0.00000000</i>
   <i name="ALDAX">      1.00000000</i>
   <i name="AGGAX">      1.00000000</i>
   <i name="ALDAC">      1.00000000</i>
   <i name="AGGAC">      1.00000000</i>
   <i type="int" name="NKREDX">     1</i>
   <i type="int" name="NKREDY">     1</i>
   <i type="int" name="NKREDZ">     1</i>
   <i type="logical" name="SHIFTRED"> F  </i>
   <i type="logical" name="ODDONLY"> F  </i>
   <i type="logical" name="EVENONLY"> F  </i>
   <i type="int" name="LMAXFOCK">     0</i>
   <i type="int" name="NMAXFOCKAE">     0</i>
   <i type="logical" name="LFOCKAEDFT"> F  </i>
   <i name="HFSCREEN">      0.00000000</i>
   <i name="HFSCREENC">      0.00000000</i>
   <i type="int" name="NBANDSGWLOW">     0</i>
  </separator>
  <separator name="vdW DFT" >
   <i type="logical" name="LUSE_VDW"> F  </i>
   <i name="Zab_VDW">     -0.84910000</i>
   <i name="PARAM1">      0.12340000</i>
   <i name="PARAM2">      1.00000000</i>
   <i name="PARAM3">      0.00000000</i>
  </separator>
  <separator name="model GW" >
   <i type="int" name="MODEL_GW">     0</i>
   <i name="MODEL_EPS0">     13.31282379</i>
   <i name="MODEL_ALPHA">      1.00000000</i>
  </separator>
  <separator name="linear response parameters" >
   <i type="logical" name="LEPSILON"> F  </i>
   <i type="logical" name="LRPA"> F  </i>
   <i type="logical" name="LNABLA"> F  </i>
   <i type="logical" name="LVEL"> F  </i>
   <i type="int" name="KINTER">     0</i>
   <i name="CSHIFT">      0.10000000</i>
   <i name="OMEGAMAX">     -1.00000000</i>
   <i name="DEG_THRESHOLD">      0.00200000</i>
   <i name="RTIME">     -0.10000000</i>
   <i name="WPLASMAI">      0.00000000</i>
   <v name="DFIELD">      0.00000000      0.00000000      0.00000000</v>
   <v name="WPLASMA">      0.00000000      0.00000000      0.00000000      0.00000000      0.00000000      0.00000000      0.00000000      0.00000000      0.00000000</v>
  </separator>
  <separator name="orbital magnetization" >
   <i type="logical" name="NUCIND"> F  </i>
   <v name="MAGPOS">      0.00000000      0.00000000      0.00000000</v>
   <i type="logical" name="LNICSALL"> T  </i>
   <i type="logical" name="ORBITALMAG"> F  </i>
   <i type="logical" name="LMAGBLOCH"> F  </i>
   <i type="logical" name="LCHIMAG"> F  </i>
   <i type="logical" name="LGAUGE"> T  </i>
   <i type="int" name="MAGATOM">     0</i>
   <v name="MAGDIPOL">      0.00000000      0.00000000      0.00000000</v>
   <v name="AVECCONST">      0.00000000      0.00000000      0.00000000</v>
  </separator>
  <separator name="response functions" >
   <i type="logical" name="LADDER"> F  </i>
   <i type="logical" name="LRPAFORCE"> F  </i>
   <i type="logical" name="LFXC"> F  </i>
   <i type="logical" name="LHARTREE"> T  </i>
   <i type="int" name="IBSE">     0</i>
   <v type="int" name="KPOINT">    -1     0     0     0</v>
   <i type="logical" name="LTCTE"> F  </i>
   <i type="logical" name="LTETE"> F  </i>
   <i type="logical" name="LTRIPLET"> F  </i>
   <i type="logical" name="LFXCEPS"> F  </i>
   <i type="logical" name="LFXHEG"> F  </i>
   <i type="int" name="NATURALO">     2</i>
   <i type="logical" name="L2ORDER"> F  </i>
   <i type="logical" name="LMP2LT"> F  </i>
   <i type="logical" name="LUSEW"> F  </i>
   <i name="ENCUTGW">     -2.00000000</i>
   <i name="ENCUTGWSOFT">     -2.00000000</i>
   <i name="ENCUTLF">     -1.00000000</i>
   <i type="int" name="LMAXMP2">    -1</i>
   <i name="SCISSOR">      0.00000000</i>
   <i type="int" name="NOMEGA">     0</i>
   <i type="int" name="NOMEGAR">     0</i>
   <i type="int" name="NBANDSGW">    -1</i>
   <i type="int" name="NBANDSO">    -1</i>
   <i type="int" name="NBANDSV">    -1</i>
   <i type="int" name="NELM">    60</i>
   <i type="int" name="NELMHF">     1</i>
   <i type="int" name="DIM">     3</i>
   <i type="int" name="ANTIRES">     0</i>
   <i name="OMEGAMAX">    -30.00000000</i>
   <i name="OMEGAMIN">    -30.00000000</i>
   <i name="OMEGATL">   -200.00000000</i>
   <i type="int" name="OMEGAGRID">   140</i>
   <i name="CSHIFT">     -0.10000000</i>
   <i type="logical" name="SELFENERGY"> F  </i>
   <i type="logical" name="LSPECTRAL"> F  </i>
   <i type="logical" name="LSPECTRALGW"> F  </i>
   <i type="logical" name="LSINGLES"> F  </i>
   <i type="logical" name="LFERMIGW"> F  </i>
   <i type="logical" name="ODDONLYGW"> F  </i>
   <i type="logical" name="EVENONLYGW"> F  </i>
   <i type="int" name="NKREDLFX">     1</i>
   <i type="int" name="NKREDLFY">     1</i>
   <i type="int" name="NKREDLFZ">     1</i>
   <i type="int" name="MAXMEM">  2800</i>
   <i type="int" name="TELESCOPE">     0</i>
   <i type="int" name="TAUPAR">     1</i>
   <i type="int" name="OMEGAPAR">    -1</i>
   <i name="LAMBDA">      1.00000000</i>
  </separator>
  <separator name="External order field" >
   <i name="OFIELD_KAPPA">      0.00000000</i>
   <v name="OFIELD_K">      0.00000000      0.00000000      0.00000000</v>
   <i name="OFIELD_Q6_NEAR">      0.00000000</i>
   <i name="OFIELD_Q6_FAR">      0.00000000</i>
   <i name="OFIELD_A">      0.00000000</i>
  </separator>
 </parameters>
 <atominfo>
  <atoms>      64 </atoms>
  <types>       7 </types>
  <array name="atoms" >
   <dimension dim="1">ion</dimension>
   <field type="string">element</field>
   <field type="int">atomtype</field>
   <set>
    <rc><c>Zr</c><c>   1</c></rc>
    <rc><c>Zr</c><c>   1</c></rc>
    <rc><c>Zr</c><c>   1</c></rc>
    <rc><c>Zr</c><c>   1</c></rc>
    <rc><c>Zr</c><c>   1</c></rc>
    <rc><c>Zr</c><c>   1</c></rc>
    <rc><c>Zr</c><c>   1</c></rc>
    <rc><c>Ta</c><c>   2</c></rc>
    <rc><c>Ta</c><c>   2</c></rc>
    <rc><c>Ta</c><c>   2</c></rc>
    <rc><c>Ta</c><c>   2</c></rc>
    <rc><c>Ta</c><c>   2</c></rc>
    <rc><c>Ta</c><c>   2</c></rc>
    <rc><c>Hf</c><c>   3</c></rc>
    <rc><c>Hf</c><c>   3</c></rc>
    <rc><c>Hf</c><c>   3</c></rc>
    <rc><c>Hf</c><c>   3</c></rc>
    <rc><c>Hf</c><c>   3</c></rc>
    <rc><c>Hf</c><c>   3</c></rc>
    <rc><c>Hf</c><c>   3</c></rc>
    <rc><c>N </c><c>   4</c></rc>
    <rc><c>N </c><c>   4</c></rc>
    <rc><c>N </c><c>   4</c></rc>
    <rc><c>N </c><c>   4</c></rc>
    <rc><c>N </c><c>   4</c></rc>
    <rc><c>N </c><c>   4</c></rc>
    <rc><c>N </c><c>   4</c></rc>
    <rc><c>N </c><c>   4</c></rc>
    <rc><c>N </c><c>   4</c></rc>
    <rc><c>N </c><c>   4</c></rc>
    <rc><c>N </c><c>   4</c></rc>
    <rc><c>N </c><c>   4</c></rc>
    <rc><c>N </c><c>   4</c></rc>
    <rc><c>C </c><c>   5</c></rc>
    <rc><c>C </c><c>   5</c></rc>
    <rc><c>C </c><c>   5</c></rc>
    <rc><c>C </c><c>   5</c></rc>
    <rc><c>C </c><c>   5</c></rc>
    <rc><c>C </c><c>   5</c></rc>
    <rc><c>C </c><c>   5</c></rc>
    <rc><c>C </c><c>   5</c></rc>
    <rc><c>C </c><c>   5</c></rc>
    <rc><c>C </c><c>   5</c></rc>
    <rc><c>C </c><c>   5</c></rc>
    <rc><c>C </c><c>   5</c></rc>
    <rc><c>C </c><c>   5</c></rc>
    <rc><c>C </c><c>   5</c></rc>
    <rc><c>C </c><c>   5</c></rc>
    <rc><c>C </c><c>   5</c></rc>
    <rc><c>C </c><c>   5</c></rc>
    <rc><c>C </c><c>   5</c></rc>
    <rc><c>C </c><c>   5</c></rc>
    <rc><c>Mo</c><c>   6</c></rc>
    <rc><c>Mo</c><c>   6</c></rc>
    <rc><c>Mo</c><c>   6</c></rc>
    <rc><c>Mo</c><c>   6</c></rc>
    <rc><c>Mo</c><c>   6</c></rc>
    <rc><c>Mo</c><c>   6</c></rc>
    <rc><c>V </c><c>   7</c></rc>
    <rc><c>V </c><c>   7</c></rc>
    <rc><c>V </c><c>   7</c></rc>
    <rc><c>V </c><c>   7</c></rc>
    <rc><c>V </c><c>   7</c></rc>
    <rc><c>V </c><c>   7</c></rc>
   </set>
  </array>
  <array name="atomtypes" >
   <dimension dim="1">type</dimension>
   <field type="int">atomspertype</field>
   <field type="string">element</field>
   <field>mass</field>
   <field>valence</field>
   <field type="string">pseudopotential</field>
   <set>
    <rc><c>   7</c><c>Zr</c><c>     91.22400000</c><c>     12.00000000</c><c> PAW_PBE Zr_sv 07Sep2000                </c></rc>
    <rc><c>   6</c><c>Ta</c><c>    180.94800000</c><c>     11.00000000</c><c> PAW_PBE Ta_pv 07Sep2000                </c></rc>
    <rc><c>   7</c><c>Hf</c><c>    178.49000000</c><c>     10.00000000</c><c> PAW_PBE Hf_pv 06Sep2000                </c></rc>
    <rc><c>  13</c><c>N </c><c>     14.00100000</c><c>      5.00000000</c><c> PAW_PBE N 08Apr2002                    </c></rc>
    <rc><c>  19</c><c>C </c><c>     12.01100000</c><c>      4.00000000</c><c> PAW_PBE C 08Apr2002                    </c></rc>
    <rc><c>   6</c><c>Mo</c><c>     95.94000000</c><c>      6.00000000</c><c> PAW_PBE Mo 08Apr2002                   </c></rc>
    <rc><c>   6</c><c>V </c><c>     50.94100000</c><c>     13.00000000</c><c> PAW_PBE V_sv 07Sep2000                 </c></rc>
   </set>
  </array>
 </atominfo>
 <structure name="initialpos" >
  <crystal>
   <varray name="basis" >
    <v>      11.23999977       0.00000000       0.00000000 </v>
    <v>       0.00000000      11.23999977       0.00000000 </v>
    <v>       0.00000000       0.00000000      11.23999977 </v>
   </varray>
   <i name="volume">   1420.03453724 </i>
   <varray name="rec_basis" >
    <v>       0.08896797       0.00000000       0.00000000 </v>
    <v>       0.00000000       0.08896797       0.00000000 </v>
    <v>       0.00000000       0.00000000       0.08896797 </v>
   </varray>
  </crystal>
  <varray name="positions" >
   <v>       0.00000000       0.00000000       0.00000000 </v>
   <v>       0.25000000       0.00000000       0.25000000 </v>
   <v>       0.25000000       0.50000000       0.25000000 </v>
   <v>       0.50000000       0.50000000       0.00000000 </v>
   <v>       0.50000000       0.25000000       0.75000004 </v>
   <v>       0.00000000       0.50000000       0.50000000 </v>
   <v>       0.50000000       0.75000004       0.75000004 </v>
   <v>       0.00000000       0.25000000       0.25000000 </v>
   <v>       0.75000004       0.75000004       0.00000000 </v>
   <v>       0.00000000       0.25000000       0.75000004 </v>
   <v>       0.75000004       0.25000000       0.50000000 </v>
   <v>       0.00000000       0.75000004       0.75000004 </v>
   <v>       0.25000000       0.50000000       0.75000004 </v>
   <v>       0.25000000       0.25000000       0.00000000 </v>
   <v>       0.50000000       0.25000000       0.25000000 </v>
   <v>       0.75000004       0.00000000       0.25000000 </v>
   <v>       0.75000004       0.25000000       0.00000000 </v>
   <v>       0.25000000       0.75000004       0.00000000 </v>
   <v>       0.25000000       0.25000000       0.50000000 </v>
   <v>       0.25000000       0.75000004       0.50000000 </v>
   <v>       0.25000000       0.25000000       0.25000000 </v>
   <v>       0.25000000       0.00000000       0.00000000 </v>
   <v>       0.00000000       0.25000000       0.00000000 </v>
   <v>       0.75000004       0.25000000       0.25000000 </v>
   <v>       0.75000004       0.00000000       0.00000000 </v>
   <v>       0.50000000       0.00000000       0.25000000 </v>
   <v>       0.00000000       0.50000000       0.25000000 </v>
   <v>       0.50000000       0.75000004       0.00000000 </v>
   <v>       0.00000000       0.00000000       0.75000004 </v>
   <v>       0.75000004       0.25000000       0.75000004 </v>
   <v>       0.75000004       0.00000000       0.50000000 </v>
   <v>       0.50000000       0.25000000       0.50000000 </v>
   <v>       0.50000000       0.00000000       0.75000004 </v>
   <v>       0.00000000       0.00000000       0.25000000 </v>
   <v>       0.50000000       0.25000000       0.00000000 </v>
   <v>       0.25000000       0.75000004       0.25000000 </v>
   <v>       0.25000000       0.50000000       0.00000000 </v>
   <v>       0.00000000       0.75000004       0.00000000 </v>
   <v>       0.75000004       0.75000004       0.25000000 </v>
   <v>       0.75000004       0.50000000       0.00000000 </v>
   <v>       0.50000000       0.50000000       0.25000000 </v>
   <v>       0.25000000       0.25000000       0.75000004 </v>
   <v>       0.25000000       0.00000000       0.50000000 </v>
   <v>       0.00000000       0.25000000       0.50000000 </v>
   <v>       0.25000000       0.75000004       0.75000004 </v>
   <v>       0.25000000       0.50000000       0.50000000 </v>
   <v>       0.00000000       0.75000004       0.50000000 </v>
   <v>       0.00000000       0.50000000       0.75000004 </v>
   <v>       0.75000004       0.75000004       0.75000004 </v>
   <v>       0.75000004       0.50000000       0.50000000 </v>
   <v>       0.50000000       0.75000004       0.50000000 </v>
   <v>       0.50000000       0.50000000       0.75000004 </v>
   <v>       0.50000000       0.00000000       0.00000000 </v>
   <v>       0.00000000       0.50000000       0.00000000 </v>
   <v>       0.50000000       0.75000004       0.25000000 </v>
   <v>       0.25000000       0.00000000       0.75000004 </v>
   <v>       0.50000000       0.00000000       0.50000000 </v>
   <v>       0.75000004       0.00000000       0.75000004 </v>
   <v>       0.00000000       0.75000004       0.25000000 </v>
   <v>       0.75000004       0.50000000       0.25000000 </v>
   <v>       0.00000000       0.00000000       0.50000000 </v>
   <v>       0.50000000       0.50000000       0.50000000 </v>
   <v>       0.75000004       0.50000000       0.75000004 </v>
   <v>       0.75000004       0.75000004       0.50000000 </v>
  </varray>
 </structure>
 <calculation>
  <scstep>
   <time name="dav">   81.98   82.35</time>
   <time name="total">   82.04   82.41</time>
   <energy>
    <i name="alphaZ">   2123.16653400 </i>
    <i name="ewald"> -28583.54933356 </i>
    <i name="hartreedc">  -9946.46285593 </i>
    <i name="XCdc">   1122.61925955 </i>
    <i name="pawpsdc">  25198.37973325 </i>
    <i name="pawaedc"> -24586.67575327 </i>
    <i name="eentropy">     -0.10016818 </i>
    <i name="bandstr">  -2689.87240870 </i>
    <i name="atom">  40522.68352202 </i>
    <i name="e_fr_energy">   3160.18852918 </i>
    <i name="e_wo_entrp">   3160.28869736 </i>
    <i name="e_0_energy">   3160.23861327 </i>
   </energy>
  </scstep>
  <scstep>
   <time name="dav">   81.29   81.48</time>
   <time name="total">   81.29   81.48</time>
   <energy>
    <i name="e_fr_energy">   -180.32269528 </i>
    <i name="e_wo_entrp">   -180.09123475 </i>
    <i name="e_0_energy">   -180.20696501 </i>
   </energy>
  </scstep>
  <scstep>
   <time name="dav">  104.89  105.73</time>
   <time name="total">  104.89  105.73</time>
   <energy>
    <i name="e_fr_energy">   -605.80812327 </i>
    <i name="e_wo_entrp">   -605.61121801 </i>
    <i name="e_0_energy">   -605.70967064 </i>
   </energy>
  </scstep>
  <scstep>
   <time name="dav">  108.54  108.81</time>
   <time name="total">  108.55  108.81</time>
   <energy>
    <i name="e_fr_energy">   -639.15125475 </i>
    <i name="e_wo_entrp">   -638.90654488 </i>
    <i name="e_0_energy">   -639.02889981 </i>
   </energy>
  </scstep>
  <scstep>
   <time name="dav">  120.63  120.98</time>
   <time name="total">  121.25  121.59</time>
   <energy>
    <i name="e_fr_energy">   -642.15901902 </i>
    <i name="e_wo_entrp">   -641.89092615 </i>
    <i name="e_0_energy">   -642.02497259 </i>
   </energy>
  </scstep>
  <scstep>
   <time name="diag">    2.61    2.61</time>
   <time name="diis">   77.93   78.26</time>
   <time name="orth">    0.60    0.60</time>
   <time name="total">   81.83   82.16</time>
   <energy>
    <i name="e_fr_energy">   -641.51906313 </i>
    <i name="e_wo_entrp">   -640.94677519 </i>
    <i name="e_0_energy">   -641.23291916 </i>
   </energy>
  </scstep>
  <scstep>
   <time name="diag">    2.64    2.66</time>
   <time name="diis">   73.23   73.54</time>
   <time name="orth">    0.59    0.59</time>
   <time name="total">   77.15   77.48</time>
   <energy>
    <i name="e_fr_energy">   -497.44600933 </i>
    <i name="e_wo_entrp">   -497.08220987 </i>
    <i name="e_0_energy">   -497.26410960 </i>
   </energy>
  </scstep>
  <scstep>
   <time name="diag">    2.60    2.67</time>
   <time name="diis">   81.02   81.24</time>
   <time name="orth">    0.60    0.60</time>
   <time name="total">   84.87   85.17</time>
   <energy>
    <i name="e_fr_energy">   -508.99110316 </i>
    <i name="e_wo_entrp">   -508.66565040 </i>
    <i name="e_0_energy">   -508.82837678 </i>
   </energy>
  </scstep>
  <scstep>
   <time name="diag">    2.61    2.61</time>
   <time name="diis">   84.23   84.54</time>
   <time name="orth">    0.59    0.60</time>
   <time name="total">   88.11   88.43</time>
   <energy>
    <i name="e_fr_energy">   -488.56540355 </i>
    <i name="e_wo_entrp">   -488.14562875 </i>
    <i name="e_0_energy">   -488.35551615 </i>
   </energy>
  </scstep>
  <scstep>
   <time name="diag">    2.61    2.61</time>
   <time name="diis">   80.99   81.33</time>
   <time name="orth">    0.60    0.60</time>
   <time name="total">   84.88   85.22</time>
   <energy>
    <i name="e_fr_energy">   -486.24897201 </i>
    <i name="e_wo_entrp">   -485.85873701 </i>
    <i name="e_0_energy">   -486.05385451 </i>
   </energy>
  </scstep>
  <scstep>
   <time name="diag">    2.61    2.61</time>
   <time name="diis">   80.66   80.90</time>
   <time name="orth">    0.59    0.60</time>
   <time name="total">   84.53   84.78</time>
   <energy>
    <i name="e_fr_energy">   -486.99241728 </i>
    <i name="e_wo_entrp">   -486.61664231 </i>
    <i name="e_0_energy">   -486.80452979 </i>
   </energy>
  </scstep>
  <scstep>
   <time name="diag">    2.74    2.82</time>
   <time name="diis">   81.01   81.34</time>
   <time name="orth">    0.60    0.60</time>
   <time name="total">   85.06   85.47</time>
   <energy>
    <i name="e_fr_energy">   -482.84379011 </i>
    <i name="e_wo_entrp">   -482.39590684 </i>
    <i name="e_0_energy">   -482.61984848 </i>
   </energy>
  </scstep>
  <scstep>
   <time name="diag">    2.63    2.63</time>
   <time name="diis">   79.92   80.10</time>
   <time name="orth">    0.60    0.60</time>
   <time name="total">   83.85   84.04</time>
   <energy>
    <i name="e_fr_energy">   -482.61675491 </i>
    <i name="e_wo_entrp">   -482.19710284 </i>
    <i name="e_0_energy">   -482.40692888 </i>
   </energy>
  </scstep>
  <scstep>
   <time name="diag">    2.61    2.61</time>
   <time name="diis">   80.51   80.70</time>
   <time name="orth">    0.61    0.61</time>
   <time name="total">   84.45   84.64</time>
   <energy>
    <i name="e_fr_energy">   -481.24001763 </i>
    <i name="e_wo_entrp">   -480.82222761 </i>
    <i name="e_0_energy">   -481.03112262 </i>
   </energy>
  </scstep>
  <scstep>
   <time name="diag">    2.66    2.67</time>
   <time name="diis">   80.42   80.59</time>
   <time name="orth">    0.60    0.60</time>
   <time name="total">   84.37   84.56</time>
   <energy>
    <i name="e_fr_energy">   -482.94233987 </i>
    <i name="e_wo_entrp">   -482.53918887 </i>
    <i name="e_0_energy">   -482.74076437 </i>
   </energy>
  </scstep>
  <scstep>
   <time name="diag">    2.61    2.61</time>
   <time name="diis">   78.17   78.40</time>
   <time name="orth">    0.61    0.62</time>
   <time name="total">   82.13   82.37</time>
   <energy>
    <i name="e_fr_energy">   -479.98904213 </i>
    <i name="e_wo_entrp">   -479.49560235 </i>
    <i name="e_0_energy">   -479.74232224 </i>
   </energy>
  </scstep>
  <scstep>
   <time name="diag">    2.68    2.72</time>
   <time name="diis">   81.67   82.05</time>
   <time name="orth">    0.59    0.59</time>
   <time name="total">   85.66   86.08</time>
   <energy>
    <i name="e_fr_energy">   -479.82026270 </i>
    <i name="e_wo_entrp">   -479.28704843 </i>
    <i name="e_0_energy">   -479.55365556 </i>
   </energy>
  </scstep>
  <scstep>
   <time name="diag">    2.64    2.64</time>
   <time name="diis">   82.08   82.27</time>
   <time name="orth">    0.59    0.59</time>
   <time name="total">   86.02   86.22</time>
   <energy>
    <i name="e_fr_energy">   -479.63064006 </i>
    <i name="e_wo_entrp">   -479.12423799 </i>
    <i name="e_0_energy">   -479.37743902 </i>
   </energy>
  </scstep>
  <scstep>
   <time name="diag">    2.61    2.62</time>
   <time name="diis">   83.76   84.08</time>
   <time name="orth">    0.60    0.60</time>
   <time name="total">   87.68   88.01</time>
   <energy>
    <i name="e_fr_energy">   -479.60866585 </i>
    <i name="e_wo_entrp">   -479.08718234 </i>
    <i name="e_0_energy">   -479.34792409 </i>
   </energy>
  </scstep>
  <scstep>
   <time name="diag">    2.62    2.62</time>
   <time name="diis">   82.16   82.31</time>
   <time name="orth">    0.61    0.62</time>
   <time name="total">   86.10   86.26</time>
   <energy>
    <i name="e_fr_energy">   -479.74891833 </i>
    <i name="e_wo_entrp">   -479.23460633 </i>
    <i name="e_0_energy">   -479.49176233 </i>
   </energy>
  </scstep>
  <scstep>
   <time name="diag">    2.61    2.61</time>
   <time name="diis">   81.14   81.43</time>
   <time name="orth">    0.59    0.59</time>
   <time name="total">   85.06   85.35</time>
   <energy>
    <i name="e_fr_energy">   -479.58160596 </i>
    <i name="e_wo_entrp">   -479.06380989 </i>
    <i name="e_0_energy">   -479.32270792 </i>
   </energy>
  </scstep>
  <scstep>
   <time name="diag">    2.61    2.61</time>
   <time name="diis">   82.56   82.75</time>
   <time name="orth">    0.59    0.59</time>
   <time name="total">   86.48   86.68</time>
   <energy>
    <i name="e_fr_energy">   -479.59623309 </i>
    <i name="e_wo_entrp">   -479.06112234 </i>
    <i name="e_0_energy">   -479.32867772 </i>
   </energy>
  </scstep>
  <scstep>
   <time name="diag">    2.61    2.61</time>
   <time name="diis">   81.32   81.70</time>
   <time name="orth">    0.59    0.60</time>
   <time name="total">   85.24   85.63</time>
   <energy>
    <i name="e_fr_energy">   -479.60795424 </i>
    <i name="e_wo_entrp">   -479.09360007 </i>
    <i name="e_0_energy">   -479.35077715 </i>
   </energy>
  </scstep>
  <scstep>
   <time name="diag">    2.61    2.61</time>
   <time name="diis">   82.56   82.78</time>
   <time name="orth">    0.60    0.60</time>
   <time name="total">   86.49   86.70</time>
   <energy>
    <i name="e_fr_energy">   -479.57453469 </i>
    <i name="e_wo_entrp">   -479.04377292 </i>
    <i name="e_0_energy">   -479.30915381 </i>
   </energy>
  </scstep>
  <scstep>
   <time name="diag">    2.63    2.64</time>
   <time name="diis">   83.15   83.58</time>
   <time name="orth">    0.59    0.59</time>
   <time name="total">   87.09   87.54</time>
   <energy>
    <i name="e_fr_energy">   -479.57856635 </i>
    <i name="e_wo_entrp">   -479.03824602 </i>
    <i name="e_0_energy">   -479.30840618 </i>
   </energy>
  </scstep>
  <scstep>
   <time name="diag">    2.63    2.63</time>
   <time name="diis">   81.62   81.88</time>
   <time name="orth">    0.59    0.59</time>
   <time name="total">   85.56   85.82</time>
   <energy>
    <i name="e_fr_energy">   -479.56586359 </i>
    <i name="e_wo_entrp">   -479.03204653 </i>
    <i name="e_0_energy">   -479.29895506 </i>
   </energy>
  </scstep>
  <scstep>
   <time name="diag">    2.63    2.63</time>
   <time name="diis">   82.79   83.09</time>
   <time name="orth">    0.59    0.59</time>
   <time name="total">   86.71   87.02</time>
   <energy>
    <i name="e_fr_energy">   -479.56179006 </i>
    <i name="e_wo_entrp">   -479.02935031 </i>
    <i name="e_0_energy">   -479.29557019 </i>
   </energy>
  </scstep>
  <scstep>
   <time name="diag">    2.60    2.60</time>
   <time name="diis">   78.68   79.11</time>
   <time name="orth">    0.60    0.60</time>
   <time name="total">   82.60   83.04</time>
   <energy>
    <i name="e_fr_energy">   -479.56141129 </i>
    <i name="e_wo_entrp">   -479.03062341 </i>
    <i name="e_0_energy">   -479.29601735 </i>
   </energy>
  </scstep>
  <scstep>
   <time name="diag">    2.61    2.65</time>
   <time name="diis">   76.12   76.34</time>
   <time name="orth">    0.60    0.60</time>
   <time name="total">   80.04   80.29</time>
   <energy>
    <i name="e_fr_energy">   -479.56179220 </i>
    <i name="e_wo_entrp">   -479.03054091 </i>
    <i name="e_0_energy">   -479.29616655 </i>
   </energy>
  </scstep>
  <scstep>
   <time name="diag">    2.61    2.61</time>
   <time name="diis">   76.94   77.19</time>
   <time name="orth">    0.59    0.59</time>
   <time name="total">   80.85   81.11</time>
   <energy>
    <i name="e_fr_energy">   -479.56203947 </i>
    <i name="e_wo_entrp">   -479.03145750 </i>
    <i name="e_0_energy">   -479.29674849 </i>
   </energy>
  </scstep>
  <scstep>
   <time name="diag">    2.63    2.64</time>
   <time name="diis">   70.78   70.97</time>
   <time name="orth">    0.59    0.59</time>
   <time name="total">   74.72   74.92</time>
   <energy>
    <i name="e_fr_energy">   -479.56224263 </i>
    <i name="e_wo_entrp">   -479.03116823 </i>
    <i name="e_0_energy">   -479.29670543 </i>
   </energy>
  </scstep>
  <scstep>
   <time name="diag">    2.61    2.61</time>
   <time name="diis">   46.26   46.39</time>
   <time name="orth">    0.59    0.59</time>
   <time name="total">   50.18   50.32</time>
   <energy>
    <i name="e_fr_energy">   -479.56236319 </i>
    <i name="e_wo_entrp">   -479.03132459 </i>
    <i name="e_0_energy">   -479.29684389 </i>
   </energy>
  </scstep>
  <scstep>
   <time name="diag">    2.61    2.61</time>
   <time name="diis">   64.84   65.05</time>
   <time name="orth">    0.59    0.59</time>
   <time name="total">   68.78   68.99</time>
   <energy>
    <i name="e_fr_energy">   -479.56244558 </i>
    <i name="e_wo_entrp">   -479.03120766 </i>
    <i name="e_0_energy">   -479.29682662 </i>
   </energy>
  </scstep>
  <scstep>
   <time name="diag">    2.61    2.61</time>
   <time name="diis">   50.53   50.68</time>
   <time name="orth">    0.59    0.59</time>
   <time name="total">   54.45   54.61</time>
   <energy>
    <i name="e_fr_energy">   -479.56250136 </i>
    <i name="e_wo_entrp">   -479.03137696 </i>
    <i name="e_0_energy">   -479.29693916 </i>
   </energy>
  </scstep>
  <scstep>
   <time name="diag">    2.61    2.61</time>
   <time name="diis">   42.70   42.94</time>
   <time name="orth">    0.59    0.59</time>
   <time name="total">   46.61   46.87</time>
   <energy>
    <i name="e_fr_energy">   -479.56253198 </i>
    <i name="e_wo_entrp">   -479.03130810 </i>
    <i name="e_0_energy">   -479.29692004 </i>
   </energy>
  </scstep>
  <scstep>
   <time name="diag">    2.61    2.61</time>
   <time name="diis">   42.33   42.57</time>
   <time name="orth">    0.59    0.59</time>
   <time name="total">   46.25   46.49</time>
   <energy>
    <i name="e_fr_energy">   -479.56255105 </i>
    <i name="e_wo_entrp">   -479.03133327 </i>
    <i name="e_0_energy">   -479.29694216 </i>
   </energy>
  </scstep>
  <scstep>
   <time name="diag">    2.61    2.61</time>
   <time name="diis">   41.32   41.47</time>
   <time name="orth">    0.59    0.59</time>
   <time name="total">   45.24   45.39</time>
   <energy>
    <i name="e_fr_energy">   -479.56256611 </i>
    <i name="e_wo_entrp">   -479.03129082 </i>
    <i name="e_0_energy">   -479.29692846 </i>
   </energy>
  </scstep>
  <scstep>
   <time name="diag">    2.61    2.61</time>
   <time name="diis">   39.99   40.20</time>
   <time name="orth">    0.59    0.59</time>
   <time name="total">   43.24   43.46</time>
   <energy>
    <i name="alphaZ">   2123.16653400 </i>
    <i name="ewald"> -28583.54933356 </i>
    <i name="hartreedc">  -9291.12646757 </i>
    <i name="XCdc">   1104.57147787 </i>
    <i name="pawpsdc">  23484.72125235 </i>
    <i name="pawaedc"> -22918.82466944 </i>
    <i name="eentropy">     -0.53127289 </i>
    <i name="bandstr">  -6920.67361824 </i>
    <i name="atom">  40522.68352202 </i>
    <i name="e_fr_energy">   -479.56257546 </i>
    <i name="e_wo_entrp">   -479.03130257 </i>
    <i name="e_0_energy">   -479.29693901 </i>
   </energy>
  </scstep>
  <structure>
   <crystal>
    <varray name="basis" >
     <v>      11.23999977       0.00000000       0.00000000 </v>
     <v>       0.00000000      11.23999977       0.00000000 </v>
     <v>       0.00000000       0.00000000      11.23999977 </v>
    </varray>
    <i name="volume">   1420.03453724 </i>
    <varray name="rec_basis" >
     <v>       0.08896797       0.00000000       0.00000000 </v>
     <v>       0.00000000       0.08896797       0.00000000 </v>
     <v>       0.00000000       0.00000000       0.08896797 </v>
    </varray>
   </crystal>
   <varray name="positions" >
    <v>       0.00000000       0.00000000       0.00000000 </v>
    <v>       0.25000000       0.00000000       0.25000000 </v>
    <v>       0.25000000       0.50000000       0.25000000 </v>
    <v>       0.50000000       0.50000000       0.00000000 </v>
    <v>       0.50000000       0.25000000       0.75000004 </v>
    <v>       0.00000000       0.50000000       0.50000000 </v>
    <v>       0.50000000       0.75000004       0.75000004 </v>
    <v>       0.00000000       0.25000000       0.25000000 </v>
    <v>       0.75000004       0.75000004       0.00000000 </v>
    <v>       0.00000000       0.25000000       0.75000004 </v>
    <v>       0.75000004       0.25000000       0.50000000 </v>
    <v>       0.00000000       0.75000004       0.75000004 </v>
    <v>       0.25000000       0.50000000       0.75000004 </v>
    <v>       0.25000000       0.25000000       0.00000000 </v>
    <v>       0.50000000       0.25000000       0.25000000 </v>
    <v>       0.75000004       0.00000000       0.25000000 </v>
    <v>       0.75000004       0.25000000       0.00000000 </v>
    <v>       0.25000000       0.75000004       0.00000000 </v>
    <v>       0.25000000       0.25000000       0.50000000 </v>
    <v>       0.25000000       0.75000004       0.50000000 </v>
    <v>       0.25000000       0.25000000       0.25000000 </v>
    <v>       0.25000000       0.00000000       0.00000000 </v>
    <v>       0.00000000       0.25000000       0.00000000 </v>
    <v>       0.75000004       0.25000000       0.25000000 </v>
    <v>       0.75000004       0.00000000       0.00000000 </v>
    <v>       0.50000000       0.00000000       0.25000000 </v>
    <v>       0.00000000       0.50000000       0.25000000 </v>
    <v>       0.50000000       0.75000004       0.00000000 </v>
    <v>       0.00000000       0.00000000       0.75000004 </v>
    <v>       0.75000004       0.25000000       0.75000004 </v>
    <v>       0.75000004       0.00000000       0.50000000 </v>
    <v>       0.50000000       0.25000000       0.50000000 </v>
    <v>       0.50000000       0.00000000       0.75000004 </v>
    <v>       0.00000000       0.00000000       0.25000000 </v>
    <v>       0.50000000       0.25000000       0.00000000 </v>
    <v>       0.25000000       0.75000004       0.25000000 </v>
    <v>       0.25000000       0.50000000       0.00000000 </v>
    <v>       0.00000000       0.75000004       0.00000000 </v>
    <v>       0.75000004       0.75000004       0.25000000 </v>
    <v>       0.75000004       0.50000000       0.00000000 </v>
    <v>       0.50000000       0.50000000       0.25000000 </v>
    <v>       0.25000000       0.25000000       0.75000004 </v>
    <v>       0.25000000       0.00000000       0.50000000 </v>
    <v>       0.00000000       0.25000000       0.50000000 </v>
    <v>       0.25000000       0.75000004       0.75000004 </v>
    <v>       0.25000000       0.50000000       0.50000000 </v>
    <v>       0.00000000       0.75000004       0.50000000 </v>
    <v>       0.00000000       0.50000000       0.75000004 </v>
    <v>       0.75000004       0.75000004       0.75000004 </v>
    <v>       0.75000004       0.50000000       0.50000000 </v>
    <v>       0.50000000       0.75000004       0.50000000 </v>
    <v>       0.50000000       0.50000000       0.75000004 </v>
    <v>       0.50000000       0.00000000       0.00000000 </v>
    <v>       0.00000000       0.50000000       0.00000000 </v>
    <v>       0.50000000       0.75000004       0.25000000 </v>
    <v>       0.25000000       0.00000000       0.75000004 </v>
    <v>       0.50000000       0.00000000       0.50000000 </v>
    <v>       0.75000004       0.00000000       0.75000004 </v>
    <v>       0.00000000       0.75000004       0.25000000 </v>
    <v>       0.75000004       0.50000000       0.25000000 </v>
    <v>       0.00000000       0.00000000       0.50000000 </v>
    <v>       0.50000000       0.50000000       0.50000000 </v>
    <v>       0.75000004       0.50000000       0.75000004 </v>
    <v>       0.75000004       0.75000004       0.50000000 </v>
   </varray>
  </structure>
  <varray name="forces" >
   <v>      -0.03604697      -0.47014694       0.02311469 </v>
   <v>      -0.02812159      -0.64257836       0.42071271 </v>
   <v>       0.16605836       0.62336043      -0.04068222 </v>
   <v>       0.12820220      -0.09715270       0.07187092 </v>
   <v>      -0.19641042      -0.10238108       0.09525533 </v>
   <v>      -0.19490820       0.16332970       0.17894835 </v>
   <v>       0.11441585       0.09219726      -0.35419460 </v>
   <v>      -0.31534819      -0.40980752       0.64203513 </v>
   <v>       0.47077408      -0.57647481       0.02429014 </v>
   <v>       0.36217566       0.40203496      -0.69107649 </v>
   <v>       0.59351396       0.42825249       0.26657241 </v>
   <v>      -0.14519588      -0.35446994      -0.14751186 </v>
   <v>       0.04076517       0.06063975       0.07564481 </v>
   <v>       0.20238908       0.23251210      -0.62810139 </v>
   <v>       0.24088052       0.26300782      -0.15536596 </v>
   <v>       0.06514770      -0.57943521       0.24035870 </v>
   <v>      -0.24084546       0.39707243      -0.23817683 </v>
   <v>      -0.24101303      -0.19113342      -0.00362173 </v>
   <v>      -0.29240875      -0.18956726       0.60253399 </v>
   <v>       0.05696062       0.19493866       0.00620091 </v>
   <v>       0.11885469      -0.02752068      -0.08710843 </v>
   <v>      -0.40112902       0.05602249       0.44424172 </v>
   <v>       0.02074813      -0.45150396      -0.00623873 </v>
   <v>      -0.09686728      -0.68847493      -0.06732037 </v>
   <v>       0.32936179       0.10551418       0.51717748 </v>
   <v>       0.25705882       0.66009567      -0.01408875 </v>
   <v>       0.41367544      -0.79604360       0.29847423 </v>
   <v>      -0.00840505      -0.28685413      -0.40872979 </v>
   <v>      -0.09020343       0.07442231       0.48422466 </v>
   <v>       0.09232904      -0.18908009       0.04878023 </v>
   <v>      -0.14923206       0.74289268      -0.50446251 </v>
   <v>       0.02594023      -0.13573210      -0.20244721 </v>
   <v>       0.08256767       0.04627498       0.01439717 </v>
   <v>      -0.25388994       0.81196075      -0.40030187 </v>
   <v>       0.04442640      -0.02441833       0.22503423 </v>
   <v>       0.22260623       0.03682030      -0.08676249 </v>
   <v>       0.07394463      -0.02838070      -0.17392418 </v>
   <v>      -0.22584188       0.18752007      -0.62836835 </v>
   <v>      -0.25580068       0.51037407      -0.64290695 </v>
   <v>       0.00252732       0.17130860       0.06980191 </v>
   <v>      -0.21929638      -0.28024317      -0.20564294 </v>
   <v>      -0.29607494       0.38264919       0.07847675 </v>
   <v>       0.26141320       0.08499565      -0.06423571 </v>
   <v>      -0.23084271       0.21764272       0.02642697 </v>
   <v>      -0.28614083      -0.43158952       0.08684760 </v>
   <v>      -0.30942040      -0.10491285       0.18310366 </v>
   <v>       0.33639431      -0.26173011       0.74832097 </v>
   <v>       0.49219373      -0.05021738       0.03822929 </v>
   <v>       0.35049170       0.29895663       0.62888900 </v>
   <v>       0.22410980      -0.75555169      -0.06465954 </v>
   <v>      -0.31535451       0.29696807      -0.01545847 </v>
   <v>      -0.58597960      -0.04813298       0.22887813 </v>
   <v>       0.13004967       0.41671892      -0.11468762 </v>
   <v>      -0.18149516       0.48443882      -0.57748172 </v>
   <v>       0.09767864      -0.46730128       0.61439594 </v>
   <v>       0.09757789      -0.02386709      -0.62340064 </v>
   <v>      -0.45315183      -0.62655345       0.14160734 </v>
   <v>      -0.10365146      -0.55330188      -0.12658981 </v>
   <v>      -0.04423506       0.37075632       0.03228737 </v>
   <v>      -0.38044741       0.56982699       0.03431478 </v>
   <v>       0.32580326      -0.06432522      -0.20399986 </v>
   <v>       0.19531729       0.45677359      -0.04560144 </v>
   <v>      -0.01000705       0.43797694      -0.01434046 </v>
   <v>      -0.04858793      -0.36937318      -0.05395857 </v>
  </varray>
  <varray name="stress" >
   <v>    -421.93731966      -0.15094216       0.04050125 </v>
   <v>      -0.15094277    -423.35799726       0.08139595 </v>
   <v>       0.04050126       0.08139566    -422.96483561 </v>
  </varray>
  <energy>
   <i name="e_fr_energy">   -479.56257546 </i>
   <i name="e_wo_entrp">   -479.29693901 </i>
   <i name="e_0_energy">     -0.53127289 </i>
  </energy>
  <time name="totalsc"> 3178.25 3189.65</time>
 </calculation>
 <calculation>
  <scstep>
   <time name="dav">   77.06   77.26</time>
   <time name="total">   77.70   77.90</time>
   <energy>
    <i name="alphaZ">   5746.58880962 </i>
    <i name="ewald"> -39833.27818251 </i>
    <i name="hartreedc"> -12945.13568726 </i>
    <i name="XCdc">   1744.54597631 </i>
    <i name="pawpsdc">  23484.75008494 </i>
    <i name="pawaedc"> -22918.85299871 </i>
    <i name="eentropy">     -0.08087491 </i>
    <i name="bandstr">    949.58313547 </i>
    <i name="atom">  40522.68352202 </i>
    <i name="e_fr_energy">  -3249.19621503 </i>
    <i name="e_wo_entrp">  -3249.11534012 </i>
    <i name="e_0_energy">  -3249.15577757 </i>
   </energy>
  </scstep>
  <scstep>
   <time name="diag">    2.60    2.60</time>
   <time name="diis">   77.88   78.17</time>
   <time name="orth">    0.60    0.60</time>
   <time name="total">   81.72   82.02</time>
   <energy>
    <i name="e_fr_energy">  -1187.93002556 </i>
    <i name="e_wo_entrp">  -1187.78070242 </i>
    <i name="e_0_energy">  -1187.85536399 </i>
   </energy>
  </scstep>
  <scstep>
   <time name="diag">    2.61    2.61</time>
   <time name="diis">   55.54   55.70</time>
   <time name="orth">    0.59    0.59</time>
   <time name="total">   59.40   59.56</time>
   <energy>
    <i name="e_fr_energy">   -601.84512329 </i>
    <i name="e_wo_entrp">   -601.73186781 </i>
    <i name="e_0_energy">   -601.78849555 </i>
   </energy>
  </scstep>
  <scstep>
   <time name="diag">    2.68    2.69</time>
   <time name="diis">   65.79   65.94</time>
   <time name="orth">    0.59    0.59</time>
   <time name="total">   69.72   69.89</time>
   <energy>
    <i name="e_fr_energy">   -591.29761875 </i>
    <i name="e_wo_entrp">   -591.18235801 </i>
    <i name="e_0_energy">   -591.23998838 </i>
   </energy>
  </scstep>
  <scstep>
   <time name="diag">    2.64    2.64</time>
   <time name="diis">   86.77   87.11</time>
   <time name="orth">    0.59    0.59</time>
   <time name="total">   90.64   90.99</time>
   <energy>
    <i name="e_fr_energy">   -600.52210264 </i>
    <i name="e_wo_entrp">   -600.40956177 </i>
    <i name="e_0_energy">   -600.46583221 </i>
   </energy>
  </scstep>
  <scstep>
   <time name="diag">    2.64    2.67</time>
   <time name="diis">   80.86   81.24</time>
   <time name="orth">    0.59    0.59</time>
   <time name="total">   84.75   85.16</time>
   <energy>
    <i name="e_fr_energy">   -569.50990418 </i>
    <i name="e_wo_entrp">   -569.39654230 </i>
    <i name="e_0_energy">   -569.45322324 </i>
   </energy>
  </scstep>
  <scstep>
   <time name="diag">    2.61    2.61</time>
   <time name="diis">   90.51   90.70</time>
   <time name="orth">    0.59    0.59</time>
   <time name="total">   94.37   94.56</time>
   <energy>
    <i name="e_fr_energy">   -572.32125754 </i>
    <i name="e_wo_entrp">   -572.19665971 </i>
    <i name="e_0_energy">   -572.25895862 </i>
   </energy>
  </scstep>
  <scstep>
   <time name="diag">    2.62    2.66</time>
   <time name="diis">   91.26   92.31</time>
   <time name="orth">    0.59    0.59</time>
   <time name="total">   95.13   96.21</time>
   <energy>
    <i name="e_fr_energy">   -572.23202955 </i>
    <i name="e_wo_entrp">   -572.10994787 </i>
    <i name="e_0_energy">   -572.17098871 </i>
   </energy>
  </scstep>
  <scstep>
   <time name="diag">    2.62    2.62</time>
   <time name="diis">   88.15   88.51</time>
   <time name="orth">    0.59    0.60</time>
   <time name="total">   92.01   92.39</time>
   <energy>
    <i name="e_fr_energy">   -572.49269424 </i>
    <i name="e_wo_entrp">   -572.37548782 </i>
    <i name="e_0_energy">   -572.43409103 </i>
   </energy>
  </scstep>
  <scstep>
   <time name="diag">    2.64    2.65</time>
   <time name="diis">   91.22   91.61</time>
   <time name="orth">    0.59    0.59</time>
   <time name="total">   95.11   95.51</time>
   <energy>
    <i name="e_fr_energy">   -573.29087422 </i>
    <i name="e_wo_entrp">   -573.17230326 </i>
    <i name="e_0_energy">   -573.23158874 </i>
   </energy>
  </scstep>
  <scstep>
   <time name="diag">    2.63    2.63</time>
   <time name="diis">   84.71   84.86</time>
   <time name="orth">    0.59    0.59</time>
   <time name="total">   88.57   88.74</time>
   <energy>
    <i name="e_fr_energy">   -573.36292253 </i>
    <i name="e_wo_entrp">   -573.24480122 </i>
    <i name="e_0_energy">   -573.30386187 </i>
   </energy>
  </scstep>
  <scstep>
   <time name="diag">    2.62    2.62</time>
   <time name="diis">   92.86   93.38</time>
   <time name="orth">    0.59    0.59</time>
   <time name="total">   96.72   97.24</time>
   <energy>
    <i name="e_fr_energy">   -573.27621538 </i>
    <i name="e_wo_entrp">   -573.15586390 </i>
    <i name="e_0_energy">   -573.21603964 </i>
   </energy>
  </scstep>
  <scstep>
   <time name="diag">    2.62    2.63</time>
   <time name="diis">   89.83   90.14</time>
   <time name="orth">    0.59    0.59</time>
   <time name="total">   93.69   94.01</time>
   <energy>
    <i name="e_fr_energy">   -573.24436421 </i>
    <i name="e_wo_entrp">   -573.12097447 </i>
    <i name="e_0_energy">   -573.18266934 </i>
   </energy>
  </scstep>
  <scstep>
   <time name="diag">    2.62    2.62</time>
   <time name="diis">   91.42   91.70</time>
   <time name="orth">    0.59    0.59</time>
   <time name="total">   95.28   95.56</time>
   <energy>
    <i name="e_fr_energy">   -573.21013587 </i>
    <i name="e_wo_entrp">   -573.08830623 </i>
    <i name="e_0_energy">   -573.14922105 </i>
   </energy>
  </scstep>
  <scstep>
   <time name="diag">    2.63    2.64</time>
   <time name="diis">   91.19   91.48</time>
   <time name="orth">    0.59    0.59</time>
   <time name="total">   95.06   95.37</time>
   <energy>
    <i name="e_fr_energy">   -573.20562392 </i>
    <i name="e_wo_entrp">   -573.08301647 </i>
    <i name="e_0_energy">   -573.14432019 </i>
   </energy>
  </scstep>
  <scstep>
   <time name="diag">    2.62    2.62</time>
   <time name="diis">   90.57   90.83</time>
   <time name="orth">    0.59    0.59</time>
   <time name="total">   94.43   94.69</time>
   <energy>
    <i name="e_fr_energy">   -573.20099922 </i>
    <i name="e_wo_entrp">   -573.07914174 </i>
    <i name="e_0_energy">   -573.14007048 </i>
   </energy>
  </scstep>
  <scstep>
   <time name="diag">    2.63    2.64</time>
   <time name="diis">   92.32   92.58</time>
   <time name="orth">    0.59    0.59</time>
   <time name="total">   96.18   96.48</time>
   <energy>
    <i name="e_fr_energy">   -573.20029280 </i>
    <i name="e_wo_entrp">   -573.07799349 </i>
    <i name="e_0_energy">   -573.13914314 </i>
   </energy>
  </scstep>
  <scstep>
   <time name="diag">    2.62    2.62</time>
   <time name="diis">   89.91   90.06</time>
   <time name="orth">    0.60    0.60</time>
   <time name="total">   93.80   93.95</time>
   <energy>
    <i name="e_fr_energy">   -573.20003200 </i>
    <i name="e_wo_entrp">   -573.07803413 </i>
    <i name="e_0_energy">   -573.13903307 </i>
   </energy>
  </scstep>
  <scstep>
   <time name="diag">    2.66    2.70</time>
   <time name="diis">   91.12   91.49</time>
   <time name="orth">    0.59    0.59</time>
   <time name="total">   95.02   95.43</time>
   <energy>
    <i name="e_fr_energy">   -573.19992485 </i>
    <i name="e_wo_entrp">   -573.07777117 </i>
    <i name="e_0_energy">   -573.13884801 </i>
   </energy>
  </scstep>
  <scstep>
   <time name="diag">    2.62    2.63</time>
   <time name="diis">   86.59   86.98</time>
   <time name="orth">    0.59    0.59</time>
   <time name="total">   90.45   90.85</time>
   <energy>
    <i name="e_fr_energy">   -573.19990603 </i>
    <i name="e_wo_entrp">   -573.07782546 </i>
    <i name="e_0_energy">   -573.13886575 </i>
   </energy>
  </scstep>
  <scstep>
   <time name="diag">    2.63    2.64</time>
   <time name="diis">   45.36   45.50</time>
   <time name="orth">    0.59    0.59</time>
   <time name="total">   48.63   48.78</time>
   <energy>
    <i name="alphaZ">   5746.58880962 </i>
    <i name="ewald"> -39833.27818251 </i>
    <i name="hartreedc">  -5553.81930285 </i>
    <i name="XCdc">   1322.67100646 </i>
    <i name="pawpsdc">  31801.35721968 </i>
    <i name="pawaedc"> -31227.63271382 </i>
    <i name="eentropy">     -0.12209270 </i>
    <i name="bandstr">  -3351.64817717 </i>
    <i name="atom">  40522.68352202 </i>
    <i name="e_fr_energy">   -573.19991126 </i>
    <i name="e_wo_entrp">   -573.07781857 </i>
    <i name="e_0_energy">   -573.13886492 </i>
   </energy>
  </scstep>
  <structure>
   <crystal>
    <varray name="basis" >
     <v>       8.07149923      -0.00113349       0.00030414 </v>
     <v>      -0.00113349       8.06083078       0.00061124 </v>
     <v>       0.00030414       0.00061123       8.06378319 </v>
    </varray>
    <i name="volume">    524.65382621 </i>
    <varray name="rec_basis" >
     <v>       0.12389272       0.00001742      -0.00000467 </v>
     <v>       0.00001742       0.12405670      -0.00000940 </v>
     <v>      -0.00000467      -0.00000940       0.12401127 </v>
    </varray>
   </crystal>
   <varray name="positions" >
    <v>      -0.00015472      -0.00201789       0.00009921 </v>
    <v>       0.24987930      -0.00275798       0.25180572 </v>
    <v>       0.25071273       0.50267549       0.24982539 </v>
    <v>       0.50055025       0.49958302       0.00030847 </v>
    <v>       0.49915700       0.24956058       0.75040888 </v>
    <v>      -0.00083656       0.50070102       0.50076806 </v>
    <v>       0.50049108       0.75039576       0.74847982 </v>
    <v>      -0.00135349       0.24824109       0.25275565 </v>
    <v>       0.75202063       0.74752578       0.00010425 </v>
    <v>       0.00155448       0.25172555       0.74703391 </v>
    <v>       0.75254743       0.25183808       0.50114414 </v>
    <v>      -0.00062319       0.74847864       0.74936691 </v>
    <v>       0.25017497       0.50026027       0.75032471 </v>
    <v>       0.25086866       0.25099795      -0.00269584 </v>
    <v>       0.50103387       0.25112884       0.24933316 </v>
    <v>       0.75027966      -0.00248697       0.25103163 </v>
    <v>       0.74896632       0.25170426      -0.00102227 </v>
    <v>       0.24896556       0.74917969      -0.00001554 </v>
    <v>       0.24874497       0.24918637       0.50258611 </v>
    <v>       0.25024448       0.75083673       0.50002661 </v>
    <v>       0.25051013       0.24988188       0.24962613 </v>
    <v>       0.24827833       0.00024045       0.00190671 </v>
    <v>       0.00008905       0.24806212      -0.00002678 </v>
    <v>       0.74958428       0.24704503       0.24971106 </v>
    <v>       0.75141368       0.00045287       0.00221975 </v>
    <v>       0.50110331       0.00283316       0.24993953 </v>
    <v>       0.00177552       0.49658334       0.25128107 </v>
    <v>       0.49996393       0.74876885      -0.00175429 </v>
    <v>      -0.00038716       0.00031942       0.75207836 </v>
    <v>       0.75039632       0.24918846       0.75020941 </v>
    <v>       0.74935953       0.00318853       0.49783482 </v>
    <v>       0.50011134       0.24941743       0.49913109 </v>
    <v>       0.50035438       0.00019861       0.75006184 </v>
    <v>      -0.00108971       0.00348498       0.24828188 </v>
    <v>       0.50019068       0.24989520       0.00096586 </v>
    <v>       0.25095544       0.75015808       0.24962761 </v>
    <v>       0.25031737       0.49987819      -0.00074649 </v>
    <v>      -0.00096932       0.75080489      -0.00269699 </v>
    <v>       0.74890213       0.75219059       0.24724061 </v>
    <v>       0.75001089       0.50073527       0.00029959 </v>
    <v>       0.49905877       0.49879718       0.24911737 </v>
    <v>       0.24872923       0.25164235       0.75033687 </v>
    <v>       0.25112200       0.00036481       0.49972430 </v>
    <v>      -0.00099079       0.25093413       0.50011343 </v>
    <v>       0.24877187       0.74814764       0.75037280 </v>
    <v>       0.24867195       0.49954971       0.50078589 </v>
    <v>       0.00144382       0.74887668       0.50321183 </v>
    <v>       0.00211252       0.49978446       0.75016412 </v>
    <v>       0.75150437       0.75128318       0.75269927 </v>
    <v>       0.75096193       0.49675713       0.49972248 </v>
    <v>       0.49864648       0.75127464       0.49993365 </v>
    <v>       0.49748495       0.49979341       0.75098240 </v>
    <v>       0.50055818       0.00178858      -0.00049225 </v>
    <v>      -0.00077899       0.50207924      -0.00247858 </v>
    <v>       0.50041924       0.74799436       0.25263702 </v>
    <v>       0.25041881      -0.00010244       0.74732437 </v>
    <v>       0.49805505      -0.00268920       0.50060779 </v>
    <v>       0.74955516      -0.00237480       0.74945671 </v>
    <v>      -0.00018986       0.75159135       0.25013858 </v>
    <v>       0.74836714       0.50244573       0.25014728 </v>
    <v>       0.00139836      -0.00027609       0.49912442 </v>
    <v>       0.50083831       0.50196050       0.49980428 </v>
    <v>       0.74995709       0.50187982       0.74993849 </v>
    <v>       0.74979150       0.74841467       0.49976841 </v>
   </varray>
  </structure>
  <varray name="forces" >
   <v>       0.04698587      -0.33981557       0.00002624 </v>
   <v>       0.38889409       0.40415349       0.00310891 </v>
   <v>      -0.28396094      -0.28318648       0.37656948 </v>
   <v>       1.10789370       0.05573171       0.03848254 </v>
   <v>       0.94947377      -0.77030474      -1.32772033 </v>
   <v>      -1.45618221       1.18720246      -0.60332340 </v>
   <v>       1.16243501       0.39648470      -0.85129054 </v>
   <v>      -0.38305206       0.03272335       0.05403850 </v>
   <v>       0.01826328      -0.42372863       0.61147278 </v>
   <v>      -1.24568991      -0.50319459       0.32747768 </v>
   <v>      -0.90508596       0.49158707       0.46521932 </v>
   <v>      -1.01027627       0.42740866      -0.63354922 </v>
   <v>       0.36329964      -0.19787931      -0.22430150 </v>
   <v>      -1.05412527      -1.59485449       0.81046399 </v>
   <v>       0.31435069       0.36274721       1.30604219 </v>
   <v>      -0.25153221      -0.90118104       0.99467670 </v>
   <v>       0.94191787      -0.12147499      -0.42124216 </v>
   <v>       0.27456359       1.16515848       0.25738184 </v>
   <v>       0.93587631      -0.49508448      -0.74016181 </v>
   <v>      -0.18412741       0.38948860      -0.25474811 </v>
   <v>      -0.50432444       0.10491856      -0.06749866 </v>
   <v>       1.36860666      -0.12369271      -1.12088296 </v>
   <v>       0.08311677       1.32228061       0.03315466 </v>
   <v>       0.39176553       2.33610098       0.42206311 </v>
   <v>      -1.29827108      -0.53086543      -0.53695397 </v>
   <v>       0.41679109      -0.90743071       0.09419197 </v>
   <v>      -3.21198079       1.98788131      -1.41148326 </v>
   <v>       0.53916997       1.34350128       1.18216456 </v>
   <v>       0.05103015      -0.01141162      -3.55366606 </v>
   <v>       0.88992610       2.03503077      -0.45326071 </v>
   <v>       1.90787859      -2.36151092       0.97478160 </v>
   <v>       0.71963071       2.00681473      -0.49899019 </v>
   <v>      -0.17456674      -0.07828773      -0.02966266 </v>
   <v>      -0.29237354      -2.44267001       3.29638792 </v>
   <v>      -0.00957917      -0.95178338       0.26430634 </v>
   <v>      -1.65347594      -0.25658179       0.08512146 </v>
   <v>      -1.41210365       0.32455824      -0.24968805 </v>
   <v>      -0.27075691      -1.44840760       2.18446158 </v>
   <v>       1.97796935      -3.52210593       2.69543860 </v>
   <v>       1.30956393       0.58519068       0.25067077 </v>
   <v>       3.29029697       1.34587241       3.46591728 </v>
   <v>      -0.47971117      -0.27619400      -0.03289903 </v>
   <v>      -1.92699761      -0.22778817       1.50553311 </v>
   <v>      -0.21081115      -2.97188025       0.09128831 </v>
   <v>      -0.67290755       0.44013242      -0.05372065 </v>
   <v>       3.07051720       0.17241969       0.32033979 </v>
   <v>      -3.11141388       3.42441520      -2.38971489 </v>
   <v>      -2.58409952       0.08899635       0.95617540 </v>
   <v>       0.49164444      -2.23731213      -2.64395490 </v>
   <v>      -3.34507488       2.96143045      -0.17667234 </v>
   <v>       3.01997660      -2.26712639      -1.22381545 </v>
   <v>       2.45825981       0.13102123      -3.37634657 </v>
   <v>       0.16762654       0.66405441      -0.02360900 </v>
   <v>      -0.73491328       0.10368118       0.00076165 </v>
   <v>       0.38251007      -0.76130156       0.82435727 </v>
   <v>      -0.39342012       0.12075600      -0.06363482 </v>
   <v>      -0.41542702      -0.67905342      -0.08904289 </v>
   <v>       0.14037770      -0.65426533      -0.55371634 </v>
   <v>      -0.23896429       0.61633816       0.32782602 </v>
   <v>      -0.59131009       0.93723601       0.44370434 </v>
   <v>       0.20259458      -0.15814042      -0.15221151 </v>
   <v>       1.09815204       0.63481983      -0.14181254 </v>
   <v>      -0.32652066       0.75478682      -0.16490795 </v>
   <v>       0.15167711      -0.85640921      -0.59912341 </v>
  </varray>
  <varray name="stress" >
   <v>    1678.81928883      10.70462739      -1.39646923 </v>
   <v>      10.70462719    1755.51722683       5.08206794 </v>
   <v>      -1.39647009       5.08206704    1696.16003516 </v>
  </varray>
  <energy>
   <i name="e_fr_energy">   -573.19991126 </i>
   <i name="e_wo_entrp">   -573.13886492 </i>
   <i name="e_0_energy">     -0.12209270 </i>
  </energy>
  <time name="totalsc"> 1966.59 1974.09</time>
 </calculation>
 <calculation>
  <scstep>
   <time name="dav">   82.33   82.60</time>
   <time name="total">   82.99   83.26</time>
   <energy>
    <i name="alphaZ">   4037.68103029 </i>
    <i name="ewald"> -35414.09158771 </i>
    <i name="hartreedc">  -4936.45946910 </i>
    <i name="XCdc">   1126.32094420 </i>
    <i name="pawpsdc">  31801.25533555 </i>
    <i name="pawaedc"> -31227.56838943 </i>
    <i name="eentropy">     -0.10294243 </i>
    <i name="bandstr">  -7048.67644596 </i>
    <i name="atom">  40522.68352202 </i>
    <i name="e_fr_energy">  -1138.95800257 </i>
    <i name="e_wo_entrp">  -1138.85506014 </i>
    <i name="e_0_energy">  -1138.90653135 </i>
   </energy>
  </scstep>
  <scstep>
   <time name="diag">    2.62    2.62</time>
   <time name="diis">   65.17   65.55</time>
   <time name="orth">    0.59    0.59</time>
   <time name="total">   69.05   69.42</time>
   <energy>
    <i name="e_fr_energy">  -1427.82157557 </i>
    <i name="e_wo_entrp">  -1427.67208850 </i>
    <i name="e_0_energy">  -1427.74683203 </i>
   </energy>
  </scstep>
  <scstep>
   <time name="diag">    2.62    2.63</time>
   <time name="diis">   83.61   83.92</time>
   <time name="orth">    0.59    0.60</time>
   <time name="total">   87.48   87.80</time>
   <energy>
    <i name="e_fr_energy">   -869.51540605 </i>
    <i name="e_wo_entrp">   -869.39929957 </i>
    <i name="e_0_energy">   -869.45735281 </i>
   </energy>
  </scstep>
  <scstep>
   <time name="diag">    2.64    2.64</time>
   <time name="diis">   81.65   81.87</time>
   <time name="orth">    0.59    0.59</time>
   <time name="total">   85.54   85.76</time>
   <energy>
    <i name="e_fr_energy">   -723.59527722 </i>
    <i name="e_wo_entrp">   -723.51235092 </i>
    <i name="e_0_energy">   -723.55381407 </i>
   </energy>
  </scstep>
  <scstep>
   <time name="diag">    2.67    2.67</time>
   <time name="diis">   75.48   75.77</time>
   <time name="orth">    0.62    0.62</time>
   <time name="total">   79.45   79.75</time>
   <energy>
    <i name="e_fr_energy">   -665.61508874 </i>
    <i name="e_wo_entrp">   -665.44970051 </i>
    <i name="e_0_energy">   -665.53239463 </i>
   </energy>
  </scstep>
  <scstep>
   <time name="diag">    2.63    2.63</time>
   <time name="diis">   74.02   74.40</time>
   <time name="orth">    0.59    0.59</time>
   <time name="total">   77.90   78.28</time>
   <energy>
    <i name="e_fr_energy">   -665.52243508 </i>
    <i name="e_wo_entrp">   -665.34723277 </i>
    <i name="e_0_energy">   -665.43483393 </i>
   </energy>
  </scstep>
  <scstep>
   <time name="diag">    2.64    2.65</time>
   <time name="diis">   74.93   75.25</time>
   <time name="orth">    0.60    0.60</time>
   <time name="total">   78.83   79.16</time>
   <energy>
    <i name="e_fr_energy">   -658.35242759 </i>
    <i name="e_wo_entrp">   -658.20644718 </i>
    <i name="e_0_energy">   -658.27943738 </i>
   </energy>
  </scstep>
  <scstep>
   <time name="diag">    2.64    2.64</time>
   <time name="diis">   83.50   83.85</time>
   <time name="orth">    0.60    0.61</time>
   <time name="total">   87.42   87.80</time>
   <energy>
    <i name="e_fr_energy">   -654.43562335 </i>
    <i name="e_wo_entrp">   -654.25665498 </i>
    <i name="e_0_energy">   -654.34613916 </i>
   </energy>
  </scstep>
  <scstep>
   <time name="diag">    2.64    2.65</time>
   <time name="diis">   73.05   73.36</time>
   <time name="orth">    0.59    0.59</time>
   <time name="total">   76.94   77.26</time>
   <energy>
    <i name="e_fr_energy">   -651.47092056 </i>
    <i name="e_wo_entrp">   -651.30385336 </i>
    <i name="e_0_energy">   -651.38738696 </i>
   </energy>
  </scstep>
  <scstep>
   <time name="diag">    2.63    2.64</time>
   <time name="diis">   84.97   85.17</time>
   <time name="orth">    0.60    0.60</time>
   <time name="total">   88.86   89.06</time>
   <energy>
    <i name="e_fr_energy">   -651.74050880 </i>
    <i name="e_wo_entrp">   -651.57518057 </i>
    <i name="e_0_energy">   -651.65784469 </i>
   </energy>
  </scstep>
  <scstep>
   <time name="diag">    2.63    2.64</time>
   <time name="diis">   83.86   84.22</time>
   <time name="orth">    0.59    0.59</time>
   <time name="total">   87.75   88.12</time>
   <energy>
    <i name="e_fr_energy">   -651.04485973 </i>
    <i name="e_wo_entrp">   -650.87678364 </i>
    <i name="e_0_energy">   -650.96082168 </i>
   </energy>
  </scstep>
  <scstep>
   <time name="diag">    2.66    2.66</time>
   <time name="diis">   90.94   91.15</time>
   <time name="orth">    0.59    0.59</time>
   <time name="total">   94.84   95.06</time>
   <energy>
    <i name="e_fr_energy">   -651.05753738 </i>
    <i name="e_wo_entrp">   -650.88545486 </i>
    <i name="e_0_energy">   -650.97149612 </i>
   </energy>
  </scstep>
  <scstep>
   <time name="diag">    2.65    2.67</time>
   <time name="diis">   83.20   83.54</time>
   <time name="orth">    0.60    0.60</time>
   <time name="total">   87.11   87.46</time>
   <energy>
    <i name="e_fr_energy">   -650.93499861 </i>
    <i name="e_wo_entrp">   -650.76256348 </i>
    <i name="e_0_energy">   -650.84878105 </i>
   </energy>
  </scstep>
  <scstep>
   <time name="diag">    2.64    2.64</time>
   <time name="diis">   80.38   80.69</time>
   <time name="orth">    0.59    0.59</time>
   <time name="total">   84.27   84.58</time>
   <energy>
    <i name="e_fr_energy">   -651.05498679 </i>
    <i name="e_wo_entrp">   -650.87186654 </i>
    <i name="e_0_energy">   -650.96342667 </i>
   </energy>
  </scstep>
  <scstep>
   <time name="diag">    2.64    2.64</time>
   <time name="diis">   85.60   86.01</time>
   <time name="orth">    0.59    0.59</time>
   <time name="total">   89.50   89.91</time>
   <energy>
    <i name="e_fr_energy">   -651.15372305 </i>
    <i name="e_wo_entrp">   -650.98421532 </i>
    <i name="e_0_energy">   -651.06896918 </i>
   </energy>
  </scstep>
  <scstep>
   <time name="diag">    2.64    2.64</time>
   <time name="diis">   83.22   83.39</time>
   <time name="orth">    0.59    0.59</time>
   <time name="total">   87.12   87.28</time>
   <energy>
    <i name="e_fr_energy">   -651.06103713 </i>
    <i name="e_wo_entrp">   -650.88012019 </i>
    <i name="e_0_energy">   -650.97057866 </i>
   </energy>
  </scstep>
  <scstep>
   <time name="diag">    2.65    2.65</time>
   <time name="diis">   81.54   81.85</time>
   <time name="orth">    0.59    0.59</time>
[...]
      </set>
     </set>
    </set>
   </array>
  </eigenvalues>
  <separator name="orbital magnetization" >
   <v name="MAGDIPOLOUT">      0.00000000      0.00000000      0.00000000</v>
  </separator>
  <dos>
   <i name="efermi">      7.45513700 </i>
   <total>
    <array>
     <dimension dim="1">gridpoints</dimension>
     <dimension dim="2">spin</dimension>
     <field>energy</field>
     <field>total</field>
     <field>integrated</field>
     <set>
      <set comment="spin 1">
       <r>   -60.8334     0.0000     0.0000 </r>
       <r>   -60.5856     0.0000     0.0000 </r>
       <r>   -60.3378     0.0000     0.0000 </r>
       <r>   -60.0900     0.0000     0.0000 </r>
       <r>   -59.8422     0.0000     0.0000 </r>
       <r>   -59.5944     0.0000     0.0000 </r>
       <r>   -59.3467     0.0000     0.0000 </r>
       <r>   -59.0989     0.0000     0.0000 </r>
       <r>   -58.8511     0.0000     0.0000 </r>
       <r>   -58.6033     0.0000     0.0000 </r>
       <r>   -58.3555     0.0000     0.0000 </r>
       <r>   -58.1077     0.0000     0.0000 </r>
       <r>   -57.8599     0.0000     0.0000 </r>
       <r>   -57.6121     0.1353     0.0335 </r>
       <r>   -57.3643    25.4218     6.3328 </r>
       <r>   -57.1166    22.4066    11.8849 </r>
       <r>   -56.8688     0.4645    12.0000 </r>
       <r>   -56.6210     0.0000    12.0000 </r>
       <r>   -56.3732     0.0000    12.0000 </r>
       <r>   -56.1254     0.0000    12.0000 </r>
       <r>   -55.8776     0.0000    12.0000 </r>
       <r>   -55.6298     0.0000    12.0000 </r>
       <r>   -55.3820     0.0000    12.0000 </r>
       <r>   -55.1342     0.0000    12.0000 </r>
       <r>   -54.8864     0.0000    12.0000 </r>
       <r>   -54.6387     0.0000    12.0000 </r>
       <r>   -54.3909     0.0000    12.0000 </r>
       <r>   -54.1431     0.0000    12.0000 </r>
       <r>   -53.8953     0.0000    12.0000 </r>
       <r>   -53.6475     0.0000    12.0000 </r>
       <r>   -53.3997     0.0000    12.0000 </r>
       <r>   -53.1519     0.0000    12.0000 </r>
       <r>   -52.9041     0.0000    12.0000 </r>
       <r>   -52.6563     0.0000    12.0000 </r>
       <r>   -52.4086     0.0000    12.0000 </r>
       <r>   -52.1608     0.0000    12.0000 </r>
       <r>   -51.9130     0.0000    12.0000 </r>
       <r>   -51.6652     0.0000    12.0000 </r>
       <r>   -51.4174     0.0000    12.0000 </r>
       <r>   -51.1696     0.0000    12.0000 </r>
       <r>   -50.9218     0.0000    12.0000 </r>
       <r>   -50.6740     0.0000    12.0000 </r>
       <r>   -50.4262     0.0000    12.0000 </r>
       <r>   -50.1785     0.0000    12.0000 </r>
       <r>   -49.9307     0.0000    12.0000 </r>
       <r>   -49.6829     0.0000    12.0000 </r>
       <r>   -49.4351     0.0000    12.0000 </r>
       <r>   -49.1873     0.0000    12.0000 </r>
       <r>   -48.9395     0.0000    12.0000 </r>
       <r>   -48.6917     0.0000    12.0000 </r>
       <r>   -48.4439     0.0000    12.0000 </r>
       <r>   -48.1961     0.0000    12.0000 </r>
       <r>   -47.9483     0.0000    12.0000 </r>
       <r>   -47.7006     0.0000    12.0000 </r>
       <r>   -47.4528     0.0000    12.0000 </r>
       <r>   -47.2050     0.0000    12.0000 </r>
       <r>   -46.9572     0.0000    12.0000 </r>
       <r>   -46.7094     0.0000    12.0000 </r>
       <r>   -46.4616     0.0000    12.0000 </r>
       <r>   -46.2138     0.0000    12.0000 </r>
       <r>   -45.9660     0.0000    12.0000 </r>
       <r>   -45.7182     0.0000    12.0000 </r>
       <r>   -45.4705     0.0000    12.0000 </r>
       <r>   -45.2227     0.0000    12.0000 </r>
       <r>   -44.9749     0.0000    12.0000 </r>
       <r>   -44.7271     0.0000    12.0000 </r>
       <r>   -44.4793     0.0000    12.0000 </r>
       <r>   -44.2315     0.0000    12.0000 </r>
       <r>   -43.9837     0.0000    12.0000 </r>
       <r>   -43.7359     0.0000    12.0000 </r>
       <r>   -43.4881     0.0000    12.0000 </r>
       <r>   -43.2403     0.0000    12.0000 </r>
       <r>   -42.9926     0.0000    12.0000 </r>
       <r>   -42.7448     0.0000    12.0000 </r>
       <r>   -42.4970     0.0000    12.0000 </r>
       <r>   -42.2492     0.0000    12.0000 </r>
       <r>   -42.0014     0.0237    12.0059 </r>
       <r>   -41.7536     6.2180    13.5466 </r>
       <r>   -41.5058     2.2049    14.0930 </r>
       <r>   -41.2580    23.3618    19.8818 </r>
       <r>   -41.0102    24.1085    25.8556 </r>
       <r>   -40.7625     0.5826    26.0000 </r>
       <r>   -40.5147     0.0000    26.0000 </r>
       <r>   -40.2669     0.0000    26.0000 </r>
       <r>   -40.0191     0.0000    26.0000 </r>
       <r>   -39.7713     0.0000    26.0000 </r>
       <r>   -39.5235     0.0000    26.0000 </r>
       <r>   -39.2757     0.0000    26.0000 </r>
       <r>   -39.0279     0.0000    26.0000 </r>
       <r>   -38.7801     0.0000    26.0000 </r>
       <r>   -38.5323     0.0000    26.0000 </r>
       <r>   -38.2846     0.0000    26.0000 </r>
       <r>   -38.0368     0.0000    26.0000 </r>
       <r>   -37.7890     0.0000    26.0000 </r>
       <r>   -37.5412     0.0000    26.0000 </r>
       <r>   -37.2934     0.0000    26.0000 </r>
       <r>   -37.0456     0.0000    26.0000 </r>
       <r>   -36.7978     0.0000    26.0000 </r>
       <r>   -36.5500     0.0000    26.0000 </r>
       <r>   -36.3022     0.0000    26.0000 </r>
       <r>   -36.0545     0.0000    26.0000 </r>
       <r>   -35.8067     0.0000    26.0000 </r>
       <r>   -35.5589     0.0000    26.0000 </r>
       <r>   -35.3111     0.0000    26.0000 </r>
       <r>   -35.0633     0.0000    26.0000 </r>
       <r>   -34.8155     0.0000    26.0000 </r>
       <r>   -34.5677     0.0000    26.0000 </r>
       <r>   -34.3199     0.0000    26.0000 </r>
       <r>   -34.0721     0.0000    26.0000 </r>
       <r>   -33.8243     0.0000    26.0000 </r>
       <r>   -33.5766     0.0000    26.0000 </r>
       <r>   -33.3288     0.0000    26.0000 </r>
       <r>   -33.0810     0.0000    26.0000 </r>
       <r>   -32.8332     0.0000    26.0000 </r>
       <r>   -32.5854     0.0000    26.0000 </r>
       <r>   -32.3376     0.0000    26.0000 </r>
       <r>   -32.0898     0.0000    26.0000 </r>
       <r>   -31.8420     0.0000    26.0000 </r>
       <r>   -31.5942     0.6814    26.1688 </r>
       <r>   -31.3465    59.1384    40.8227 </r>
       <r>   -31.0987    76.7505    59.8407 </r>
       <r>   -30.8509     8.7122    61.9995 </r>
       <r>   -30.6031     0.0022    62.0000 </r>
       <r>   -30.3553     0.0000    62.0000 </r>
       <r>   -30.1075     0.0000    62.0000 </r>
       <r>   -29.8597     0.0000    62.0000 </r>
       <r>   -29.6119     0.0000    62.0000 </r>
       <r>   -29.3641     0.0000    62.0000 </r>
       <r>   -29.1163     0.0000    62.0000 </r>
       <r>   -28.8686     0.0000    62.0000 </r>
       <r>   -28.6208     0.0000    62.0000 </r>
       <r>   -28.3730     0.0141    62.0035 </r>
       <r>   -28.1252    10.9727    64.7224 </r>
       <r>   -27.8774    42.3983    75.2283 </r>
       <r>   -27.6296    59.9065    90.0725 </r>
       <r>   -27.3818    30.2191    97.5604 </r>
       <r>   -27.1340     1.7740    98.0000 </r>
       <r>   -26.8862     0.0000    98.0000 </r>
       <r>   -26.6385     0.0000    98.0000 </r>
       <r>   -26.3907     0.0000    98.0000 </r>
       <r>   -26.1429     0.0000    98.0000 </r>
       <r>   -25.8951     0.0000    98.0000 </r>
       <r>   -25.6473     0.0000    98.0000 </r>
       <r>   -25.3995     0.0000    98.0000 </r>
       <r>   -25.1517     0.0000    98.0000 </r>
       <r>   -24.9039     0.0000    98.0000 </r>
       <r>   -24.6561     0.0000    98.0000 </r>
       <r>   -24.4083     0.0000    98.0000 </r>
       <r>   -24.1606     0.0000    98.0000 </r>
       <r>   -23.9128     0.1160    98.0287 </r>
       <r>   -23.6650    13.6310   101.4063 </r>
       <r>   -23.4172    49.8636   113.7620 </r>
       <r>   -23.1694    38.6926   123.3496 </r>
       <r>   -22.9216    42.5114   133.8835 </r>
       <r>   -22.6738    16.8016   138.0468 </r>
       <r>   -22.4260     7.8815   139.9997 </r>
       <r>   -22.1782     0.0011   140.0000 </r>
       <r>   -21.9305     0.0000   140.0000 </r>
       <r>   -21.6827     0.0000   140.0000 </r>
       <r>   -21.4349     0.0000   140.0000 </r>
       <r>   -21.1871     0.0000   140.0000 </r>
       <r>   -20.9393     0.0000   140.0000 </r>
       <r>   -20.6915     0.0000   140.0000 </r>
       <r>   -20.4437     0.0010   140.0003 </r>
       <r>   -20.1959     4.5050   141.1165 </r>
       <r>   -19.9481    19.3301   145.9063 </r>
       <r>   -19.7003    37.0236   155.0804 </r>
       <r>   -19.4526    71.8811   172.8918 </r>
       <r>   -19.2048    33.7173   181.2466 </r>
       <r>   -18.9570     3.0402   181.9999 </r>
       <r>   -18.7092     0.0004   182.0000 </r>
       <r>   -18.4614     0.0000   182.0000 </r>
       <r>   -18.2136     0.0000   182.0000 </r>
       <r>   -17.9658     0.0000   182.0000 </r>
       <r>   -17.7180     0.0000   182.0000 </r>
       <r>   -17.4702     0.0000   182.0000 </r>
       <r>   -17.2225     0.0000   182.0000 </r>
       <r>   -16.9747     0.0000   182.0000 </r>
       <r>   -16.7269     0.0000   182.0000 </r>
       <r>   -16.4791     0.0000   182.0000 </r>
       <r>   -16.2313     0.0000   182.0000 </r>
       <r>   -15.9835     0.0000   182.0000 </r>
       <r>   -15.7357     0.0000   182.0000 </r>
       <r>   -15.4879     0.0000   182.0000 </r>
       <r>   -15.2401     0.0000   182.0000 </r>
       <r>   -14.9923     0.0000   182.0000 </r>
       <r>   -14.7446     0.0000   182.0000 </r>
       <r>   -14.4968     0.0000   182.0000 </r>
       <r>   -14.2490     0.0000   182.0000 </r>
       <r>   -14.0012     0.0000   182.0000 </r>
       <r>   -13.7534     0.0000   182.0000 </r>
       <r>   -13.5056     0.0000   182.0000 </r>
       <r>   -13.2578     0.0000   182.0000 </r>
       <r>   -13.0100     0.0000   182.0000 </r>
       <r>   -12.7622     0.0000   182.0000 </r>
       <r>   -12.5145     0.0000   182.0000 </r>
       <r>   -12.2667     0.0000   182.0000 </r>
       <r>   -12.0189     0.0000   182.0000 </r>
       <r>   -11.7711     0.0000   182.0000 </r>
       <r>   -11.5233     0.0000   182.0000 </r>
       <r>   -11.2755     0.0000   182.0000 </r>
       <r>   -11.0277     0.0000   182.0000 </r>
       <r>   -10.7799     0.0000   182.0000 </r>
       <r>   -10.5321     0.0000   182.0000 </r>
       <r>   -10.2843     0.0000   182.0000 </r>
       <r>   -10.0366     0.0000   182.0000 </r>
       <r>    -9.7888     0.0000   182.0000 </r>
       <r>    -9.5410     0.0000   182.0000 </r>
       <r>    -9.2932     0.0000   182.0000 </r>
       <r>    -9.0454     0.0000   182.0000 </r>
       <r>    -8.7976     0.2587   182.0641 </r>
       <r>    -8.5498     5.1567   183.3419 </r>
       <r>    -8.3020     9.1731   185.6149 </r>
       <r>    -8.0542    13.7129   189.0128 </r>
       <r>    -7.8065    13.2014   192.2839 </r>
       <r>    -7.5587    28.5761   199.3648 </r>
       <r>    -7.3109    18.2602   203.8895 </r>
       <r>    -7.0631     0.5689   204.0304 </r>
       <r>    -6.8153    12.7957   207.2011 </r>
       <r>    -6.5675     3.2240   207.9999 </r>
       <r>    -6.3197     0.0002   208.0000 </r>
       <r>    -6.0719     0.0000   208.0000 </r>
       <r>    -5.8241     0.0000   208.0000 </r>
       <r>    -5.5763     0.0000   208.0000 </r>
       <r>    -5.3286     0.0002   208.0001 </r>
       <r>    -5.0808     0.7205   208.1786 </r>
       <r>    -4.8330     6.3645   209.7556 </r>
       <r>    -4.5852     3.5644   210.6389 </r>
       <r>    -4.3374    10.0805   213.1367 </r>
       <r>    -4.0896    10.9228   215.8433 </r>
       <r>    -3.8418    19.6965   220.7238 </r>
       <r>    -3.5940    26.7117   227.3427 </r>
       <r>    -3.3462    27.2234   234.0884 </r>
       <r>    -3.0985    19.9024   239.0200 </r>
       <r>    -2.8507    16.8084   243.1849 </r>
       <r>    -2.6029     9.4397   245.5240 </r>
       <r>    -2.3551     1.8850   245.9911 </r>
       <r>    -2.1073     0.0360   246.0000 </r>
       <r>    -1.8595     0.0000   246.0000 </r>
       <r>    -1.6117     0.0000   246.0000 </r>
       <r>    -1.3639     0.0000   246.0000 </r>
       <r>    -1.1161     0.0000   246.0000 </r>
       <r>    -0.8683     0.0000   246.0000 </r>
       <r>    -0.6206     0.0068   246.0017 </r>
       <r>    -0.3728     0.4439   246.1117 </r>
       <r>    -0.1250     2.3991   246.7062 </r>
       <r>     0.1228     9.5876   249.0819 </r>
       <r>     0.3706    11.9621   252.0460 </r>
       <r>     0.6184    14.6102   255.6662 </r>
       <r>     0.8662    21.1484   260.9066 </r>
       <r>     1.1140    27.1512   267.6343 </r>
       <r>     1.3618    27.8080   274.5249 </r>
       <r>     1.6095    30.1859   282.0046 </r>
       <r>     1.8573    35.5707   290.8187 </r>
       <r>     2.1051    35.6792   299.6596 </r>
       <r>     2.3529    43.8393   310.5225 </r>
       <r>     2.6007    50.0654   322.9282 </r>
       <r>     2.8485    54.8791   336.5267 </r>
       <r>     3.0963    58.0286   350.9055 </r>
       <r>     3.3441    60.0087   365.7750 </r>
       <r>     3.5919    58.3289   380.2283 </r>
       <r>     3.8396    56.4241   394.2096 </r>
       <r>     4.0874    45.4154   405.4631 </r>
       <r>     4.3352    37.1511   414.6687 </r>
       <r>     4.5830    30.1425   422.1377 </r>
       <r>     4.8308    26.2483   428.6418 </r>
       <r>     5.0786    15.9353   432.5904 </r>
       <r>     5.3264    16.7973   436.7526 </r>
       <r>     5.5742     9.7902   439.1785 </r>
       <r>     5.8220    13.6364   442.5575 </r>
       <r>     6.0698    16.6918   446.6935 </r>
       <r>     6.3175    16.2500   450.7201 </r>
       <r>     6.5653    21.2505   455.9857 </r>
       <r>     6.8131    20.0640   460.9574 </r>
       <r>     7.0609    19.6420   465.8245 </r>
       <r>     7.3087    23.3766   471.6169 </r>
       <r>     7.5565    22.1550   477.1067 </r>
       <r>     7.8043    25.0704   483.3189 </r>
       <r>     8.0521    34.3465   491.8296 </r>
       <r>     8.2999    40.6362   501.8988 </r>
       <r>     8.5476    43.7812   512.7473 </r>
       <r>     8.7954    42.2344   523.2126 </r>
       <r>     9.0432    40.5710   533.2656 </r>
       <r>     9.2910    42.3777   543.7664 </r>
       <r>     9.5388    41.4025   554.0255 </r>
       <r>     9.7866    42.6540   564.5947 </r>
       <r>    10.0344    37.1422   573.7982 </r>
       <r>    10.2822     8.8647   575.9947 </r>
       <r>    10.5300     0.0213   576.0000 </r>
       <r>    10.7778     0.0000   576.0000 </r>
       <r>    11.0255     0.0000   576.0000 </r>
       <r>    11.2733     0.0000   576.0000 </r>
       <r>    11.5211     0.0000   576.0000 </r>
       <r>    11.7689     0.0000   576.0000 </r>
       <r>    12.0167     0.0000   576.0000 </r>
       <r>    12.2645     0.0000   576.0000 </r>
       <r>    12.5123     0.0000   576.0000 </r>
       <r>    12.7601     0.0000   576.0000 </r>
       <r>    13.0079     0.0000   576.0000 </r>
       <r>    13.2556     0.0000   576.0000 </r>
       <r>    13.5034     0.0000   576.0000 </r>
      </set>
     </set>
    </array>
   </total>
  </dos>
 </calculation>
 <structure name="finalpos" >
  <crystal>
   <varray name="basis" >
    <v>       8.92268978       0.00756043       0.01120122 </v>
    <v>       0.00757143       9.04033085      -0.00829895 </v>
    <v>       0.01121512      -0.00825429       8.95081660 </v>
   </varray>
   <i name="volume">    722.00701560 </i>
   <varray name="rec_basis" >
    <v>       0.11207408      -0.00009399      -0.00014051 </v>
    <v>      -0.00009386       0.11061559       0.00010213 </v>
    <v>      -0.00014034       0.00010268       0.11172192 </v>
   </varray>
  </crystal>
  <varray name="positions" >
   <v>      -0.00316394      -0.00806385      -0.00136388 </v>
   <v>       0.25543570      -0.00353448       0.24876534 </v>
   <v>       0.24529058       0.50230825       0.24840883 </v>
   <v>       0.50474927       0.49831262      -0.00085282 </v>
   <v>       0.50413715       0.24552178       0.74684225 </v>
   <v>      -0.00642537       0.50434488       0.49848264 </v>
   <v>       0.50120189       0.75582902       0.74760099 </v>
   <v>      -0.00615195       0.23735485       0.26369385 </v>
   <v>       0.75538892       0.74208953       0.01126697 </v>
   <v>       0.00232989       0.24904683       0.73832096 </v>
   <v>       0.75121629       0.25679427       0.50640855 </v>
   <v>      -0.00454101       0.74873170       0.74373175 </v>
   <v>       0.25409813       0.49712754       0.74687143 </v>
   <v>       0.24766073       0.24798639      -0.00449869 </v>
   <v>       0.50776075       0.25354660       0.25289803 </v>
   <v>       0.74670503      -0.01278199       0.26890630 </v>
   <v>       0.75670794       0.25447774      -0.00531658 </v>
   <v>       0.24966674       0.75092587      -0.00080098 </v>
   <v>       0.25391913       0.24882348       0.50065372 </v>
   <v>       0.24742150       0.75046424       0.49940880 </v>
   <v>       0.24907415       0.24934560       0.24830197 </v>
   <v>       0.25813426       0.00028583      -0.00347024 </v>
   <v>       0.00232245       0.24780733      -0.00041182 </v>
   <v>       0.75251643       0.24553073       0.25431127 </v>
   <v>       0.74786000      -0.00333146       0.01321433 </v>
   <v>       0.50642467       0.00245977       0.24766946 </v>
   <v>      -0.00991536       0.47900788       0.24507963 </v>
   <v>       0.50522553       0.75727158       0.00394932 </v>
   <v>      -0.00997911       0.00276242       0.73701373 </v>
   <v>       0.75682509       0.24993507       0.74902738 </v>
   <v>       0.74123734       0.00963074       0.50643435 </v>
   <v>       0.50489407       0.24405147       0.49585072 </v>
   <v>       0.50631817       0.00136319       0.73380986 </v>
   <v>      -0.00290282      -0.00233697       0.25867925 </v>
   <v>       0.50361573       0.24926084       0.00172093 </v>
   <v>       0.24561173       0.74913250       0.24907925 </v>
   <v>       0.24527361       0.50151433      -0.00489358 </v>
   <v>      -0.00202902       0.74457502       0.00216264 </v>
   <v>       0.75874661       0.73776609       0.25760299 </v>
   <v>       0.75741967       0.50347312       0.00357864 </v>
   <v>       0.50790119       0.50257849       0.25971330 </v>
   <v>       0.24840723       0.25614971       0.74830256 </v>
   <v>       0.24121384      -0.00160358       0.50277624 </v>
   <v>      -0.00141015       0.24232545       0.50077067 </v>
   <v>       0.24205162       0.75016471       0.74975400 </v>
   <v>       0.25764585       0.50084035       0.50078869 </v>
   <v>      -0.00982111       0.76203531       0.49713720 </v>
   <v>      -0.00699091       0.50050784       0.74973876 </v>
   <v>       0.75159097       0.74636269       0.74792777 </v>
   <v>       0.74033174       0.50148877       0.50116470 </v>
   <v>       0.50729498       0.74791470       0.49836668 </v>
   <v>       0.50465393       0.50281622       0.73968518 </v>
   <v>       0.51369917       0.01345276      -0.01840340 </v>
   <v>      -0.00279754       0.51101790      -0.01775034 </v>
   <v>       0.50566381       0.74208361       0.26085057 </v>
   <v>       0.24319450       0.00971942       0.74796786 </v>
   <v>       0.47685000      -0.01655324       0.49937347 </v>
   <v>       0.74302292      -0.02244339       0.76903159 </v>
   <v>       0.00028463       0.77523872       0.26204443 </v>
   <v>       0.73640610       0.51434426       0.26690850 </v>
   <v>       0.02176928      -0.00144841       0.49549538 </v>
   <v>       0.50619775       0.52257293       0.49950832 </v>
   <v>       0.74423698       0.52514922       0.74094275 </v>
   <v>       0.74852330       0.72647588       0.48976832 </v>
  </varray>
 </structure>
</modeling>
