  64  64   0   0
  0.1139878E+02  0.8981741E-09  0.9040843E-09  0.8983983E-09  0.5000000E-15
  1.000000000000000E-004
  CAR 
 HEBCN                                   
     15.07899820    -52.15372008  301      8.58024225      1.00000000
    -52.154  0.0000E+00  0.0000E+00
    -51.930  0.0000E+00  0.0000E+00
    -51.706  0.0000E+00  0.0000E+00
    -51.481  0.0000E+00  0.0000E+00
    -51.257  0.0000E+00  0.0000E+00
    -51.033  0.0000E+00  0.0000E+00
    -50.809  0.0000E+00  0.0000E+00
    -50.585  0.0000E+00  0.0000E+00
    -50.361  0.0000E+00  0.0000E+00
    -50.137  0.0000E+00  0.0000E+00
    -49.913  0.0000E+00  0.0000E+00
    -49.689  0.4954E-15  0.1110E-15
    -49.464  0.9560E-06  0.2143E-06
    -49.240  0.2009E+00  0.4502E-01
    -49.016  0.1457E+02  0.3310E+01
    -48.792  0.3703E+02  0.1161E+02
    -48.568  0.1053E+02  0.1397E+02
    -48.344  0.1431E+00  0.1400E+02
    -48.120  0.4800E-06  0.1400E+02
    -47.896  0.1536E-11  0.1400E+02
    -47.672  0.1793E-03  0.1400E+02
    -47.447  0.1623E+01  0.1436E+02
    -47.223  0.2061E+02  0.1898E+02
    -46.999  0.2429E+02  0.2443E+02
    -46.775  0.6978E+01  0.2599E+02
    -46.551  0.3473E-01  0.2600E+02
    -46.327  0.2459E-07  0.2600E+02
    -46.103  0.0000E+00  0.2600E+02
    -45.879  0.0000E+00  0.2600E+02
    -45.655  0.0000E+00  0.2600E+02
    -45.430  0.0000E+00  0.2600E+02
    -45.206  0.0000E+00  0.2600E+02
    -44.982  0.0000E+00  0.2600E+02
    -44.758  0.0000E+00  0.2600E+02
    -44.534  0.0000E+00  0.2600E+02
    -44.310  0.0000E+00  0.2600E+02
    -44.086  0.0000E+00  0.2600E+02
    -43.862  0.0000E+00  0.2600E+02
    -43.638  0.0000E+00  0.2600E+02
    -43.413  0.0000E+00  0.2600E+02
    -43.189  0.0000E+00  0.2600E+02
    -42.965  0.0000E+00  0.2600E+02
    -42.741  0.0000E+00  0.2600E+02
    -42.517  0.0000E+00  0.2600E+02
    -42.293  0.0000E+00  0.2600E+02
    -42.069  0.0000E+00  0.2600E+02
    -41.845  0.0000E+00  0.2600E+02
    -41.621  0.0000E+00  0.2600E+02
    -41.396  0.1536E-13  0.2600E+02
    -41.172  0.1139E-04  0.2600E+02
    -40.948  0.5676E+00  0.2613E+02
    -40.724  0.1291E+02  0.2902E+02
    -40.500  0.1191E+02  0.3169E+02
    -40.276  0.1376E+02  0.3478E+02
    -40.052  0.1406E+02  0.3793E+02
    -39.828  0.7451E+00  0.3809E+02
    -39.604  0.7904E+01  0.3987E+02
    -39.380  0.5972E+00  0.4000E+02
    -39.155  0.1354E-04  0.4000E+02
    -38.931  0.1982E-13  0.4000E+02
    -38.707  0.0000E+00  0.4000E+02
    -38.483  0.0000E+00  0.4000E+02
    -38.259  0.0000E+00  0.4000E+02
    -38.035  0.0000E+00  0.4000E+02
    -37.811  0.0000E+00  0.4000E+02
    -37.587  0.0000E+00  0.4000E+02
    -37.363  0.0000E+00  0.4000E+02
    -37.138  0.0000E+00  0.4000E+02
    -36.914  0.0000E+00  0.4000E+02
    -36.690  0.0000E+00  0.4000E+02
    -36.466  0.0000E+00  0.4000E+02
    -36.242  0.0000E+00  0.4000E+02
    -36.018  0.0000E+00  0.4000E+02
    -35.794  0.0000E+00  0.4000E+02
    -35.570  0.0000E+00  0.4000E+02
    -35.346  0.0000E+00  0.4000E+02
    -35.121  0.0000E+00  0.4000E+02
    -34.897  0.0000E+00  0.4000E+02
    -34.673  0.0000E+00  0.4000E+02
    -34.449  0.0000E+00  0.4000E+02
    -34.225  0.0000E+00  0.4000E+02
    -34.001  0.0000E+00  0.4000E+02
    -33.777  0.0000E+00  0.4000E+02
    -33.553  0.0000E+00  0.4000E+02
    -33.329  0.0000E+00  0.4000E+02
    -33.104  0.0000E+00  0.4000E+02
    -32.880  0.0000E+00  0.4000E+02
    -32.656  0.0000E+00  0.4000E+02
    -32.432  0.0000E+00  0.4000E+02
    -32.208  0.0000E+00  0.4000E+02
    -31.984  0.0000E+00  0.4000E+02
    -31.760  0.0000E+00  0.4000E+02
    -31.536  0.0000E+00  0.4000E+02
    -31.312  0.0000E+00  0.4000E+02
    -31.087  0.0000E+00  0.4000E+02
    -30.863  0.0000E+00  0.4000E+02
    -30.639  0.0000E+00  0.4000E+02
    -30.415  0.0000E+00  0.4000E+02
    -30.191  0.0000E+00  0.4000E+02
    -29.967  0.0000E+00  0.4000E+02
    -29.743  0.0000E+00  0.4000E+02
    -29.519  0.0000E+00  0.4000E+02
    -29.295  0.0000E+00  0.4000E+02
    -29.070  0.0000E+00  0.4000E+02
    -28.846  0.0000E+00  0.4000E+02
    -28.622  0.0000E+00  0.4000E+02
    -28.398  0.0000E+00  0.4000E+02
    -28.174  0.0000E+00  0.4000E+02
    -27.950  0.0000E+00  0.4000E+02
    -27.726  0.0000E+00  0.4000E+02
    -27.502  0.0000E+00  0.4000E+02
    -27.278  0.7188E-08  0.4000E+02
    -27.054  0.2396E-01  0.4001E+02
    -26.829  0.1657E+02  0.4372E+02
    -26.605  0.7365E+02  0.6023E+02
    -26.381  0.6104E+02  0.7391E+02
    -26.157  0.9340E+01  0.7600E+02
    -25.933  0.7695E-02  0.7600E+02
    -25.709  0.3018E-01  0.7601E+02
    -25.485  0.1340E+02  0.7901E+02
    -25.261  0.9297E+02  0.9985E+02
    -25.037  0.7173E+02  0.1159E+03
    -24.812  0.9270E+01  0.1180E+03
    -24.588  0.8162E-02  0.1180E+03
    -24.364  0.1150E-08  0.1180E+03
    -24.140  0.7078E-11  0.1180E+03
    -23.916  0.4809E-03  0.1180E+03
    -23.692  0.3208E+01  0.1187E+03
    -23.468  0.3224E+02  0.1259E+03
    -23.244  0.7660E+02  0.1431E+03
    -23.020  0.4050E+02  0.1522E+03
    -22.795  0.8431E+01  0.1541E+03
    -22.571  0.1534E+02  0.1575E+03
    -22.347  0.5125E+02  0.1690E+03
    -22.123  0.2104E+02  0.1737E+03
    -21.899  0.4532E+02  0.1839E+03
    -21.675  0.2716E+02  0.1900E+03
    -21.451  0.1709E+00  0.1900E+03
    -21.227  0.3996E-06  0.1900E+03
    -21.003  0.0000E+00  0.1900E+03
    -20.778  0.0000E+00  0.1900E+03
    -20.554  0.0000E+00  0.1900E+03
    -20.330  0.0000E+00  0.1900E+03
    -20.106  0.0000E+00  0.1900E+03
    -19.882  0.0000E+00  0.1900E+03
    -19.658  0.3402E-06  0.1900E+03
    -19.434  0.1327E+00  0.1900E+03
    -19.210  0.1380E+02  0.1931E+03
    -18.986  0.3320E+02  0.2006E+03
    -18.761  0.3090E+02  0.2075E+03
    -18.537  0.4632E+02  0.2179E+03
    -18.313  0.3566E+02  0.2259E+03
    -18.089  0.5559E+01  0.2271E+03
    -17.865  0.2113E+02  0.2318E+03
    -17.641  0.6980E+00  0.2320E+03
    -17.417  0.7105E-05  0.2320E+03
    -17.193  0.3963E-14  0.2320E+03
    -16.969  0.0000E+00  0.2320E+03
    -16.744  0.0000E+00  0.2320E+03
    -16.520  0.0000E+00  0.2320E+03
    -16.296  0.0000E+00  0.2320E+03
    -16.072  0.0000E+00  0.2320E+03
    -15.848  0.0000E+00  0.2320E+03
    -15.624  0.0000E+00  0.2320E+03
    -15.400  0.0000E+00  0.2320E+03
    -15.176  0.0000E+00  0.2320E+03
    -14.952  0.0000E+00  0.2320E+03
    -14.728  0.0000E+00  0.2320E+03
    -14.503  0.0000E+00  0.2320E+03
    -14.279  0.0000E+00  0.2320E+03
    -14.055  0.0000E+00  0.2320E+03
    -13.831  0.0000E+00  0.2320E+03
    -13.607  0.0000E+00  0.2320E+03
    -13.383  0.0000E+00  0.2320E+03
    -13.159  0.0000E+00  0.2320E+03
    -12.935  0.0000E+00  0.2320E+03
    -12.711  0.0000E+00  0.2320E+03
    -12.486  0.0000E+00  0.2320E+03
    -12.262  0.0000E+00  0.2320E+03
    -12.038  0.0000E+00  0.2320E+03
    -11.814  0.0000E+00  0.2320E+03
    -11.590  0.0000E+00  0.2320E+03
    -11.366  0.0000E+00  0.2320E+03
    -11.142  0.0000E+00  0.2320E+03
    -10.918  0.0000E+00  0.2320E+03
    -10.694  0.0000E+00  0.2320E+03
    -10.469  0.0000E+00  0.2320E+03
    -10.245  0.0000E+00  0.2320E+03
    -10.021  0.0000E+00  0.2320E+03
     -9.797  0.0000E+00  0.2320E+03
     -9.573  0.0000E+00  0.2320E+03
     -9.349  0.0000E+00  0.2320E+03
     -9.125  0.0000E+00  0.2320E+03
     -8.901  0.0000E+00  0.2320E+03
     -8.677  0.0000E+00  0.2320E+03
     -8.452  0.0000E+00  0.2320E+03
     -8.228  0.0000E+00  0.2320E+03
     -8.004  0.3260E-12  0.2320E+03
     -7.780  0.2093E-04  0.2320E+03
     -7.556  0.1737E+00  0.2320E+03
     -7.332  0.3949E+01  0.2329E+03
     -7.108  0.4962E+01  0.2340E+03
     -6.884  0.8157E+01  0.2359E+03
     -6.660  0.1842E+02  0.2400E+03
     -6.435  0.2819E+02  0.2463E+03
     -6.211  0.3711E+02  0.2546E+03
     -5.987  0.7670E+01  0.2563E+03
     -5.763  0.5715E+01  0.2576E+03
     -5.539  0.1661E+01  0.2580E+03
     -5.315  0.8388E-02  0.2580E+03
     -5.091  0.1290E-07  0.2580E+03
     -4.867  0.0000E+00  0.2580E+03
     -4.643  0.3670E-15  0.2580E+03
     -4.418  0.4122E-06  0.2580E+03
     -4.194  0.3432E-01  0.2580E+03
     -3.970  0.2539E+01  0.2586E+03
     -3.746  0.5808E+01  0.2599E+03
     -3.522  0.2095E+01  0.2603E+03
     -3.298  0.8200E+01  0.2622E+03
     -3.074  0.1096E+02  0.2646E+03
     -2.850  0.1594E+02  0.2682E+03
     -2.626  0.2316E+02  0.2734E+03
     -2.402  0.2538E+02  0.2791E+03
     -2.177  0.2358E+02  0.2844E+03
     -1.953  0.2293E+02  0.2895E+03
     -1.729  0.1671E+02  0.2933E+03
     -1.505  0.9925E+01  0.2955E+03
     -1.281  0.2163E+01  0.2960E+03
     -1.057  0.1314E+00  0.2960E+03
     -0.833  0.6959E-04  0.2960E+03
     -0.609  0.3541E-11  0.2960E+03
     -0.385  0.0000E+00  0.2960E+03
     -0.160  0.0000E+00  0.2960E+03
      0.064  0.0000E+00  0.2960E+03
      0.288  0.2032E-12  0.2960E+03
      0.512  0.1450E-04  0.2960E+03
      0.736  0.9879E-01  0.2960E+03
      0.960  0.1054E+01  0.2963E+03
      1.184  0.3858E+01  0.2971E+03
      1.408  0.1038E+02  0.2995E+03
      1.632  0.1030E+02  0.3018E+03
      1.857  0.1264E+02  0.3046E+03
      2.081  0.2063E+02  0.3092E+03
      2.305  0.3217E+02  0.3164E+03
      2.529  0.2948E+02  0.3230E+03
      2.753  0.2149E+02  0.3278E+03
      2.977  0.3426E+02  0.3355E+03
      3.201  0.3403E+02  0.3432E+03
      3.425  0.4077E+02  0.3523E+03
      3.649  0.5131E+02  0.3638E+03
      3.874  0.5869E+02  0.3769E+03
      4.098  0.6077E+02  0.3906E+03
      4.322  0.6398E+02  0.4049E+03
      4.546  0.6540E+02  0.4196E+03
      4.770  0.6266E+02  0.4336E+03
      4.994  0.5308E+02  0.4455E+03
      5.218  0.4289E+02  0.4551E+03
      5.442  0.3920E+02  0.4639E+03
      5.666  0.2791E+02  0.4701E+03
      5.891  0.2637E+02  0.4761E+03
      6.115  0.2148E+02  0.4809E+03
      6.339  0.1652E+02  0.4846E+03
      6.563  0.1177E+02  0.4872E+03
      6.787  0.4512E+01  0.4882E+03
      7.011  0.7151E+01  0.4898E+03
      7.235  0.1555E+02  0.4933E+03
      7.459  0.1579E+02  0.4968E+03
      7.683  0.1442E+02  0.5001E+03
      7.908  0.1211E+02  0.5028E+03
      8.132  0.1309E+02  0.5057E+03
      8.356  0.1271E+02  0.5086E+03
      8.580  0.1971E+02  0.5130E+03
      8.804  0.2405E+02  0.5184E+03
      9.028  0.3085E+02  0.5253E+03
      9.252  0.2444E+02  0.5308E+03
      9.476  0.2105E+02  0.5355E+03
      9.700  0.3223E+02  0.5427E+03
      9.924  0.4139E+02  0.5520E+03
     10.149  0.4758E+02  0.5627E+03
     10.373  0.4770E+02  0.5733E+03
     10.597  0.4753E+02  0.5840E+03
     10.821  0.4219E+02  0.5934E+03
     11.045  0.4368E+02  0.6032E+03
     11.269  0.3742E+02  0.6116E+03
     11.493  0.3098E+02  0.6186E+03
     11.717  0.1837E+02  0.6227E+03
     11.941  0.4628E+01  0.6237E+03
     12.166  0.1232E+01  0.6240E+03
     12.390  0.1477E-01  0.6240E+03
     12.614  0.7094E-07  0.6240E+03
     12.838  0.0000E+00  0.6240E+03
     13.062  0.0000E+00  0.6240E+03
     13.286  0.0000E+00  0.6240E+03
     13.510  0.0000E+00  0.6240E+03
     13.734  0.0000E+00  0.6240E+03
     13.958  0.0000E+00  0.6240E+03
     14.183  0.0000E+00  0.6240E+03
     14.407  0.0000E+00  0.6240E+03
     14.631  0.0000E+00  0.6240E+03
     14.855  0.0000E+00  0.6240E+03
     15.079  0.0000E+00  0.6240E+03
