<?xml version="1.0" encoding="ISO-8859-1"?>
<modeling>
 <generator>
  <i name="program" type="string">vasp </i>
  <i name="version" type="string">5.4.4.18Apr17-6-g9f103f2a35  </i>
  <i name="subversion" type="string">(build Oct 18 2021 20:38:43) complex            parallel </i>
  <i name="platform" type="string">LinuxIFC </i>
  <i name="date" type="string">2025 11 12 </i>
  <i name="time" type="string">15:35:31 </i>
 </generator>
 <incar>
  <i type="string" name="SYSTEM">HEBCN</i>
  <i type="int" name="ISTART">     0</i>
  <i type="string" name="PREC">normal</i>
  <i type="string" name="ALGO">Fast</i>
  <i type="int" name="ICHARG">     2</i>
  <i type="int" name="NELM">    60</i>
  <i type="int" name="IBRION">    -1</i>
  <i name="EDIFF">      0.00001000</i>
  <i name="EDIFFG">     -0.01000000</i>
  <i type="int" name="NSW">     0</i>
  <i type="int" name="ISIF">     2</i>
  <i name="ENCUT">    400.00000000</i>
  <i name="POTIM">      0.50000000</i>
  <i type="logical" name="LREAL"> F  </i>
  <i type="int" name="ISMEAR">     0</i>
  <i name="SIGMA">      0.10000000</i>
  <i type="logical" name="LWAVE"> T  </i>
  <i type="logical" name="LCHARG"> T  </i>
  <v type="int" name="KPOINT_BSE">    -1     0     0     0</v>
  <i type="int" name="NELM">    60</i>
 </incar>
 <structure name="primitive_cell" >
  <crystal>
   <varray name="basis" >
    <v>       8.98174048       0.00300242      -0.00131830 </v>
    <v>       0.00299086       9.04084209       0.00061124 </v>
    <v>      -0.00132544       0.00063915       8.98398262 </v>
   </varray>
   <i name="volume">    729.52172537 </i>
   <varray name="rec_basis" >
    <v>       0.11133701      -0.00003683       0.00001643 </v>
    <v>      -0.00003698       0.11060918      -0.00000787 </v>
    <v>       0.00001634      -0.00000753       0.11130921 </v>
   </varray>
  </crystal>
  <varray name="positions" >
   <v>       0.00020198      -0.00223602       0.01199979 </v>
   <v>       0.00278020      -0.00241632       0.24814079 </v>
   <v>       0.24340150       0.00120563       0.00636600 </v>
   <v>      -0.00133894      -0.24426306       0.00118479 </v>
   <v>      -0.24366336       0.00353943       0.00180431 </v>
   <v>      -0.00012383       0.24201577       0.00017335 </v>
   <v>      -0.00276051       0.00269763      -0.25138582 </v>
   <v>       0.00077496      -0.24165189       0.25087401 </v>
   <v>       0.24335097      -0.00354076       0.25122035 </v>
   <v>      -0.24558134      -0.00260405       0.25013812 </v>
   <v>      -0.00096938       0.23860309       0.25989754 </v>
   <v>       0.24874602      -0.25156461      -0.00022236 </v>
   <v>      -0.24567725      -0.25565280      -0.00306927 </v>
   <v>       0.24674941       0.25195014       0.00208810 </v>
   <v>       0.24485922      -0.00010984      -0.25022749 </v>
   <v>      -0.24887018       0.25428459      -0.00436033 </v>
   <v>      -0.24526730      -0.00420898      -0.25052362 </v>
   <v>      -0.00099430      -0.26332090      -0.25090263 </v>
   <v>       0.00485340       0.26409593      -0.26155368 </v>
   <v>       0.24562492      -0.25097385       0.24772702 </v>
   <v>      -0.24665744      -0.25338630       0.25116306 </v>
   <v>       0.25020470       0.24949376       0.24945691 </v>
   <v>      -0.25079635       0.25115523       0.24934900 </v>
   <v>       0.25326337      -0.25309778      -0.24711150 </v>
   <v>       0.25240038       0.25272892      -0.24954991 </v>
   <v>      -0.25402603      -0.25430112      -0.25073733 </v>
   <v>      -0.25318688       0.25246008      -0.25064881 </v>
   <v>       0.00375016       0.00067042       0.49077054 </v>
   <v>       0.49905149       0.00113072      -0.00305421 </v>
   <v>       0.00100109      -0.49901763       0.00362134 </v>
   <v>       0.24530877       0.00269173       0.49407936 </v>
   <v>      -0.24487841       0.00143849       0.49816600 </v>
   <v>      -0.00415601      -0.25054466       0.49851286 </v>
   <v>       0.00113581       0.25261804       0.49958473 </v>
   <v>      -0.49871844       0.00489956       0.24969106 </v>
   <v>      -0.00278022       0.49970813       0.25636043 </v>
   <v>       0.49870735      -0.25331473      -0.00532745 </v>
   <v>       0.49941088       0.25281315      -0.00305034 </v>
   <v>      -0.25441652      -0.49955474       0.00072325 </v>
   <v>       0.25413245       0.49944570       0.00491503 </v>
   <v>      -0.49745586       0.00219665      -0.24989928 </v>
   <v>      -0.00213058      -0.49953725      -0.25653002 </v>
   <v>       0.24777147       0.25318173       0.49768615 </v>
   <v>       0.24832615      -0.25372075      -0.49901412 </v>
   <v>       0.25636450      -0.49462387       0.24860313 </v>
   <v>      -0.25522395      -0.49533337       0.24868912 </v>
   <v>       0.49887555      -0.25143254       0.24961970 </v>
   <v>       0.49792776       0.25275477       0.24749151 </v>
   <v>      -0.24068125       0.26431460      -0.49843541 </v>
   <v>      -0.24854315      -0.26375148      -0.49712448 </v>
   <v>       0.49068499       0.25878873      -0.24556478 </v>
   <v>      -0.25426071      -0.49803808      -0.24846131 </v>
   <v>       0.25394934       0.49946688      -0.24771991 </v>
   <v>       0.49893801      -0.26016386      -0.25022585 </v>
   <v>       0.00379417       0.49962173       0.49760474 </v>
   <v>       0.49798284      -0.00180551      -0.49718980 </v>
   <v>       0.49937042      -0.49984539      -0.00062639 </v>
   <v>       0.24962339       0.49795407       0.49533222 </v>
   <v>      -0.24606400      -0.49945032       0.49930472 </v>
   <v>      -0.49835148       0.25276058      -0.49849650 </v>
   <v>      -0.49583985      -0.25467064      -0.49368837 </v>
   <v>       0.49974189       0.49837487       0.25021474 </v>
   <v>      -0.49813078       0.49876009      -0.24889237 </v>
   <v>       0.49848548      -0.49968708      -0.49895974 </v>
  </varray>
 </structure>
 <varray name="primitive_index" >
  <v type="int" >        1 </v>
  <v type="int" >       33 </v>
  <v type="int" >       21 </v>
  <v type="int" >       37 </v>
  <v type="int" >       24 </v>
  <v type="int" >       22 </v>
  <v type="int" >       28 </v>
  <v type="int" >       59 </v>
  <v type="int" >        2 </v>
  <v type="int" >       16 </v>
  <v type="int" >        8 </v>
  <v type="int" >       18 </v>
  <v type="int" >        9 </v>
  <v type="int" >       14 </v>
  <v type="int" >       55 </v>
  <v type="int" >       17 </v>
  <v type="int" >       57 </v>
  <v type="int" >       12 </v>
  <v type="int" >       10 </v>
  <v type="int" >       35 </v>
  <v type="int" >       38 </v>
  <v type="int" >       20 </v>
  <v type="int" >       23 </v>
  <v type="int" >       44 </v>
  <v type="int" >       41 </v>
  <v type="int" >       48 </v>
  <v type="int" >       29 </v>
  <v type="int" >       61 </v>
  <v type="int" >       52 </v>
  <v type="int" >       53 </v>
  <v type="int" >       42 </v>
  <v type="int" >       30 </v>
  <v type="int" >       46 </v>
  <v type="int" >       43 </v>
  <v type="int" >       25 </v>
  <v type="int" >       26 </v>
  <v type="int" >       27 </v>
  <v type="int" >       34 </v>
  <v type="int" >       39 </v>
  <v type="int" >       36 </v>
  <v type="int" >       32 </v>
  <v type="int" >       47 </v>
  <v type="int" >       19 </v>
  <v type="int" >       58 </v>
  <v type="int" >        3 </v>
  <v type="int" >       60 </v>
  <v type="int" >       54 </v>
  <v type="int" >       15 </v>
  <v type="int" >       11 </v>
  <v type="int" >       64 </v>
  <v type="int" >        5 </v>
  <v type="int" >       63 </v>
  <v type="int" >       13 </v>
  <v type="int" >        7 </v>
  <v type="int" >        6 </v>
  <v type="int" >       56 </v>
  <v type="int" >        4 </v>
  <v type="int" >       45 </v>
  <v type="int" >       49 </v>
  <v type="int" >       31 </v>
  <v type="int" >       50 </v>
  <v type="int" >       40 </v>
  <v type="int" >       51 </v>
  <v type="int" >       62 </v>
 </varray>
 <kpoints>
  <generation param="Gamma">
   <v type="int" name="divisions">       3        3        3 </v>
   <v name="usershift">      0.00000000       0.00000000       0.00000000 </v>
   <v name="genvec1">      0.33333333       0.00000000      -0.00000000 </v>
   <v name="genvec2">      0.00000000       0.33333333       0.00000000 </v>
   <v name="genvec3">      0.00000000       0.00000000       0.33333333 </v>
   <v name="shift">      0.00000000       0.00000000       0.00000000 </v>
  </generation>
  <varray name="kpointlist" >
   <v>       0.00000000       0.00000000       0.00000000 </v>
   <v>       0.33333333       0.00000000      -0.00000000 </v>
   <v>       0.00000000       0.33333333       0.00000000 </v>
   <v>       0.33333333       0.33333333       0.00000000 </v>
   <v>      -0.33333333       0.33333333       0.00000000 </v>
   <v>       0.00000000       0.00000000       0.33333333 </v>
   <v>       0.33333333       0.00000000       0.33333333 </v>
   <v>      -0.33333333      -0.00000000       0.33333333 </v>
   <v>       0.00000000       0.33333333       0.33333333 </v>
   <v>       0.33333333       0.33333333       0.33333333 </v>
   <v>      -0.33333333       0.33333333       0.33333333 </v>
   <v>      -0.00000000      -0.33333333       0.33333333 </v>
   <v>       0.33333333      -0.33333333       0.33333333 </v>
   <v>      -0.33333333      -0.33333333       0.33333333 </v>
  </varray>
  <varray name="weights" >
   <v>       0.03703704 </v>
   <v>       0.07407407 </v>
   <v>       0.07407407 </v>
   <v>       0.07407407 </v>
   <v>       0.07407407 </v>
   <v>       0.07407407 </v>
   <v>       0.07407407 </v>
   <v>       0.07407407 </v>
   <v>       0.07407407 </v>
   <v>       0.07407407 </v>
   <v>       0.07407407 </v>
   <v>       0.07407407 </v>
   <v>       0.07407407 </v>
   <v>       0.07407407 </v>
  </varray>
 </kpoints>
 <parameters>
  <separator name="general" >
   <i type="string" name="SYSTEM">HEBCN</i>
   <i type="logical" name="LCOMPAT"> F  </i>
  </separator>
  <separator name="electronic" >
   <i type="string" name="PREC">normal</i>
   <i name="ENMAX">    400.00000000</i>
   <i name="ENAUG">    644.87300000</i>
   <i name="EDIFF">      0.00001000</i>
   <i type="int" name="IALGO">    68</i>
   <i type="int" name="IWAVPR">    10</i>
   <i type="int" name="NBANDS">   312</i>
   <i name="NELECT">    513.00000000</i>
   <i type="int" name="TURBO">     0</i>
   <i type="int" name="IRESTART">     0</i>
   <i type="int" name="NREBOOT">     0</i>
   <i type="int" name="NMIN">     0</i>
   <i name="EREF">      0.00000000</i>
   <separator name="electronic smearing" >
    <i type="int" name="ISMEAR">     0</i>
    <i name="SIGMA">      0.10000000</i>
    <i name="KSPACING">      0.50000000</i>
    <i type="logical" name="KGAMMA"> T  </i>
   </separator>
   <separator name="electronic projectors" >
    <i type="logical" name="LREAL"> F  </i>
    <v name="ROPT">      0.00000000      0.00000000      0.00000000      0.00000000      0.00000000      0.00000000      0.00000000</v>
    <i type="int" name="LMAXPAW">  -100</i>
    <i type="int" name="LMAXMIX">     2</i>
    <i type="logical" name="NLSPLINE"> F  </i>
   </separator>
   <separator name="electronic startup" >
    <i type="int" name="ISTART">     0</i>
    <i type="int" name="ICHARG">     2</i>
    <i type="int" name="INIWAV">     1</i>
   </separator>
   <separator name="electronic spin" >
    <i type="int" name="ISPIN">     1</i>
    <i type="logical" name="LNONCOLLINEAR"> F  </i>
    <v name="MAGMOM">      1.00000000      1.00000000      1.00000000      1.00000000      1.00000000      1.00000000      1.00000000      1.00000000      1.00000000      1.00000000      1.00000000      1.00000000      1.00000000      1.00000000      1.00000000      1.00000000      1.00000000      1.00000000      1.00000000      1.00000000
      1.00000000      1.00000000      1.00000000      1.00000000      1.00000000      1.00000000      1.00000000      1.00000000      1.00000000      1.00000000      1.00000000      1.00000000      1.00000000      1.00000000      1.00000000      1.00000000      1.00000000      1.00000000      1.00000000      1.00000000
      1.00000000      1.00000000      1.00000000      1.00000000      1.00000000      1.00000000      1.00000000      1.00000000      1.00000000      1.00000000      1.00000000      1.00000000      1.00000000      1.00000000      1.00000000      1.00000000      1.00000000      1.00000000      1.00000000      1.00000000
      1.00000000      1.00000000      1.00000000      1.00000000</v>
    <i name="NUPDOWN">     -1.00000000</i>
    <i type="logical" name="LSORBIT"> F  </i>
    <v name="SAXIS">      0.00000000      0.00000000      1.00000000</v>
    <i type="logical" name="LSPIRAL"> F  </i>
    <v name="QSPIRAL">      0.00000000      0.00000000      0.00000000</v>
    <i type="logical" name="LZEROZ"> F  </i>
   </separator>
   <separator name="electronic exchange-correlation" >
    <i type="logical" name="LASPH"> F  </i>
    <i type="logical" name="LMETAGGA"> F  </i>
   </separator>
   <separator name="electronic convergence" >
    <i type="int" name="NELM">    60</i>
    <i type="int" name="NELMDL">    -5</i>
    <i type="int" name="NELMIN">     2</i>
    <i name="ENINI">    400.00000000</i>
    <separator name="electronic convergence detail" >
     <i type="logical" name="LDIAG"> T  </i>
     <i type="logical" name="LSUBROT"> F  </i>
     <i name="WEIMIN">      0.00000000</i>
     <i name="EBREAK">      0.00000001</i>
     <i name="DEPER">      0.30000000</i>
     <i type="int" name="NRMM">     4</i>
     <i name="TIME">      0.40000000</i>
    </separator>
   </separator>
   <separator name="electronic mixer" >
    <i name="AMIX">      0.40000000</i>
    <i name="BMIX">      1.00000000</i>
    <i name="AMIN">      0.10000000</i>
    <i name="AMIX_MAG">      1.60000000</i>
    <i name="BMIX_MAG">      1.00000000</i>
    <separator name="electronic mixer details" >
     <i type="int" name="IMIX">     4</i>
     <i type="logical" name="MIXFIRST"> F  </i>
     <i type="int" name="MAXMIX">   -45</i>
     <i name="WC">    100.00000000</i>
     <i type="int" name="INIMIX">     1</i>
     <i type="int" name="MIXPRE">     1</i>
     <i type="int" name="MREMOVE">     5</i>
    </separator>
   </separator>
   <separator name="electronic dipolcorrection" >
    <i type="logical" name="LDIPOL"> F  </i>
    <i type="logical" name="LMONO"> F  </i>
    <i type="int" name="IDIPOL">     0</i>
    <i name="EPSILON">      1.00000000</i>
    <v name="DIPOL">   -100.00000000   -100.00000000   -100.00000000</v>
    <i name="EFIELD">      0.00000000</i>
   </separator>
  </separator>
  <separator name="grids" >
   <i type="int" name="NGX">    48</i>
   <i type="int" name="NGY">    48</i>
   <i type="int" name="NGZ">    48</i>
   <i type="int" name="NGXF">    96</i>
   <i type="int" name="NGYF">    96</i>
   <i type="int" name="NGZF">    96</i>
   <i type="logical" name="ADDGRID"> F  </i>
  </separator>
  <separator name="ionic" >
   <i type="int" name="NSW">     0</i>
   <i type="int" name="IBRION">    -1</i>
   <i type="int" name="MDALGO">     0</i>
   <i type="int" name="ISIF">     2</i>
   <i name="PSTRESS">      0.00000000</i>
   <i name="EDIFFG">     -0.01000000</i>
   <i type="int" name="NFREE">     0</i>
   <i name="POTIM">      0.50000000</i>
   <i name="SMASS">     -3.00000000</i>
   <i name="SCALEE">      1.00000000</i>
  </separator>
  <separator name="ionic md" >
   <i name="TEBEG">      0.00010000</i>
   <i name="TEEND">      0.00010000</i>
   <i type="int" name="NBLOCK">     1</i>
   <i type="int" name="KBLOCK">     1</i>
   <i type="int" name="NPACO">   256</i>
   <i name="APACO">     16.00000000</i>
  </separator>
  <separator name="symmetry" >
   <i type="int" name="ISYM">     2</i>
   <i name="SYMPREC">      0.00001000</i>
  </separator>
  <separator name="dos" >
   <i type="int" name="LORBIT">     0</i>
   <v name="RWIGS">     -1.00000000     -1.00000000     -1.00000000     -1.00000000     -1.00000000     -1.00000000     -1.00000000</v>
   <i type="int" name="NEDOS">   301</i>
   <i name="EMIN">     10.00000000</i>
   <i name="EMAX">    -10.00000000</i>
   <i name="EFERMI">      0.00000000</i>
  </separator>
  <separator name="writing" >
   <i type="int" name="NWRITE">     2</i>
   <i type="logical" name="LWAVE"> T  </i>
   <i type="logical" name="LDOWNSAMPLE"> F  </i>
   <i type="logical" name="LCHARG"> T  </i>
   <i type="logical" name="LPARD"> F  </i>
   <i type="logical" name="LVTOT"> F  </i>
   <i type="logical" name="LVHAR"> F  </i>
   <i type="logical" name="LELF"> F  </i>
   <i type="logical" name="LOPTICS"> F  </i>
   <v name="STM">      0.00000000      0.00000000      0.00000000      0.00000000      0.00000000      0.00000000      0.00000000</v>
  </separator>
  <separator name="performance" >
   <i type="int" name="NPAR">    24</i>
   <i type="int" name="NSIM">     4</i>
   <i type="int" name="NBLK">    -1</i>
   <i type="logical" name="LPLANE"> T  </i>
   <i type="logical" name="LSCALAPACK"> T  </i>
   <i type="logical" name="LSCAAWARE"> F  </i>
   <i type="logical" name="LSCALU"> F  </i>
   <i type="logical" name="LASYNC"> F  </i>
   <i type="logical" name="LORBITALREAL"> F  </i>
  </separator>
  <separator name="miscellaneous" >
   <i type="int" name="IDIOT">     3</i>
   <i type="int" name="ISPECIAL">     0</i>
   <i type="logical" name="LMUSIC"> F  </i>
   <v name="POMASS">     47.88000000     92.91000000    178.49000000     14.00100000     12.01100000     91.22400000    180.94800000</v>
   <v name="DARWINR">      0.00000000      0.00000000      0.00000000      0.00000000      0.00000000      0.00000000      0.00000000</v>
   <v name="DARWINV">      1.00000000      1.00000000      1.00000000      1.00000000      1.00000000      1.00000000      1.00000000</v>
   <i type="logical" name="LCORR"> T  </i>
  </separator>
  <i type="logical" name="GGA_COMPAT"> T  </i>
  <i type="logical" name="LBERRY"> F  </i>
  <i type="int" name="ICORELEVEL">     0</i>
  <i type="logical" name="LDAU"> F  </i>
  <i type="int" name="I_CONSTRAINED_M">     0</i>
  <separator name="electronic exchange-correlation" >
   <i type="string" name="GGA">--</i>
   <i type="int" name="VOSKOWN">     0</i>
   <i type="logical" name="LHFCALC"> F  </i>
   <i type="string" name="PRECFOCK"></i>
   <i type="logical" name="LSYMGRAD"> F  </i>
   <i type="logical" name="LHFONE"> F  </i>
   <i type="logical" name="LRHFCALC"> F  </i>
   <i type="logical" name="LTHOMAS"> F  </i>
   <i type="logical" name="LMODELHF"> F  </i>
   <i name="ENCUT4O">     -1.00000000</i>
   <i type="int" name="EXXOEP">     0</i>
   <i type="int" name="FOURORBIT">     0</i>
   <i name="AEXX">      0.00000000</i>
   <i name="HFALPHA">      0.00000000</i>
   <i name="MCALPHA">      0.00000000</i>
   <i name="ALDAX">      1.00000000</i>
   <i name="AGGAX">      1.00000000</i>
   <i name="ALDAC">      1.00000000</i>
   <i name="AGGAC">      1.00000000</i>
   <i type="int" name="NKREDX">     1</i>
   <i type="int" name="NKREDY">     1</i>
   <i type="int" name="NKREDZ">     1</i>
   <i type="logical" name="SHIFTRED"> F  </i>
   <i type="logical" name="ODDONLY"> F  </i>
   <i type="logical" name="EVENONLY"> F  </i>
   <i type="int" name="LMAXFOCK">     0</i>
   <i type="int" name="NMAXFOCKAE">     0</i>
   <i type="logical" name="LFOCKAEDFT"> F  </i>
   <i name="HFSCREEN">      0.00000000</i>
   <i name="HFSCREENC">      0.00000000</i>
   <i type="int" name="NBANDSGWLOW">     0</i>
  </separator>
  <separator name="vdW DFT" >
   <i type="logical" name="LUSE_VDW"> F  </i>
   <i name="Zab_VDW">     -0.84910000</i>
   <i name="PARAM1">      0.12340000</i>
   <i name="PARAM2">      1.00000000</i>
   <i name="PARAM3">      0.00000000</i>
  </separator>
  <separator name="model GW" >
   <i type="int" name="MODEL_GW">     0</i>
   <i name="MODEL_EPS0">      6.83926618</i>
   <i name="MODEL_ALPHA">      1.00000000</i>
  </separator>
  <separator name="linear response parameters" >
   <i type="logical" name="LEPSILON"> F  </i>
   <i type="logical" name="LRPA"> F  </i>
   <i type="logical" name="LNABLA"> F  </i>
   <i type="logical" name="LVEL"> F  </i>
   <i type="int" name="KINTER">     0</i>
   <i name="CSHIFT">      0.10000000</i>
   <i name="OMEGAMAX">     -1.00000000</i>
   <i name="DEG_THRESHOLD">      0.00200000</i>
   <i name="RTIME">     -0.10000000</i>
   <i name="WPLASMAI">      0.00000000</i>
   <v name="DFIELD">      0.00000000      0.00000000      0.00000000</v>
   <v name="WPLASMA">      0.00000000      0.00000000      0.00000000      0.00000000      0.00000000      0.00000000      0.00000000      0.00000000      0.00000000</v>
  </separator>
  <separator name="orbital magnetization" >
   <i type="logical" name="NUCIND"> F  </i>
   <v name="MAGPOS">      0.00000000      0.00000000      0.00000000</v>
   <i type="logical" name="LNICSALL"> T  </i>
   <i type="logical" name="ORBITALMAG"> F  </i>
   <i type="logical" name="LMAGBLOCH"> F  </i>
   <i type="logical" name="LCHIMAG"> F  </i>
   <i type="logical" name="LGAUGE"> T  </i>
   <i type="int" name="MAGATOM">     0</i>
   <v name="MAGDIPOL">      0.00000000      0.00000000      0.00000000</v>
   <v name="AVECCONST">      0.00000000      0.00000000      0.00000000</v>
  </separator>
  <separator name="response functions" >
   <i type="logical" name="LADDER"> F  </i>
   <i type="logical" name="LRPAFORCE"> F  </i>
   <i type="logical" name="LFXC"> F  </i>
   <i type="logical" name="LHARTREE"> T  </i>
   <i type="int" name="IBSE">     0</i>
   <v type="int" name="KPOINT">    -1     0     0     0</v>
   <i type="logical" name="LTCTE"> F  </i>
   <i type="logical" name="LTETE"> F  </i>
   <i type="logical" name="LTRIPLET"> F  </i>
   <i type="logical" name="LFXCEPS"> F  </i>
   <i type="logical" name="LFXHEG"> F  </i>
   <i type="int" name="NATURALO">     2</i>
   <i type="logical" name="L2ORDER"> F  </i>
   <i type="logical" name="LMP2LT"> F  </i>
   <i type="logical" name="LUSEW"> F  </i>
   <i name="ENCUTGW">     -2.00000000</i>
   <i name="ENCUTGWSOFT">     -2.00000000</i>
   <i name="ENCUTLF">     -1.00000000</i>
   <i type="int" name="LMAXMP2">    -1</i>
   <i name="SCISSOR">      0.00000000</i>
   <i type="int" name="NOMEGA">     0</i>
   <i type="int" name="NOMEGAR">     0</i>
   <i type="int" name="NBANDSGW">    -1</i>
   <i type="int" name="NBANDSO">    -1</i>
   <i type="int" name="NBANDSV">    -1</i>
   <i type="int" name="NELM">    60</i>
   <i type="int" name="NELMHF">     1</i>
   <i type="int" name="DIM">     3</i>
   <i type="int" name="ANTIRES">     0</i>
   <i name="OMEGAMAX">    -30.00000000</i>
   <i name="OMEGAMIN">    -30.00000000</i>
   <i name="OMEGATL">   -200.00000000</i>
   <i type="int" name="OMEGAGRID">   140</i>
   <i name="CSHIFT">     -0.10000000</i>
   <i type="logical" name="SELFENERGY"> F  </i>
   <i type="logical" name="LSPECTRAL"> F  </i>
   <i type="logical" name="LSPECTRALGW"> F  </i>
   <i type="logical" name="LSINGLES"> F  </i>
   <i type="logical" name="LFERMIGW"> F  </i>
   <i type="logical" name="ODDONLYGW"> F  </i>
   <i type="logical" name="EVENONLYGW"> F  </i>
   <i type="int" name="NKREDLFX">     1</i>
   <i type="int" name="NKREDLFY">     1</i>
   <i type="int" name="NKREDLFZ">     1</i>
   <i type="int" name="MAXMEM">  2800</i>
   <i type="int" name="TELESCOPE">     0</i>
   <i type="int" name="TAUPAR">     1</i>
   <i type="int" name="OMEGAPAR">    -1</i>
   <i name="LAMBDA">      1.00000000</i>
  </separator>
  <separator name="External order field" >
   <i name="OFIELD_KAPPA">      0.00000000</i>
   <v name="OFIELD_K">      0.00000000      0.00000000      0.00000000</v>
   <i name="OFIELD_Q6_NEAR">      0.00000000</i>
   <i name="OFIELD_Q6_FAR">      0.00000000</i>
   <i name="OFIELD_A">      0.00000000</i>
  </separator>
 </parameters>
 <atominfo>
  <atoms>      64 </atoms>
  <types>       7 </types>
  <array name="atoms" >
   <dimension dim="1">ion</dimension>
   <field type="string">element</field>
   <field type="int">atomtype</field>
   <set>
    <rc><c>Ti</c><c>   1</c></rc>
    <rc><c>Ti</c><c>   1</c></rc>
    <rc><c>Ti</c><c>   1</c></rc>
    <rc><c>Ti</c><c>   1</c></rc>
    <rc><c>Ti</c><c>   1</c></rc>
    <rc><c>Ti</c><c>   1</c></rc>
    <rc><c>Ti</c><c>   1</c></rc>
    <rc><c>Nb</c><c>   2</c></rc>
    <rc><c>Nb</c><c>   2</c></rc>
    <rc><c>Nb</c><c>   2</c></rc>
    <rc><c>Nb</c><c>   2</c></rc>
    <rc><c>Nb</c><c>   2</c></rc>
    <rc><c>Nb</c><c>   2</c></rc>
    <rc><c>Hf</c><c>   3</c></rc>
    <rc><c>Hf</c><c>   3</c></rc>
    <rc><c>Hf</c><c>   3</c></rc>
    <rc><c>Hf</c><c>   3</c></rc>
    <rc><c>Hf</c><c>   3</c></rc>
    <rc><c>Hf</c><c>   3</c></rc>
    <rc><c>N </c><c>   4</c></rc>
    <rc><c>N </c><c>   4</c></rc>
    <rc><c>N </c><c>   4</c></rc>
    <rc><c>N </c><c>   4</c></rc>
    <rc><c>N </c><c>   4</c></rc>
    <rc><c>N </c><c>   4</c></rc>
    <rc><c>N </c><c>   4</c></rc>
    <rc><c>N </c><c>   4</c></rc>
    <rc><c>N </c><c>   4</c></rc>
    <rc><c>N </c><c>   4</c></rc>
    <rc><c>N </c><c>   4</c></rc>
    <rc><c>N </c><c>   4</c></rc>
    <rc><c>N </c><c>   4</c></rc>
    <rc><c>C </c><c>   5</c></rc>
    <rc><c>C </c><c>   5</c></rc>
    <rc><c>C </c><c>   5</c></rc>
    <rc><c>C </c><c>   5</c></rc>
    <rc><c>C </c><c>   5</c></rc>
    <rc><c>C </c><c>   5</c></rc>
    <rc><c>C </c><c>   5</c></rc>
    <rc><c>C </c><c>   5</c></rc>
    <rc><c>C </c><c>   5</c></rc>
    <rc><c>C </c><c>   5</c></rc>
    <rc><c>C </c><c>   5</c></rc>
    <rc><c>C </c><c>   5</c></rc>
    <rc><c>C </c><c>   5</c></rc>
    <rc><c>C </c><c>   5</c></rc>
    <rc><c>C </c><c>   5</c></rc>
    <rc><c>C </c><c>   5</c></rc>
    <rc><c>C </c><c>   5</c></rc>
    <rc><c>C </c><c>   5</c></rc>
    <rc><c>C </c><c>   5</c></rc>
    <rc><c>Zr</c><c>   6</c></rc>
    <rc><c>Zr</c><c>   6</c></rc>
    <rc><c>Zr</c><c>   6</c></rc>
    <rc><c>Zr</c><c>   6</c></rc>
    <rc><c>Zr</c><c>   6</c></rc>
    <rc><c>Zr</c><c>   6</c></rc>
    <rc><c>Zr</c><c>   6</c></rc>
    <rc><c>Ta</c><c>   7</c></rc>
    <rc><c>Ta</c><c>   7</c></rc>
    <rc><c>Ta</c><c>   7</c></rc>
    <rc><c>Ta</c><c>   7</c></rc>
    <rc><c>Ta</c><c>   7</c></rc>
    <rc><c>Ta</c><c>   7</c></rc>
   </set>
  </array>
  <array name="atomtypes" >
   <dimension dim="1">type</dimension>
   <field type="int">atomspertype</field>
   <field type="string">element</field>
   <field>mass</field>
   <field>valence</field>
   <field type="string">pseudopotential</field>
   <set>
    <rc><c>   7</c><c>Ti</c><c>     47.88000000</c><c>     12.00000000</c><c> PAW_PBE Ti_sv 07Sep2000                </c></rc>
    <rc><c>   6</c><c>Nb</c><c>     92.91000000</c><c>     13.00000000</c><c> PAW_PBE Nb_sv 17Jan2003                </c></rc>
    <rc><c>   6</c><c>Hf</c><c>    178.49000000</c><c>     10.00000000</c><c> PAW_PBE Hf_pv 06Sep2000                </c></rc>
    <rc><c>  13</c><c>N </c><c>     14.00100000</c><c>      5.00000000</c><c> PAW_PBE N 08Apr2002                    </c></rc>
    <rc><c>  19</c><c>C </c><c>     12.01100000</c><c>      4.00000000</c><c> PAW_PBE C 08Apr2002                    </c></rc>
    <rc><c>   7</c><c>Zr</c><c>     91.22400000</c><c>     12.00000000</c><c> PAW_PBE Zr_sv 07Sep2000                </c></rc>
    <rc><c>   6</c><c>Ta</c><c>    180.94800000</c><c>     11.00000000</c><c> PAW_PBE Ta_pv 07Sep2000                </c></rc>
   </set>
  </array>
 </atominfo>
 <structure name="initialpos" >
  <crystal>
   <varray name="basis" >
    <v>       8.98174048       0.00300242      -0.00131830 </v>
    <v>       0.00299086       9.04084209       0.00061124 </v>
    <v>      -0.00132544       0.00063915       8.98398262 </v>
   </varray>
   <i name="volume">    729.52172537 </i>
   <varray name="rec_basis" >
    <v>       0.11133701      -0.00003683       0.00001643 </v>
    <v>      -0.00003698       0.11060918      -0.00000787 </v>
    <v>       0.00001634      -0.00000753       0.11130921 </v>
   </varray>
  </crystal>
  <varray name="positions" >
   <v>       0.00020198       0.99776398       0.01199979 </v>
   <v>       0.24335097       0.99645924       0.25122035 </v>
   <v>       0.25636450       0.50537613       0.24860313 </v>
   <v>       0.49937042       0.50015461       0.99937361 </v>
   <v>       0.49068499       0.25878873       0.75443522 </v>
   <v>       0.00379417       0.49962173       0.49760474 </v>
   <v>       0.49893801       0.73983614       0.74977415 </v>
   <v>       0.99903062       0.23860309       0.25989754 </v>
   <v>       0.75432275       0.74434720       0.99693073 </v>
   <v>       0.00485340       0.26409593       0.73844632 </v>
   <v>       0.75931875       0.26431460       0.50156459 </v>
   <v>       0.99900570       0.73667910       0.74909737 </v>
   <v>       0.25394934       0.49946688       0.75228009 </v>
   <v>       0.24674941       0.25195014       0.00208810 </v>
   <v>       0.49792776       0.25275477       0.24749151 </v>
   <v>       0.75441866       0.99739595       0.25013812 </v>
   <v>       0.75112982       0.25428459       0.99563967 </v>
   <v>       0.24874602       0.74843539       0.99977764 </v>
   <v>       0.24777147       0.25318173       0.49768615 </v>
   <v>       0.25020470       0.24949376       0.24945691 </v>
   <v>       0.24340150       0.00120563       0.00636600 </v>
   <v>       0.99987617       0.24201577       0.00017335 </v>
   <v>       0.74920365       0.25115523       0.24934900 </v>
   <v>       0.75633664       0.00353943       0.00180431 </v>
   <v>       0.50128156       0.00489956       0.24969106 </v>
   <v>       0.99721978       0.49970813       0.25636043 </v>
   <v>       0.49870735       0.74668527       0.99467255 </v>
   <v>       0.99723949       0.00269763       0.74861418 </v>
   <v>       0.74681312       0.25246008       0.74935119 </v>
   <v>       0.75512159       0.00143849       0.49816600 </v>
   <v>       0.50164852       0.25276058       0.50150350 </v>
   <v>       0.50254414       0.00219665       0.75010072 </v>
   <v>       0.00278020       0.99758368       0.24814079 </v>
   <v>       0.49941088       0.25281315       0.99694966 </v>
   <v>       0.24562492       0.74902615       0.24772702 </v>
   <v>       0.25413245       0.49944570       0.00491503 </v>
   <v>       0.99866106       0.75573694       0.00118479 </v>
   <v>       0.75334256       0.74661370       0.25116306 </v>
   <v>       0.74558348       0.50044526       0.00072325 </v>
   <v>       0.49974189       0.49837487       0.25021474 </v>
   <v>       0.25240038       0.25272892       0.75045009 </v>
   <v>       0.24530877       0.00269173       0.49407936 </v>
   <v>       0.00113581       0.25261804       0.49958473 </v>
   <v>       0.25326337       0.74690222       0.75288850 </v>
   <v>       0.24962339       0.49795407       0.49533222 </v>
   <v>       0.99584399       0.74945534       0.49851286 </v>
   <v>       0.99786942       0.50046275       0.74346998 </v>
   <v>       0.74597397       0.74569888       0.74926267 </v>
   <v>       0.75393600       0.50054968       0.49930472 </v>
   <v>       0.50416015       0.74532936       0.50631163 </v>
   <v>       0.50186922       0.49876009       0.75110763 </v>
   <v>       0.49905149       0.00113072       0.99694579 </v>
   <v>       0.00100109       0.50098237       0.00362134 </v>
   <v>       0.49887555       0.74856746       0.24961970 </v>
   <v>       0.24485922       0.99989016       0.74977251 </v>
   <v>       0.49798284       0.99819449       0.50281020 </v>
   <v>       0.75473270       0.99579102       0.74947638 </v>
   <v>       0.24832615       0.74627925       0.50098588 </v>
   <v>       0.00077496       0.75834811       0.25087401 </v>
   <v>       0.74477605       0.50466663       0.24868912 </v>
   <v>       0.00375016       0.00067042       0.49077054 </v>
   <v>       0.49848548       0.50031292       0.50104026 </v>
   <v>       0.74573929       0.50196192       0.75153869 </v>
   <v>       0.75145685       0.73624852       0.50287552 </v>
  </varray>
 </structure>
 <calculation>
  <scstep>
   <time name="dav">   22.49   23.03</time>
   <time name="total">   22.52   23.08</time>
   <energy>
    <i name="alphaZ">   4317.66593060 </i>
    <i name="ewald"> -42079.68132153 </i>
    <i name="hartreedc">  -7285.47408565 </i>
    <i name="XCdc">   1929.03547850 </i>
    <i name="pawpsdc">  28773.94016443 </i>
    <i name="pawaedc"> -28258.60863024 </i>
    <i name="eentropy">     -0.06295313 </i>
    <i name="bandstr">    992.10601752 </i>
    <i name="atom">  47093.26909977 </i>
    <i name="e_fr_energy">   5482.18970028 </i>
    <i name="e_wo_entrp">   5482.25265341 </i>
    <i name="e_0_energy">   5482.22117684 </i>
   </energy>
  </scstep>
  <scstep>
   <time name="dav">   23.14   23.81</time>
   <time name="total">   23.15   23.81</time>
   <energy>
    <i name="e_fr_energy">    158.69475358 </i>
    <i name="e_wo_entrp">    158.79259360 </i>
    <i name="e_0_energy">    158.74367359 </i>
   </energy>
  </scstep>
  <scstep>
   <time name="dav">   32.25   32.68</time>
   <time name="total">   32.25   32.68</time>
   <energy>
    <i name="e_fr_energy">   -689.02092513 </i>
    <i name="e_wo_entrp">   -688.95077793 </i>
    <i name="e_0_energy">   -688.98585153 </i>
   </energy>
  </scstep>
  <scstep>
   <time name="dav">   34.96   35.37</time>
   <time name="total">   34.96   35.37</time>
   <energy>
    <i name="e_fr_energy">   -778.62519245 </i>
    <i name="e_wo_entrp">   -778.54063555 </i>
    <i name="e_0_energy">   -778.58291400 </i>
   </energy>
  </scstep>
  <scstep>
   <time name="dav">   38.16   38.72</time>
   <time name="total">   38.42   38.99</time>
   <energy>
    <i name="e_fr_energy">   -788.94811059 </i>
    <i name="e_wo_entrp">   -788.85109285 </i>
    <i name="e_0_energy">   -788.89960172 </i>
   </energy>
  </scstep>
  <scstep>
   <time name="diag">    1.83    1.84</time>
   <time name="diis">   24.56   24.62</time>
   <time name="orth">    0.43    0.43</time>
   <time name="total">   27.11   27.34</time>
   <energy>
    <i name="e_fr_energy">   -665.61305799 </i>
    <i name="e_wo_entrp">   -665.49604474 </i>
    <i name="e_0_energy">   -665.55455136 </i>
   </energy>
  </scstep>
  <scstep>
   <time name="diag">    1.83    1.83</time>
   <time name="diis">   19.72   19.83</time>
   <time name="orth">    0.43    0.43</time>
   <time name="total">   22.27   22.44</time>
   <energy>
    <i name="e_fr_energy">   -656.74405074 </i>
    <i name="e_wo_entrp">   -656.65933664 </i>
    <i name="e_0_energy">   -656.70169369 </i>
   </energy>
  </scstep>
  <scstep>
   <time name="diag">    1.82    1.83</time>
   <time name="diis">   25.31   25.68</time>
   <time name="orth">    0.42    0.43</time>
   <time name="total">   27.84   28.24</time>
   <energy>
    <i name="e_fr_energy">   -660.35278733 </i>
    <i name="e_wo_entrp">   -660.24833487 </i>
    <i name="e_0_energy">   -660.30056110 </i>
   </energy>
  </scstep>
  <scstep>
   <time name="diag">    1.80    1.83</time>
   <time name="diis">   20.70   21.04</time>
   <time name="orth">    0.42    0.43</time>
   <time name="total">   23.22   23.59</time>
   <energy>
    <i name="e_fr_energy">   -659.35707935 </i>
    <i name="e_wo_entrp">   -659.25871176 </i>
    <i name="e_0_energy">   -659.30789556 </i>
   </energy>
  </scstep>
  <scstep>
   <time name="diag">    1.82    1.88</time>
   <time name="diis">   25.55   25.91</time>
   <time name="orth">    0.43    0.43</time>
   <time name="total">   28.09   28.51</time>
   <energy>
    <i name="e_fr_energy">   -659.57117732 </i>
    <i name="e_wo_entrp">   -659.47030745 </i>
    <i name="e_0_energy">   -659.52074239 </i>
   </energy>
  </scstep>
  <scstep>
   <time name="diag">    1.81    1.84</time>
   <time name="diis">   22.64   22.97</time>
   <time name="orth">    0.43    0.43</time>
   <time name="total">   25.17   25.53</time>
   <energy>
    <i name="e_fr_energy">   -659.52643043 </i>
    <i name="e_wo_entrp">   -659.42390750 </i>
    <i name="e_0_energy">   -659.47516896 </i>
   </energy>
  </scstep>
  <scstep>
   <time name="diag">    1.83    1.85</time>
   <time name="diis">   24.94   25.26</time>
   <time name="orth">    0.44    0.44</time>
   <time name="total">   27.52   27.85</time>
   <energy>
    <i name="e_fr_energy">   -659.67824864 </i>
    <i name="e_wo_entrp">   -659.57535434 </i>
    <i name="e_0_energy">   -659.62680149 </i>
   </energy>
  </scstep>
  <scstep>
   <time name="diag">    1.80    1.83</time>
   <time name="diis">   24.83   25.22</time>
   <time name="orth">    0.42    0.43</time>
   <time name="total">   27.34   27.78</time>
   <energy>
    <i name="e_fr_energy">   -659.68072242 </i>
    <i name="e_wo_entrp">   -659.57781631 </i>
    <i name="e_0_energy">   -659.62926937 </i>
   </energy>
  </scstep>
  <scstep>
   <time name="diag">    1.82    1.86</time>
   <time name="diis">   24.16   24.67</time>
   <time name="orth">    0.42    0.43</time>
   <time name="total">   26.70   27.25</time>
   <energy>
    <i name="e_fr_energy">   -659.65559461 </i>
    <i name="e_wo_entrp">   -659.55254749 </i>
    <i name="e_0_energy">   -659.60407105 </i>
   </energy>
  </scstep>
  <scstep>
   <time name="diag">    1.82    1.84</time>
   <time name="diis">   24.93   25.24</time>
   <time name="orth">    0.42    0.43</time>
   <time name="total">   27.46   27.81</time>
   <energy>
    <i name="e_fr_energy">   -659.64569380 </i>
    <i name="e_wo_entrp">   -659.54336136 </i>
    <i name="e_0_energy">   -659.59452758 </i>
   </energy>
  </scstep>
  <scstep>
   <time name="diag">    1.80    1.83</time>
   <time name="diis">   24.70   25.04</time>
   <time name="orth">    0.43    0.43</time>
   <time name="total">   27.22   27.60</time>
   <energy>
    <i name="e_fr_energy">   -659.65156377 </i>
    <i name="e_wo_entrp">   -659.54895042 </i>
    <i name="e_0_energy">   -659.60025709 </i>
   </energy>
  </scstep>
  <scstep>
   <time name="diag">    1.81    1.83</time>
   <time name="diis">   24.57   24.96</time>
   <time name="orth">    0.42    0.43</time>
   <time name="total">   27.09   27.52</time>
   <energy>
    <i name="e_fr_energy">   -659.65453779 </i>
    <i name="e_wo_entrp">   -659.55193885 </i>
    <i name="e_0_energy">   -659.60323832 </i>
   </energy>
  </scstep>
  <scstep>
   <time name="diag">    1.82    1.84</time>
   <time name="diis">   26.42   26.77</time>
   <time name="orth">    0.42    0.42</time>
   <time name="total">   28.96   29.34</time>
   <energy>
    <i name="e_fr_energy">   -659.65637420 </i>
    <i name="e_wo_entrp">   -659.55371487 </i>
    <i name="e_0_energy">   -659.60504454 </i>
   </energy>
  </scstep>
  <scstep>
   <time name="diag">    1.82    1.86</time>
   <time name="diis">   26.10   26.48</time>
   <time name="orth">    0.42    0.43</time>
   <time name="total">   28.63   29.07</time>
   <energy>
    <i name="e_fr_energy">   -659.65759531 </i>
    <i name="e_wo_entrp">   -659.55494810 </i>
    <i name="e_0_energy">   -659.60627171 </i>
   </energy>
  </scstep>
  <scstep>
   <time name="diag">    1.80    1.82</time>
   <time name="diis">   24.98   25.11</time>
   <time name="orth">    0.44    0.44</time>
   <time name="total">   27.52   27.68</time>
   <energy>
    <i name="e_fr_energy">   -659.65839292 </i>
    <i name="e_wo_entrp">   -659.55578669 </i>
    <i name="e_0_energy">   -659.60708980 </i>
   </energy>
  </scstep>
  <scstep>
   <time name="diag">    1.83    1.83</time>
   <time name="diis">   25.94   26.11</time>
   <time name="orth">    0.42    0.42</time>
   <time name="total">   28.49   28.67</time>
   <energy>
    <i name="e_fr_energy">   -659.65886890 </i>
    <i name="e_wo_entrp">   -659.55623081 </i>
    <i name="e_0_energy">   -659.60754986 </i>
   </energy>
  </scstep>
  <scstep>
   <time name="diag">    1.81    1.82</time>
   <time name="diis">   25.03   25.37</time>
   <time name="orth">    0.42    0.43</time>
   <time name="total">   27.56   27.92</time>
   <energy>
    <i name="e_fr_energy">   -659.65915891 </i>
    <i name="e_wo_entrp">   -659.55653105 </i>
    <i name="e_0_energy">   -659.60784498 </i>
   </energy>
  </scstep>
  <scstep>
   <time name="diag">    1.82    1.85</time>
   <time name="diis">   23.37   23.80</time>
   <time name="orth">    0.42    0.43</time>
   <time name="total">   25.91   26.37</time>
   <energy>
    <i name="e_fr_energy">   -659.65935140 </i>
    <i name="e_wo_entrp">   -659.55672978 </i>
    <i name="e_0_energy">   -659.60804059 </i>
   </energy>
  </scstep>
  <scstep>
   <time name="diag">    1.81    1.83</time>
   <time name="diis">   23.04   23.32</time>
   <time name="orth">    0.42    0.43</time>
   <time name="total">   25.57   25.88</time>
   <energy>
    <i name="e_fr_energy">   -659.65947848 </i>
    <i name="e_wo_entrp">   -659.55685496 </i>
    <i name="e_0_energy">   -659.60816672 </i>
   </energy>
  </scstep>
  <scstep>
   <time name="diag">    1.84    1.87</time>
   <time name="diis">   22.17   22.46</time>
   <time name="orth">    0.42    0.43</time>
   <time name="total">   24.73   25.05</time>
   <energy>
    <i name="e_fr_energy">   -659.65956378 </i>
    <i name="e_wo_entrp">   -659.55694897 </i>
    <i name="e_0_energy">   -659.60825637 </i>
   </energy>
  </scstep>
  <scstep>
   <time name="diag">    1.83    1.85</time>
   <time name="diis">   21.44   21.72</time>
   <time name="orth">    0.42    0.42</time>
   <time name="total">   23.99   24.30</time>
   <energy>
    <i name="e_fr_energy">   -659.65961660 </i>
    <i name="e_wo_entrp">   -659.55700278 </i>
    <i name="e_0_energy">   -659.60830969 </i>
   </energy>
  </scstep>
  <scstep>
   <time name="diag">    1.80    1.83</time>
   <time name="diis">   20.21   20.61</time>
   <time name="orth">    0.42    0.43</time>
   <time name="total">   22.73   23.17</time>
   <energy>
    <i name="e_fr_energy">   -659.65965157 </i>
    <i name="e_wo_entrp">   -659.55703473 </i>
    <i name="e_0_energy">   -659.60834315 </i>
   </energy>
  </scstep>
  <scstep>
   <time name="diag">    1.81    1.83</time>
   <time name="diis">   18.95   19.26</time>
   <time name="orth">    0.42    0.42</time>
   <time name="total">   21.48   21.82</time>
   <energy>
    <i name="e_fr_energy">   -659.65967386 </i>
    <i name="e_wo_entrp">   -659.55705898 </i>
    <i name="e_0_energy">   -659.60836642 </i>
   </energy>
  </scstep>
  <scstep>
   <time name="diag">    1.80    1.84</time>
   <time name="diis">   19.26   19.63</time>
   <time name="orth">    0.42    0.42</time>
   <time name="total">   21.78   22.19</time>
   <energy>
    <i name="e_fr_energy">   -659.65968940 </i>
    <i name="e_wo_entrp">   -659.55707399 </i>
    <i name="e_0_energy">   -659.60838169 </i>
   </energy>
  </scstep>
  <scstep>
   <time name="diag">    1.83    1.85</time>
   <time name="diis">   17.54   17.72</time>
   <time name="orth">    0.44    0.44</time>
   <time name="total">   20.10   20.32</time>
   <energy>
    <i name="e_fr_energy">   -659.65969886 </i>
    <i name="e_wo_entrp">   -659.55708420 </i>
    <i name="e_0_energy">   -659.60839153 </i>
   </energy>
  </scstep>
  <scstep>
   <time name="diag">    1.80    1.83</time>
   <time name="diis">   16.90   17.13</time>
   <time name="orth">    0.42    0.43</time>
   <time name="total">   19.16   19.42</time>
   <energy>
    <i name="alphaZ">   4317.66593060 </i>
    <i name="ewald"> -42079.68132153 </i>
    <i name="hartreedc">  -6847.58105862 </i>
    <i name="XCdc">   1920.58577129 </i>
    <i name="pawpsdc">  30041.33578586 </i>
    <i name="pawaedc"> -29546.14662202 </i>
    <i name="eentropy">     -0.10261479 </i>
    <i name="bandstr">  -5559.00467567 </i>
    <i name="atom">  47093.26909977 </i>
    <i name="e_fr_energy">   -659.65970511 </i>
    <i name="e_wo_entrp">   -659.55709032 </i>
    <i name="e_0_energy">   -659.60839771 </i>
   </energy>
  </scstep>
  <structure>
   <crystal>
    <varray name="basis" >
     <v>       8.98174048       0.00300242      -0.00131830 </v>
     <v>       0.00299086       9.04084209       0.00061124 </v>
     <v>      -0.00132544       0.00063915       8.98398262 </v>
    </varray>
    <i name="volume">    729.52172537 </i>
    <varray name="rec_basis" >
     <v>       0.11133701      -0.00003683       0.00001643 </v>
     <v>      -0.00003698       0.11060918      -0.00000787 </v>
     <v>       0.00001634      -0.00000753       0.11130921 </v>
    </varray>
   </crystal>
   <varray name="positions" >
    <v>       0.00020198       0.99776398       0.01199979 </v>
    <v>       0.24335097       0.99645924       0.25122035 </v>
    <v>       0.25636450       0.50537613       0.24860313 </v>
    <v>       0.49937042       0.50015461       0.99937361 </v>
    <v>       0.49068499       0.25878873       0.75443522 </v>
    <v>       0.00379417       0.49962173       0.49760474 </v>
    <v>       0.49893801       0.73983614       0.74977415 </v>
    <v>       0.99903062       0.23860309       0.25989754 </v>
    <v>       0.75432275       0.74434720       0.99693073 </v>
    <v>       0.00485340       0.26409593       0.73844632 </v>
    <v>       0.75931875       0.26431460       0.50156459 </v>
    <v>       0.99900570       0.73667910       0.74909737 </v>
    <v>       0.25394934       0.49946688       0.75228009 </v>
    <v>       0.24674941       0.25195014       0.00208810 </v>
    <v>       0.49792776       0.25275477       0.24749151 </v>
    <v>       0.75441866       0.99739595       0.25013812 </v>
    <v>       0.75112982       0.25428459       0.99563967 </v>
    <v>       0.24874602       0.74843539       0.99977764 </v>
    <v>       0.24777147       0.25318173       0.49768615 </v>
    <v>       0.25020470       0.24949376       0.24945691 </v>
    <v>       0.24340150       0.00120563       0.00636600 </v>
    <v>       0.99987617       0.24201577       0.00017335 </v>
    <v>       0.74920365       0.25115523       0.24934900 </v>
    <v>       0.75633664       0.00353943       0.00180431 </v>
    <v>       0.50128156       0.00489956       0.24969106 </v>
    <v>       0.99721978       0.49970813       0.25636043 </v>
    <v>       0.49870735       0.74668527       0.99467255 </v>
    <v>       0.99723949       0.00269763       0.74861418 </v>
    <v>       0.74681312       0.25246008       0.74935119 </v>
    <v>       0.75512159       0.00143849       0.49816600 </v>
    <v>       0.50164852       0.25276058       0.50150350 </v>
    <v>       0.50254414       0.00219665       0.75010072 </v>
    <v>       0.00278020       0.99758368       0.24814079 </v>
    <v>       0.49941088       0.25281315       0.99694966 </v>
    <v>       0.24562492       0.74902615       0.24772702 </v>
    <v>       0.25413245       0.49944570       0.00491503 </v>
    <v>       0.99866106       0.75573694       0.00118479 </v>
    <v>       0.75334256       0.74661370       0.25116306 </v>
    <v>       0.74558348       0.50044526       0.00072325 </v>
    <v>       0.49974189       0.49837487       0.25021474 </v>
    <v>       0.25240038       0.25272892       0.75045009 </v>
    <v>       0.24530877       0.00269173       0.49407936 </v>
    <v>       0.00113581       0.25261804       0.49958473 </v>
    <v>       0.25326337       0.74690222       0.75288850 </v>
    <v>       0.24962339       0.49795407       0.49533222 </v>
    <v>       0.99584399       0.74945534       0.49851286 </v>
    <v>       0.99786942       0.50046275       0.74346998 </v>
    <v>       0.74597397       0.74569888       0.74926267 </v>
    <v>       0.75393600       0.50054968       0.49930472 </v>
    <v>       0.50416015       0.74532936       0.50631163 </v>
    <v>       0.50186922       0.49876009       0.75110763 </v>
    <v>       0.49905149       0.00113072       0.99694579 </v>
    <v>       0.00100109       0.50098237       0.00362134 </v>
    <v>       0.49887555       0.74856746       0.24961970 </v>
    <v>       0.24485922       0.99989016       0.74977251 </v>
    <v>       0.49798284       0.99819449       0.50281020 </v>
    <v>       0.75473270       0.99579102       0.74947638 </v>
    <v>       0.24832615       0.74627925       0.50098588 </v>
    <v>       0.00077496       0.75834811       0.25087401 </v>
    <v>       0.74477605       0.50466663       0.24868912 </v>
    <v>       0.00375016       0.00067042       0.49077054 </v>
    <v>       0.49848548       0.50031292       0.50104026 </v>
    <v>       0.74573929       0.50196192       0.75153869 </v>
    <v>       0.75145685       0.73624852       0.50287552 </v>
   </varray>
  </structure>
  <varray name="forces" >
   <v>       0.00103049      -0.00117716      -0.00024850 </v>
   <v>      -0.00349349      -0.00044722       0.00121796 </v>
   <v>       0.00686330      -0.00027315       0.00003361 </v>
   <v>      -0.00249484      -0.00257646      -0.00136424 </v>
   <v>      -0.00167505       0.00388143      -0.00309843 </v>
   <v>       0.00230309      -0.00158260      -0.00112343 </v>
   <v>       0.00025547       0.00021395       0.00408212 </v>
   <v>      -0.00131765      -0.00223182       0.00284781 </v>
   <v>       0.00167783      -0.00265525       0.00271094 </v>
   <v>      -0.00068729       0.00281202      -0.00475030 </v>
   <v>       0.00595246       0.00248596       0.00215251 </v>
   <v>      -0.00197543      -0.00329148       0.00042346 </v>
   <v>       0.00084026      -0.00032001       0.00030472 </v>
   <v>       0.00034244      -0.00116457      -0.00178233 </v>
   <v>       0.00262811       0.00110944       0.00080811 </v>
   <v>       0.00145333      -0.00315555      -0.00072067 </v>
   <v>      -0.00347259      -0.00064911       0.00018684 </v>
   <v>      -0.00367678       0.00093920       0.00074633 </v>
   <v>      -0.00125771       0.00034102      -0.00092816 </v>
   <v>       0.00275547       0.00006414      -0.00196315 </v>
   <v>      -0.00012236       0.00057536      -0.00198829 </v>
   <v>      -0.00125038       0.00056172      -0.00085968 </v>
   <v>      -0.00068275       0.00042381      -0.00079359 </v>
   <v>      -0.00555978       0.00029782      -0.00118745 </v>
   <v>       0.00371394       0.00101246       0.00066805 </v>
   <v>      -0.00135509       0.00132353      -0.00168959 </v>
   <v>      -0.00333937       0.00273699       0.00086614 </v>
   <v>      -0.00283927      -0.00164398       0.00011079 </v>
   <v>      -0.00118494      -0.00095606       0.00019878 </v>
   <v>       0.00030481      -0.00105836       0.00130825 </v>
   <v>      -0.00090105       0.00133491       0.00023859 </v>
   <v>       0.00042638      -0.00012324       0.00123010 </v>
   <v>      -0.00279807      -0.00237301       0.00094953 </v>
   <v>       0.00056869       0.00000250       0.00041858 </v>
   <v>       0.00017303      -0.00057278       0.00117459 </v>
   <v>      -0.00356802      -0.00026325      -0.00169417 </v>
   <v>      -0.00025485      -0.00496789       0.00050406 </v>
   <v>      -0.00024345      -0.00000214       0.00061269 </v>
   <v>       0.00288894      -0.00171664      -0.00151435 </v>
   <v>       0.00279603       0.00188589      -0.00116390 </v>
   <v>      -0.00188291      -0.00001177       0.00175016 </v>
   <v>       0.00092316       0.00000365       0.00101243 </v>
   <v>       0.00106724      -0.00072705       0.00053835 </v>
   <v>      -0.00089690      -0.00032718       0.00038473 </v>
   <v>       0.00347846       0.00140675       0.00027302 </v>
   <v>       0.00239377      -0.00019161       0.00116787 </v>
   <v>      -0.00016159      -0.00273295       0.00047598 </v>
   <v>       0.00117792       0.00027051       0.00025252 </v>
   <v>      -0.00040557      -0.00034452       0.00014121 </v>
   <v>       0.00133126       0.00305126      -0.00186926 </v>
   <v>      -0.00057640       0.00274636      -0.00045170 </v>
   <v>      -0.00314509       0.00190594       0.00187886 </v>
   <v>      -0.00311520      -0.00157067      -0.00316283 </v>
   <v>       0.00337727      -0.00192462      -0.00244120 </v>
   <v>       0.00098130       0.00101369       0.00148638 </v>
   <v>      -0.00062522       0.00030346       0.00026782 </v>
   <v>      -0.00122020      -0.00253484       0.00246356 </v>
   <v>       0.00238153       0.00083211       0.00031417 </v>
   <v>      -0.00031504       0.00068941      -0.00122476 </v>
   <v>      -0.00578752       0.00033511      -0.00026923 </v>
   <v>       0.00480235       0.00273192       0.00196601 </v>
   <v>       0.00004005       0.00294316       0.00235387 </v>
   <v>       0.00035109       0.00072909      -0.00097425 </v>
   <v>       0.00300237       0.00260234      -0.00325803 </v>
  </varray>
  <varray name="stress" >
   <v>      -1.65734869       0.04152496      -0.02415589 </v>
   <v>       0.04152608      -1.31006432      -0.01809268 </v>
   <v>      -0.02415447      -0.01809369      -0.69800424 </v>
  </varray>
  <energy>
   <i name="e_fr_energy">   -659.65970511 </i>
   <i name="e_wo_entrp">   -659.60839771 </i>
   <i name="e_0_energy">     -0.10261479 </i>
  </energy>
  <time name="totalsc">  860.90  873.14</time>
  <eigenvalues>
   <array>
    <dimension dim="1">band</dimension>
    <dimension dim="2">kpoint</dimension>
    <dimension dim="3">spin</dimension>
    <field>eigene</field>
    <field>occ</field>
    <set>
     <set comment="spin 1">
      <set comment="kpoint 1">
       <r>  -49.0976    1.0000 </r>
       <r>  -49.0125    1.0000 </r>
       <r>  -48.9613    1.0000 </r>
       <r>  -48.8930    1.0000 </r>
       <r>  -48.8720    1.0000 </r>
       <r>  -48.8705    1.0000 </r>
       <r>  -48.7196    1.0000 </r>
       <r>  -47.3812    1.0000 </r>
       <r>  -47.2735    1.0000 </r>
       <r>  -47.2169    1.0000 </r>
       <r>  -47.1740    1.0000 </r>
       <r>  -47.0968    1.0000 </r>
       <r>  -46.9633    1.0000 </r>
       <r>  -40.8398    1.0000 </r>
       <r>  -40.7329    1.0000 </r>
       <r>  -40.5654    1.0000 </r>
       <r>  -40.3598    1.0000 </r>
       <r>  -40.2612    1.0000 </r>
       <r>  -40.1804    1.0000 </r>
       <r>  -39.7096    1.0000 </r>
       <r>  -26.8514    1.0000 </r>
       <r>  -26.8193    1.0000 </r>
       <r>  -26.7998    1.0000 </r>
       <r>  -26.7715    1.0000 </r>
       <r>  -26.7453    1.0000 </r>
       <r>  -26.7218    1.0000 </r>
       <r>  -26.7050    1.0000 </r>
       <r>  -26.6909    1.0000 </r>
       <r>  -26.6570    1.0000 </r>
       <r>  -26.6311    1.0000 </r>
       <r>  -26.5884    1.0000 </r>
       <r>  -26.5571    1.0000 </r>
       <r>  -26.5397    1.0000 </r>
       <r>  -26.5051    1.0000 </r>
       <r>  -26.4857    1.0000 </r>
       <r>  -26.4563    1.0000 </r>
       <r>  -26.4242    1.0000 </r>
       <r>  -26.3810    1.0000 </r>
       <r>  -25.5160    1.0000 </r>
       <r>  -25.4481    1.0000 </r>
       <r>  -25.4399    1.0000 </r>
       <r>  -25.4046    1.0000 </r>
       <r>  -25.3674    1.0000 </r>
       <r>  -25.3609    1.0000 </r>
       <r>  -25.3453    1.0000 </r>
       <r>  -25.3251    1.0000 </r>
       <r>  -25.3098    1.0000 </r>
       <r>  -25.3024    1.0000 </r>
       <r>  -25.2783    1.0000 </r>
       <r>  -25.2662    1.0000 </r>
       <r>  -25.2556    1.0000 </r>
       <r>  -25.2483    1.0000 </r>
       <r>  -25.2437    1.0000 </r>
       <r>  -25.1978    1.0000 </r>
       <r>  -25.1940    1.0000 </r>
       <r>  -25.1704    1.0000 </r>
       <r>  -25.0964    1.0000 </r>
       <r>  -25.0784    1.0000 </r>
       <r>  -25.0353    1.0000 </r>
       <r>  -23.6410    1.0000 </r>
       <r>  -23.6073    1.0000 </r>
       <r>  -23.5351    1.0000 </r>
       <r>  -23.4401    1.0000 </r>
       <r>  -23.4253    1.0000 </r>
       <r>  -23.4113    1.0000 </r>
       <r>  -23.4011    1.0000 </r>
       <r>  -23.3725    1.0000 </r>
       <r>  -23.3310    1.0000 </r>
       <r>  -23.3234    1.0000 </r>
       <r>  -23.3048    1.0000 </r>
       <r>  -23.2971    1.0000 </r>
       <r>  -23.2878    1.0000 </r>
       <r>  -23.2288    1.0000 </r>
       <r>  -23.1495    1.0000 </r>
       <r>  -23.1100    1.0000 </r>
       <r>  -23.0543    1.0000 </r>
       <r>  -23.0269    1.0000 </r>
       <r>  -22.6676    1.0000 </r>
       <r>  -22.5467    1.0000 </r>
       <r>  -22.5193    1.0000 </r>
       <r>  -22.4914    1.0000 </r>
       <r>  -22.4744    1.0000 </r>
       <r>  -22.4382    1.0000 </r>
       <r>  -22.3788    1.0000 </r>
       <r>  -22.3552    1.0000 </r>
       <r>  -22.3417    1.0000 </r>
       <r>  -22.1027    1.0000 </r>
       <r>  -22.0868    1.0000 </r>
       <r>  -22.0525    1.0000 </r>
       <r>  -21.9504    1.0000 </r>
       <r>  -21.9160    1.0000 </r>
       <r>  -21.9119    1.0000 </r>
       <r>  -21.9047    1.0000 </r>
       <r>  -21.8660    1.0000 </r>
       <r>  -21.8292    1.0000 </r>
       <r>  -19.2831    1.0000 </r>
       <r>  -19.2222    1.0000 </r>
       <r>  -19.1161    1.0000 </r>
       <r>  -19.1017    1.0000 </r>
       <r>  -19.0107    1.0000 </r>
       <r>  -18.9660    1.0000 </r>
       <r>  -18.9195    1.0000 </r>
       <r>  -18.9036    1.0000 </r>
       <r>  -18.7899    1.0000 </r>
       <r>  -18.6589    1.0000 </r>
       <r>  -18.6273    1.0000 </r>
       <r>  -18.5907    1.0000 </r>
       <r>  -18.5679    1.0000 </r>
       <r>  -18.5519    1.0000 </r>
       <r>  -18.5350    1.0000 </r>
       <r>  -18.5049    1.0000 </r>
       <r>  -18.4791    1.0000 </r>
       <r>  -18.4259    1.0000 </r>
       <r>  -18.0693    1.0000 </r>
       <r>  -17.9948    1.0000 </r>
       <r>  -17.9860    1.0000 </r>
       <r>   -7.5064    1.0000 </r>
       <r>   -7.0289    1.0000 </r>
       <r>   -6.7825    1.0000 </r>
       <r>   -6.7249    1.0000 </r>
       <r>   -6.6478    1.0000 </r>
       <r>   -6.5933    1.0000 </r>
       <r>   -6.4432    1.0000 </r>
       <r>   -6.3895    1.0000 </r>
       <r>   -6.3386    1.0000 </r>
       <r>   -6.3054    1.0000 </r>
       <r>   -6.2765    1.0000 </r>
       <r>   -6.1517    1.0000 </r>
       <r>   -5.7105    1.0000 </r>
       <r>   -4.0004    1.0000 </r>
       <r>   -3.4569    1.0000 </r>
       <r>   -3.1298    1.0000 </r>
       <r>   -3.0606    1.0000 </r>
       <r>   -2.8568    1.0000 </r>
       <r>   -2.7674    1.0000 </r>
       <r>   -2.6910    1.0000 </r>
       <r>   -2.6213    1.0000 </r>
       <r>   -2.5709    1.0000 </r>
       <r>   -2.4351    1.0000 </r>
       <r>   -2.3700    1.0000 </r>
       <r>   -2.2250    1.0000 </r>
       <r>   -2.1359    1.0000 </r>
       <r>   -2.0015    1.0000 </r>
       <r>   -1.9496    1.0000 </r>
       <r>   -1.9392    1.0000 </r>
       <r>   -1.6369    1.0000 </r>
       <r>   -1.4453    1.0000 </r>
       <r>   -1.3062    1.0000 </r>
       <r>    0.7900    1.0000 </r>
       <r>    0.8379    1.0000 </r>
       <r>    0.9515    1.0000 </r>
       <r>    0.9688    1.0000 </r>
       <r>    1.9128    1.0000 </r>
       <r>    1.9754    1.0000 </r>
       <r>    1.9945    1.0000 </r>
       <r>    2.0263    1.0000 </r>
       <r>    2.0505    1.0000 </r>
       <r>    2.0919    1.0000 </r>
       <r>    2.1192    1.0000 </r>
       <r>    2.1664    1.0000 </r>
       <r>    2.1726    1.0000 </r>
       <r>    2.2527    1.0000 </r>
       <r>    2.2886    1.0000 </r>
       <r>    2.3256    1.0000 </r>
       <r>    2.8529    1.0000 </r>
       <r>    2.9232    1.0000 </r>
       <r>    2.9291    1.0000 </r>
       <r>    3.0041    1.0000 </r>
       <r>    3.0624    1.0000 </r>
       <r>    3.0718    1.0000 </r>
       <r>    3.1109    1.0000 </r>
       <r>    3.1660    1.0000 </r>
       <r>    3.2251    1.0000 </r>
       <r>    3.2861    1.0000 </r>
       <r>    3.3162    1.0000 </r>
       <r>    3.3209    1.0000 </r>
       <r>    3.3903    1.0000 </r>
       <r>    3.4303    1.0000 </r>
       <r>    3.4480    1.0000 </r>
       <r>    3.4866    1.0000 </r>
       <r>    3.5109    1.0000 </r>
       <r>    3.5520    1.0000 </r>
       <r>    3.6314    1.0000 </r>
       <r>    3.6445    1.0000 </r>
       <r>    3.6932    1.0000 </r>
       <r>    3.7256    1.0000 </r>
       <r>    3.8072    1.0000 </r>
       <r>    3.8374    1.0000 </r>
       <r>    3.8663    1.0000 </r>
       <r>    3.8918    1.0000 </r>
       <r>    3.9135    1.0000 </r>
       <r>    3.9380    1.0000 </r>
       <r>    3.9833    1.0000 </r>
       <r>    4.0104    1.0000 </r>
       <r>    4.0128    1.0000 </r>
       <r>    4.0435    1.0000 </r>
       <r>    4.0941    1.0000 </r>
       <r>    4.1181    1.0000 </r>
       <r>    4.1738    1.0000 </r>
       <r>    4.2019    1.0000 </r>
       <r>    4.2300    1.0000 </r>
       <r>    4.2475    1.0000 </r>
       <r>    4.2603    1.0000 </r>
       <r>    4.2961    1.0000 </r>
       <r>    4.3190    1.0000 </r>
       <r>    4.3445    1.0000 </r>
       <r>    4.3897    1.0000 </r>
       <r>    4.4287    1.0000 </r>
       <r>    4.4518    1.0000 </r>
       <r>    4.4933    1.0000 </r>
       <r>    4.5161    1.0000 </r>
       <r>    4.5277    1.0000 </r>
       <r>    4.5477    1.0000 </r>
       <r>    4.5812    1.0000 </r>
       <r>    4.6114    1.0000 </r>
       <r>    4.6277    1.0000 </r>
       <r>    4.6529    1.0000 </r>
       <r>    4.7234    1.0000 </r>
       <r>    4.7546    1.0000 </r>
       <r>    4.7968    1.0000 </r>
       <r>    4.8420    1.0000 </r>
       <r>    4.9128    1.0000 </r>
       <r>    4.9730    1.0000 </r>
       <r>    5.0942    1.0000 </r>
       <r>    5.2388    1.0000 </r>
       <r>    5.2486    1.0000 </r>
       <r>    5.8156    1.0000 </r>
       <r>    5.8609    1.0000 </r>
       <r>    5.9414    1.0000 </r>
       <r>    5.9923    1.0000 </r>
       <r>    6.0695    1.0000 </r>
       <r>    6.1033    1.0000 </r>
       <r>    6.1587    1.0000 </r>
       <r>    6.1901    1.0000 </r>
       <r>    6.2363    1.0000 </r>
       <r>    6.2564    1.0000 </r>
       <r>    6.2848    1.0000 </r>
       <r>    6.3180    1.0000 </r>
       <r>    6.3780    1.0000 </r>
       <r>    6.4285    1.0000 </r>
       <r>    6.4393    1.0000 </r>
       <r>    6.4601    1.0000 </r>
       <r>    6.4956    1.0000 </r>
       <r>    6.5435    1.0000 </r>
       <r>    6.5988    1.0000 </r>
       <r>    6.6770    1.0000 </r>
       <r>    6.7468    1.0000 </r>
       <r>    6.8570    1.0000 </r>
       <r>    6.9531    1.0000 </r>
       <r>    7.0220    1.0000 </r>
       <r>    7.5874    1.0000 </r>
       <r>    7.6293    1.0000 </r>
       <r>    7.6871    1.0000 </r>
       <r>    7.9726    1.0000 </r>
       <r>    8.0712    1.0000 </r>
       <r>    8.0915    1.0000 </r>
       <r>    9.3572    0.0000 </r>
       <r>    9.4142    0.0000 </r>
       <r>    9.4559    0.0000 </r>
       <r>    9.5092    0.0000 </r>
       <r>    9.5224    0.0000 </r>
       <r>    9.5808    0.0000 </r>
       <r>    9.6282    0.0000 </r>
       <r>    9.6935    0.0000 </r>
       <r>    9.7136    0.0000 </r>
       <r>    9.7200    0.0000 </r>
       <r>    9.8078    0.0000 </r>
       <r>    9.8221    0.0000 </r>
       <r>    9.8533    0.0000 </r>
       <r>    9.8743    0.0000 </r>
       <r>    9.9368    0.0000 </r>
       <r>    9.9544    0.0000 </r>
       <r>    9.9831    0.0000 </r>
       <r>   10.0193    0.0000 </r>
       <r>   10.0630    0.0000 </r>
       <r>   10.1104    0.0000 </r>
       <r>   10.1292    0.0000 </r>
       <r>   10.1370    0.0000 </r>
       <r>   10.1730    0.0000 </r>
       <r>   10.1925    0.0000 </r>
       <r>   10.2275    0.0000 </r>
       <r>   10.2425    0.0000 </r>
       <r>   10.2914    0.0000 </r>
       <r>   10.3093    0.0000 </r>
       <r>   10.3628    0.0000 </r>
       <r>   10.4010    0.0000 </r>
       <r>   10.4189    0.0000 </r>
       <r>   10.4584    0.0000 </r>
       <r>   10.4885    0.0000 </r>
       <r>   10.5204    0.0000 </r>
       <r>   10.6158    0.0000 </r>
       <r>   10.6218    0.0000 </r>
       <r>   10.6543    0.0000 </r>
       <r>   10.6802    0.0000 </r>
       <r>   10.6862    0.0000 </r>
       <r>   10.7546    0.0000 </r>
       <r>   10.7788    0.0000 </r>
       <r>   10.8049    0.0000 </r>
       <r>   10.8262    0.0000 </r>
       <r>   10.8894    0.0000 </r>
       <r>   10.9204    0.0000 </r>
       <r>   10.9361    0.0000 </r>
       <r>   10.9951    0.0000 </r>
       <r>   11.0667    0.0000 </r>
       <r>   11.0918    0.0000 </r>
       <r>   11.1402    0.0000 </r>
       <r>   11.1777    0.0000 </r>
       <r>   11.2216    0.0000 </r>
       <r>   11.3033    0.0000 </r>
       <r>   11.3499    0.0000 </r>
       <r>   11.4409    0.0000 </r>
       <r>   11.5335    0.0000 </r>
      </set>
      <set comment="kpoint 2">
       <r>  -49.0977    1.0000 </r>
       <r>  -49.0126    1.0000 </r>
       <r>  -48.9613    1.0000 </r>
       <r>  -48.8931    1.0000 </r>
       <r>  -48.8721    1.0000 </r>
       <r>  -48.8705    1.0000 </r>
       <r>  -48.7196    1.0000 </r>
       <r>  -47.3812    1.0000 </r>
       <r>  -47.2735    1.0000 </r>
       <r>  -47.2169    1.0000 </r>
       <r>  -47.1740    1.0000 </r>
       <r>  -47.0968    1.0000 </r>
       <r>  -46.9633    1.0000 </r>
       <r>  -40.8398    1.0000 </r>
       <r>  -40.7329    1.0000 </r>
       <r>  -40.5654    1.0000 </r>
       <r>  -40.3598    1.0000 </r>
       <r>  -40.2612    1.0000 </r>
       <r>  -40.1804    1.0000 </r>
       <r>  -39.7096    1.0000 </r>
       <r>  -26.8511    1.0000 </r>
       <r>  -26.8191    1.0000 </r>
       <r>  -26.7996    1.0000 </r>
       <r>  -26.7715    1.0000 </r>
       <r>  -26.7453    1.0000 </r>
       <r>  -26.7219    1.0000 </r>
       <r>  -26.7049    1.0000 </r>
       <r>  -26.6905    1.0000 </r>
       <r>  -26.6569    1.0000 </r>
       <r>  -26.6328    1.0000 </r>
       <r>  -26.5886    1.0000 </r>
       <r>  -26.5573    1.0000 </r>
       <r>  -26.5397    1.0000 </r>
       <r>  -26.5049    1.0000 </r>
       <r>  -26.4851    1.0000 </r>
       <r>  -26.4564    1.0000 </r>
       <r>  -26.4241    1.0000 </r>
       <r>  -26.3810    1.0000 </r>
       <r>  -25.5160    1.0000 </r>
       <r>  -25.4481    1.0000 </r>
       <r>  -25.4399    1.0000 </r>
       <r>  -25.4046    1.0000 </r>
       <r>  -25.3675    1.0000 </r>
       <r>  -25.3609    1.0000 </r>
       <r>  -25.3454    1.0000 </r>
       <r>  -25.3253    1.0000 </r>
       <r>  -25.3104    1.0000 </r>
       <r>  -25.3020    1.0000 </r>
       <r>  -25.2784    1.0000 </r>
       <r>  -25.2662    1.0000 </r>
       <r>  -25.2556    1.0000 </r>
       <r>  -25.2483    1.0000 </r>
       <r>  -25.2437    1.0000 </r>
       <r>  -25.1969    1.0000 </r>
       <r>  -25.1940    1.0000 </r>
       <r>  -25.1703    1.0000 </r>
       <r>  -25.0964    1.0000 </r>
       <r>  -25.0784    1.0000 </r>
       <r>  -25.0357    1.0000 </r>
       <r>  -23.6405    1.0000 </r>
       <r>  -23.6069    1.0000 </r>
       <r>  -23.5351    1.0000 </r>
       <r>  -23.4399    1.0000 </r>
       <r>  -23.4254    1.0000 </r>
       <r>  -23.4113    1.0000 </r>
       <r>  -23.4013    1.0000 </r>
       <r>  -23.3723    1.0000 </r>
       <r>  -23.3311    1.0000 </r>
       <r>  -23.3233    1.0000 </r>
       <r>  -23.3048    1.0000 </r>
       <r>  -23.2968    1.0000 </r>
       <r>  -23.2892    1.0000 </r>
       <r>  -23.2288    1.0000 </r>
       <r>  -23.1493    1.0000 </r>
       <r>  -23.1102    1.0000 </r>
       <r>  -23.0544    1.0000 </r>
       <r>  -23.0268    1.0000 </r>
       <r>  -22.6723    1.0000 </r>
       <r>  -22.5463    1.0000 </r>
       <r>  -22.5185    1.0000 </r>
       <r>  -22.4918    1.0000 </r>
       <r>  -22.4732    1.0000 </r>
       <r>  -22.4377    1.0000 </r>
       <r>  -22.3789    1.0000 </r>
       <r>  -22.3503    1.0000 </r>
       <r>  -22.3414    1.0000 </r>
       <r>  -22.1027    1.0000 </r>
       <r>  -22.0869    1.0000 </r>
       <r>  -22.0533    1.0000 </r>
       <r>  -21.9514    1.0000 </r>
       <r>  -21.9168    1.0000 </r>
       <r>  -21.9119    1.0000 </r>
       <r>  -21.9050    1.0000 </r>
       <r>  -21.8660    1.0000 </r>
       <r>  -21.8292    1.0000 </r>
       <r>  -19.2789    1.0000 </r>
       <r>  -19.2208    1.0000 </r>
       <r>  -19.1160    1.0000 </r>
       <r>  -19.1055    1.0000 </r>
       <r>  -19.0100    1.0000 </r>
       <r>  -18.9695    1.0000 </r>
       <r>  -18.9191    1.0000 </r>
       <r>  -18.9033    1.0000 </r>
       <r>  -18.7899    1.0000 </r>
       <r>  -18.6587    1.0000 </r>
       <r>  -18.6271    1.0000 </r>
       <r>  -18.5906    1.0000 </r>
       <r>  -18.5686    1.0000 </r>
       <r>  -18.5523    1.0000 </r>
       <r>  -18.5353    1.0000 </r>
       <r>  -18.5048    1.0000 </r>
       <r>  -18.4791    1.0000 </r>
       <r>  -18.4252    1.0000 </r>
       <r>  -18.0693    1.0000 </r>
       <r>  -17.9948    1.0000 </r>
       <r>  -17.9861    1.0000 </r>
       <r>   -7.4157    1.0000 </r>
       <r>   -6.9687    1.0000 </r>
       <r>   -6.8494    1.0000 </r>
       <r>   -6.6680    1.0000 </r>
       <r>   -6.6018    1.0000 </r>
       <r>   -6.5852    1.0000 </r>
       <r>   -6.4488    1.0000 </r>
       <r>   -6.4068    1.0000 </r>
       <r>   -6.3546    1.0000 </r>
       <r>   -6.3179    1.0000 </r>
       <r>   -6.2619    1.0000 </r>
       <r>   -6.2092    1.0000 </r>
       <r>   -5.8327    1.0000 </r>
       <r>   -3.9010    1.0000 </r>
       <r>   -3.4879    1.0000 </r>
       <r>   -3.1734    1.0000 </r>
       <r>   -3.0417    1.0000 </r>
       <r>   -2.8507    1.0000 </r>
       <r>   -2.7704    1.0000 </r>
       <r>   -2.6944    1.0000 </r>
       <r>   -2.6243    1.0000 </r>
       <r>   -2.5732    1.0000 </r>
       <r>   -2.4208    1.0000 </r>
       <r>   -2.3572    1.0000 </r>
       <r>   -2.2852    1.0000 </r>
       <r>   -2.2036    1.0000 </r>
       <r>   -2.1394    1.0000 </r>
       <r>   -2.0335    1.0000 </r>
       <r>   -1.9242    1.0000 </r>
       <r>   -1.8635    1.0000 </r>
       <r>   -1.5760    1.0000 </r>
       <r>   -1.4678    1.0000 </r>
       <r>    1.0105    1.0000 </r>
       <r>    1.1242    1.0000 </r>
       <r>    1.2868    1.0000 </r>
       <r>    1.2953    1.0000 </r>
       <r>    1.8624    1.0000 </r>
       <r>    1.9161    1.0000 </r>
       <r>    1.9297    1.0000 </r>
       <r>    1.9645    1.0000 </r>
       <r>    2.1144    1.0000 </r>
       <r>    2.2148    1.0000 </r>
       <r>    2.2366    1.0000 </r>
       <r>    2.3085    1.0000 </r>
       <r>    2.3610    1.0000 </r>
       <r>    2.4550    1.0000 </r>
       <r>    2.4712    1.0000 </r>
       <r>    2.5867    1.0000 </r>
       <r>    2.8610    1.0000 </r>
       <r>    2.8905    1.0000 </r>
       <r>    2.9159    1.0000 </r>
       <r>    2.9754    1.0000 </r>
       <r>    3.0594    1.0000 </r>
       <r>    3.0781    1.0000 </r>
       <r>    3.1168    1.0000 </r>
       <r>    3.1592    1.0000 </r>
       <r>    3.1834    1.0000 </r>
       <r>    3.2179    1.0000 </r>
       <r>    3.2644    1.0000 </r>
       <r>    3.3535    1.0000 </r>
       <r>    3.3851    1.0000 </r>
       <r>    3.4397    1.0000 </r>
       <r>    3.5027    1.0000 </r>
       <r>    3.5501    1.0000 </r>
       <r>    3.5830    1.0000 </r>
       <r>    3.6149    1.0000 </r>
       <r>    3.6307    1.0000 </r>
       <r>    3.6693    1.0000 </r>
       <r>    3.7475    1.0000 </r>
       <r>    3.7651    1.0000 </r>
       <r>    3.8168    1.0000 </r>
       <r>    3.8271    1.0000 </r>
       <r>    3.8603    1.0000 </r>
       <r>    3.8822    1.0000 </r>
       <r>    3.9445    1.0000 </r>
       <r>    3.9905    1.0000 </r>
       <r>    4.0105    1.0000 </r>
       <r>    4.0412    1.0000 </r>
       <r>    4.0463    1.0000 </r>
       <r>    4.0872    1.0000 </r>
       <r>    4.1103    1.0000 </r>
       <r>    4.1699    1.0000 </r>
       <r>    4.1838    1.0000 </r>
       <r>    4.2174    1.0000 </r>
       <r>    4.2575    1.0000 </r>
       <r>    4.3016    1.0000 </r>
       <r>    4.3266    1.0000 </r>
       <r>    4.3524    1.0000 </r>
       <r>    4.3906    1.0000 </r>
       <r>    4.4138    1.0000 </r>
       <r>    4.4361    1.0000 </r>
       <r>    4.4525    1.0000 </r>
       <r>    4.5147    1.0000 </r>
       <r>    4.5448    1.0000 </r>
       <r>    4.5803    1.0000 </r>
       <r>    4.6076    1.0000 </r>
       <r>    4.6503    1.0000 </r>
       <r>    4.6792    1.0000 </r>
       <r>    4.7068    1.0000 </r>
       <r>    4.7551    1.0000 </r>
       <r>    4.7753    1.0000 </r>
       <r>    4.8145    1.0000 </r>
       <r>    4.8426    1.0000 </r>
       <r>    4.8906    1.0000 </r>
       <r>    4.9227    1.0000 </r>
       <r>    4.9794    1.0000 </r>
       <r>    4.9988    1.0000 </r>
       <r>    5.0582    1.0000 </r>
       <r>    5.1119    1.0000 </r>
       <r>    5.1806    1.0000 </r>
       <r>    5.2465    1.0000 </r>
       <r>    5.3545    1.0000 </r>
       <r>    5.3806    1.0000 </r>
       <r>    5.4142    1.0000 </r>
       <r>    5.4526    1.0000 </r>
       <r>    5.5645    1.0000 </r>
       <r>    5.5991    1.0000 </r>
       <r>    5.7529    1.0000 </r>
       <r>    5.8199    1.0000 </r>
       <r>    5.8371    1.0000 </r>
       <r>    5.9758    1.0000 </r>
       <r>    6.1424    1.0000 </r>
       <r>    6.2004    1.0000 </r>
       <r>    6.2448    1.0000 </r>
       <r>    6.2992    1.0000 </r>
       <r>    6.3536    1.0000 </r>
       <r>    6.6524    1.0000 </r>
       <r>    6.7377    1.0000 </r>
       <r>    6.9602    1.0000 </r>
       <r>    7.0250    1.0000 </r>
       <r>    7.0545    1.0000 </r>
       <r>    7.1483    1.0000 </r>
       <r>    7.2964    1.0000 </r>
       <r>    7.4451    1.0000 </r>
       <r>    7.5902    1.0000 </r>
       <r>    7.6399    1.0000 </r>
       <r>    7.7329    1.0000 </r>
       <r>    7.8844    1.0000 </r>
       <r>    8.5320    0.7527 </r>
       <r>    8.6213    0.2810 </r>
       <r>    8.7565    0.0063 </r>
       <r>    8.7896    0.0015 </r>
       <r>    8.8924    0.0000 </r>
       <r>    9.0009    0.0000 </r>
       <r>    9.0467    0.0000 </r>
       <r>    9.1710    0.0000 </r>
       <r>    9.4727    0.0000 </r>
       <r>    9.5080    0.0000 </r>
       <r>    9.5517    0.0000 </r>
       <r>    9.6913    0.0000 </r>
       <r>    9.7587    0.0000 </r>
       <r>    9.7789    0.0000 </r>
       <r>    9.8391    0.0000 </r>
       <r>    9.8597    0.0000 </r>
       <r>    9.9144    0.0000 </r>
       <r>    9.9424    0.0000 </r>
       <r>   10.0122    0.0000 </r>
       <r>   10.0350    0.0000 </r>
       <r>   10.0684    0.0000 </r>
       <r>   10.0945    0.0000 </r>
       <r>   10.1051    0.0000 </r>
       <r>   10.1115    0.0000 </r>
       <r>   10.1558    0.0000 </r>
       <r>   10.1859    0.0000 </r>
       <r>   10.2039    0.0000 </r>
       <r>   10.2581    0.0000 </r>
       <r>   10.2772    0.0000 </r>
       <r>   10.3062    0.0000 </r>
       <r>   10.3411    0.0000 </r>
       <r>   10.4149    0.0000 </r>
       <r>   10.4310    0.0000 </r>
       <r>   10.4444    0.0000 </r>
       <r>   10.4732    0.0000 </r>
       <r>   10.4991    0.0000 </r>
       <r>   10.5355    0.0000 </r>
       <r>   10.5617    0.0000 </r>
       <r>   10.5964    0.0000 </r>
       <r>   10.6400    0.0000 </r>
       <r>   10.6712    0.0000 </r>
       <r>   10.7056    0.0000 </r>
       <r>   10.7584    0.0000 </r>
       <r>   10.7867    0.0000 </r>
       <r>   10.8204    0.0000 </r>
       <r>   10.8628    0.0000 </r>
       <r>   10.9405    0.0000 </r>
       <r>   10.9618    0.0000 </r>
       <r>   11.0033    0.0000 </r>
       <r>   11.0624    0.0000 </r>
       <r>   11.0984    0.0000 </r>
       <r>   11.1432    0.0000 </r>
       <r>   11.2231    0.0000 </r>
       <r>   11.2724    0.0000 </r>
       <r>   11.3312    0.0000 </r>
       <r>   11.4343    0.0000 </r>
       <r>   11.5124    0.0000 </r>
       <r>   11.6212    0.0000 </r>
      </set>
      <set comment="kpoint 3">
       <r>  -49.0977    1.0000 </r>
       <r>  -49.0126    1.0000 </r>
       <r>  -48.9613    1.0000 </r>
       <r>  -48.8931    1.0000 </r>
       <r>  -48.8721    1.0000 </r>
       <r>  -48.8705    1.0000 </r>
       <r>  -48.7196    1.0000 </r>
       <r>  -47.3812    1.0000 </r>
       <r>  -47.2735    1.0000 </r>
       <r>  -47.2169    1.0000 </r>
       <r>  -47.1740    1.0000 </r>
       <r>  -47.0968    1.0000 </r>
       <r>  -46.9633    1.0000 </r>
       <r>  -40.8398    1.0000 </r>
       <r>  -40.7329    1.0000 </r>
       <r>  -40.5654    1.0000 </r>
       <r>  -40.3598    1.0000 </r>
       <r>  -40.2612    1.0000 </r>
       <r>  -40.1804    1.0000 </r>
       <r>  -39.7096    1.0000 </r>
       <r>  -26.8510    1.0000 </r>
       <r>  -26.8191    1.0000 </r>
       <r>  -26.7996    1.0000 </r>
       <r>  -26.7713    1.0000 </r>
       <r>  -26.7452    1.0000 </r>
       <r>  -26.7223    1.0000 </r>
       <r>  -26.7048    1.0000 </r>
       <r>  -26.6911    1.0000 </r>
       <r>  -26.6568    1.0000 </r>
       <r>  -26.6327    1.0000 </r>
       <r>  -26.5884    1.0000 </r>
       <r>  -26.5571    1.0000 </r>
       <r>  -26.5397    1.0000 </r>
       <r>  -26.5048    1.0000 </r>
       <r>  -26.4854    1.0000 </r>
       <r>  -26.4560    1.0000 </r>
       <r>  -26.4241    1.0000 </r>
       <r>  -26.3812    1.0000 </r>
       <r>  -25.5160    1.0000 </r>
       <r>  -25.4483    1.0000 </r>
       <r>  -25.4399    1.0000 </r>
       <r>  -25.4045    1.0000 </r>
       <r>  -25.3672    1.0000 </r>
       <r>  -25.3609    1.0000 </r>
       <r>  -25.3457    1.0000 </r>
       <r>  -25.3251    1.0000 </r>
       <r>  -25.3097    1.0000 </r>
       <r>  -25.3024    1.0000 </r>
       <r>  -25.2783    1.0000 </r>
       <r>  -25.2656    1.0000 </r>
       <r>  -25.2562    1.0000 </r>
       <r>  -25.2482    1.0000 </r>
       <r>  -25.2439    1.0000 </r>
       <r>  -25.1978    1.0000 </r>
       <r>  -25.1940    1.0000 </r>
       <r>  -25.1704    1.0000 </r>
       <r>  -25.0964    1.0000 </r>
       <r>  -25.0784    1.0000 </r>
       <r>  -25.0353    1.0000 </r>
       <r>  -23.6413    1.0000 </r>
       <r>  -23.6072    1.0000 </r>
       <r>  -23.5354    1.0000 </r>
       <r>  -23.4401    1.0000 </r>
       <r>  -23.4247    1.0000 </r>
       <r>  -23.4091    1.0000 </r>
       <r>  -23.4035    1.0000 </r>
       <r>  -23.3720    1.0000 </r>
       <r>  -23.3314    1.0000 </r>
       <r>  -23.3230    1.0000 </r>
       <r>  -23.3054    1.0000 </r>
       <r>  -23.2968    1.0000 </r>
       <r>  -23.2880    1.0000 </r>
       <r>  -23.2292    1.0000 </r>
       <r>  -23.1494    1.0000 </r>
       <r>  -23.1099    1.0000 </r>
       <r>  -23.0539    1.0000 </r>
       <r>  -23.0269    1.0000 </r>
       <r>  -22.6675    1.0000 </r>
       <r>  -22.5470    1.0000 </r>
       <r>  -22.5192    1.0000 </r>
       <r>  -22.4913    1.0000 </r>
       <r>  -22.4744    1.0000 </r>
       <r>  -22.4379    1.0000 </r>
       <r>  -22.3790    1.0000 </r>
       <r>  -22.3552    1.0000 </r>
       <r>  -22.3420    1.0000 </r>
       <r>  -22.1026    1.0000 </r>
       <r>  -22.0868    1.0000 </r>
       <r>  -22.0525    1.0000 </r>
       <r>  -21.9503    1.0000 </r>
       <r>  -21.9161    1.0000 </r>
       <r>  -21.9119    1.0000 </r>
       <r>  -21.9046    1.0000 </r>
       <r>  -21.8660    1.0000 </r>
       <r>  -21.8297    1.0000 </r>
       <r>  -19.2831    1.0000 </r>
       <r>  -19.2221    1.0000 </r>
       <r>  -19.1161    1.0000 </r>
       <r>  -19.1016    1.0000 </r>
       <r>  -19.0102    1.0000 </r>
       <r>  -18.9661    1.0000 </r>
       <r>  -18.9194    1.0000 </r>
       <r>  -18.9035    1.0000 </r>
       <r>  -18.7900    1.0000 </r>
       <r>  -18.6588    1.0000 </r>
       <r>  -18.6273    1.0000 </r>
       <r>  -18.5907    1.0000 </r>
       <r>  -18.5678    1.0000 </r>
       <r>  -18.5528    1.0000 </r>
[...]
      </set>
     </set>
    </set>
   </array>
  </eigenvalues>
  <separator name="orbital magnetization" >
   <v name="MAGDIPOLOUT">      0.00000000      0.00000000      0.00000000</v>
  </separator>
  <dos>
   <i name="efermi">      8.58024225 </i>
   <total>
    <array>
     <dimension dim="1">gridpoints</dimension>
     <dimension dim="2">spin</dimension>
     <field>energy</field>
     <field>total</field>
     <field>integrated</field>
     <set>
      <set comment="spin 1">
       <r>   -52.1537     0.0000     0.0000 </r>
       <r>   -51.9296     0.0000     0.0000 </r>
       <r>   -51.7055     0.0000     0.0000 </r>
       <r>   -51.4814     0.0000     0.0000 </r>
       <r>   -51.2573     0.0000     0.0000 </r>
       <r>   -51.0332     0.0000     0.0000 </r>
       <r>   -50.8091     0.0000     0.0000 </r>
       <r>   -50.5850     0.0000     0.0000 </r>
       <r>   -50.3608     0.0000     0.0000 </r>
       <r>   -50.1367     0.0000     0.0000 </r>
       <r>   -49.9126     0.0000     0.0000 </r>
       <r>   -49.6885     0.0000     0.0000 </r>
       <r>   -49.4644     0.0000     0.0000 </r>
       <r>   -49.2403     0.2009     0.0450 </r>
       <r>   -49.0162    14.5672     3.3097 </r>
       <r>   -48.7921    37.0273    11.6078 </r>
       <r>   -48.5680    10.5311    13.9679 </r>
       <r>   -48.3439     0.1431    14.0000 </r>
       <r>   -48.1198     0.0000    14.0000 </r>
       <r>   -47.8956     0.0000    14.0000 </r>
       <r>   -47.6715     0.0002    14.0000 </r>
       <r>   -47.4474     1.6233    14.3638 </r>
       <r>   -47.2233    20.6144    18.9837 </r>
       <r>   -46.9992    24.2949    24.4284 </r>
       <r>   -46.7751     6.9779    25.9922 </r>
       <r>   -46.5510     0.0347    26.0000 </r>
       <r>   -46.3269     0.0000    26.0000 </r>
       <r>   -46.1028     0.0000    26.0000 </r>
       <r>   -45.8787     0.0000    26.0000 </r>
       <r>   -45.6546     0.0000    26.0000 </r>
       <r>   -45.4304     0.0000    26.0000 </r>
       <r>   -45.2063     0.0000    26.0000 </r>
       <r>   -44.9822     0.0000    26.0000 </r>
       <r>   -44.7581     0.0000    26.0000 </r>
       <r>   -44.5340     0.0000    26.0000 </r>
       <r>   -44.3099     0.0000    26.0000 </r>
       <r>   -44.0858     0.0000    26.0000 </r>
       <r>   -43.8617     0.0000    26.0000 </r>
       <r>   -43.6376     0.0000    26.0000 </r>
       <r>   -43.4135     0.0000    26.0000 </r>
       <r>   -43.1894     0.0000    26.0000 </r>
       <r>   -42.9652     0.0000    26.0000 </r>
       <r>   -42.7411     0.0000    26.0000 </r>
       <r>   -42.5170     0.0000    26.0000 </r>
       <r>   -42.2929     0.0000    26.0000 </r>
       <r>   -42.0688     0.0000    26.0000 </r>
       <r>   -41.8447     0.0000    26.0000 </r>
       <r>   -41.6206     0.0000    26.0000 </r>
       <r>   -41.3965     0.0000    26.0000 </r>
       <r>   -41.1724     0.0000    26.0000 </r>
       <r>   -40.9483     0.5676    26.1272 </r>
       <r>   -40.7242    12.9148    29.0215 </r>
       <r>   -40.5000    11.9140    31.6916 </r>
       <r>   -40.2759    13.7624    34.7758 </r>
       <r>   -40.0518    14.0648    37.9279 </r>
       <r>   -39.8277     0.7451    38.0949 </r>
       <r>   -39.6036     7.9037    39.8662 </r>
       <r>   -39.3795     0.5972    40.0000 </r>
       <r>   -39.1554     0.0000    40.0000 </r>
       <r>   -38.9313     0.0000    40.0000 </r>
       <r>   -38.7072     0.0000    40.0000 </r>
       <r>   -38.4831     0.0000    40.0000 </r>
       <r>   -38.2590     0.0000    40.0000 </r>
       <r>   -38.0348     0.0000    40.0000 </r>
       <r>   -37.8107     0.0000    40.0000 </r>
       <r>   -37.5866     0.0000    40.0000 </r>
       <r>   -37.3625     0.0000    40.0000 </r>
       <r>   -37.1384     0.0000    40.0000 </r>
       <r>   -36.9143     0.0000    40.0000 </r>
       <r>   -36.6902     0.0000    40.0000 </r>
       <r>   -36.4661     0.0000    40.0000 </r>
       <r>   -36.2420     0.0000    40.0000 </r>
       <r>   -36.0179     0.0000    40.0000 </r>
       <r>   -35.7938     0.0000    40.0000 </r>
       <r>   -35.5696     0.0000    40.0000 </r>
       <r>   -35.3455     0.0000    40.0000 </r>
       <r>   -35.1214     0.0000    40.0000 </r>
       <r>   -34.8973     0.0000    40.0000 </r>
       <r>   -34.6732     0.0000    40.0000 </r>
       <r>   -34.4491     0.0000    40.0000 </r>
       <r>   -34.2250     0.0000    40.0000 </r>
       <r>   -34.0009     0.0000    40.0000 </r>
       <r>   -33.7768     0.0000    40.0000 </r>
       <r>   -33.5527     0.0000    40.0000 </r>
       <r>   -33.3286     0.0000    40.0000 </r>
       <r>   -33.1044     0.0000    40.0000 </r>
       <r>   -32.8803     0.0000    40.0000 </r>
       <r>   -32.6562     0.0000    40.0000 </r>
       <r>   -32.4321     0.0000    40.0000 </r>
       <r>   -32.2080     0.0000    40.0000 </r>
       <r>   -31.9839     0.0000    40.0000 </r>
       <r>   -31.7598     0.0000    40.0000 </r>
       <r>   -31.5357     0.0000    40.0000 </r>
       <r>   -31.3116     0.0000    40.0000 </r>
       <r>   -31.0875     0.0000    40.0000 </r>
       <r>   -30.8634     0.0000    40.0000 </r>
       <r>   -30.6393     0.0000    40.0000 </r>
       <r>   -30.4151     0.0000    40.0000 </r>
       <r>   -30.1910     0.0000    40.0000 </r>
       <r>   -29.9669     0.0000    40.0000 </r>
       <r>   -29.7428     0.0000    40.0000 </r>
       <r>   -29.5187     0.0000    40.0000 </r>
       <r>   -29.2946     0.0000    40.0000 </r>
       <r>   -29.0705     0.0000    40.0000 </r>
       <r>   -28.8464     0.0000    40.0000 </r>
       <r>   -28.6223     0.0000    40.0000 </r>
       <r>   -28.3982     0.0000    40.0000 </r>
       <r>   -28.1741     0.0000    40.0000 </r>
       <r>   -27.9499     0.0000    40.0000 </r>
       <r>   -27.7258     0.0000    40.0000 </r>
       <r>   -27.5017     0.0000    40.0000 </r>
       <r>   -27.2776     0.0000    40.0000 </r>
       <r>   -27.0535     0.0240    40.0054 </r>
       <r>   -26.8294    16.5741    43.7198 </r>
       <r>   -26.6053    73.6541    60.2263 </r>
       <r>   -26.3812    61.0362    73.9051 </r>
       <r>   -26.1571     9.3401    75.9983 </r>
       <r>   -25.9330     0.0077    76.0000 </r>
       <r>   -25.7089     0.0302    76.0068 </r>
       <r>   -25.4847    13.4049    79.0109 </r>
       <r>   -25.2606    92.9665    99.8455 </r>
       <r>   -25.0365    71.7293   115.9207 </r>
       <r>   -24.8124     9.2698   117.9982 </r>
       <r>   -24.5883     0.0082   118.0000 </r>
       <r>   -24.3642     0.0000   118.0000 </r>
       <r>   -24.1401     0.0000   118.0000 </r>
       <r>   -23.9160     0.0005   118.0001 </r>
       <r>   -23.6919     3.2077   118.7190 </r>
       <r>   -23.4678    32.2420   125.9447 </r>
       <r>   -23.2437    76.6011   143.1117 </r>
       <r>   -23.0195    40.5000   152.1881 </r>
       <r>   -22.7954     8.4306   154.0775 </r>
       <r>   -22.5713    15.3445   157.5163 </r>
       <r>   -22.3472    51.2548   169.0030 </r>
       <r>   -22.1231    21.0354   173.7172 </r>
       <r>   -21.8990    45.3206   183.8740 </r>
       <r>   -21.6749    27.1641   189.9617 </r>
       <r>   -21.4508     0.1709   190.0000 </r>
       <r>   -21.2267     0.0000   190.0000 </r>
       <r>   -21.0026     0.0000   190.0000 </r>
       <r>   -20.7785     0.0000   190.0000 </r>
       <r>   -20.5543     0.0000   190.0000 </r>
       <r>   -20.3302     0.0000   190.0000 </r>
       <r>   -20.1061     0.0000   190.0000 </r>
       <r>   -19.8820     0.0000   190.0000 </r>
       <r>   -19.6579     0.0000   190.0000 </r>
       <r>   -19.4338     0.1327   190.0297 </r>
       <r>   -19.2097    13.7965   193.1216 </r>
       <r>   -18.9856    33.2050   200.5632 </r>
       <r>   -18.7615    30.9021   207.4886 </r>
       <r>   -18.5374    46.3241   217.8703 </r>
       <r>   -18.3133    35.6615   225.8623 </r>
       <r>   -18.0891     5.5591   227.1082 </r>
       <r>   -17.8650    21.1298   231.8436 </r>
       <r>   -17.6409     0.6980   232.0000 </r>
       <r>   -17.4168     0.0000   232.0000 </r>
       <r>   -17.1927     0.0000   232.0000 </r>
       <r>   -16.9686     0.0000   232.0000 </r>
       <r>   -16.7445     0.0000   232.0000 </r>
       <r>   -16.5204     0.0000   232.0000 </r>
       <r>   -16.2963     0.0000   232.0000 </r>
       <r>   -16.0722     0.0000   232.0000 </r>
       <r>   -15.8481     0.0000   232.0000 </r>
       <r>   -15.6239     0.0000   232.0000 </r>
       <r>   -15.3998     0.0000   232.0000 </r>
       <r>   -15.1757     0.0000   232.0000 </r>
       <r>   -14.9516     0.0000   232.0000 </r>
       <r>   -14.7275     0.0000   232.0000 </r>
       <r>   -14.5034     0.0000   232.0000 </r>
       <r>   -14.2793     0.0000   232.0000 </r>
       <r>   -14.0552     0.0000   232.0000 </r>
       <r>   -13.8311     0.0000   232.0000 </r>
       <r>   -13.6070     0.0000   232.0000 </r>
       <r>   -13.3829     0.0000   232.0000 </r>
       <r>   -13.1587     0.0000   232.0000 </r>
       <r>   -12.9346     0.0000   232.0000 </r>
       <r>   -12.7105     0.0000   232.0000 </r>
       <r>   -12.4864     0.0000   232.0000 </r>
       <r>   -12.2623     0.0000   232.0000 </r>
       <r>   -12.0382     0.0000   232.0000 </r>
       <r>   -11.8141     0.0000   232.0000 </r>
       <r>   -11.5900     0.0000   232.0000 </r>
       <r>   -11.3659     0.0000   232.0000 </r>
       <r>   -11.1418     0.0000   232.0000 </r>
       <r>   -10.9177     0.0000   232.0000 </r>
       <r>   -10.6935     0.0000   232.0000 </r>
       <r>   -10.4694     0.0000   232.0000 </r>
       <r>   -10.2453     0.0000   232.0000 </r>
       <r>   -10.0212     0.0000   232.0000 </r>
       <r>    -9.7971     0.0000   232.0000 </r>
       <r>    -9.5730     0.0000   232.0000 </r>
       <r>    -9.3489     0.0000   232.0000 </r>
       <r>    -9.1248     0.0000   232.0000 </r>
       <r>    -8.9007     0.0000   232.0000 </r>
       <r>    -8.6766     0.0000   232.0000 </r>
       <r>    -8.4525     0.0000   232.0000 </r>
       <r>    -8.2283     0.0000   232.0000 </r>
       <r>    -8.0042     0.0000   232.0000 </r>
       <r>    -7.7801     0.0000   232.0000 </r>
       <r>    -7.5560     0.1737   232.0389 </r>
       <r>    -7.3319     3.9487   232.9239 </r>
       <r>    -7.1078     4.9624   234.0360 </r>
       <r>    -6.8837     8.1567   235.8640 </r>
       <r>    -6.6596    18.4163   239.9913 </r>
       <r>    -6.4355    28.1939   246.3098 </r>
       <r>    -6.2114    37.1080   254.6260 </r>
       <r>    -5.9873     7.6703   256.3450 </r>
       <r>    -5.7631     5.7150   257.6258 </r>
       <r>    -5.5390     1.6615   257.9981 </r>
       <r>    -5.3149     0.0084   258.0000 </r>
       <r>    -5.0908     0.0000   258.0000 </r>
       <r>    -4.8667     0.0000   258.0000 </r>
       <r>    -4.6426     0.0000   258.0000 </r>
       <r>    -4.4185     0.0000   258.0000 </r>
       <r>    -4.1944     0.0343   258.0077 </r>
       <r>    -3.9703     2.5390   258.5767 </r>
       <r>    -3.7462     5.8081   259.8784 </r>
       <r>    -3.5221     2.0950   260.3479 </r>
       <r>    -3.2979     8.2000   262.1856 </r>
       <r>    -3.0738    10.9575   264.6412 </r>
       <r>    -2.8497    15.9446   268.2146 </r>
       <r>    -2.6256    23.1629   273.4056 </r>
       <r>    -2.4015    25.3841   279.0944 </r>
       <r>    -2.1774    23.5783   284.3785 </r>
       <r>    -1.9533    22.9251   289.5162 </r>
       <r>    -1.7292    16.7124   293.2616 </r>
       <r>    -1.5051     9.9247   295.4858 </r>
       <r>    -1.2810     2.1629   295.9705 </r>
       <r>    -1.0569     0.1314   296.0000 </r>
       <r>    -0.8327     0.0001   296.0000 </r>
       <r>    -0.6086     0.0000   296.0000 </r>
       <r>    -0.3845     0.0000   296.0000 </r>
       <r>    -0.1604     0.0000   296.0000 </r>
       <r>     0.0637     0.0000   296.0000 </r>
       <r>     0.2878     0.0000   296.0000 </r>
       <r>     0.5119     0.0000   296.0000 </r>
       <r>     0.7360     0.0988   296.0221 </r>
       <r>     0.9601     1.0542   296.2584 </r>
       <r>     1.1842     3.8582   297.1231 </r>
       <r>     1.4083    10.3837   299.4502 </r>
       <r>     1.6325    10.3039   301.7593 </r>
       <r>     1.8566    12.6391   304.5919 </r>
       <r>     2.0807    20.6316   309.2156 </r>
       <r>     2.3048    32.1665   316.4244 </r>
       <r>     2.5289    29.4838   323.0320 </r>
       <r>     2.7530    21.4933   327.8488 </r>
       <r>     2.9771    34.2559   335.5259 </r>
       <r>     3.2012    34.0276   343.1518 </r>
       <r>     3.4253    40.7735   352.2895 </r>
       <r>     3.6494    51.3107   363.7887 </r>
       <r>     3.8735    58.6853   376.9406 </r>
       <r>     4.0977    60.7657   390.5587 </r>
       <r>     4.3218    63.9845   404.8983 </r>
       <r>     4.5459    65.4034   419.5558 </r>
       <r>     4.7700    62.6551   433.5973 </r>
       <r>     4.9941    53.0802   445.4931 </r>
       <r>     5.2182    42.8904   455.1052 </r>
       <r>     5.4423    39.2014   463.8906 </r>
       <r>     5.6664    27.9143   470.1465 </r>
       <r>     5.8905    26.3717   476.0566 </r>
       <r>     6.1146    21.4808   480.8706 </r>
       <r>     6.3387    16.5165   484.5721 </r>
       <r>     6.5629    11.7743   487.2109 </r>
       <r>     6.7870     4.5118   488.2220 </r>
       <r>     7.0111     7.1506   489.8245 </r>
       <r>     7.2352    15.5516   493.3098 </r>
       <r>     7.4593    15.7933   496.8492 </r>
       <r>     7.6834    14.4162   500.0800 </r>
       <r>     7.9075    12.1070   502.7932 </r>
       <r>     8.1316    13.0859   505.7259 </r>
       <r>     8.3557    12.7116   508.5747 </r>
       <r>     8.5798    19.7089   512.9917 </r>
       <r>     8.8039    24.0539   518.3824 </r>
       <r>     9.0281    30.8455   525.2951 </r>
       <r>     9.2522    24.4384   530.7720 </r>
       <r>     9.4763    21.0539   535.4904 </r>
       <r>     9.7004    32.2257   542.7124 </r>
       <r>     9.9245    41.3885   551.9880 </r>
       <r>    10.1486    47.5847   562.6521 </r>
       <r>    10.3727    47.7038   573.3430 </r>
       <r>    10.5968    47.5308   583.9951 </r>
       <r>    10.8209    42.1852   593.4492 </r>
       <r>    11.0450    43.6769   603.2376 </r>
       <r>    11.2691    37.4161   611.6229 </r>
       <r>    11.4933    30.9807   618.5659 </r>
       <r>    11.7174    18.3737   622.6836 </r>
       <r>    11.9415     4.6275   623.7207 </r>
       <r>    12.1656     1.2315   623.9967 </r>
       <r>    12.3897     0.0148   624.0000 </r>
       <r>    12.6138     0.0000   624.0000 </r>
       <r>    12.8379     0.0000   624.0000 </r>
       <r>    13.0620     0.0000   624.0000 </r>
       <r>    13.2861     0.0000   624.0000 </r>
       <r>    13.5102     0.0000   624.0000 </r>
       <r>    13.7343     0.0000   624.0000 </r>
       <r>    13.9585     0.0000   624.0000 </r>
       <r>    14.1826     0.0000   624.0000 </r>
       <r>    14.4067     0.0000   624.0000 </r>
       <r>    14.6308     0.0000   624.0000 </r>
       <r>    14.8549     0.0000   624.0000 </r>
       <r>    15.0790     0.0000   624.0000 </r>
      </set>
     </set>
    </array>
   </total>
  </dos>
 </calculation>
 <structure name="finalpos" >
  <crystal>
   <varray name="basis" >
    <v>       8.98174048       0.00300242      -0.00131830 </v>
    <v>       0.00299086       9.04084209       0.00061124 </v>
    <v>      -0.00132544       0.00063915       8.98398262 </v>
   </varray>
   <i name="volume">    729.52172537 </i>
   <varray name="rec_basis" >
    <v>       0.11133701      -0.00003683       0.00001643 </v>
    <v>      -0.00003698       0.11060918      -0.00000787 </v>
    <v>       0.00001634      -0.00000753       0.11130921 </v>
   </varray>
  </crystal>
  <varray name="positions" >
   <v>       0.00020198       0.99776398       0.01199979 </v>
   <v>       0.24335097       0.99645924       0.25122035 </v>
   <v>       0.25636450       0.50537613       0.24860313 </v>
   <v>       0.49937042       0.50015461       0.99937361 </v>
   <v>       0.49068499       0.25878873       0.75443522 </v>
   <v>       0.00379417       0.49962173       0.49760474 </v>
   <v>       0.49893801       0.73983614       0.74977415 </v>
   <v>       0.99903062       0.23860309       0.25989754 </v>
   <v>       0.75432275       0.74434720       0.99693073 </v>
   <v>       0.00485340       0.26409593       0.73844632 </v>
   <v>       0.75931875       0.26431460       0.50156459 </v>
   <v>       0.99900570       0.73667910       0.74909737 </v>
   <v>       0.25394934       0.49946688       0.75228009 </v>
   <v>       0.24674941       0.25195014       0.00208810 </v>
   <v>       0.49792776       0.25275477       0.24749151 </v>
   <v>       0.75441866       0.99739595       0.25013812 </v>
   <v>       0.75112982       0.25428459       0.99563967 </v>
   <v>       0.24874602       0.74843539       0.99977764 </v>
   <v>       0.24777147       0.25318173       0.49768615 </v>
   <v>       0.25020470       0.24949376       0.24945691 </v>
   <v>       0.24340150       0.00120563       0.00636600 </v>
   <v>       0.99987617       0.24201577       0.00017335 </v>
   <v>       0.74920365       0.25115523       0.24934900 </v>
   <v>       0.75633664       0.00353943       0.00180431 </v>
   <v>       0.50128156       0.00489956       0.24969106 </v>
   <v>       0.99721978       0.49970813       0.25636043 </v>
   <v>       0.49870735       0.74668527       0.99467255 </v>
   <v>       0.99723949       0.00269763       0.74861418 </v>
   <v>       0.74681312       0.25246008       0.74935119 </v>
   <v>       0.75512159       0.00143849       0.49816600 </v>
   <v>       0.50164852       0.25276058       0.50150350 </v>
   <v>       0.50254414       0.00219665       0.75010072 </v>
   <v>       0.00278020       0.99758368       0.24814079 </v>
   <v>       0.49941088       0.25281315       0.99694966 </v>
   <v>       0.24562492       0.74902615       0.24772702 </v>
   <v>       0.25413245       0.49944570       0.00491503 </v>
   <v>       0.99866106       0.75573694       0.00118479 </v>
   <v>       0.75334256       0.74661370       0.25116306 </v>
   <v>       0.74558348       0.50044526       0.00072325 </v>
   <v>       0.49974189       0.49837487       0.25021474 </v>
   <v>       0.25240038       0.25272892       0.75045009 </v>
   <v>       0.24530877       0.00269173       0.49407936 </v>
   <v>       0.00113581       0.25261804       0.49958473 </v>
   <v>       0.25326337       0.74690222       0.75288850 </v>
   <v>       0.24962339       0.49795407       0.49533222 </v>
   <v>       0.99584399       0.74945534       0.49851286 </v>
   <v>       0.99786942       0.50046275       0.74346998 </v>
   <v>       0.74597397       0.74569888       0.74926267 </v>
   <v>       0.75393600       0.50054968       0.49930472 </v>
   <v>       0.50416015       0.74532936       0.50631163 </v>
   <v>       0.50186922       0.49876009       0.75110763 </v>
   <v>       0.49905149       0.00113072       0.99694579 </v>
   <v>       0.00100109       0.50098237       0.00362134 </v>
   <v>       0.49887555       0.74856746       0.24961970 </v>
   <v>       0.24485922       0.99989016       0.74977251 </v>
   <v>       0.49798284       0.99819449       0.50281020 </v>
   <v>       0.75473270       0.99579102       0.74947638 </v>
   <v>       0.24832615       0.74627925       0.50098588 </v>
   <v>       0.00077496       0.75834811       0.25087401 </v>
   <v>       0.74477605       0.50466663       0.24868912 </v>
   <v>       0.00375016       0.00067042       0.49077054 </v>
   <v>       0.49848548       0.50031292       0.50104026 </v>
   <v>       0.74573929       0.50196192       0.75153869 </v>
   <v>       0.75145685       0.73624852       0.50287552 </v>
  </varray>
 </structure>
</modeling>
