  64  64   0   0
  0.1129557E+02  0.8932500E-09  0.9055600E-09  0.8937200E-09  0.5000000E-15
  1.000000000000000E-004
  CAR 
 HECN                                    
     13.15908111    -37.81926020  301      8.38107270      1.00000000
    -37.819  0.0000E+00  0.0000E+00
    -37.649  0.0000E+00  0.0000E+00
    -37.479  0.0000E+00  0.0000E+00
    -37.309  0.0000E+00  0.0000E+00
    -37.140  0.0000E+00  0.0000E+00
    -36.970  0.0000E+00  0.0000E+00
    -36.800  0.0000E+00  0.0000E+00
    -36.630  0.0000E+00  0.0000E+00
    -36.460  0.0000E+00  0.0000E+00
    -36.290  0.0000E+00  0.0000E+00
    -36.120  0.0000E+00  0.0000E+00
    -35.950  0.1388E-10  0.2358E-11
    -35.780  0.4940E-05  0.8395E-06
    -35.610  0.7454E-02  0.1267E-02
    -35.440  0.1258E+00  0.2264E-01
    -35.270  0.6530E+00  0.1336E+00
    -35.100  0.9677E+00  0.2980E+00
    -34.930  0.3491E+00  0.3573E+00
    -34.761  0.1559E-01  0.3600E+00
    -34.591  0.9721E-05  0.3600E+00
    -34.421  0.2924E-10  0.3600E+00
    -34.251  0.0000E+00  0.3600E+00
    -34.081  0.0000E+00  0.3600E+00
    -33.911  0.0000E+00  0.3600E+00
    -33.741  0.0000E+00  0.3600E+00
    -33.571  0.0000E+00  0.3600E+00
    -33.401  0.0000E+00  0.3600E+00
    -33.231  0.0000E+00  0.3600E+00
    -33.061  0.0000E+00  0.3600E+00
    -32.891  0.0000E+00  0.3600E+00
    -32.721  0.0000E+00  0.3600E+00
    -32.551  0.0000E+00  0.3600E+00
    -32.382  0.0000E+00  0.3600E+00
    -32.212  0.0000E+00  0.3600E+00
    -32.042  0.0000E+00  0.3600E+00
    -31.872  0.0000E+00  0.3600E+00
    -31.702  0.0000E+00  0.3600E+00
    -31.532  0.0000E+00  0.3600E+00
    -31.362  0.0000E+00  0.3600E+00
    -31.192  0.0000E+00  0.3600E+00
    -31.022  0.0000E+00  0.3600E+00
    -30.852  0.0000E+00  0.3600E+00
    -30.682  0.0000E+00  0.3600E+00
    -30.512  0.0000E+00  0.3600E+00
    -30.342  0.0000E+00  0.3600E+00
    -30.173  0.0000E+00  0.3600E+00
    -30.003  0.0000E+00  0.3600E+00
    -29.833  0.0000E+00  0.3600E+00
    -29.663  0.0000E+00  0.3600E+00
    -29.493  0.0000E+00  0.3600E+00
    -29.323  0.0000E+00  0.3600E+00
    -29.153  0.0000E+00  0.3600E+00
    -28.983  0.0000E+00  0.3600E+00
    -28.813  0.0000E+00  0.3600E+00
    -28.643  0.0000E+00  0.3600E+00
    -28.473  0.5245E-13  0.3600E+00
    -28.303  0.1278E-06  0.3600E+00
    -28.133  0.1328E-02  0.3602E+00
    -27.963  0.1172E+00  0.3801E+00
    -27.794  0.5943E+00  0.4811E+00
    -27.624  0.8374E+00  0.6234E+00
    -27.454  0.5653E+00  0.7195E+00
    -27.284  0.3775E+00  0.7836E+00
    -27.114  0.3286E+00  0.8395E+00
    -26.944  0.4497E+00  0.9159E+00
    -26.774  0.4107E+00  0.9857E+00
    -26.604  0.3900E+00  0.1052E+01
    -26.434  0.1621E+00  0.1079E+01
    -26.264  0.2996E-02  0.1080E+01
    -26.094  0.1194E-02  0.1080E+01
    -25.924  0.1200E+00  0.1101E+01
    -25.754  0.4990E+00  0.1185E+01
    -25.584  0.5395E+00  0.1277E+01
    -25.415  0.6978E+00  0.1396E+01
    -25.245  0.3093E+00  0.1448E+01
    -25.075  0.2751E+00  0.1495E+01
    -24.905  0.2958E-01  0.1500E+01
    -24.735  0.3009E-04  0.1500E+01
    -24.565  0.1454E-09  0.1500E+01
    -24.395  0.1222E-15  0.1500E+01
    -24.225  0.1943E-08  0.1500E+01
    -24.055  0.1232E-03  0.1500E+01
    -23.885  0.4785E-01  0.1508E+01
    -23.715  0.5208E+00  0.1597E+01
    -23.545  0.1207E+01  0.1802E+01
    -23.375  0.6029E+00  0.1904E+01
    -23.205  0.9151E-01  0.1920E+01
    -23.036  0.1388E-02  0.1920E+01
    -22.866  0.1719E-06  0.1920E+01
    -22.696  0.8517E-13  0.1920E+01
    -22.526  0.0000E+00  0.1920E+01
    -22.356  0.0000E+00  0.1920E+01
    -22.186  0.0000E+00  0.1920E+01
    -22.016  0.0000E+00  0.1920E+01
    -21.846  0.0000E+00  0.1920E+01
    -21.676  0.0000E+00  0.1920E+01
    -21.506  0.0000E+00  0.1920E+01
    -21.336  0.0000E+00  0.1920E+01
    -21.166  0.0000E+00  0.1920E+01
    -20.996  0.0000E+00  0.1920E+01
    -20.826  0.0000E+00  0.1920E+01
    -20.657  0.0000E+00  0.1920E+01
    -20.487  0.0000E+00  0.1920E+01
    -20.317  0.0000E+00  0.1920E+01
    -20.147  0.0000E+00  0.1920E+01
    -19.977  0.0000E+00  0.1920E+01
    -19.807  0.0000E+00  0.1920E+01
    -19.637  0.0000E+00  0.1920E+01
    -19.467  0.0000E+00  0.1920E+01
    -19.297  0.0000E+00  0.1920E+01
    -19.127  0.0000E+00  0.1920E+01
    -18.957  0.0000E+00  0.1920E+01
    -18.787  0.0000E+00  0.1920E+01
    -18.617  0.0000E+00  0.1920E+01
    -18.447  0.0000E+00  0.1920E+01
    -18.278  0.0000E+00  0.1920E+01
    -18.108  0.0000E+00  0.1920E+01
    -17.938  0.0000E+00  0.1920E+01
    -17.768  0.0000E+00  0.1920E+01
    -17.598  0.0000E+00  0.1920E+01
    -17.428  0.0000E+00  0.1920E+01
    -17.258  0.0000E+00  0.1920E+01
    -17.088  0.0000E+00  0.1920E+01
    -16.918  0.0000E+00  0.1920E+01
    -16.748  0.0000E+00  0.1920E+01
    -16.578  0.0000E+00  0.1920E+01
    -16.408  0.0000E+00  0.1920E+01
    -16.238  0.0000E+00  0.1920E+01
    -16.069  0.0000E+00  0.1920E+01
    -15.899  0.0000E+00  0.1920E+01
    -15.729  0.0000E+00  0.1920E+01
    -15.559  0.0000E+00  0.1920E+01
    -15.389  0.0000E+00  0.1920E+01
    -15.219  0.0000E+00  0.1920E+01
    -15.049  0.0000E+00  0.1920E+01
    -14.879  0.0000E+00  0.1920E+01
    -14.709  0.0000E+00  0.1920E+01
    -14.539  0.0000E+00  0.1920E+01
    -14.369  0.0000E+00  0.1920E+01
    -14.199  0.0000E+00  0.1920E+01
    -14.029  0.0000E+00  0.1920E+01
    -13.859  0.0000E+00  0.1920E+01
    -13.690  0.0000E+00  0.1920E+01
    -13.520  0.0000E+00  0.1920E+01
    -13.350  0.0000E+00  0.1920E+01
    -13.180  0.0000E+00  0.1920E+01
    -13.010  0.0000E+00  0.1920E+01
    -12.840  0.0000E+00  0.1920E+01
    -12.670  0.0000E+00  0.1920E+01
    -12.500  0.0000E+00  0.1920E+01
    -12.330  0.0000E+00  0.1920E+01
    -12.160  0.0000E+00  0.1920E+01
    -11.990  0.0000E+00  0.1920E+01
    -11.820  0.0000E+00  0.1920E+01
    -11.650  0.0000E+00  0.1920E+01
    -11.480  0.0000E+00  0.1920E+01
    -11.311  0.0000E+00  0.1920E+01
    -11.141  0.0000E+00  0.1920E+01
    -10.971  0.0000E+00  0.1920E+01
    -10.801  0.0000E+00  0.1920E+01
    -10.631  0.0000E+00  0.1920E+01
    -10.461  0.0000E+00  0.1920E+01
    -10.291  0.0000E+00  0.1920E+01
    -10.121  0.0000E+00  0.1920E+01
     -9.951  0.0000E+00  0.1920E+01
     -9.781  0.0000E+00  0.1920E+01
     -9.611  0.0000E+00  0.1920E+01
     -9.441  0.0000E+00  0.1920E+01
     -9.271  0.0000E+00  0.1920E+01
     -9.101  0.0000E+00  0.1920E+01
     -8.932  0.0000E+00  0.1920E+01
     -8.762  0.0000E+00  0.1920E+01
     -8.592  0.8861E-15  0.1920E+01
     -8.422  0.2815E-08  0.1920E+01
     -8.252  0.3981E-04  0.1920E+01
     -8.082  0.5618E-02  0.1921E+01
     -7.912  0.4955E-01  0.1929E+01
     -7.742  0.5891E-01  0.1939E+01
     -7.572  0.4855E-01  0.1948E+01
     -7.402  0.1450E+00  0.1972E+01
     -7.232  0.1564E+00  0.1999E+01
     -7.062  0.1873E+00  0.2031E+01
     -6.892  0.2154E+00  0.2067E+01
     -6.722  0.1553E+00  0.2094E+01
     -6.553  0.1664E+00  0.2122E+01
     -6.383  0.1940E+00  0.2155E+01
     -6.213  0.1312E+00  0.2177E+01
     -6.043  0.1639E-01  0.2180E+01
     -5.873  0.2875E-04  0.2180E+01
     -5.703  0.2393E-09  0.2180E+01
     -5.533  0.5808E-17  0.2180E+01
     -5.363  0.0000E+00  0.2180E+01
     -5.193  0.3117E-14  0.2180E+01
     -5.023  0.7917E-08  0.2180E+01
     -4.853  0.8086E-04  0.2180E+01
     -4.683  0.7489E-02  0.2181E+01
     -4.513  0.4815E-01  0.2189E+01
     -4.343  0.5565E-01  0.2199E+01
     -4.174  0.2566E-01  0.2203E+01
     -4.004  0.8748E-01  0.2218E+01
     -3.834  0.1118E+00  0.2237E+01
     -3.664  0.1468E+00  0.2262E+01
     -3.494  0.2000E+00  0.2296E+01
     -3.324  0.2611E+00  0.2340E+01
     -3.154  0.2278E+00  0.2379E+01
     -2.984  0.2248E+00  0.2417E+01
     -2.814  0.2734E+00  0.2464E+01
     -2.644  0.2287E+00  0.2503E+01
     -2.474  0.1375E+00  0.2526E+01
     -2.304  0.1172E+00  0.2546E+01
     -2.134  0.5851E-01  0.2556E+01
     -1.964  0.2241E-01  0.2560E+01
     -1.795  0.1865E-02  0.2560E+01
     -1.625  0.9084E-05  0.2560E+01
     -1.455  0.2905E-09  0.2560E+01
     -1.285  0.3533E-16  0.2560E+01
     -1.115  0.0000E+00  0.2560E+01
     -0.945  0.0000E+00  0.2560E+01
     -0.775  0.0000E+00  0.2560E+01
     -0.605  0.0000E+00  0.2560E+01
     -0.435  0.0000E+00  0.2560E+01
     -0.265  0.1428E-11  0.2560E+01
     -0.095  0.3529E-06  0.2560E+01
      0.075  0.4013E-03  0.2560E+01
      0.245  0.6548E-02  0.2561E+01
      0.414  0.1346E-01  0.2563E+01
      0.584  0.5044E-01  0.2572E+01
      0.754  0.1153E+00  0.2592E+01
      0.924  0.6968E-01  0.2603E+01
      1.094  0.1587E+00  0.2630E+01
      1.264  0.1660E+00  0.2659E+01
      1.434  0.2217E+00  0.2696E+01
      1.604  0.2891E+00  0.2745E+01
      1.774  0.3130E+00  0.2799E+01
      1.944  0.2782E+00  0.2846E+01
      2.114  0.2963E+00  0.2896E+01
      2.284  0.3652E+00  0.2958E+01
      2.454  0.2941E+00  0.3008E+01
      2.624  0.3457E+00  0.3067E+01
      2.793  0.4238E+00  0.3139E+01
      2.963  0.4799E+00  0.3221E+01
      3.133  0.5775E+00  0.3319E+01
      3.303  0.6174E+00  0.3424E+01
      3.473  0.6585E+00  0.3536E+01
      3.643  0.6823E+00  0.3651E+01
      3.813  0.6454E+00  0.3761E+01
      3.983  0.6276E+00  0.3868E+01
      4.153  0.5965E+00  0.3969E+01
      4.323  0.5005E+00  0.4054E+01
      4.493  0.4309E+00  0.4127E+01
      4.663  0.3402E+00  0.4185E+01
      4.833  0.3045E+00  0.4237E+01
      5.003  0.3296E+00  0.4293E+01
      5.172  0.3092E+00  0.4346E+01
      5.342  0.2316E+00  0.4385E+01
      5.512  0.1816E+00  0.4416E+01
      5.682  0.1540E+00  0.4442E+01
      5.852  0.1389E+00  0.4465E+01
      6.022  0.6500E-01  0.4477E+01
      6.192  0.8105E-01  0.4490E+01
      6.362  0.1286E+00  0.4512E+01
      6.532  0.1896E+00  0.4544E+01
      6.702  0.2033E+00  0.4579E+01
      6.872  0.1713E+00  0.4608E+01
      7.042  0.2078E+00  0.4643E+01
      7.212  0.1859E+00  0.4675E+01
      7.382  0.2077E+00  0.4710E+01
      7.551  0.2339E+00  0.4750E+01
      7.721  0.2790E+00  0.4797E+01
      7.891  0.2879E+00  0.4846E+01
      8.061  0.2849E+00  0.4895E+01
      8.231  0.2681E+00  0.4940E+01
      8.401  0.2686E+00  0.4986E+01
      8.571  0.3303E+00  0.5042E+01
      8.741  0.3633E+00  0.5104E+01
      8.911  0.4184E+00  0.5175E+01
      9.081  0.4769E+00  0.5256E+01
      9.251  0.4742E+00  0.5337E+01
      9.421  0.5034E+00  0.5422E+01
      9.591  0.5268E+00  0.5512E+01
      9.761  0.5512E+00  0.5605E+01
      9.930  0.5458E+00  0.5698E+01
     10.100  0.5817E+00  0.5797E+01
     10.270  0.5752E+00  0.5895E+01
     10.440  0.5826E+00  0.5994E+01
     10.610  0.5190E+00  0.6082E+01
     10.780  0.3781E+00  0.6146E+01
     10.950  0.8035E-01  0.6160E+01
     11.120  0.1874E-02  0.6160E+01
     11.290  0.7824E-06  0.6160E+01
     11.460  0.1740E-11  0.6160E+01
     11.630  0.0000E+00  0.6160E+01
     11.800  0.0000E+00  0.6160E+01
     11.970  0.0000E+00  0.6160E+01
     12.140  0.0000E+00  0.6160E+01
     12.309  0.0000E+00  0.6160E+01
     12.479  0.0000E+00  0.6160E+01
     12.649  0.0000E+00  0.6160E+01
     12.819  0.0000E+00  0.6160E+01
     12.989  0.0000E+00  0.6160E+01
     13.159  0.0000E+00  0.6160E+01
