<?xml version="1.0" encoding="ISO-8859-1"?>
<modeling>
 <generator>
  <i name="program" type="string">vasp </i>
  <i name="version" type="string">6.4.3  </i>
  <i name="subversion" type="string">19Mar24 (build Sep 18 2024 11:30:23) complex                          parallel </i>
  <i name="platform" type="string">LinuxIFC </i>
  <i name="date" type="string">2026 07 08 </i>
  <i name="time" type="string">00:27:26 </i>
 </generator>
 <incar>
  <i type="string" name="SYSTEM">HECN</i>
  <i type="int" name="ISTART">     0</i>
  <i type="string" name="PREC">Normal</i>
  <i type="string" name="ALGO">Fast</i>
  <i type="int" name="ICHARG">     2</i>
  <i type="int" name="NELM">    60</i>
  <i type="int" name="IBRION">     2</i>
  <i name="EDIFF">      0.00001000</i>
  <i name="EDIFFG">     -0.01000000</i>
  <i type="int" name="NSW">   100</i>
  <i type="int" name="ISIF">     3</i>
  <i name="ENCUT">    400.00000000</i>
  <i name="POTIM">      0.50000000</i>
  <i type="logical" name="LREAL"> F  </i>
  <i type="int" name="ISMEAR">     0</i>
  <i name="SIGMA">      0.10000000</i>
  <i type="logical" name="LWAVE"> F  </i>
  <i type="logical" name="LCHARG"> F  </i>
 </incar>
 <primitive_cell>
  <structure name="primitive_cell" >
   <crystal>
    <varray name="basis" >
     <v>       8.93249989       0.00000000       0.00000000 </v>
     <v>       0.00575300       9.05559834       0.00000000 </v>
     <v>       0.03210180      -0.01574346       8.93712807 </v>
    </varray>
    <i name="volume">    722.91652451 </i>
    <varray name="rec_basis" >
     <v>       0.11195074      -0.00007112      -0.00040225 </v>
     <v>       0.00000000       0.11042893       0.00019453 </v>
     <v>       0.00000000       0.00000000       0.11189277 </v>
    </varray>
   </crystal>
   <varray name="positions" >
    <v>       0.99688001       0.99204997       0.99924002 </v>
    <v>       0.25398003       0.99714995       0.24912000 </v>
    <v>       0.24803003       0.50165000       0.24955001 </v>
    <v>       0.50501006       0.49745998       0.99834003 </v>
    <v>       0.50479003       0.24631001       0.74710002 </v>
    <v>       0.99427992       0.50449999       0.49779000 </v>
    <v>       0.49950005       0.75481999       0.74817004 </v>
    <v>       0.99437004       0.23617001       0.26379999 </v>
    <v>       0.75718000       0.74102998       0.01100000 </v>
    <v>       0.00201000       0.25541000       0.73894001 </v>
    <v>       0.75307001       0.26163001       0.50533002 </v>
    <v>       0.99514004       0.74492004       0.74511997 </v>
    <v>       0.25679999       0.49462002       0.74545002 </v>
    <v>       0.24788999       0.24839000       0.99657997 </v>
    <v>       0.50833000       0.25676999       0.25376001 </v>
    <v>       0.74879004       0.98787999       0.26967001 </v>
    <v>       0.75719000       0.25603001       0.99591997 </v>
    <v>       0.24762001       0.74973999       0.99974006 </v>
    <v>       0.25272001       0.24823001       0.50015003 </v>
    <v>       0.24457999       0.75048999       0.49983999 </v>
    <v>       0.24982001       0.24942998       0.24825000 </v>
    <v>       0.26146999       0.99984002       0.99295996 </v>
    <v>       0.00281000       0.25024000       0.00130000 </v>
    <v>       0.75313998       0.24617000       0.25492002 </v>
    <v>       0.74767001       0.99748000       0.01202000 </v>
    <v>       0.50714994       0.99977000       0.24673000 </v>
    <v>       0.99051999       0.48088002       0.24100998 </v>
    <v>       0.50519005       0.76130999       0.00855000 </v>
    <v>       0.98896989       0.00202000       0.73708999 </v>
    <v>       0.75744996       0.24437997       0.74896999 </v>
    <v>       0.73632001       0.00417000       0.51063000 </v>
    <v>       0.50563996       0.23264999       0.49544997 </v>
    <v>       0.50008998       0.00061000       0.73471998 </v>
    <v>       0.99720000       0.99771992       0.25899999 </v>
    <v>       0.50427997       0.24673000       0.00262000 </v>
    <v>       0.25133999       0.74958002       0.24910999 </v>
    <v>       0.24328000       0.50072997       0.99510994 </v>
    <v>       0.99837005       0.74313996       0.00460000 </v>
    <v>       0.75633000       0.73891003       0.25767000 </v>
    <v>       0.75839004       0.50315998       0.00288000 </v>
    <v>       0.50700002       0.50333002       0.25878999 </v>
    <v>       0.24900999       0.25315000       0.74854000 </v>
    <v>       0.24446000       0.99823996       0.50287998 </v>
    <v>       0.99804009       0.24229999       0.50128003 </v>
    <v>       0.24177002       0.75340997       0.75018002 </v>
    <v>       0.25841001       0.50062002       0.50129001 </v>
    <v>       0.99000004       0.76215003       0.49746000 </v>
    <v>       0.99203996       0.50055999       0.75138002 </v>
    <v>       0.75036005       0.74888000       0.74756004 </v>
    <v>       0.74036002       0.50197000       0.50067003 </v>
    <v>       0.50575006       0.74958002       0.49720000 </v>
    <v>       0.50501003       0.50217998       0.73912003 </v>
    <v>       0.51588997       0.01358000       0.98075008 </v>
    <v>       0.99841994       0.50976998       0.98613004 </v>
    <v>       0.50379003       0.73926997       0.25905001 </v>
    <v>       0.23780002       0.01082000       0.74607998 </v>
    <v>       0.47957999       0.98308000       0.49717999 </v>
    <v>       0.74279003       0.97869994       0.76450995 </v>
    <v>       0.99864998       0.77573999       0.26102000 </v>
    <v>       0.73551001       0.51468004       0.26666001 </v>
    <v>       0.02362000       0.99783001       0.49557002 </v>
    <v>       0.50539000       0.52833005       0.49917999 </v>
    <v>       0.73876003       0.52828003       0.73814999 </v>
    <v>       0.75400003       0.72937999       0.49116997 </v>
   </varray>
  </structure>
  <varray name="primitive_index" >
   <v type="int" >        1 </v>
   <v type="int" >        2 </v>
   <v type="int" >        3 </v>
   <v type="int" >        4 </v>
   <v type="int" >        5 </v>
   <v type="int" >        6 </v>
   <v type="int" >        7 </v>
   <v type="int" >        8 </v>
   <v type="int" >        9 </v>
   <v type="int" >       10 </v>
   <v type="int" >       11 </v>
   <v type="int" >       12 </v>
   <v type="int" >       13 </v>
   <v type="int" >       14 </v>
   <v type="int" >       15 </v>
   <v type="int" >       16 </v>
   <v type="int" >       17 </v>
   <v type="int" >       18 </v>
   <v type="int" >       19 </v>
   <v type="int" >       20 </v>
   <v type="int" >       21 </v>
   <v type="int" >       22 </v>
   <v type="int" >       23 </v>
   <v type="int" >       24 </v>
   <v type="int" >       25 </v>
   <v type="int" >       26 </v>
   <v type="int" >       27 </v>
   <v type="int" >       28 </v>
   <v type="int" >       29 </v>
   <v type="int" >       30 </v>
   <v type="int" >       31 </v>
   <v type="int" >       32 </v>
   <v type="int" >       33 </v>
   <v type="int" >       34 </v>
   <v type="int" >       35 </v>
   <v type="int" >       36 </v>
   <v type="int" >       37 </v>
   <v type="int" >       38 </v>
   <v type="int" >       39 </v>
   <v type="int" >       40 </v>
   <v type="int" >       41 </v>
   <v type="int" >       42 </v>
   <v type="int" >       43 </v>
   <v type="int" >       44 </v>
   <v type="int" >       45 </v>
   <v type="int" >       46 </v>
   <v type="int" >       47 </v>
   <v type="int" >       48 </v>
   <v type="int" >       49 </v>
   <v type="int" >       50 </v>
   <v type="int" >       51 </v>
   <v type="int" >       52 </v>
   <v type="int" >       53 </v>
   <v type="int" >       54 </v>
   <v type="int" >       55 </v>
   <v type="int" >       56 </v>
   <v type="int" >       57 </v>
   <v type="int" >       58 </v>
   <v type="int" >       59 </v>
   <v type="int" >       60 </v>
   <v type="int" >       61 </v>
   <v type="int" >       62 </v>
   <v type="int" >       63 </v>
   <v type="int" >       64 </v>
  </varray>
 </primitive_cell>
 <kpoints>
  <generation param="Gamma">
   <v type="int" name="divisions">       3        3        3 </v>
   <v name="usershift">      0.00000000       0.00000000       0.00000000 </v>
   <v name="genvec1">      0.33333333      -0.00000000      -0.00000000 </v>
   <v name="genvec2">      0.00000000       0.33333333      -0.00000000 </v>
   <v name="genvec3">      0.00000000       0.00000000       0.33333333 </v>
   <v name="shift">      0.00000000       0.00000000       0.00000000 </v>
  </generation>
  <varray name="kpointlist" >
   <v>       0.00000000       0.00000000       0.00000000 </v>
   <v>       0.33333333      -0.00000000      -0.00000000 </v>
   <v>       0.00000000       0.33333333      -0.00000000 </v>
   <v>       0.33333333       0.33333333      -0.00000000 </v>
   <v>      -0.33333333       0.33333333      -0.00000000 </v>
   <v>       0.00000000       0.00000000       0.33333333 </v>
   <v>       0.33333333      -0.00000000       0.33333333 </v>
   <v>      -0.33333333       0.00000000       0.33333333 </v>
   <v>       0.00000000       0.33333333       0.33333333 </v>
   <v>       0.33333333       0.33333333       0.33333333 </v>
   <v>      -0.33333333       0.33333333       0.33333333 </v>
   <v>       0.00000000      -0.33333333       0.33333333 </v>
   <v>       0.33333333      -0.33333333       0.33333333 </v>
   <v>      -0.33333333      -0.33333333       0.33333333 </v>
  </varray>
  <varray name="weights" >
   <v>       0.03703704 </v>
   <v>       0.07407407 </v>
   <v>       0.07407407 </v>
   <v>       0.07407407 </v>
   <v>       0.07407407 </v>
   <v>       0.07407407 </v>
   <v>       0.07407407 </v>
   <v>       0.07407407 </v>
   <v>       0.07407407 </v>
   <v>       0.07407407 </v>
   <v>       0.07407407 </v>
   <v>       0.07407407 </v>
   <v>       0.07407407 </v>
   <v>       0.07407407 </v>
  </varray>
 </kpoints>
 <parameters>
  <separator name="general" >
   <i type="string" name="SYSTEM">HECN</i>
   <i type="logical" name="LCOMPAT"> F  </i>
  </separator>
  <separator name="electronic" >
   <i type="string" name="PREC">normal</i>
   <i name="ENMAX">    400.00000000</i>
   <i name="ENAUG">    644.87300000</i>
   <i name="EDIFF">      0.00001000</i>
   <i type="int" name="IALGO">    68</i>
   <i type="int" name="IWAVPR">    11</i>
   <i type="int" name="NBANDS">   308</i>
   <i type="int" name="NBANDSLOW">    -1</i>
   <i type="int" name="NBANDSHIGH">    -1</i>
   <i name="NELECT">    498.00000000</i>
   <i type="int" name="TURBO">     0</i>
   <i type="int" name="IRESTART">     0</i>
   <i type="int" name="NREBOOT">     0</i>
   <i type="int" name="NMIN">     0</i>
   <i name="EREF">      0.00000000</i>
   <separator name="electronic smearing" >
    <i type="int" name="ISMEAR">     0</i>
    <i name="SIGMA">      0.10000000</i>
    <i name="KSPACING">      0.50000000</i>
    <i type="logical" name="KGAMMA"> T  </i>
    <i type="logical" name="KBLOWUP"> T  </i>
   </separator>
   <separator name="electronic projectors" >
    <i type="logical" name="LREAL"> F  </i>
    <v name="ROPT">      0.00000000      0.00000000      0.00000000      0.00000000      0.00000000      0.00000000      0.00000000</v>
    <i type="int" name="LMAXPAW">  -100</i>
    <i type="int" name="LMAXMIX">     2</i>
    <i type="logical" name="NLSPLINE"> F  </i>
   </separator>
   <separator name="electronic startup" >
    <i type="int" name="ISTART">     0</i>
    <i type="int" name="ICHARG">     2</i>
    <i type="int" name="INIWAV">     1</i>
   </separator>
   <separator name="electronic spin" >
    <i type="int" name="ISPIN">     1</i>
    <i type="logical" name="LNONCOLLINEAR"> F  </i>
    <v name="MAGMOM">      1.00000000      1.00000000      1.00000000      1.00000000      1.00000000      1.00000000      1.00000000      1.00000000      1.00000000      1.00000000      1.00000000      1.00000000      1.00000000      1.00000000      1.00000000      1.00000000      1.00000000      1.00000000      1.00000000      1.00000000
      1.00000000      1.00000000      1.00000000      1.00000000      1.00000000      1.00000000      1.00000000      1.00000000      1.00000000      1.00000000      1.00000000      1.00000000      1.00000000      1.00000000      1.00000000      1.00000000      1.00000000      1.00000000      1.00000000      1.00000000
      1.00000000      1.00000000      1.00000000      1.00000000      1.00000000      1.00000000      1.00000000      1.00000000      1.00000000      1.00000000      1.00000000      1.00000000      1.00000000      1.00000000      1.00000000      1.00000000      1.00000000      1.00000000      1.00000000      1.00000000
      1.00000000      1.00000000      1.00000000      1.00000000</v>
    <i name="NUPDOWN">     -1.00000000</i>
    <i type="logical" name="LSORBIT"> F  </i>
    <v name="SAXIS">      0.00000000      0.00000000      1.00000000</v>
    <i type="logical" name="LSPIRAL"> F  </i>
    <v name="QSPIRAL">      0.00000000      0.00000000      0.00000000</v>
    <i type="logical" name="LZEROZ"> F  </i>
   </separator>
   <separator name="electronic exchange-correlation" >
    <i type="logical" name="LASPH"> F  </i>
   </separator>
   <separator name="electronic convergence" >
    <i type="int" name="NELM">    60</i>
    <i type="int" name="NELMDL">    -5</i>
    <i type="int" name="NELMIN">     2</i>
    <i name="ENINI">    400.00000000</i>
    <separator name="electronic convergence detail" >
     <i type="logical" name="LDIAG"> T  </i>
     <i type="logical" name="LSUBROT"> F  </i>
     <i name="WEIMIN">      0.00100000</i>
     <i name="EBREAK">      0.00000001</i>
     <i name="DEPER">      0.30000000</i>
     <i type="int" name="NRMM">     4</i>
     <i name="TIME">      0.40000000</i>
    </separator>
   </separator>
   <separator name="electronic mixer" >
    <i name="AMIX">      0.40000000</i>
    <i name="BMIX">      1.00000000</i>
    <i name="AMIN">      0.10000000</i>
    <i name="AMIX_MAG">      1.60000000</i>
    <i name="BMIX_MAG">      1.00000000</i>
    <separator name="electronic mixer details" >
     <i type="int" name="IMIX">     4</i>
     <i type="logical" name="MIXFIRST"> F  </i>
     <i type="int" name="MAXMIX">   -45</i>
     <i name="WC">    100.00000000</i>
     <i type="int" name="INIMIX">     1</i>
     <i type="int" name="MIXPRE">     1</i>
     <i type="int" name="MREMOVE">     5</i>
    </separator>
   </separator>
   <separator name="electronic dipolcorrection" >
    <i type="logical" name="LDIPOL"> F  </i>
    <i type="logical" name="LMONO"> F  </i>
    <i type="int" name="IDIPOL">     0</i>
    <i name="EPSILON">      1.00000000</i>
    <v name="DIPOL">   -100.00000000   -100.00000000   -100.00000000</v>
    <i name="EFIELD">      0.00000000</i>
    <i type="logical" name="LVACPOTAV"> F  </i>
   </separator>
  </separator>
  <separator name="grids" >
   <i type="int" name="NGX">    48</i>
   <i type="int" name="NGY">    48</i>
   <i type="int" name="NGZ">    48</i>
   <i type="int" name="NGXF">    96</i>
   <i type="int" name="NGYF">    96</i>
   <i type="int" name="NGZF">    96</i>
   <i type="logical" name="ADDGRID"> F  </i>
  </separator>
  <separator name="ionic" >
   <i type="int" name="NSW">   100</i>
   <i type="int" name="IBRION">     2</i>
   <i type="int" name="MDALGO">     0</i>
   <i type="int" name="ISIF">     3</i>
   <i name="PSTRESS">      0.00000000</i>
   <i name="EDIFFG">     -0.01000000</i>
   <i type="int" name="NFREE">     1</i>
   <i name="POTIM">      0.50000000</i>
   <i name="SMASS">     -3.00000000</i>
   <i name="SCALEE">      1.00000000</i>
  </separator>
  <separator name="ionic md" >
   <i name="TEBEG">      0.00010000</i>
   <i name="TEEND">      0.00010000</i>
   <i type="int" name="NBLOCK">     1</i>
   <i type="int" name="KBLOCK">   100</i>
   <i type="int" name="NPACO">   256</i>
   <i name="APACO">     10.00000000</i>
  </separator>
  <separator name="symmetry" >
   <i type="int" name="ISYM">     2</i>
   <i name="SYMPREC">      0.00001000</i>
  </separator>
  <separator name="dos" >
   <i type="int" name="LORBIT">     0</i>
   <v name="RWIGS">     -1.00000000     -1.00000000     -1.00000000     -1.00000000     -1.00000000     -1.00000000     -1.00000000</v>
   <i type="int" name="NEDOS">   301</i>
   <i name="EMIN">     10.00000000</i>
   <i name="EMAX">    -10.00000000</i>
   <i name="EFERMI">      0.00000000</i>
  </separator>
  <separator name="writing" >
   <i type="int" name="NWRITE">     2</i>
   <i type="logical" name="LWAVE"> F  </i>
   <i type="logical" name="LDOWNSAMPLE"> F  </i>
   <i type="logical" name="LCHARG"> F  </i>
   <i type="logical" name="LPARD"> F  </i>
   <i type="logical" name="LVTOT"> F  </i>
   <i type="logical" name="LVHAR"> F  </i>
   <i type="logical" name="LELF"> F  </i>
   <i type="logical" name="LOPTICS"> F  </i>
   <v name="STM">      0.00000000      0.00000000      0.00000000      0.00000000      0.00000000      0.00000000      0.00000000</v>
  </separator>
  <separator name="performance" >
   <i type="int" name="NPAR">    28</i>
   <i type="int" name="NSIM">     4</i>
   <i type="int" name="NBLK">    -1</i>
   <i type="logical" name="LPLANE"> T  </i>
   <i type="logical" name="LSCALAPACK"> T  </i>
   <i type="logical" name="LSCAAWARE"> F  </i>
   <i type="logical" name="LSCALU"> F  </i>
   <i type="logical" name="LASYNC"> F  </i>
   <i type="logical" name="LORBITALREAL"> F  </i>
  </separator>
  <separator name="miscellaneous" >
   <i type="int" name="IDIOT">     3</i>
   <i type="int" name="PHON_NSTRUCT">    -1</i>
   <i type="logical" name="LMUSIC"> F  </i>
   <v name="POMASS">     92.00000000    180.94800000     47.88000000     14.00100000     12.01100000     51.99600000     95.94000000</v>
   <v name="DARWINR">      0.00000000      0.00000000      0.00000000      0.00000000      0.00000000      0.00000000      0.00000000</v>
   <v name="DARWINV">      1.00000000      1.00000000      1.00000000      1.00000000      1.00000000      1.00000000      1.00000000</v>
   <i type="logical" name="LCORR"> T  </i>
  </separator>
  <i type="logical" name="GGA_COMPAT"> T  </i>
  <i type="logical" name="LBERRY"> F  </i>
  <i type="int" name="ICORELEVEL">     0</i>
  <i type="logical" name="LDAU"> F  </i>
  <i type="int" name="I_CONSTRAINED_M">     0</i>
  <separator name="electronic exchange-correlation" >
   <i type="string" name="GGA    ">PE</i>
   <i type="string" name="XC_C">1</i>
   <i type="int" name="VOSKOWN">     0</i>
   <i type="logical" name="LHFCALC"> F  </i>
   <i type="string" name="PRECFOCK"></i>
   <i type="logical" name="LSYMGRAD"> F  </i>
   <i type="logical" name="LHFONE"> F  </i>
   <i type="logical" name="LRHFCALC"> F  </i>
   <i type="logical" name="LTHOMAS"> F  </i>
   <i type="logical" name="LMODELHF"> F  </i>
   <i type="logical" name="LFOCKACE"> F  </i>
   <i name="ENCUT4O">     -1.00000000</i>
   <i type="int" name="EXXOEP">     0</i>
   <i type="int" name="FOURORBIT">     0</i>
   <i name="AEXX">      0.00000000</i>
   <i name="HFALPHA">      0.00000000</i>
   <i name="MCALPHA">      0.00000000</i>
   <i name="ALDAX">      1.00000000</i>
   <i name="AGGAX">      1.00000000</i>
   <i name="AMGGAX">      1.00000000</i>
   <i name="ALDAC">      1.00000000</i>
   <i name="AGGAC">      1.00000000</i>
   <i name="AMGGAC">      1.00000000</i>
   <i type="int" name="NKREDX">     1</i>
   <i type="int" name="NKREDY">     1</i>
   <i type="int" name="NKREDZ">     1</i>
   <i type="logical" name="SHIFTRED"> F  </i>
   <i type="logical" name="ODDONLY"> F  </i>
   <i type="logical" name="EVENONLY"> F  </i>
   <i type="int" name="LMAXFOCK">     0</i>
   <i type="int" name="NMAXFOCKAE">     0</i>
   <i type="logical" name="LFOCKAEDFT"> F  </i>
   <i name="HFSCREEN">      0.00000000</i>
   <i name="HFSCREENC">      0.00000000</i>
   <i type="int" name="NBANDSGWLOW">     0</i>
  </separator>
  <separator name="vdW DFT" >
   <i type="logical" name="LUSE_VDW"> F  </i>
   <i type="int" name="IVDW_NL">    -1</i>
   <i type="logical" name="LSPIN_VDW"> F  </i>
   <i name="ZAB_VDW">     -0.84910000</i>
   <i name="GAMMA_VDW">      1.39626340</i>
   <i name="ALPHA_VDW">      0.00000000</i>
   <i name="PARAM1">      0.12340000</i>
   <i name="PARAM2">      1.00000000</i>
   <i name="BPARAM">      6.30000000</i>
   <i name="CPARAM">      0.00930000</i>
  </separator>
  <separator name="model GW" >
   <i type="int" name="MODEL_GW">     0</i>
   <i name="MODEL_EPS0">      6.77734242</i>
   <i name="MODEL_ALPHA">      1.00000000</i>
  </separator>
  <separator name="linear response parameters" >
   <i type="logical" name="LEPSILON"> F  </i>
   <i type="logical" name="LRPA"> F  </i>
   <i type="logical" name="LNABLA"> F  </i>
   <i type="logical" name="LVEL"> F  </i>
   <i name="CSHIFT">      0.10000000</i>
   <i name="OMEGAMAX">     -1.00000000</i>
   <i name="DEG_THRESHOLD">      0.00200000</i>
   <i name="RTIME">     -0.10000000</i>
   <i name="WPLASMAI">      0.00000000</i>
   <v name="DFIELD">      0.00000000      0.00000000      0.00000000</v>
   <v name="WPLASMA">      0.00000000      0.00000000      0.00000000      0.00000000      0.00000000      0.00000000      0.00000000      0.00000000      0.00000000</v>
  </separator>
  <separator name="orbital magnetization" >
   <i type="logical" name="NUCIND"> F  </i>
   <v name="MAGPOS">      0.00000000      0.00000000      0.00000000</v>
   <i type="logical" name="LNICSALL"> T  </i>
   <i type="logical" name="ORBITALMAG"> F  </i>
   <i type="logical" name="LMAGBLOCH"> F  </i>
   <i type="logical" name="LCHIMAG"> F  </i>
   <i type="logical" name="LGAUGE"> T  </i>
   <i type="int" name="MAGATOM">     0</i>
   <v name="MAGDIPOL">      0.00000000      0.00000000      0.00000000</v>
   <v name="AVECCONST">      0.00000000      0.00000000      0.00000000</v>
  </separator>
  <separator name="response functions" >
   <i type="logical" name="LALL_IN_ONE"> F  </i>
   <i type="int" name="IALL_IN_ONE">    -1</i>
   <i type="int" name="NBANDS_WAVE">    -1</i>
   <i type="logical" name="LFINITE_TEMPERATURE"> F  </i>
   <i type="logical" name="LADDER"> F  </i>
   <i type="logical" name="LRPAFORCE"> F  </i>
   <i type="logical" name="LFXC"> F  </i>
   <i type="logical" name="LHARTREE"> T  </i>
   <i type="int" name="IBSE">     0</i>
   <v type="int" name="KPOINT">    -1     0     0     0</v>
   <i type="logical" name="LTCTC"> F  </i>
   <i type="logical" name="LTCTE"> F  </i>
   <i type="logical" name="LTETE"> F  </i>
   <i type="logical" name="LTRIPLET"> F  </i>
   <i type="logical" name="LFXCEPS"> F  </i>
   <i type="logical" name="LFXHEG"> F  </i>
   <i type="int" name="NATURALO">     2</i>
   <i type="logical" name="LHOLEGF"> F  </i>
   <i type="logical" name="L2ORDER"> F  </i>
   <i type="logical" name="LDMP1"> F  </i>
   <i type="logical" name="LMP2LT"> F  </i>
   <i type="logical" name="LSMP2LT"> F  </i>
   <i type="logical" name="LGWLF"> F  </i>
   <i name="ENCUTGW">     -1.60000002</i>
   <i name="ENCUTGWSOFT">     -1.60000002</i>
   <i name="ENCUTLF">     -1.00000000</i>
   <i type="logical" name="ESF_SPLINES"> F  </i>
   <i name="ESF_CONV">      0.01000000</i>
   <i type="int" name="ESF_NINTER">    15</i>
   <i type="int" name="LMAXMP2">    -1</i>
   <i name="SCISSOR">      0.00000000</i>
   <i type="int" name="NOMEGA">     0</i>
   <i type="int" name="NOMEGAR">     0</i>
   <i type="int" name="NBANDSGW">    -1</i>
   <i type="int" name="NBANDSO">    -1</i>
   <i type="int" name="NBANDSV">    -1</i>
   <i type="int" name="NELMGW">     1</i>
   <i type="int" name="NELMHF">     1</i>
   <i type="int" name="DIM">     3</i>
   <i type="int" name="IESPILON">     4</i>
   <i type="int" name="ANTIRES">     0</i>
   <i name="OMEGAMAX">    -30.00000000</i>
   <i name="OMEGAMIN">    -30.00000000</i>
   <i name="OMEGATL">   -200.00000000</i>
   <i type="int" name="OMEGAGRID">     0</i>
   <i name="CSHIFT">     -0.10000000</i>
   <i type="logical" name="LSELFENERGY"> F  </i>
   <i type="logical" name="LSPECTRAL"> F  </i>
   <i type="logical" name="LSPECTRALGW"> F  </i>
   <i type="logical" name="LSINGLES"> F  </i>
   <i type="logical" name="LFERMIGW"> F  </i>
   <i type="logical" name="ODDONLYGW"> F  </i>
   <i type="logical" name="EVENONLYGW"> F  </i>
   <i type="int" name="NKREDLFX">     1</i>
   <i type="int" name="NKREDLFY">     1</i>
   <i type="int" name="NKREDLFZ">     1</i>
   <i type="int" name="MAXMEM">  2800</i>
   <i type="int" name="TELESCOPE">     0</i>
   <i type="int" name="NTAUPAR">    -1</i>
   <i type="int" name="NOMEGAPAR">    -1</i>
   <i name="DAMP_NEWTON">      0.80000001</i>
   <i name="LAMBDA">      1.00000000</i>
  </separator>
  <separator name="External order field" >
   <i name="OFIELD_KAPPA">      0.00000000</i>
   <v name="OFIELD_K">      0.00000000      0.00000000      0.00000000</v>
   <i name="OFIELD_Q6_NEAR">      0.00000000</i>
   <i name="OFIELD_Q6_FAR">      0.00000000</i>
   <i name="OFIELD_A">      0.00000000</i>
  </separator>
  <separator name="optional k-points parameters" >
   <i type="int" name="KPOINTS_OPT_MODE">     1</i>
   <i type="logical" name="LKPOINTS_OPT"> F  </i>
  </separator>
  <separator name="solvation model" >
   <i type="logical" name="LSOL"> F  </i>
  </separator>
 </parameters>
 <atominfo>
  <atoms>      64 </atoms>
  <types>       7 </types>
  <array name="atoms" >
   <dimension dim="1">ion</dimension>
   <field type="string">element</field>
   <field type="int">atomtype</field>
   <set>
    <rc><c>Nb</c><c>   1</c></rc>
    <rc><c>Nb</c><c>   1</c></rc>
    <rc><c>Nb</c><c>   1</c></rc>
    <rc><c>Nb</c><c>   1</c></rc>
    <rc><c>Nb</c><c>   1</c></rc>
    <rc><c>Nb</c><c>   1</c></rc>
    <rc><c>Nb</c><c>   1</c></rc>
    <rc><c>Ta</c><c>   2</c></rc>
    <rc><c>Ta</c><c>   2</c></rc>
    <rc><c>Ta</c><c>   2</c></rc>
    <rc><c>Ta</c><c>   2</c></rc>
    <rc><c>Ta</c><c>   2</c></rc>
    <rc><c>Ta</c><c>   2</c></rc>
    <rc><c>Ti</c><c>   3</c></rc>
    <rc><c>Ti</c><c>   3</c></rc>
    <rc><c>Ti</c><c>   3</c></rc>
    <rc><c>Ti</c><c>   3</c></rc>
    <rc><c>Ti</c><c>   3</c></rc>
    <rc><c>Ti</c><c>   3</c></rc>
    <rc><c>Ti</c><c>   3</c></rc>
    <rc><c>N </c><c>   4</c></rc>
    <rc><c>N </c><c>   4</c></rc>
    <rc><c>N </c><c>   4</c></rc>
    <rc><c>N </c><c>   4</c></rc>
    <rc><c>N </c><c>   4</c></rc>
    <rc><c>N </c><c>   4</c></rc>
    <rc><c>N </c><c>   4</c></rc>
    <rc><c>N </c><c>   4</c></rc>
    <rc><c>N </c><c>   4</c></rc>
    <rc><c>N </c><c>   4</c></rc>
    <rc><c>N </c><c>   4</c></rc>
    <rc><c>N </c><c>   4</c></rc>
    <rc><c>N </c><c>   4</c></rc>
    <rc><c>C </c><c>   5</c></rc>
    <rc><c>C </c><c>   5</c></rc>
    <rc><c>C </c><c>   5</c></rc>
    <rc><c>C </c><c>   5</c></rc>
    <rc><c>C </c><c>   5</c></rc>
    <rc><c>C </c><c>   5</c></rc>
    <rc><c>C </c><c>   5</c></rc>
    <rc><c>C </c><c>   5</c></rc>
    <rc><c>C </c><c>   5</c></rc>
    <rc><c>C </c><c>   5</c></rc>
    <rc><c>C </c><c>   5</c></rc>
    <rc><c>C </c><c>   5</c></rc>
    <rc><c>C </c><c>   5</c></rc>
    <rc><c>C </c><c>   5</c></rc>
    <rc><c>C </c><c>   5</c></rc>
    <rc><c>C </c><c>   5</c></rc>
    <rc><c>C </c><c>   5</c></rc>
    <rc><c>C </c><c>   5</c></rc>
    <rc><c>C </c><c>   5</c></rc>
    <rc><c>Cr</c><c>   6</c></rc>
    <rc><c>Cr</c><c>   6</c></rc>
    <rc><c>Cr</c><c>   6</c></rc>
    <rc><c>Cr</c><c>   6</c></rc>
    <rc><c>Cr</c><c>   6</c></rc>
    <rc><c>Cr</c><c>   6</c></rc>
    <rc><c>Mo</c><c>   7</c></rc>
    <rc><c>Mo</c><c>   7</c></rc>
    <rc><c>Mo</c><c>   7</c></rc>
    <rc><c>Mo</c><c>   7</c></rc>
    <rc><c>Mo</c><c>   7</c></rc>
    <rc><c>Mo</c><c>   7</c></rc>
   </set>
  </array>
  <array name="atomtypes" >
   <dimension dim="1">type</dimension>
   <field type="int">atomspertype</field>
   <field type="string">element</field>
   <field>mass</field>
   <field>valence</field>
   <field type="string">pseudopotential</field>
   <set>
    <rc><c>   7</c><c>Nb</c><c>     92.00000000</c><c>     11.00000000</c><c> PAW_PBE Nb_pv 08Apr2002                </c></rc>
    <rc><c>   6</c><c>Ta</c><c>    180.94800000</c><c>     11.00000000</c><c> PAW_PBE Ta_pv 07Sep2000                </c></rc>
    <rc><c>   7</c><c>Ti</c><c>     47.88000000</c><c>     10.00000000</c><c> PAW_PBE Ti_pv 07Sep2000                </c></rc>
    <rc><c>  13</c><c>N </c><c>     14.00100000</c><c>      5.00000000</c><c> PAW_PBE N 08Apr2002                    </c></rc>
    <rc><c>  19</c><c>C </c><c>     12.01100000</c><c>      4.00000000</c><c> PAW_PBE C 08Apr2002                    </c></rc>
    <rc><c>   6</c><c>Cr</c><c>     51.99600000</c><c>     12.00000000</c><c> PAW_PBE Cr_pv 07Sep2000                </c></rc>
    <rc><c>   6</c><c>Mo</c><c>     95.94000000</c><c>     12.00000000</c><c> PAW_PBE Mo_pv 08Apr2002                </c></rc>
   </set>
  </array>
 </atominfo>
 <structure name="initialpos" >
  <crystal>
   <varray name="basis" >
    <v>       8.93249989       0.00000000       0.00000000 </v>
    <v>       0.00575300       9.05559834       0.00000000 </v>
    <v>       0.03210180      -0.01574346       8.93712807 </v>
   </varray>
   <i name="volume">    722.91652451 </i>
   <varray name="rec_basis" >
    <v>       0.11195074      -0.00007112      -0.00040225 </v>
    <v>       0.00000000       0.11042893       0.00019453 </v>
    <v>       0.00000000       0.00000000       0.11189277 </v>
   </varray>
  </crystal>
  <varray name="positions" >
   <v>       0.99688001       0.99204997       0.99924002 </v>
   <v>       0.25398003       0.99714995       0.24912000 </v>
   <v>       0.24803003       0.50165000       0.24955001 </v>
   <v>       0.50501006       0.49745998       0.99834003 </v>
   <v>       0.50479003       0.24631001       0.74710002 </v>
   <v>       0.99427992       0.50449999       0.49779000 </v>
   <v>       0.49950005       0.75481999       0.74817004 </v>
   <v>       0.99437004       0.23617001       0.26379999 </v>
   <v>       0.75718000       0.74102998       0.01100000 </v>
   <v>       0.00201000       0.25541000       0.73894001 </v>
   <v>       0.75307001       0.26163001       0.50533002 </v>
   <v>       0.99514004       0.74492004       0.74511997 </v>
   <v>       0.25679999       0.49462002       0.74545002 </v>
   <v>       0.24788999       0.24839000       0.99657997 </v>
   <v>       0.50833000       0.25676999       0.25376001 </v>
   <v>       0.74879004       0.98787999       0.26967001 </v>
   <v>       0.75719000       0.25603001       0.99591997 </v>
   <v>       0.24762001       0.74973999       0.99974006 </v>
   <v>       0.25272001       0.24823001       0.50015003 </v>
   <v>       0.24457999       0.75048999       0.49983999 </v>
   <v>       0.24982001       0.24942998       0.24825000 </v>
   <v>       0.26146999       0.99984002       0.99295996 </v>
   <v>       0.00281000       0.25024000       0.00130000 </v>
   <v>       0.75313998       0.24617000       0.25492002 </v>
   <v>       0.74767001       0.99748000       0.01202000 </v>
   <v>       0.50714994       0.99977000       0.24673000 </v>
   <v>       0.99051999       0.48088002       0.24100998 </v>
   <v>       0.50519005       0.76130999       0.00855000 </v>
   <v>       0.98896989       0.00202000       0.73708999 </v>
   <v>       0.75744996       0.24437997       0.74896999 </v>
   <v>       0.73632001       0.00417000       0.51063000 </v>
   <v>       0.50563996       0.23264999       0.49544997 </v>
   <v>       0.50008998       0.00061000       0.73471998 </v>
   <v>       0.99720000       0.99771992       0.25899999 </v>
   <v>       0.50427997       0.24673000       0.00262000 </v>
   <v>       0.25133999       0.74958002       0.24910999 </v>
   <v>       0.24328000       0.50072997       0.99510994 </v>
   <v>       0.99837005       0.74313996       0.00460000 </v>
   <v>       0.75633000       0.73891003       0.25767000 </v>
   <v>       0.75839004       0.50315998       0.00288000 </v>
   <v>       0.50700002       0.50333002       0.25878999 </v>
   <v>       0.24900999       0.25315000       0.74854000 </v>
   <v>       0.24446000       0.99823996       0.50287998 </v>
   <v>       0.99804009       0.24229999       0.50128003 </v>
   <v>       0.24177002       0.75340997       0.75018002 </v>
   <v>       0.25841001       0.50062002       0.50129001 </v>
   <v>       0.99000004       0.76215003       0.49746000 </v>
   <v>       0.99203996       0.50055999       0.75138002 </v>
   <v>       0.75036005       0.74888000       0.74756004 </v>
   <v>       0.74036002       0.50197000       0.50067003 </v>
   <v>       0.50575006       0.74958002       0.49720000 </v>
   <v>       0.50501003       0.50217998       0.73912003 </v>
   <v>       0.51588997       0.01358000       0.98075008 </v>
   <v>       0.99841994       0.50976998       0.98613004 </v>
   <v>       0.50379003       0.73926997       0.25905001 </v>
   <v>       0.23780002       0.01082000       0.74607998 </v>
   <v>       0.47957999       0.98308000       0.49717999 </v>
   <v>       0.74279003       0.97869994       0.76450995 </v>
   <v>       0.99864998       0.77573999       0.26102000 </v>
   <v>       0.73551001       0.51468004       0.26666001 </v>
   <v>       0.02362000       0.99783001       0.49557002 </v>
   <v>       0.50539000       0.52833005       0.49917999 </v>
   <v>       0.73876003       0.52828003       0.73814999 </v>
   <v>       0.75400003       0.72937999       0.49116997 </v>
  </varray>
 </structure>
 <calculation>
  <scstep>
   <time name="dav">   20.34   20.48</time>
   <time name="total">   20.37   20.55</time>
   <energy>
    <i name="alphaZ">   4090.40291099 </i>
    <i name="ewald"> -39181.90268951 </i>
    <i name="hartreedc">  -7425.07421725 </i>
    <i name="XCdc">   1653.92069194 </i>
    <i name="pawpsdc">  28447.63442542 </i>
    <i name="pawaedc"> -28443.09592896 </i>
    <i name="eentropy">     -0.07806349 </i>
    <i name="bandstr">   2457.50419918 </i>
    <i name="atom">  44699.74253751 </i>
    <i name="e_fr_energy">   6299.05386583 </i>
    <i name="e_wo_entrp">   6299.13192932 </i>
    <i name="e_0_energy">   6299.09289758 </i>
   </energy>
  </scstep>
  <scstep>
   <time name="dav">   20.42   20.91</time>
   <time name="total">   20.42   20.91</time>
   <energy>
    <i name="e_fr_energy">    306.96699677 </i>
    <i name="e_wo_entrp">    307.12492692 </i>
    <i name="e_0_energy">    307.04596185 </i>
   </energy>
  </scstep>
  <scstep>
   <time name="dav">   28.80   28.95</time>
   <time name="total">   28.80   28.96</time>
   <energy>
    <i name="e_fr_energy">   -657.86715148 </i>
    <i name="e_wo_entrp">   -657.73098848 </i>
    <i name="e_0_energy">   -657.79906998 </i>
   </energy>
  </scstep>
  <scstep>
   <time name="dav">   31.02   31.32</time>
   <time name="total">   31.02   31.32</time>
   <energy>
    <i name="e_fr_energy">   -771.80470083 </i>
    <i name="e_wo_entrp">   -771.68538871 </i>
    <i name="e_0_energy">   -771.74504477 </i>
   </energy>
  </scstep>
  <scstep>
   <time name="dav">   31.46   31.63</time>
   <time name="total">   31.65   31.82</time>
   <energy>
    <i name="e_fr_energy">   -782.18631670 </i>
    <i name="e_wo_entrp">   -782.06255257 </i>
    <i name="e_0_energy">   -782.12443464 </i>
   </energy>
  </scstep>
  <scstep>
   <time name="diag">    1.35    1.36</time>
   <time name="diis">   18.13   18.28</time>
   <time name="orth">    0.39    0.40</time>
   <time name="total">   20.11   20.27</time>
   <energy>
    <i name="e_fr_energy">   -832.41005534 </i>
    <i name="e_wo_entrp">   -832.27876543 </i>
    <i name="e_0_energy">   -832.34441039 </i>
   </energy>
  </scstep>
  <scstep>
   <time name="diag">    1.39    1.39</time>
   <time name="diis">   18.23   18.36</time>
   <time name="orth">    0.34    0.34</time>
   <time name="total">   20.20   20.34</time>
   <energy>
    <i name="e_fr_energy">   -627.26216855 </i>
    <i name="e_wo_entrp">   -627.09506880 </i>
    <i name="e_0_energy">   -627.17861867 </i>
   </energy>
  </scstep>
  <scstep>
   <time name="diag">    1.35    1.36</time>
   <time name="diis">   19.30   19.52</time>
   <time name="orth">    0.35    0.36</time>
   <time name="total">   21.22   21.45</time>
   <energy>
    <i name="e_fr_energy">   -651.50088214 </i>
    <i name="e_wo_entrp">   -651.37077216 </i>
    <i name="e_0_energy">   -651.43582715 </i>
   </energy>
  </scstep>
  <scstep>
   <time name="diag">    1.34    1.34</time>
   <time name="diis">   18.87   19.12</time>
   <time name="orth">    0.35    0.35</time>
   <time name="total">   20.77   21.02</time>
   <energy>
    <i name="e_fr_energy">   -634.57846783 </i>
    <i name="e_wo_entrp">   -634.36330570 </i>
    <i name="e_0_energy">   -634.47088676 </i>
   </energy>
  </scstep>
  <scstep>
   <time name="diag">    1.35    1.36</time>
   <time name="diis">   20.13   20.24</time>
   <time name="orth">    0.35    0.35</time>
   <time name="total">   22.03   22.14</time>
   <energy>
    <i name="e_fr_energy">   -635.28652762 </i>
    <i name="e_wo_entrp">   -635.06684910 </i>
    <i name="e_0_energy">   -635.17668836 </i>
   </energy>
  </scstep>
  <scstep>
   <time name="diag">    1.39    1.40</time>
   <time name="diis">   17.76   17.87</time>
   <time name="orth">    0.36    0.37</time>
   <time name="total">   19.74   19.85</time>
   <energy>
    <i name="e_fr_energy">   -633.45465199 </i>
    <i name="e_wo_entrp">   -633.23712288 </i>
    <i name="e_0_energy">   -633.34588744 </i>
   </energy>
  </scstep>
  <scstep>
   <time name="diag">    1.34    1.38</time>
   <time name="diis">   19.00   19.23</time>
   <time name="orth">    0.35    0.35</time>
   <time name="total">   20.88   21.16</time>
   <energy>
    <i name="e_fr_energy">   -633.04387002 </i>
    <i name="e_wo_entrp">   -632.85536363 </i>
    <i name="e_0_energy">   -632.94961682 </i>
   </energy>
  </scstep>
  <scstep>
   <time name="diag">    1.38    1.38</time>
   <time name="diis">   19.72   19.99</time>
   <time name="orth">    0.34    0.35</time>
   <time name="total">   21.65   21.92</time>
   <energy>
    <i name="e_fr_energy">   -632.67263944 </i>
    <i name="e_wo_entrp">   -632.47860780 </i>
    <i name="e_0_energy">   -632.57562362 </i>
   </energy>
  </scstep>
  <scstep>
   <time name="diag">    1.44    1.45</time>
   <time name="diis">   19.87   20.05</time>
   <time name="orth">    0.36    0.36</time>
   <time name="total">   21.87   22.07</time>
   <energy>
    <i name="e_fr_energy">   -632.80532928 </i>
    <i name="e_wo_entrp">   -632.59086154 </i>
    <i name="e_0_energy">   -632.69809541 </i>
   </energy>
  </scstep>
  <scstep>
   <time name="diag">    1.39    1.40</time>
   <time name="diis">   17.20   17.43</time>
   <time name="orth">    0.39    0.40</time>
   <time name="total">   19.22   19.46</time>
   <energy>
    <i name="e_fr_energy">   -632.03685679 </i>
    <i name="e_wo_entrp">   -631.81546258 </i>
    <i name="e_0_energy">   -631.92615969 </i>
   </energy>
  </scstep>
  <scstep>
   <time name="diag">    1.35    1.35</time>
   <time name="diis">   18.92   19.21</time>
   <time name="orth">    0.38    0.38</time>
   <time name="total">   20.85   21.15</time>
   <energy>
    <i name="e_fr_energy">   -631.99522598 </i>
    <i name="e_wo_entrp">   -631.77220285 </i>
    <i name="e_0_energy">   -631.88371441 </i>
   </energy>
  </scstep>
  <scstep>
   <time name="diag">    1.35    1.36</time>
   <time name="diis">   19.44   19.65</time>
   <time name="orth">    0.36    0.36</time>
   <time name="total">   21.35   21.57</time>
   <energy>
    <i name="e_fr_energy">   -631.79598326 </i>
    <i name="e_wo_entrp">   -631.56772741 </i>
    <i name="e_0_energy">   -631.68185534 </i>
   </energy>
  </scstep>
  <scstep>
   <time name="diag">    1.60    1.63</time>
   <time name="diis">   20.49   20.66</time>
   <time name="orth">    0.39    0.39</time>
   <time name="total">   22.68   22.89</time>
   <energy>
    <i name="e_fr_energy">   -631.81333827 </i>
    <i name="e_wo_entrp">   -631.58253741 </i>
    <i name="e_0_energy">   -631.69793784 </i>
   </energy>
  </scstep>
  <scstep>
   <time name="diag">    1.49    1.50</time>
   <time name="diis">   20.77   20.90</time>
   <time name="orth">    0.34    0.34</time>
   <time name="total">   22.80   22.95</time>
   <energy>
    <i name="e_fr_energy">   -631.82833859 </i>
    <i name="e_wo_entrp">   -631.59538072 </i>
    <i name="e_0_energy">   -631.71185965 </i>
   </energy>
  </scstep>
  <scstep>
   <time name="diag">    1.36    1.36</time>
   <time name="diis">   18.07   18.27</time>
   <time name="orth">    0.35    0.35</time>
   <time name="total">   19.98   20.19</time>
   <energy>
    <i name="e_fr_energy">   -631.81934913 </i>
    <i name="e_wo_entrp">   -631.58683364 </i>
    <i name="e_0_energy">   -631.70309138 </i>
   </energy>
  </scstep>
  <scstep>
   <time name="diag">    1.36    1.37</time>
   <time name="diis">   18.85   19.06</time>
   <time name="orth">    0.35    0.35</time>
   <time name="total">   20.76   20.99</time>
   <energy>
    <i name="e_fr_energy">   -631.81847587 </i>
    <i name="e_wo_entrp">   -631.58587564 </i>
    <i name="e_0_energy">   -631.70217575 </i>
   </energy>
  </scstep>
  <scstep>
   <time name="diag">    1.35    1.35</time>
   <time name="diis">   19.52   19.79</time>
   <time name="orth">    0.34    0.35</time>
   <time name="total">   21.42   21.70</time>
   <energy>
    <i name="e_fr_energy">   -631.82178234 </i>
    <i name="e_wo_entrp">   -631.58939287 </i>
    <i name="e_0_energy">   -631.70558760 </i>
   </energy>
  </scstep>
  <scstep>
   <time name="diag">    1.34    1.35</time>
   <time name="diis">   17.15   17.46</time>
   <time name="orth">    0.36    0.37</time>
   <time name="total">   19.06   19.38</time>
   <energy>
    <i name="e_fr_energy">   -631.82396899 </i>
    <i name="e_wo_entrp">   -631.59145703 </i>
    <i name="e_0_energy">   -631.70771301 </i>
   </energy>
  </scstep>
  <scstep>
   <time name="diag">    1.34    1.35</time>
   <time name="diis">   16.63   16.83</time>
   <time name="orth">    0.44    0.44</time>
   <time name="total">   18.61   18.82</time>
   <energy>
    <i name="e_fr_energy">   -631.82538328 </i>
    <i name="e_wo_entrp">   -631.59261229 </i>
    <i name="e_0_energy">   -631.70899778 </i>
   </energy>
  </scstep>
  <scstep>
   <time name="diag">    1.34    1.35</time>
   <time name="diis">   15.96   16.07</time>
   <time name="orth">    0.35    0.35</time>
   <time name="total">   17.86   17.98</time>
   <energy>
    <i name="e_fr_energy">   -631.82671593 </i>
    <i name="e_wo_entrp">   -631.59372518 </i>
    <i name="e_0_energy">   -631.71022056 </i>
   </energy>
  </scstep>
  <scstep>
   <time name="diag">    1.38    1.38</time>
   <time name="diis">   13.13   13.41</time>
   <time name="orth">    0.35    0.35</time>
   <time name="total">   15.06   15.34</time>
   <energy>
    <i name="e_fr_energy">   -631.82737543 </i>
    <i name="e_wo_entrp">   -631.59442429 </i>
    <i name="e_0_energy">   -631.71089986 </i>
   </energy>
  </scstep>
  <scstep>
   <time name="diag">    1.61    1.63</time>
   <time name="diis">   15.06   15.39</time>
   <time name="orth">    0.40    0.40</time>
   <time name="total">   17.27   17.63</time>
   <energy>
    <i name="e_fr_energy">   -631.82793789 </i>
    <i name="e_wo_entrp">   -631.59493248 </i>
    <i name="e_0_energy">   -631.71143518 </i>
   </energy>
  </scstep>
  <scstep>
   <time name="diag">    1.38    1.39</time>
   <time name="diis">   16.40   16.57</time>
   <time name="orth">    0.36    0.37</time>
   <time name="total">   18.35   18.53</time>
   <energy>
    <i name="e_fr_energy">   -631.82830048 </i>
    <i name="e_wo_entrp">   -631.59531176 </i>
    <i name="e_0_energy">   -631.71180612 </i>
   </energy>
  </scstep>
  <scstep>
   <time name="diag">    1.36    1.39</time>
   <time name="diis">   11.78   11.94</time>
   <time name="orth">    0.36    0.36</time>
   <time name="total">   13.70   13.90</time>
   <energy>
    <i name="e_fr_energy">   -631.82859790 </i>
    <i name="e_wo_entrp">   -631.59553700 </i>
    <i name="e_0_energy">   -631.71206745 </i>
   </energy>
  </scstep>
  <scstep>
   <time name="diag">    1.35    1.36</time>
   <time name="diis">   10.08   10.20</time>
   <time name="orth">    0.35    0.35</time>
   <time name="total">   11.99   12.12</time>
   <energy>
    <i name="e_fr_energy">   -631.82876688 </i>
    <i name="e_wo_entrp">   -631.59565959 </i>
    <i name="e_0_energy">   -631.71221324 </i>
   </energy>
  </scstep>
  <scstep>
   <time name="diag">    1.40    1.44</time>
   <time name="diis">    9.80    9.88</time>
   <time name="orth">    0.42    0.43</time>
   <time name="total">   11.82   11.96</time>
   <energy>
    <i name="e_fr_energy">   -631.82891964 </i>
    <i name="e_wo_entrp">   -631.59577816 </i>
    <i name="e_0_energy">   -631.71234890 </i>
   </energy>
  </scstep>
  <scstep>
   <time name="diag">    1.38    1.39</time>
   <time name="diis">    9.67    9.74</time>
   <time name="orth">    0.36    0.36</time>
   <time name="total">   11.62   11.69</time>
   <energy>
    <i name="e_fr_energy">   -631.82901164 </i>
    <i name="e_wo_entrp">   -631.59582697 </i>
    <i name="e_0_energy">   -631.71241930 </i>
   </energy>
  </scstep>
  <scstep>
   <time name="diag">    1.35    1.35</time>
   <time name="diis">    9.42    9.54</time>
   <time name="orth">    0.37    0.37</time>
   <time name="total">   11.35   11.48</time>
   <energy>
    <i name="e_fr_energy">   -631.82909212 </i>
    <i name="e_wo_entrp">   -631.59588947 </i>
    <i name="e_0_energy">   -631.71249079 </i>
   </energy>
  </scstep>
  <scstep>
   <time name="diag">    1.36    1.36</time>
   <time name="diis">    9.18    9.23</time>
   <time name="orth">    0.35    0.35</time>
   <time name="total">   11.09   11.15</time>
   <energy>
    <i name="e_fr_energy">   -631.82913932 </i>
    <i name="e_wo_entrp">   -631.59592226 </i>
    <i name="e_0_energy">   -631.71253079 </i>
   </energy>
  </scstep>
  <scstep>
   <time name="diag">    1.43    1.44</time>
   <time name="diis">    9.13    9.22</time>
   <time name="orth">    0.43    0.43</time>
   <time name="total">   11.20   11.31</time>
   <energy>
    <i name="e_fr_energy">   -631.82918076 </i>
    <i name="e_wo_entrp">   -631.59595346 </i>
    <i name="e_0_energy">   -631.71256711 </i>
   </energy>
  </scstep>
  <scstep>
   <time name="diag">    1.64    1.67</time>
   <time name="diis">    8.88    8.97</time>
   <time name="orth">    0.35    0.35</time>
   <time name="total">   11.08   11.20</time>
   <energy>
    <i name="e_fr_energy">   -631.82920543 </i>
    <i name="e_wo_entrp">   -631.59596961 </i>
    <i name="e_0_energy">   -631.71258752 </i>
   </energy>
  </scstep>
  <scstep>
   <time name="diag">    1.36    1.37</time>
   <time name="diis">    8.88    8.95</time>
   <time name="orth">    0.35    0.35</time>
   <time name="total">   10.81   10.90</time>
   <energy>
    <i name="e_fr_energy">   -631.82922757 </i>
    <i name="e_wo_entrp">   -631.59598365 </i>
    <i name="e_0_energy">   -631.71260561 </i>
   </energy>
  </scstep>
  <scstep>
   <time name="diag">    1.43    1.43</time>
   <time name="diis">    8.48    8.53</time>
   <time name="orth">    0.34    0.34</time>
   <time name="total">   10.45   10.52</time>
   <energy>
    <i name="e_fr_energy">   -631.82924092 </i>
    <i name="e_wo_entrp">   -631.59598825 </i>
    <i name="e_0_energy">   -631.71261458 </i>
   </energy>
  </scstep>
  <scstep>
   <time name="diag">    1.36    1.37</time>
   <time name="diis">    8.26    8.31</time>
   <time name="orth">    0.36    0.36</time>
   <time name="total">   10.18   10.25</time>
   <energy>
    <i name="e_fr_energy">   -631.82925279 </i>
    <i name="e_wo_entrp">   -631.59599402 </i>
    <i name="e_0_energy">   -631.71262340 </i>
   </energy>
  </scstep>
  <scstep>
   <time name="diag">    1.39    1.40</time>
   <time name="diis">    8.09    8.16</time>
   <time name="orth">    0.35    0.38</time>
   <time name="total">    9.86    9.96</time>
   <energy>
    <i name="alphaZ">   4090.40291099 </i>
    <i name="ewald"> -39181.90268951 </i>
    <i name="hartreedc">  -6813.19215754 </i>
    <i name="XCdc">   1636.53532136 </i>
    <i name="pawpsdc">  29665.65490709 </i>
    <i name="pawaedc"> -29762.12182587 </i>
    <i name="eentropy">     -0.23326503 </i>
    <i name="bandstr">  -4966.71499908 </i>
    <i name="atom">  44699.74253751 </i>
    <i name="e_fr_energy">   -631.82926007 </i>
    <i name="e_wo_entrp">   -631.59599505 </i>
    <i name="e_0_energy">   -631.71262756 </i>
   </energy>
  </scstep>
  <structure>
   <crystal>
    <varray name="basis" >
     <v>       8.93249989       0.00000000       0.00000000 </v>
     <v>       0.00575300       9.05559834       0.00000000 </v>
     <v>       0.03210180      -0.01574346       8.93712807 </v>
    </varray>
    <i name="volume">    722.91652451 </i>
    <varray name="rec_basis" >
     <v>       0.11195074      -0.00007112      -0.00040225 </v>
     <v>       0.00000000       0.11042893       0.00019453 </v>
     <v>       0.00000000       0.00000000       0.11189277 </v>
    </varray>
   </crystal>
   <varray name="positions" >
    <v>       0.99688001       0.99204997       0.99924002 </v>
    <v>       0.25398003       0.99714995       0.24912000 </v>
    <v>       0.24803003       0.50165000       0.24955001 </v>
    <v>       0.50501006       0.49745998       0.99834003 </v>
    <v>       0.50479003       0.24631001       0.74710002 </v>
    <v>       0.99427992       0.50449999       0.49779000 </v>
    <v>       0.49950005       0.75481999       0.74817004 </v>
    <v>       0.99437004       0.23617001       0.26379999 </v>
    <v>       0.75718000       0.74102998       0.01100000 </v>
    <v>       0.00201000       0.25541000       0.73894001 </v>
    <v>       0.75307001       0.26163001       0.50533002 </v>
    <v>       0.99514004       0.74492004       0.74511997 </v>
    <v>       0.25679999       0.49462002       0.74545002 </v>
    <v>       0.24788999       0.24839000       0.99657997 </v>
    <v>       0.50833000       0.25676999       0.25376001 </v>
    <v>       0.74879004       0.98787999       0.26967001 </v>
    <v>       0.75719000       0.25603001       0.99591997 </v>
    <v>       0.24762001       0.74973999       0.99974006 </v>
    <v>       0.25272001       0.24823001       0.50015003 </v>
    <v>       0.24457999       0.75048999       0.49983999 </v>
    <v>       0.24982001       0.24942998       0.24825000 </v>
    <v>       0.26146999       0.99984002       0.99295996 </v>
    <v>       0.00281000       0.25024000       0.00130000 </v>
    <v>       0.75313998       0.24617000       0.25492002 </v>
    <v>       0.74767001       0.99748000       0.01202000 </v>
    <v>       0.50714994       0.99977000       0.24673000 </v>
    <v>       0.99051999       0.48088002       0.24100998 </v>
    <v>       0.50519005       0.76130999       0.00855000 </v>
    <v>       0.98896989       0.00202000       0.73708999 </v>
    <v>       0.75744996       0.24437997       0.74896999 </v>
    <v>       0.73632001       0.00417000       0.51063000 </v>
    <v>       0.50563996       0.23264999       0.49544997 </v>
    <v>       0.50008998       0.00061000       0.73471998 </v>
    <v>       0.99720000       0.99771992       0.25899999 </v>
    <v>       0.50427997       0.24673000       0.00262000 </v>
    <v>       0.25133999       0.74958002       0.24910999 </v>
    <v>       0.24328000       0.50072997       0.99510994 </v>
    <v>       0.99837005       0.74313996       0.00460000 </v>
    <v>       0.75633000       0.73891003       0.25767000 </v>
    <v>       0.75839004       0.50315998       0.00288000 </v>
    <v>       0.50700002       0.50333002       0.25878999 </v>
    <v>       0.24900999       0.25315000       0.74854000 </v>
    <v>       0.24446000       0.99823996       0.50287998 </v>
    <v>       0.99804009       0.24229999       0.50128003 </v>
    <v>       0.24177002       0.75340997       0.75018002 </v>
    <v>       0.25841001       0.50062002       0.50129001 </v>
    <v>       0.99000004       0.76215003       0.49746000 </v>
    <v>       0.99203996       0.50055999       0.75138002 </v>
    <v>       0.75036005       0.74888000       0.74756004 </v>
    <v>       0.74036002       0.50197000       0.50067003 </v>
    <v>       0.50575006       0.74958002       0.49720000 </v>
    <v>       0.50501003       0.50217998       0.73912003 </v>
    <v>       0.51588997       0.01358000       0.98075008 </v>
    <v>       0.99841994       0.50976998       0.98613004 </v>
    <v>       0.50379003       0.73926997       0.25905001 </v>
    <v>       0.23780002       0.01082000       0.74607998 </v>
    <v>       0.47957999       0.98308000       0.49717999 </v>
    <v>       0.74279003       0.97869994       0.76450995 </v>
    <v>       0.99864998       0.77573999       0.26102000 </v>
    <v>       0.73551001       0.51468004       0.26666001 </v>
    <v>       0.02362000       0.99783001       0.49557002 </v>
    <v>       0.50539000       0.52833005       0.49917999 </v>
    <v>       0.73876003       0.52828003       0.73814999 </v>
    <v>       0.75400003       0.72937999       0.49116997 </v>
   </varray>
  </structure>
  <varray name="forces" >
   <v>       0.12554899      -0.07633949      -0.15346806 </v>
   <v>       0.58026336      -0.63347520      -0.36488774 </v>
   <v>       0.68858292       0.57698975      -0.41258677 </v>
   <v>      -0.28487141      -0.89127977       0.19026545 </v>
   <v>      -0.71744010      -0.78331769       0.81972949 </v>
   <v>       0.58415406      -0.35975156       0.63185393 </v>
   <v>      -0.57152617       1.06317224       0.10174638 </v>
   <v>       0.18594751       0.12097306      -0.83439788 </v>
   <v>      -0.64859477       0.82381887      -0.03771329 </v>
   <v>       0.41024955      -0.45099383       0.73272187 </v>
   <v>      -0.97618841      -1.18068691      -0.06242318 </v>
   <v>       1.05979592       0.56303362       0.44040844 </v>
   <v>      -0.34343279       0.41234239       0.61697316 </v>
   <v>       0.46120022       0.05346383      -0.23168065 </v>
   <v>       0.09759367      -0.63194645      -0.35409284 </v>
   <v>      -1.00642178       0.20658190       0.02387667 </v>
   <v>      -0.71193513       0.01953770      -0.27435080 </v>
   <v>      -0.02867726      -0.03130181       0.02594403 </v>
   <v>       0.24425242      -0.01264612       0.16109552 </v>
   <v>       0.31450439      -0.02468935      -0.10951283 </v>
   <v>       0.05385370       0.02618632       0.11469601 </v>
   <v>      -0.36587996       0.09493640       0.03731232 </v>
   <v>      -0.05388886      -0.32788135       0.02212427 </v>
   <v>      -0.24551374      -0.26999345      -0.07558304 </v>
   <v>      -0.10526816      -0.03582881      -0.67578497 </v>
   <v>      -0.14356535       0.07431688       0.46523356 </v>
   <v>       0.78405724      -0.22447312       0.51298625 </v>
   <v>      -0.15046935      -0.33152141      -0.36374644 </v>
   <v>      -0.07177758       0.06103043       1.07698141 </v>
   <v>      -0.21334248      -0.10280995       0.34731903 </v>
   <v>       0.01541227       0.22641382      -0.81592835 </v>
   <v>      -0.34168919       0.01336380      -0.23452386 </v>
   <v>       0.46412334      -0.02194781       0.60467216 </v>
   <v>      -0.27697505       0.73055370      -1.12140397 </v>
   <v>       0.09288333      -0.01514754      -0.02484749 </v>
   <v>       0.34504856      -0.08762080       0.05100713 </v>
   <v>       0.28457006      -0.02423728       0.31293735 </v>
   <v>       0.69383207      -0.02796384      -0.25859090 </v>
   <v>      -0.68272629       1.29309566      -0.95713281 </v>
   <v>      -0.06343626      -0.70341947      -0.00531789 </v>
   <v>      -1.39910386      -0.04821961      -0.96574935 </v>
   <v>       0.21459183      -0.65953354       0.00119817 </v>
   <v>       1.80993811      -0.18285282       0.49533377 </v>
   <v>       0.52932985       0.80041939      -0.13422532 </v>
   <v>       0.49059343       0.04197770       0.03445641 </v>
   <v>      -0.74130269       0.03000076      -0.49033089 </v>
   <v>       1.26973099      -0.86274633       0.69322102 </v>
   <v>       0.53837308       0.03300357       0.09002326 </v>
   <v>      -0.35628821       1.72977542       0.51214747 </v>
   <v>       1.21443217      -0.98276188       0.30632236 </v>
   <v>      -1.00445548       1.47399587      -0.44400381 </v>
   <v>      -0.84556538      -0.33782813       1.06356397 </v>
   <v>       0.45473865       0.86325660      -0.48695501 </v>
   <v>       0.19898874       0.78815965      -0.68344756 </v>
   <v>       0.03923098      -0.40196903       0.09493482 </v>
   <v>      -0.05473378       0.25220451       0.37452501 </v>
   <v>      -0.40717395      -0.08721071      -0.08460045 </v>
   <v>      -0.65785522      -0.75531556       0.49127805 </v>
   <v>       0.46337659       0.03838298      -0.70197507 </v>
   <v>      -0.28129714      -0.72897930      -1.48340410 </v>
   <v>      -0.15160225       0.38788296       0.25812334 </v>
   <v>      -1.13309482      -0.47910889      -0.42458116 </v>
   <v>       0.29926736      -1.38083299       1.37322311 </v>
   <v>       0.02762753       1.35776204       0.18901128 </v>
  </varray>
  <varray name="stress" >
   <v>    -199.14899546       4.41356972      -1.78813318 </v>
   <v>       4.41356965    -208.27657882       2.05005725 </v>
   <v>      -1.78813528       2.05005688    -193.93684519 </v>
  </varray>
  <energy>
   <i name="e_fr_energy">   -631.82926007 </i>
   <i name="e_wo_entrp">   -631.59599505 </i>
   <i name="e_0_energy">   -631.71262756 </i>
  </energy>
  <time name="totalsc">  768.21  776.48</time>
 </calculation>
 <calculation>
  <scstep>
   <time name="dav">   26.61   27.12</time>
   <time name="total">   26.82   27.33</time>
   <energy>
    <i name="alphaZ">   5055.58854436 </i>
    <i name="ewald"> -42127.98521274 </i>
    <i name="hartreedc">  -7238.42370670 </i>
    <i name="XCdc">   1773.11187647 </i>
    <i name="pawpsdc">  29665.66021908 </i>
    <i name="pawaedc"> -29762.12691942 </i>
    <i name="eentropy">     -0.10698951 </i>
    <i name="bandstr">  -2826.30849973 </i>
    <i name="atom">  44699.74253751 </i>
    <i name="e_fr_energy">   -760.84815068 </i>
    <i name="e_wo_entrp">   -760.74116118 </i>
    <i name="e_0_energy">   -760.79465593 </i>
   </energy>
  </scstep>
  <scstep>
   <time name="diag">    1.33    1.36</time>
   <time name="diis">   15.72   16.13</time>
   <time name="orth">    0.35    0.35</time>
   <time name="total">   17.60   18.05</time>
   <energy>
    <i name="e_fr_energy">   -802.92641329 </i>
    <i name="e_wo_entrp">   -802.84740415 </i>
    <i name="e_0_energy">   -802.88690872 </i>
   </energy>
  </scstep>
  <scstep>
   <time name="diag">    1.34    1.36</time>
   <time name="diis">   17.42   17.71</time>
   <time name="orth">    0.34    0.35</time>
   <time name="total">   19.30   19.62</time>
   <energy>
    <i name="e_fr_energy">   -643.71945861 </i>
    <i name="e_wo_entrp">   -643.60842510 </i>
    <i name="e_0_energy">   -643.66394185 </i>
   </energy>
  </scstep>
  <scstep>
   <time name="diag">    1.36    1.37</time>
   <time name="diis">   17.39   17.61</time>
   <time name="orth">    0.36    0.36</time>
   <time name="total">   19.31   19.54</time>
   <energy>
    <i name="e_fr_energy">   -637.98089115 </i>
    <i name="e_wo_entrp">   -637.87276223 </i>
    <i name="e_0_energy">   -637.92682669 </i>
   </energy>
  </scstep>
  <scstep>
   <time name="diag">    1.34    1.35</time>
   <time name="diis">   18.78   19.10</time>
   <time name="orth">    0.35    0.35</time>
   <time name="total">   20.68   21.00</time>
   <energy>
    <i name="e_fr_energy">   -636.80707979 </i>
    <i name="e_wo_entrp">   -636.67526934 </i>
    <i name="e_0_energy">   -636.74117456 </i>
   </energy>
  </scstep>
  <scstep>
   <time name="diag">    1.36    1.38</time>
   <time name="diis">   17.74   18.01</time>
   <time name="orth">    0.35    0.35</time>
   <time name="total">   19.64   19.93</time>
   <energy>
    <i name="e_fr_energy">   -626.42249702 </i>
    <i name="e_wo_entrp">   -626.28005075 </i>
    <i name="e_0_energy">   -626.35127389 </i>
   </energy>
  </scstep>
  <scstep>
   <time name="diag">    1.35    1.36</time>
   <time name="diis">   18.62   18.79</time>
   <time name="orth">    0.34    0.35</time>
   <time name="total">   20.51   20.70</time>
   <energy>
    <i name="e_fr_energy">   -629.13298549 </i>
    <i name="e_wo_entrp">   -628.97788286 </i>
    <i name="e_0_energy">   -629.05543418 </i>
   </energy>
  </scstep>
  <scstep>
   <time name="diag">    1.37    1.38</time>
   <time name="diis">   17.62   17.83</time>
   <time name="orth">    0.35    0.35</time>
   <time name="total">   19.54   19.77</time>
   <energy>
    <i name="e_fr_energy">   -625.99423174 </i>
    <i name="e_wo_entrp">   -625.84011096 </i>
    <i name="e_0_energy">   -625.91717135 </i>
   </energy>
  </scstep>
  <scstep>
   <time name="diag">    1.36    1.37</time>
   <time name="diis">   18.79   18.96</time>
   <time name="orth">    0.39    0.39</time>
   <time name="total">   20.74   20.92</time>
   <energy>
    <i name="e_fr_energy">   -626.54234310 </i>
    <i name="e_wo_entrp">   -626.39442579 </i>
    <i name="e_0_energy">   -626.46838445 </i>
   </energy>
  </scstep>
  <scstep>
   <time name="diag">    1.36    1.37</time>
   <time name="diis">   18.58   18.83</time>
   <time name="orth">    0.34    0.35</time>
   <time name="total">   20.49   20.75</time>
   <energy>
    <i name="e_fr_energy">   -625.98109899 </i>
    <i name="e_wo_entrp">   -625.82933746 </i>
    <i name="e_0_energy">   -625.90521822 </i>
   </energy>
  </scstep>
  <scstep>
   <time name="diag">    1.35    1.36</time>
   <time name="diis">   17.93   18.21</time>
   <time name="orth">    0.34    0.35</time>
   <time name="total">   19.82   20.12</time>
   <energy>
    <i name="e_fr_energy">   -626.07414546 </i>
    <i name="e_wo_entrp">   -625.92101246 </i>
    <i name="e_0_energy">   -625.99757896 </i>
   </energy>
  </scstep>
  <scstep>
   <time name="diag">    1.37    1.37</time>
   <time name="diis">   18.07   18.28</time>
   <time name="orth">    0.34    0.35</time>
   <time name="total">   19.98   20.21</time>
   <energy>
    <i name="e_fr_energy">   -625.94070565 </i>
    <i name="e_wo_entrp">   -625.78580080 </i>
    <i name="e_0_energy">   -625.86325322 </i>
   </energy>
  </scstep>
  <scstep>
   <time name="diag">    1.37    1.38</time>
   <time name="diis">   19.25   19.43</time>
   <time name="orth">    0.35    0.36</time>
   <time name="total">   21.19   21.40</time>
   <energy>
    <i name="e_fr_energy">   -625.99382650 </i>
    <i name="e_wo_entrp">   -625.83691910 </i>
    <i name="e_0_energy">   -625.91537280 </i>
   </energy>
  </scstep>
  <scstep>
   <time name="diag">    1.59    1.62</time>
   <time name="diis">   19.04   19.21</time>
   <time name="orth">    0.36    0.36</time>
   <time name="total">   21.19   21.39</time>
   <energy>
    <i name="e_fr_energy">   -625.94217311 </i>
    <i name="e_wo_entrp">   -625.78615931 </i>
    <i name="e_0_energy">   -625.86416621 </i>
   </energy>
  </scstep>
  <scstep>
   <time name="diag">    1.41    1.42</time>
   <time name="diis">   18.14   18.32</time>
   <time name="orth">    0.34    0.35</time>
   <time name="total">   20.10   20.29</time>
   <energy>
    <i name="e_fr_energy">   -625.93824886 </i>
    <i name="e_wo_entrp">   -625.78214145 </i>
    <i name="e_0_energy">   -625.86019515 </i>
   </energy>
  </scstep>
  <scstep>
   <time name="diag">    1.37    1.38</time>
   <time name="diis">   18.66   18.95</time>
   <time name="orth">    0.35    0.35</time>
   <time name="total">   20.58   20.88</time>
   <energy>
    <i name="e_fr_energy">   -625.93800268 </i>
    <i name="e_wo_entrp">   -625.78209374 </i>
    <i name="e_0_energy">   -625.86004821 </i>
   </energy>
  </scstep>
  <scstep>
   <time name="diag">    1.39    1.41</time>
   <time name="diis">   19.10   19.30</time>
   <time name="orth">    0.34    0.34</time>
   <time name="total">   21.04   21.26</time>
   <energy>
    <i name="e_fr_energy">   -625.93873433 </i>
    <i name="e_wo_entrp">   -625.78292989 </i>
    <i name="e_0_energy">   -625.86083211 </i>
   </energy>
  </scstep>
  <scstep>
   <time name="diag">    1.41    1.43</time>
   <time name="diis">   17.55   17.70</time>
   <time name="orth">    0.38    0.38</time>
   <time name="total">   19.54   19.71</time>
   <energy>
    <i name="e_fr_energy">   -625.93874732 </i>
    <i name="e_wo_entrp">   -625.78289778 </i>
    <i name="e_0_energy">   -625.86082255 </i>
   </energy>
  </scstep>
  <scstep>
   <time name="diag">    1.38    1.39</time>
   <time name="diis">   16.41   16.68</time>
   <time name="orth">    0.34    0.35</time>
   <time name="total">   18.34   18.62</time>
   <energy>
    <i name="e_fr_energy">   -625.93883045 </i>
    <i name="e_wo_entrp">   -625.78297059 </i>
    <i name="e_0_energy">   -625.86090052 </i>
   </energy>
  </scstep>
  <scstep>
   <time name="diag">    1.34    1.38</time>
   <time name="diis">   14.98   15.24</time>
   <time name="orth">    0.34    0.35</time>
   <time name="total">   16.87   17.17</time>
   <energy>
    <i name="e_fr_energy">   -625.93893699 </i>
    <i name="e_wo_entrp">   -625.78302999 </i>
    <i name="e_0_energy">   -625.86098349 </i>
   </energy>
  </scstep>
  <scstep>
   <time name="diag">    1.34    1.35</time>
   <time name="diis">   11.06   11.33</time>
   <time name="orth">    0.35    0.36</time>
   <time name="total">   12.95   13.24</time>
   <energy>
    <i name="e_fr_energy">   -625.93898984 </i>
    <i name="e_wo_entrp">   -625.78308223 </i>
    <i name="e_0_energy">   -625.86103604 </i>
   </energy>
  </scstep>
  <scstep>
   <time name="diag">    1.38    1.39</time>
   <time name="diis">   11.48   11.66</time>
   <time name="orth">    0.34    0.34</time>
   <time name="total">   13.41   13.59</time>
   <energy>
    <i name="e_fr_energy">   -625.93902268 </i>
    <i name="e_wo_entrp">   -625.78312790 </i>
    <i name="e_0_energy">   -625.86107529 </i>
   </energy>
  </scstep>
  <scstep>
   <time name="diag">    1.39    1.40</time>
   <time name="diis">    9.80    9.99</time>
   <time name="orth">    0.35    0.35</time>
   <time name="total">   11.74   11.94</time>
   <energy>
    <i name="e_fr_energy">   -625.93904355 </i>
    <i name="e_wo_entrp">   -625.78313444 </i>
    <i name="e_0_energy">   -625.86108899 </i>
   </energy>
  </scstep>
  <scstep>
   <time name="diag">    1.36    1.37</time>
   <time name="diis">    9.36    9.50</time>
   <time name="orth">    0.36    0.36</time>
   <time name="total">   11.28   11.44</time>
   <energy>
    <i name="e_fr_energy">   -625.93905584 </i>
    <i name="e_wo_entrp">   -625.78315046 </i>
    <i name="e_0_energy">   -625.86110315 </i>
   </energy>
  </scstep>
  <scstep>
   <time name="diag">    1.36    1.37</time>
   <time name="diis">    9.03    9.28</time>
   <time name="orth">    0.34    0.35</time>
   <time name="total">   10.76   11.02</time>
   <energy>
    <i name="alphaZ">   5055.58854436 </i>
    <i name="ewald"> -42127.98521274 </i>
    <i name="hartreedc">  -5836.11903615 </i>
    <i name="XCdc">   1692.37788290 </i>
    <i name="pawpsdc">  32405.23561500 </i>
    <i name="pawaedc"> -32532.53987776 </i>
    <i name="eentropy">     -0.15590910 </i>
    <i name="bandstr">  -3982.08360792 </i>
    <i name="atom">  44699.74253751 </i>
    <i name="e_fr_energy">   -625.93906391 </i>
    <i name="e_wo_entrp">   -625.78315481 </i>
    <i name="e_0_energy">   -625.86110936 </i>
   </energy>
  </scstep>
  <structure>
   <crystal>
    <varray name="basis" >
     <v>       8.32746568       0.01340886      -0.00543252 </v>
     <v>       0.01895697       8.41412217       0.00631061 </v>
     <v>       0.02446844      -0.00834853       8.34759311 </v>
    </varray>
    <i name="volume">    584.90120988 </i>
    <varray name="rec_basis" >
     <v>       0.12008476      -0.00027029      -0.00035226 </v>
     <v>      -0.00019129       0.11884815       0.00011942 </v>
     <v>       0.00007829      -0.00009002       0.11979469 </v>
    </varray>
   </crystal>
   <varray name="positions" >
    <v>       0.99756132       0.99164184       0.99841159 </v>
    <v>       0.25712317       0.99377176       0.24715033 </v>
    <v>       0.25175495       0.50471998       0.24732286 </v>
    <v>       0.50347090       0.49271357       0.99936708 </v>
    <v>       0.50090206       0.24214467       0.75152492 </v>
    <v>       0.99742379       0.50258939       0.50120075 </v>
    <v>       0.49640773       0.76048487       0.74871927 </v>
    <v>       0.99539008       0.23680665       0.25929590 </v>
    <v>       0.75367497       0.74541842       0.01079642 </v>
    <v>       0.00421300       0.25301426       0.74289525 </v>
    <v>       0.74780308       0.25533945       0.50499306 </v>
    <v>       0.00085331       0.74792367       0.74749730 </v>
    <v>       0.25493179       0.49682252       0.74878045 </v>
    <v>       0.25038515       0.24867264       0.99532935 </v>
    <v>       0.50886613       0.25340005       0.25184861 </v>
    <v>       0.74335338       0.98898076       0.26979890 </v>
    <v>       0.75335023       0.25613152       0.99443902 </v>
    <v>       0.24746473       0.74957348       0.99988010 </v>
    <v>       0.25403608       0.24816415       0.50101963 </v>
    <v>       0.24628078       0.75035743       0.49924884 </v>
    <v>       0.25010855       0.24957056       0.24886912 </v>
    <v>       0.25949289       0.00034613       0.99316138 </v>
    <v>       0.00251965       0.24849346       0.00141943 </v>
    <v>       0.75181640       0.24473093       0.25451202 </v>
    <v>       0.74711472       0.99728278       0.00837211 </v>
    <v>       0.50636529       0.00017028       0.24924133 </v>
    <v>       0.99474535       0.47968898       0.24377909 </v>
    <v>       0.50438559       0.75954044       0.00658650 </v>
    <v>       0.98856112       0.00235524       0.74290354 </v>
    <v>       0.75629135       0.24383553       0.75084482 </v>
    <v>       0.73641831       0.00536854       0.50622562 </v>
    <v>       0.50379907       0.23271898       0.49418401 </v>
    <v>       0.50258496       0.00049875       0.73798400 </v>
    <v>       0.99572337       0.00160134       0.25294665 </v>
    <v>       0.50478215       0.24664907       0.00248587 </v>
    <v>       0.25320284       0.74911370       0.24938533 </v>
    <v>       0.24481092       0.50060379       0.99679918 </v>
    <v>       0.00212241       0.74298856       0.00320413 </v>
    <v>       0.75265687       0.74578986       0.25250339 </v>
    <v>       0.75804995       0.49941254       0.00285129 </v>
    <v>       0.49946264       0.50306407       0.25357687 </v>
    <v>       0.25017120       0.24963642       0.74854647 </v>
    <v>       0.25422613       0.99727048       0.50555379 </v>
    <v>       0.00089875       0.24656288       0.50055548 </v>
    <v>       0.24441880       0.75363393       0.75036601 </v>
    <v>       0.25441579       0.50077524       0.49864320 </v>
    <v>       0.99684711       0.75756035       0.50120201 </v>
    <v>       0.99494575       0.50073666       0.75186596 </v>
    <v>       0.74841994       0.75809999       0.75032461 </v>
    <v>       0.74691635       0.49673733       0.50232356 </v>
    <v>       0.50032875       0.75742839       0.49480327 </v>
    <v>       0.50042382       0.50039023       0.74486115 </v>
    <v>       0.51835241       0.01817433       0.97812149 </v>
    <v>       0.99950520       0.51396240       0.98244078 </v>
    <v>       0.50400145       0.73712941       0.25956247 </v>
    <v>       0.23749628       0.01216711       0.74810167 </v>
    <v>       0.47738287       0.98261461       0.49672332 </v>
    <v>       0.73923014       0.97468069       0.76716187 </v>
    <v>       0.00116607       0.77593789       0.25723073 </v>
    <v>       0.73402207       0.51078256       0.25865259 </v>
    <v>       0.02279489       0.99989883       0.49696337 </v>
    <v>       0.49928026       0.52577367       0.49688810 </v>
    <v>       0.74035441       0.52093668       0.74556265 </v>
    <v>       0.75414092       0.73661508       0.49219025 </v>
   </varray>
  </structure>
  <varray name="forces" >
   <v>       0.79679732       0.65917146      -0.63838646 </v>
   <v>       0.41005257       0.40069167      -0.36331891 </v>
   <v>      -0.33084930      -0.23020185      -0.37011211 </v>
   <v>      -0.51576688       0.17456696       0.16395644 </v>
   <v>      -0.33710396      -0.14718583       0.00494871 </v>
   <v>       1.09276165      -0.43124042       0.07587356 </v>
   <v>      -0.67134839       0.03170540       0.33334465 </v>
   <v>       0.80819053       0.96687822      -1.78675468 </v>
   <v>      -0.71051159       0.90015271      -0.97052663 </v>
   <v>       0.12555336      -0.95320138       1.69619477 </v>
   <v>      -0.20409644      -1.47720436       0.03376393 </v>
   <v>       0.02852995       0.96782396       0.91621514 </v>
   <v>      -1.05266123       0.36194692       0.27722279 </v>
   <v>       0.42457514      -0.15328717       0.33488027 </v>
   <v>      -0.63751411      -0.77171906      -0.43698938 </v>
   <v>      -0.50993063       0.81693822      -1.00459758 </v>
   <v>      -0.31395507      -0.81389161       0.26516727 </v>
   <v>       0.84942706       0.18745717       0.14905382 </v>
   <v>       0.44367255       0.01912828      -0.28162229 </v>
   <v>       0.42683746      -0.03337535      -0.09253928 </v>
   <v>       0.74848476      -0.04948914      -0.01901617 </v>
   <v>       0.52021602       0.02998014      -0.52931673 </v>
   <v>      -0.03140789       0.73289298       0.09786375 </v>
   <v>      -1.15877756      -0.31100990      -1.15544424 </v>
   <v>      -0.55698922       0.86879224      -0.31602778 </v>
   <v>       0.22432424      -0.10634646      -0.23020549 </v>
   <v>       0.12234688       1.57425070      -0.48291368 </v>
   <v>      -1.08907971       0.45117865       0.22191572 </v>
   <v>      -0.34123835       0.01554527       0.43234427 </v>
   <v>      -0.48034934      -0.11470956       0.90168305 </v>
   <v>       0.39633775      -0.61647162       0.47587931 </v>
   <v>      -1.26712047       0.48167374      -0.29080216 </v>
   <v>      -0.03617992       0.18747392       0.38802679 </v>
   <v>      -0.50386240       0.14585157      -0.56560843 </v>
   <v>      -0.23822685      -0.50081872       0.82648666 </v>
   <v>       1.01552321      -0.03491474      -0.11609409 </v>
   <v>      -0.48898169      -0.14094596       0.35395554 </v>
   <v>       0.78483616      -0.47935784       0.38454173 </v>
   <v>      -0.99222157       1.14207731       0.09434181 </v>
   <v>       0.80354100      -0.99921371       0.19979670 </v>
   <v>      -0.98040919      -0.33138747      -0.54809467 </v>
   <v>       0.44780273      -0.81695975       0.07002478 </v>
   <v>       1.24047833       0.13725519       0.89020902 </v>
   <v>       0.77872843       0.56759294      -0.01184545 </v>
   <v>       0.82380290       0.91624015       0.09369598 </v>
   <v>      -0.47455777      -0.19389825      -0.14942954 </v>
   <v>       1.18126969      -0.56114756      -0.08562256 </v>
   <v>       0.33674666       0.00398723       0.50277239 </v>
   <v>       0.09496531       0.13205665      -0.23477491 </v>
   <v>      -0.04324842       0.15397226      -0.11411220 </v>
   <v>      -0.76994506       1.34056845      -0.64786301 </v>
   <v>      -0.12762532      -0.16368352       0.20321056 </v>
   <v>      -0.38244985      -0.24589144       0.24949173 </v>
   <v>       0.29765034      -0.35340086       0.03185577 </v>
   <v>      -0.41945895       0.45887967      -0.59835082 </v>
   <v>       0.00469265      -0.58209574       0.71113948 </v>
   <v>       0.78373796       0.89267640      -0.52901912 </v>
   <v>      -0.44446649       1.53212914       0.51913482 </v>
   <v>       0.49339550      -2.69598833      -1.09090151 </v>
   <v>       0.89008350      -1.64577770      -1.65840129 </v>
   <v>      -1.37995623       0.87789270       0.52330933 </v>
   <v>      -0.32023133      -2.26146376      -0.13548705 </v>
   <v>       0.96366307      -1.55977149       2.11512820 </v>
   <v>      -0.54850351       1.64662231       0.91674948 </v>
  </varray>
  <varray name="stress" >
   <v>     549.20865049       0.83502674       3.77755861 </v>
   <v>       0.83502898     519.75390915       0.16131567 </v>
   <v>       3.77755995       0.16131856     535.47885408 </v>
  </varray>
  <energy>
   <i name="e_fr_energy">   -625.93906391 </i>
   <i name="e_wo_entrp">   -625.78315481 </i>
   <i name="e_0_energy">   -625.86110936 </i>
  </energy>
  <time name="totalsc">  500.52  507.57</time>
 </calculation>
 <calculation>
  <scstep>
   <time name="dav">   26.36   26.83</time>
   <time name="total">   26.56   27.03</time>
   <energy>
    <i name="alphaZ">   4461.18921496 </i>
    <i name="ewald"> -40372.96920848 </i>
    <i name="hartreedc">  -5627.74018393 </i>
    <i name="XCdc">   1614.84936039 </i>
    <i name="pawpsdc">  32405.23900105 </i>
    <i name="pawaedc"> -32532.54371041 </i>
    <i name="eentropy">     -0.15676815 </i>
    <i name="bandstr">  -5352.30677965 </i>
    <i name="atom">  44699.74253751 </i>
    <i name="e_fr_energy">   -704.69653672 </i>
    <i name="e_wo_entrp">   -704.53976857 </i>
    <i name="e_0_energy">   -704.61815264 </i>
   </energy>
  </scstep>
  <scstep>
   <time name="diag">    1.33    1.34</time>
   <time name="diis">   18.48   18.81</time>
   <time name="orth">    0.35    0.35</time>
   <time name="total">   20.38   21.05</time>
   <energy>
    <i name="e_fr_energy">   -984.19659029 </i>
    <i name="e_wo_entrp">   -984.02194294 </i>
    <i name="e_0_energy">   -984.10926662 </i>
   </energy>
  </scstep>
  <scstep>
   <time name="diag">    1.33    1.35</time>
   <time name="diis">   17.88   18.35</time>
   <time name="orth">    0.35    0.35</time>
   <time name="total">   19.76   20.25</time>
   <energy>
    <i name="e_fr_energy">   -696.64288317 </i>
    <i name="e_wo_entrp">   -696.50132452 </i>
    <i name="e_0_energy">   -696.57210385 </i>
   </energy>
  </scstep>
  <scstep>
   <time name="diag">    1.35    1.38</time>
   <time name="diis">   15.67   15.97</time>
   <time name="orth">    0.35    0.38</time>
   <time name="total">   17.56   17.93</time>
   <energy>
    <i name="e_fr_energy">   -650.53059729 </i>
    <i name="e_wo_entrp">   -650.37479937 </i>
    <i name="e_0_energy">   -650.45269833 </i>
   </energy>
  </scstep>
  <scstep>
   <time name="diag">    1.43    1.44</time>
   <time name="diis">   18.08   18.50</time>
   <time name="orth">    0.35    0.35</time>
   <time name="total">   20.05   20.49</time>
   <energy>
    <i name="e_fr_energy">   -645.24576987 </i>
    <i name="e_wo_entrp">   -645.08780773 </i>
    <i name="e_0_energy">   -645.16678880 </i>
   </energy>
  </scstep>
  <scstep>
   <time name="diag">    1.44    1.46</time>
   <time name="diis">   17.65   18.11</time>
   <time name="orth">    0.35    0.36</time>
   <time name="total">   19.63   20.13</time>
   <energy>
    <i name="e_fr_energy">   -638.46305878 </i>
    <i name="e_wo_entrp">   -638.28965448 </i>
    <i name="e_0_energy">   -638.37635663 </i>
   </energy>
  </scstep>
  <scstep>
   <time name="diag">    1.44    1.46</time>
   <time name="diis">   18.02   18.33</time>
   <time name="orth">    0.34    0.35</time>
   <time name="total">   20.01   20.34</time>
   <energy>
[...]
      </set>
     </set>
    </set>
   </array>
  </eigenvalues>
  <separator name="orbital magnetization" >
   <v name="MAGDIPOLOUT">      0.00000000      0.00000000      0.00000000</v>
  </separator>
  <dos>
   <i name="efermi">      8.38107270 </i>
   <total>
    <array>
     <dimension dim="1">gridpoints</dimension>
     <dimension dim="2">spin</dimension>
     <field>energy</field>
     <field>total</field>
     <field>integrated</field>
     <set>
      <set comment="spin 1">
       <r>   -37.8193     0.0000     0.0000 </r>
       <r>   -37.6493     0.0000     0.0000 </r>
       <r>   -37.4794     0.0000     0.0000 </r>
       <r>   -37.3095     0.0000     0.0000 </r>
       <r>   -37.1395     0.0000     0.0000 </r>
       <r>   -36.9696     0.0000     0.0000 </r>
       <r>   -36.7997     0.0000     0.0000 </r>
       <r>   -36.6298     0.0000     0.0000 </r>
       <r>   -36.4598     0.0000     0.0000 </r>
       <r>   -36.2899     0.0000     0.0000 </r>
       <r>   -36.1200     0.0000     0.0000 </r>
       <r>   -35.9501     0.0000     0.0000 </r>
       <r>   -35.7801     0.0005     0.0001 </r>
       <r>   -35.6102     0.7454     0.1267 </r>
       <r>   -35.4403    12.5758     2.2637 </r>
       <r>   -35.2703    65.2981    13.3597 </r>
       <r>   -35.1004    96.7677    29.8032 </r>
       <r>   -34.9305    34.9074    35.7350 </r>
       <r>   -34.7606     1.5588    35.9998 </r>
       <r>   -34.5906     0.0010    36.0000 </r>
       <r>   -34.4207     0.0000    36.0000 </r>
       <r>   -34.2508     0.0000    36.0000 </r>
       <r>   -34.0808     0.0000    36.0000 </r>
       <r>   -33.9109     0.0000    36.0000 </r>
       <r>   -33.7410     0.0000    36.0000 </r>
       <r>   -33.5711     0.0000    36.0000 </r>
       <r>   -33.4011     0.0000    36.0000 </r>
       <r>   -33.2312     0.0000    36.0000 </r>
       <r>   -33.0613     0.0000    36.0000 </r>
       <r>   -32.8914     0.0000    36.0000 </r>
       <r>   -32.7214     0.0000    36.0000 </r>
       <r>   -32.5515     0.0000    36.0000 </r>
       <r>   -32.3816     0.0000    36.0000 </r>
       <r>   -32.2116     0.0000    36.0000 </r>
       <r>   -32.0417     0.0000    36.0000 </r>
       <r>   -31.8718     0.0000    36.0000 </r>
       <r>   -31.7019     0.0000    36.0000 </r>
       <r>   -31.5319     0.0000    36.0000 </r>
       <r>   -31.3620     0.0000    36.0000 </r>
       <r>   -31.1921     0.0000    36.0000 </r>
       <r>   -31.0221     0.0000    36.0000 </r>
       <r>   -30.8522     0.0000    36.0000 </r>
       <r>   -30.6823     0.0000    36.0000 </r>
       <r>   -30.5124     0.0000    36.0000 </r>
       <r>   -30.3424     0.0000    36.0000 </r>
       <r>   -30.1725     0.0000    36.0000 </r>
       <r>   -30.0026     0.0000    36.0000 </r>
       <r>   -29.8327     0.0000    36.0000 </r>
       <r>   -29.6627     0.0000    36.0000 </r>
       <r>   -29.4928     0.0000    36.0000 </r>
       <r>   -29.3229     0.0000    36.0000 </r>
       <r>   -29.1529     0.0000    36.0000 </r>
       <r>   -28.9830     0.0000    36.0000 </r>
       <r>   -28.8131     0.0000    36.0000 </r>
       <r>   -28.6432     0.0000    36.0000 </r>
       <r>   -28.4732     0.0000    36.0000 </r>
       <r>   -28.3033     0.0000    36.0000 </r>
       <r>   -28.1334     0.1328    36.0226 </r>
       <r>   -27.9634    11.7231    38.0147 </r>
       <r>   -27.7935    59.4284    48.1132 </r>
       <r>   -27.6236    83.7355    62.3422 </r>
       <r>   -27.4537    56.5336    71.9488 </r>
       <r>   -27.2837    37.7526    78.3640 </r>
       <r>   -27.1138    32.8561    83.9472 </r>
       <r>   -26.9439    44.9709    91.5890 </r>
       <r>   -26.7740    41.0667    98.5674 </r>
       <r>   -26.6040    39.0026   105.1950 </r>
       <r>   -26.4341    16.2073   107.9491 </r>
       <r>   -26.2642     0.2996   108.0000 </r>
       <r>   -26.0942     0.1194   108.0203 </r>
       <r>   -25.9243    11.9997   110.0594 </r>
       <r>   -25.7544    49.9045   118.5395 </r>
       <r>   -25.5845    53.9531   127.7077 </r>
       <r>   -25.4145    69.7785   139.5650 </r>
       <r>   -25.2446    30.9347   144.8216 </r>
       <r>   -25.0747    27.5132   149.4969 </r>
       <r>   -24.9047     2.9577   149.9995 </r>
       <r>   -24.7348     0.0030   150.0000 </r>
       <r>   -24.5649     0.0000   150.0000 </r>
       <r>   -24.3950     0.0000   150.0000 </r>
       <r>   -24.2250     0.0000   150.0000 </r>
       <r>   -24.0551     0.0123   150.0021 </r>
       <r>   -23.8852     4.7849   150.8152 </r>
       <r>   -23.7153    52.0787   159.6648 </r>
       <r>   -23.5453   120.7060   180.1761 </r>
       <r>   -23.3754    60.2926   190.4215 </r>
       <r>   -23.2055     9.1505   191.9764 </r>
       <r>   -23.0355     0.1388   192.0000 </r>
       <r>   -22.8656     0.0000   192.0000 </r>
       <r>   -22.6957     0.0000   192.0000 </r>
       <r>   -22.5258     0.0000   192.0000 </r>
       <r>   -22.3558     0.0000   192.0000 </r>
       <r>   -22.1859     0.0000   192.0000 </r>
       <r>   -22.0160     0.0000   192.0000 </r>
       <r>   -21.8460     0.0000   192.0000 </r>
       <r>   -21.6761     0.0000   192.0000 </r>
       <r>   -21.5062     0.0000   192.0000 </r>
       <r>   -21.3363     0.0000   192.0000 </r>
       <r>   -21.1663     0.0000   192.0000 </r>
       <r>   -20.9964     0.0000   192.0000 </r>
       <r>   -20.8265     0.0000   192.0000 </r>
       <r>   -20.6566     0.0000   192.0000 </r>
       <r>   -20.4866     0.0000   192.0000 </r>
       <r>   -20.3167     0.0000   192.0000 </r>
       <r>   -20.1468     0.0000   192.0000 </r>
       <r>   -19.9768     0.0000   192.0000 </r>
       <r>   -19.8069     0.0000   192.0000 </r>
       <r>   -19.6370     0.0000   192.0000 </r>
       <r>   -19.4671     0.0000   192.0000 </r>
       <r>   -19.2971     0.0000   192.0000 </r>
       <r>   -19.1272     0.0000   192.0000 </r>
       <r>   -18.9573     0.0000   192.0000 </r>
       <r>   -18.7873     0.0000   192.0000 </r>
       <r>   -18.6174     0.0000   192.0000 </r>
       <r>   -18.4475     0.0000   192.0000 </r>
       <r>   -18.2776     0.0000   192.0000 </r>
       <r>   -18.1076     0.0000   192.0000 </r>
       <r>   -17.9377     0.0000   192.0000 </r>
       <r>   -17.7678     0.0000   192.0000 </r>
       <r>   -17.5979     0.0000   192.0000 </r>
       <r>   -17.4279     0.0000   192.0000 </r>
       <r>   -17.2580     0.0000   192.0000 </r>
       <r>   -17.0881     0.0000   192.0000 </r>
       <r>   -16.9181     0.0000   192.0000 </r>
       <r>   -16.7482     0.0000   192.0000 </r>
       <r>   -16.5783     0.0000   192.0000 </r>
       <r>   -16.4084     0.0000   192.0000 </r>
       <r>   -16.2384     0.0000   192.0000 </r>
       <r>   -16.0685     0.0000   192.0000 </r>
       <r>   -15.8986     0.0000   192.0000 </r>
       <r>   -15.7286     0.0000   192.0000 </r>
       <r>   -15.5587     0.0000   192.0000 </r>
       <r>   -15.3888     0.0000   192.0000 </r>
       <r>   -15.2189     0.0000   192.0000 </r>
       <r>   -15.0489     0.0000   192.0000 </r>
       <r>   -14.8790     0.0000   192.0000 </r>
       <r>   -14.7091     0.0000   192.0000 </r>
       <r>   -14.5392     0.0000   192.0000 </r>
       <r>   -14.3692     0.0000   192.0000 </r>
       <r>   -14.1993     0.0000   192.0000 </r>
       <r>   -14.0294     0.0000   192.0000 </r>
       <r>   -13.8594     0.0000   192.0000 </r>
       <r>   -13.6895     0.0000   192.0000 </r>
       <r>   -13.5196     0.0000   192.0000 </r>
       <r>   -13.3497     0.0000   192.0000 </r>
       <r>   -13.1797     0.0000   192.0000 </r>
       <r>   -13.0098     0.0000   192.0000 </r>
       <r>   -12.8399     0.0000   192.0000 </r>
       <r>   -12.6699     0.0000   192.0000 </r>
       <r>   -12.5000     0.0000   192.0000 </r>
       <r>   -12.3301     0.0000   192.0000 </r>
       <r>   -12.1602     0.0000   192.0000 </r>
       <r>   -11.9902     0.0000   192.0000 </r>
       <r>   -11.8203     0.0000   192.0000 </r>
       <r>   -11.6504     0.0000   192.0000 </r>
       <r>   -11.4805     0.0000   192.0000 </r>
       <r>   -11.3105     0.0000   192.0000 </r>
       <r>   -11.1406     0.0000   192.0000 </r>
       <r>   -10.9707     0.0000   192.0000 </r>
       <r>   -10.8007     0.0000   192.0000 </r>
       <r>   -10.6308     0.0000   192.0000 </r>
       <r>   -10.4609     0.0000   192.0000 </r>
       <r>   -10.2910     0.0000   192.0000 </r>
       <r>   -10.1210     0.0000   192.0000 </r>
       <r>    -9.9511     0.0000   192.0000 </r>
       <r>    -9.7812     0.0000   192.0000 </r>
       <r>    -9.6112     0.0000   192.0000 </r>
       <r>    -9.4413     0.0000   192.0000 </r>
       <r>    -9.2714     0.0000   192.0000 </r>
       <r>    -9.1015     0.0000   192.0000 </r>
       <r>    -8.9315     0.0000   192.0000 </r>
       <r>    -8.7616     0.0000   192.0000 </r>
       <r>    -8.5917     0.0000   192.0000 </r>
       <r>    -8.4218     0.0000   192.0000 </r>
       <r>    -8.2518     0.0040   192.0007 </r>
       <r>    -8.0819     0.5618   192.0961 </r>
       <r>    -7.9120     4.9553   192.9382 </r>
       <r>    -7.7420     5.8909   193.9392 </r>
       <r>    -7.5721     4.8554   194.7643 </r>
       <r>    -7.4022    14.4961   197.2276 </r>
       <r>    -7.2323    15.6440   199.8859 </r>
       <r>    -7.0623    18.7295   203.0686 </r>
       <r>    -6.8924    21.5399   206.7288 </r>
       <r>    -6.7225    15.5301   209.3678 </r>
       <r>    -6.5525    16.6375   212.1950 </r>
       <r>    -6.3826    19.4000   215.4916 </r>
       <r>    -6.2127    13.1195   217.7210 </r>
       <r>    -6.0428     1.6393   217.9995 </r>
       <r>    -5.8728     0.0029   218.0000 </r>
       <r>    -5.7029     0.0000   218.0000 </r>
       <r>    -5.5330     0.0000   218.0000 </r>
       <r>    -5.3630     0.0000   218.0000 </r>
       <r>    -5.1931     0.0000   218.0000 </r>
       <r>    -5.0232     0.0000   218.0000 </r>
       <r>    -4.8533     0.0081   218.0014 </r>
       <r>    -4.6833     0.7489   218.1286 </r>
       <r>    -4.5134     4.8151   218.9469 </r>
       <r>    -4.3435     5.5653   219.8926 </r>
       <r>    -4.1736     2.5655   220.3285 </r>
       <r>    -4.0036     8.7477   221.8150 </r>
       <r>    -3.8337    11.1756   223.7140 </r>
       <r>    -3.6638    14.6768   226.2080 </r>
       <r>    -3.4938    19.9964   229.6060 </r>
       <r>    -3.3239    26.1114   234.0430 </r>
       <r>    -3.1540    22.7774   237.9135 </r>
       <r>    -2.9841    22.4850   241.7344 </r>
       <r>    -2.8141    27.3405   246.3803 </r>
       <r>    -2.6442    22.8684   250.2662 </r>
       <r>    -2.4743    13.7453   252.6019 </r>
       <r>    -2.3043    11.7181   254.5932 </r>
       <r>    -2.1344     5.8508   255.5874 </r>
       <r>    -1.9645     2.2408   255.9682 </r>
       <r>    -1.7946     0.1865   255.9998 </r>
       <r>    -1.6246     0.0009   256.0000 </r>
       <r>    -1.4547     0.0000   256.0000 </r>
       <r>    -1.2848     0.0000   256.0000 </r>
       <r>    -1.1149     0.0000   256.0000 </r>
       <r>    -0.9449     0.0000   256.0000 </r>
       <r>    -0.7750     0.0000   256.0000 </r>
       <r>    -0.6051     0.0000   256.0000 </r>
       <r>    -0.4351     0.0000   256.0000 </r>
       <r>    -0.2652     0.0000   256.0000 </r>
       <r>    -0.0953     0.0000   256.0000 </r>
       <r>     0.0746     0.0401   256.0068 </r>
       <r>     0.2446     0.6548   256.1181 </r>
       <r>     0.4145     1.3456   256.3467 </r>
       <r>     0.5844     5.0437   257.2038 </r>
       <r>     0.7544    11.5259   259.1624 </r>
       <r>     0.9243     6.9676   260.3464 </r>
       <r>     1.0942    15.8671   263.0426 </r>
       <r>     1.2641    16.5988   265.8632 </r>
       <r>     1.4341    22.1704   269.6306 </r>
       <r>     1.6040    28.9055   274.5424 </r>
       <r>     1.7739    31.2984   279.8609 </r>
       <r>     1.9438    27.8199   284.5883 </r>
       <r>     2.1138    29.6257   289.6225 </r>
       <r>     2.2837    36.5238   295.8289 </r>
       <r>     2.4536    29.4074   300.8261 </r>
       <r>     2.6236    34.5711   306.7006 </r>
       <r>     2.7935    42.3754   313.9014 </r>
       <r>     2.9634    47.9918   322.0565 </r>
       <r>     3.1333    57.7463   331.8692 </r>
       <r>     3.3033    61.7401   342.3606 </r>
       <r>     3.4732    65.8542   353.5511 </r>
       <r>     3.6431    68.2266   365.1447 </r>
       <r>     3.8131    64.5412   376.1120 </r>
       <r>     3.9830    62.7621   386.7770 </r>
       <r>     4.1529    59.6498   396.9132 </r>
       <r>     4.3228    50.0484   405.4178 </r>
       <r>     4.4928    43.0924   412.7404 </r>
       <r>     4.6627    34.0166   418.5208 </r>
       <r>     4.8326    30.4538   423.6957 </r>
       <r>     5.0025    32.9610   429.2967 </r>
       <r>     5.1725    30.9249   434.5517 </r>
       <r>     5.3424    23.1595   438.4872 </r>
       <r>     5.5123    18.1555   441.5723 </r>
       <r>     5.6823    15.4030   444.1897 </r>
       <r>     5.8522    13.8859   446.5493 </r>
       <r>     6.0221     6.4997   447.6538 </r>
       <r>     6.1920     8.1049   449.0310 </r>
       <r>     6.3620    12.8568   451.2158 </r>
       <r>     6.5319    18.9606   454.4377 </r>
       <r>     6.7018    20.3336   457.8929 </r>
       <r>     6.8718    17.1288   460.8036 </r>
       <r>     7.0417    20.7755   464.3339 </r>
       <r>     7.2116    18.5915   467.4931 </r>
       <r>     7.3815    20.7707   471.0226 </r>
       <r>     7.5515    23.3941   474.9980 </r>
       <r>     7.7214    27.9024   479.7393 </r>
       <r>     7.8913    28.7896   484.6315 </r>
       <r>     8.0612    28.4899   489.4727 </r>
       <r>     8.2312    26.8101   494.0285 </r>
       <r>     8.4011    26.8641   498.5935 </r>
       <r>     8.5710    33.0273   504.2057 </r>
       <r>     8.7410    36.3269   510.3787 </r>
       <r>     8.9109    41.8445   517.4892 </r>
       <r>     9.0808    47.6923   525.5934 </r>
       <r>     9.2507    47.4195   533.6513 </r>
       <r>     9.4207    50.3423   542.2059 </r>
       <r>     9.5906    52.6844   551.1584 </r>
       <r>     9.7605    55.1185   560.5246 </r>
       <r>     9.9305    54.5800   569.7993 </r>
       <r>    10.1004    58.1700   579.6840 </r>
       <r>    10.2703    57.5240   589.4589 </r>
       <r>    10.4402    58.2608   599.3590 </r>
       <r>    10.6102    51.8964   608.1777 </r>
       <r>    10.7801    37.8108   614.6028 </r>
       <r>    10.9500     8.0351   615.9681 </r>
       <r>    11.1199     0.1874   616.0000 </r>
       <r>    11.2899     0.0001   616.0000 </r>
       <r>    11.4598     0.0000   616.0000 </r>
       <r>    11.6297     0.0000   616.0000 </r>
       <r>    11.7997     0.0000   616.0000 </r>
       <r>    11.9696     0.0000   616.0000 </r>
       <r>    12.1395     0.0000   616.0000 </r>
       <r>    12.3094     0.0000   616.0000 </r>
       <r>    12.4794     0.0000   616.0000 </r>
       <r>    12.6493     0.0000   616.0000 </r>
       <r>    12.8192     0.0000   616.0000 </r>
       <r>    12.9892     0.0000   616.0000 </r>
       <r>    13.1591     0.0000   616.0000 </r>
      </set>
     </set>
    </array>
   </total>
  </dos>
 </calculation>
 <structure name="finalpos" >
  <crystal>
   <varray name="basis" >
    <v>       8.70666206       0.00648797      -0.00312226 </v>
    <v>       0.01232304       8.73766751       0.01165135 </v>
    <v>       0.02813050      -0.00366234       8.73851773 </v>
   </varray>
   <i name="volume">    664.79120208 </i>
   <varray name="rec_basis" >
    <v>       0.11485457      -0.00016149      -0.00036980 </v>
    <v>      -0.00008527       0.11444708       0.00004824 </v>
    <v>       0.00004115      -0.00015265       0.11443569 </v>
   </varray>
  </crystal>
  <varray name="positions" >
   <v>       0.00967731       0.99035792       0.99657265 </v>
   <v>       0.25466296       0.99262336       0.24840210 </v>
   <v>       0.25274115       0.50649812       0.24822797 </v>
   <v>       0.50331846       0.49049558       0.99892163 </v>
   <v>       0.49793020       0.24191109       0.75331083 </v>
   <v>       0.99955673       0.49861820       0.50928213 </v>
   <v>       0.50215378       0.75789387       0.73616973 </v>
   <v>       0.99826155       0.24248873       0.24997853 </v>
   <v>       0.74877298       0.75051064       0.00259515 </v>
   <v>       0.00670710       0.24236551       0.75092615 </v>
   <v>       0.74814930       0.24468403       0.50576546 </v>
   <v>       0.00337995       0.75607392       0.74844644 </v>
   <v>       0.25326067       0.50102704       0.75022916 </v>
   <v>       0.25371155       0.24909282       0.99780658 </v>
   <v>       0.50205067       0.24451254       0.24919662 </v>
   <v>       0.73577062       0.99009653       0.25948193 </v>
   <v>       0.74674254       0.24485728       0.99553633 </v>
   <v>       0.25788646       0.75067542       0.00038669 </v>
   <v>       0.25332027       0.24980633       0.50235823 </v>
   <v>       0.25121003       0.75076160       0.49674285 </v>
   <v>       0.25130813       0.24993672       0.25006677 </v>
   <v>       0.26719425       0.00036819       0.99552575 </v>
   <v>       0.00104255       0.25091320       0.00213164 </v>
   <v>       0.74714512       0.24144752       0.25078274 </v>
   <v>       0.74706609       0.99958094       0.00389607 </v>
   <v>       0.50415787       0.00703458       0.24347355 </v>
   <v>       0.99832046       0.48967650       0.25004784 </v>
   <v>       0.50193391       0.75549938       0.99715817 </v>
   <v>       0.98970953       0.00122392       0.74387481 </v>
   <v>       0.75435061       0.23511318       0.75155649 </v>
   <v>       0.74672595       0.00508801       0.49301511 </v>
   <v>       0.50024074       0.24586740       0.49373194 </v>
   <v>       0.49877271       0.99886187       0.74649717 </v>
   <v>       0.99303969       0.00071239       0.24783314 </v>
   <v>       0.50163734       0.24611057       0.00418379 </v>
   <v>       0.26260141       0.75078938       0.24899962 </v>
   <v>       0.24334798       0.50048872       0.99815269 </v>
   <v>       0.00568724       0.74308702       0.00251072 </v>
   <v>       0.74428190       0.74970719       0.24897933 </v>
   <v>       0.76360434       0.49517291       0.00614766 </v>
   <v>       0.49664897       0.50013996       0.24799565 </v>
   <v>       0.25069690       0.24322639       0.75161973 </v>
   <v>       0.25614072       0.00025657       0.51230218 </v>
   <v>       0.00282065       0.24859611       0.49993277 </v>
   <v>       0.25049290       0.75864281       0.75012153 </v>
   <v>       0.25270158       0.50004804       0.50035520 </v>
   <v>       0.00235960       0.75377498       0.49837804 </v>
   <v>       0.99968157       0.50065990       0.75529630 </v>
   <v>       0.75239196       0.76390380       0.74521751 </v>
   <v>       0.74813515       0.49382418       0.50272032 </v>
   <v>       0.49952110       0.76688482       0.48649342 </v>
   <v>       0.50259737       0.49955538       0.74481313 </v>
   <v>       0.51326988       0.02243110       0.98517572 </v>
   <v>       0.99567331       0.52268322       0.97355838 </v>
   <v>       0.50226327       0.72891857       0.27209266 </v>
   <v>       0.22433907       0.00197438       0.77358336 </v>
   <v>       0.47172414       0.99883808       0.50079690 </v>
   <v>       0.72026473       0.98717138       0.78262852 </v>
   <v>       0.00428707       0.76707985       0.25327572 </v>
   <v>       0.73153761       0.51105483       0.24839112 </v>
   <v>       0.02264018       0.00378196       0.49025773 </v>
   <v>       0.50046751       0.51436991       0.49092345 </v>
   <v>       0.74786350       0.51492463       0.76030912 </v>
   <v>       0.75004956       0.73522876       0.49485956 </v>
  </varray>
 </structure>
</modeling>
