HECN                                    
           1
     8.932500    0.000000    0.000000
     0.005753    9.055598    0.000000
     0.032102   -0.015743    8.937128
   Nb   Ta   Ti   N    C    Cr   Mo
     7     6     7    13    19     6     6
Direct configuration=     1
   0.99688001  0.99204997  0.99924002
   0.25398003  0.99714995  0.24912000
   0.24803003  0.50165000  0.24955001
   0.50501006  0.49745998  0.99834003
   0.50479003  0.24631001  0.74710002
   0.99427992  0.50449999  0.49779000
   0.49950005  0.75481999  0.74817004
   0.99437004  0.23617001  0.26379999
   0.75718000  0.74102998  0.01100000
   0.00201000  0.25541000  0.73894001
   0.75307001  0.26163001  0.50533002
   0.99514004  0.74492004  0.74511997
   0.25679999  0.49462002  0.74545002
   0.24788999  0.24839000  0.99657997
   0.50833000  0.25676999  0.25376001
   0.74879004  0.98787999  0.26967001
   0.75719000  0.25603001  0.99591997
   0.24762001  0.74973999  0.99974006
   0.25272001  0.24823001  0.50015003
   0.24457999  0.75048999  0.49983999
   0.24982001  0.24942998  0.24825000
   0.26146999  0.99984002  0.99295996
   0.00281000  0.25024000  0.00130000
   0.75313998  0.24617000  0.25492002
   0.74767001  0.99748000  0.01202000
   0.50714994  0.99977000  0.24673000
   0.99051999  0.48088002  0.24100998
   0.50519005  0.76130999  0.00855000
   0.98896989  0.00202000  0.73708999
   0.75744996  0.24437997  0.74896999
   0.73632001  0.00417000  0.51063000
   0.50563996  0.23264999  0.49544997
   0.50008998  0.00061000  0.73471998
   0.99720000  0.99771992  0.25899999
   0.50427997  0.24673000  0.00262000
   0.25133999  0.74958002  0.24910999
   0.24328000  0.50072997  0.99510994
   0.99837005  0.74313996  0.00460000
   0.75633000  0.73891003  0.25767000
   0.75839004  0.50315998  0.00288000
   0.50700002  0.50333002  0.25878999
   0.24900999  0.25315000  0.74854000
   0.24446000  0.99823996  0.50287998
   0.99804009  0.24229999  0.50128003
   0.24177002  0.75340997  0.75018002
   0.25841001  0.50062002  0.50129001
   0.99000004  0.76215003  0.49746000
   0.99203996  0.50055999  0.75138002
   0.75036005  0.74888000  0.74756004
   0.74036002  0.50197000  0.50067003
   0.50575006  0.74958002  0.49720000
   0.50501003  0.50217998  0.73912003
   0.51588997  0.01358000  0.98075008
   0.99841994  0.50976998  0.98613004
   0.50379003  0.73926997  0.25905001
   0.23780002  0.01082000  0.74607998
   0.47957999  0.98308000  0.49717999
   0.74279003  0.97869994  0.76450995
   0.99864998  0.77573999  0.26102000
   0.73551001  0.51468004  0.26666001
   0.02362000  0.99783001  0.49557002
   0.50539000  0.52833005  0.49917999
   0.73876003  0.52828003  0.73814999
   0.75400003  0.72937999  0.49116997
HECN                                    
           1
     8.327466    0.013409   -0.005433
     0.018957    8.414122    0.006311
     0.024468   -0.008349    8.347593
   Nb   Ta   Ti   N    C    Cr   Mo
     7     6     7    13    19     6     6
Direct configuration=     2
   0.99756132  0.99164184  0.99841159
   0.25712317  0.99377176  0.24715033
   0.25175495  0.50471998  0.24732286
   0.50347090  0.49271357  0.99936708
   0.50090206  0.24214467  0.75152492
   0.99742379  0.50258939  0.50120075
   0.49640773  0.76048487  0.74871927
   0.99539008  0.23680665  0.25929590
   0.75367497  0.74541842  0.01079642
   0.00421300  0.25301426  0.74289525
   0.74780308  0.25533945  0.50499306
   0.00085331  0.74792367  0.74749730
   0.25493179  0.49682252  0.74878045
   0.25038515  0.24867264  0.99532935
   0.50886613  0.25340005  0.25184861
   0.74335338  0.98898076  0.26979890
   0.75335023  0.25613152  0.99443902
   0.24746473  0.74957348  0.99988010
   0.25403608  0.24816415  0.50101963
   0.24628078  0.75035743  0.49924884
   0.25010855  0.24957056  0.24886912
   0.25949289  0.00034613  0.99316138
   0.00251965  0.24849346  0.00141943
   0.75181640  0.24473093  0.25451202
   0.74711472  0.99728278  0.00837211
   0.50636529  0.00017028  0.24924133
   0.99474535  0.47968898  0.24377909
   0.50438559  0.75954044  0.00658650
   0.98856112  0.00235524  0.74290354
   0.75629135  0.24383553  0.75084482
   0.73641831  0.00536854  0.50622562
   0.50379907  0.23271898  0.49418401
   0.50258496  0.00049875  0.73798400
   0.99572337  0.00160134  0.25294665
   0.50478215  0.24664907  0.00248587
   0.25320284  0.74911370  0.24938533
   0.24481092  0.50060379  0.99679918
   0.00212241  0.74298856  0.00320413
   0.75265687  0.74578986  0.25250339
   0.75804995  0.49941254  0.00285129
   0.49946264  0.50306407  0.25357687
   0.25017120  0.24963642  0.74854647
   0.25422613  0.99727048  0.50555379
   0.00089875  0.24656288  0.50055548
   0.24441880  0.75363393  0.75036601
   0.25441579  0.50077524  0.49864320
   0.99684711  0.75756035  0.50120201
   0.99494575  0.50073666  0.75186596
   0.74841994  0.75809999  0.75032461
   0.74691635  0.49673733  0.50232356
   0.50032875  0.75742839  0.49480327
   0.50042382  0.50039023  0.74486115
   0.51835241  0.01817433  0.97812149
   0.99950520  0.51396240  0.98244078
   0.50400145  0.73712941  0.25956247
   0.23749628  0.01216711  0.74810167
   0.47738287  0.98261461  0.49672332
   0.73923014  0.97468069  0.76716187
   0.00116607  0.77593789  0.25723073
   0.73402207  0.51078256  0.25865259
   0.02279489  0.99989883  0.49696337
   0.49928026  0.52577367  0.49688810
   0.74035441  0.52093668  0.74556265
   0.75414092  0.73661508  0.49219025
HECN                                    
           1
     8.679500    0.005607   -0.002272
     0.011274    8.787360    0.002639
     0.028910   -0.012651    8.690610
   Nb   Ta   Ti   N    C    Cr   Mo
     7     6     7    13    19     6     6
Direct configuration=     3
   0.99713603  0.99189769  0.99892718
   0.25515884  0.99588939  0.24837442
   0.24943422  0.50280021  0.24871017
   0.50442624  0.49568474  0.99872567
   0.50332252  0.24475123  0.74876810
   0.99545829  0.50379054  0.49907389
   0.49834327  0.75693470  0.74838108
   0.99475597  0.23640688  0.26210154
   0.75586709  0.74266679  0.01092675
   0.00283399  0.25451853  0.74042936
   0.75108397  0.25927322  0.50520213
   0.99728965  0.74604959  0.74601548
   0.25609864  0.49544302  0.74670761
   0.24882868  0.24849754  0.99610752
   0.50852887  0.25550995  0.25303747
   0.74674756  0.98828611  0.26972134
   0.75574741  0.25606344  0.99536317
   0.24756142  0.74967766  0.99979285
   0.25321427  0.24820711  0.50047736
   0.24521940  0.75044185  0.49961633
   0.24992836  0.24948311  0.24848340
   0.26072727  0.00002733  0.99303695
   0.00269903  0.24958692  0.00134432
   0.75264117  0.24563057  0.25476603
   0.74746259  0.99740401  0.01064464
   0.50685437  0.99992002  0.24767745
   0.99210587  0.48044032  0.24205183
   0.50488667  0.76064681  0.00780912
   0.98881418  0.00214765  0.73928241
   0.75701313  0.24417619  0.74967713
   0.73636001  0.00461603  0.50896979
   0.50494859  0.23267335  0.49497340
   0.50102633  0.00057243  0.73594966
   0.99665143  0.99916647  0.25671993
   0.50446870  0.24670018  0.00256918
   0.25203961  0.74940769  0.24921283
   0.24385462  0.50068512  0.99574621
   0.99978092  0.74308644  0.00407207
   0.75495850  0.74147561  0.25572660
   0.75825839  0.50175884  0.00286754
   0.50416874  0.50322066  0.25682724
   0.24944287  0.25183779  0.74854030
   0.24812882  0.99788854  0.50388374
   0.99911927  0.24389595  0.50100769
   0.24276580  0.75349641  0.75024918
   0.25690990  0.50067282  0.50029369
   0.99256749  0.76044299  0.49886602
   0.99313218  0.50062915  0.75156215
   0.74963908  0.75232579  0.74860762
   0.74281839  0.50002134  0.50128837
   0.50372130  0.75250721  0.49630220
   0.50328195  0.50150912  0.74128583
   0.51682134  0.01529856  0.97976010
   0.99883368  0.51133644  0.98474049
   0.50386710  0.73847028  0.25924214
   0.23768639  0.01132420  0.74684305
   0.47875385  0.98290364  0.49700847
   0.74144672  0.97719526  0.76550944
   0.99959750  0.77581468  0.25959027
   0.73495005  0.51321792  0.26363945
   0.02331139  0.99860317  0.49609672
   0.50309179  0.52736733  0.49831707
   0.73934876  0.52554018  0.74094092
   0.75405996  0.73208507  0.49155806
HECN                                    
           1
     8.669927    0.005819   -0.002358
     0.011483    8.777210    0.002739
     0.028789   -0.012534    8.681281
   Nb   Ta   Ti   N    C    Cr   Mo
     7     6     7    13    19     6     6
Direct configuration=     4
   0.99714712  0.99189104  0.99891370
   0.25521006  0.99583428  0.24834240
   0.24949484  0.50285024  0.24867393
   0.50440123  0.49560735  0.99874240
   0.50325927  0.24468333  0.74884011
   0.99550952  0.50375934  0.49912941
   0.49829285  0.75702710  0.74838998
   0.99477255  0.23641727  0.26202825
   0.75580996  0.74273838  0.01092340
   0.00286990  0.25447942  0.74049374
   0.75099827  0.25917070  0.50519665
   0.99738267  0.74609849  0.74605417
   0.25606821  0.49547894  0.74676179
   0.24886931  0.24850213  0.99608718
   0.50853763  0.25545500  0.25300639
   0.74665902  0.98830412  0.26972341
   0.75568488  0.25606514  0.99533905
   0.24755889  0.74967495  0.99979513
   0.25323571  0.24820602  0.50049152
   0.24524709  0.75043967  0.49960672
   0.24993306  0.24948539  0.24849347
   0.26069507  0.00003561  0.99304022
   0.00269432  0.24955844  0.00134627
   0.75261963  0.24560712  0.25475939
   0.74745354  0.99740081  0.01058528
   0.50684160  0.99992655  0.24771831
   0.99217470  0.48042084  0.24209692
   0.50487358  0.76061797  0.00777717
   0.98880754  0.00215309  0.73937700
   0.75699427  0.24416732  0.74970764
   0.73636157  0.00463560  0.50889812
   0.50491861  0.23267450  0.49495279
   0.50106698  0.00057058  0.73600279
   0.99662732  0.99922980  0.25662140
   0.50447688  0.24669886  0.00256700
   0.25206995  0.74940007  0.24921732
   0.24387956  0.50068304  0.99577371
   0.99984202  0.74308394  0.00404937
   0.75489859  0.74158786  0.25564248
   0.75825289  0.50169774  0.00286709
   0.50404597  0.50321642  0.25674238
   0.24946182  0.25178049  0.74854043
   0.24828788  0.99787262  0.50392730
   0.99916577  0.24396544  0.50099589
   0.24280893  0.75350003  0.75025222
   0.25684485  0.50067541  0.50025060
   0.99267906  0.76036806  0.49892696
   0.99317950  0.50063200  0.75157007
   0.74960740  0.75247614  0.74865256
   0.74292522  0.49993594  0.50131533
   0.50363292  0.75263525  0.49626314
   0.50320731  0.50147996  0.74137924
   0.51686138  0.01537346  0.97971732
   0.99885129  0.51140481  0.98468045
   0.50387057  0.73843537  0.25925049
   0.23768144  0.01134616  0.74687594
   0.47871807  0.98289608  0.49700103
   0.74138881  0.97712975  0.76555260
   0.99963846  0.77581790  0.25952862
   0.73492582  0.51315442  0.26350916
   0.02329794  0.99863690  0.49611938
   0.50299231  0.52732572  0.49827977
   0.73937483  0.52542038  0.74106158
   0.75406218  0.73220304  0.49157462
HECN                                    
           1
     8.674241    0.016179   -0.002956
     0.022010    8.729907    0.006901
     0.028189   -0.008317    8.689387
   Nb   Ta   Ti   N    C    Cr   Mo
     7     6     7    13    19     6     6
Direct configuration=     5
   0.99924069  0.99271986  0.99696291
   0.25876182  0.99350248  0.24587380
   0.25268234  0.50513907  0.24604372
   0.50210901  0.49171714  0.00002849
   0.49922407  0.24058838  0.75300939
   0.00027284  0.50133342  0.50216495
   0.49442818  0.76257663  0.74965420
   0.99720139  0.23841722  0.25484220
   0.75121292  0.74866985  0.00918407
   0.00518030  0.25057234  0.74708860
   0.74592132  0.25128842  0.50479690
   0.00252103  0.75052847  0.74975904
   0.25254688  0.49822827  0.75036993
   0.25183640  0.24847430  0.99551353
   0.50793407  0.25128351  0.25063849
   0.74115875  0.99045500  0.26830431
   0.75168124  0.25494246  0.99445048
   0.24878930  0.74985814  0.00014217
   0.25518171  0.24817031  0.50072191
   0.24754696  0.75031353  0.49894938
   0.25148146  0.24955058  0.24891989
   0.25986613  0.00049014  0.99232439
   0.00245264  0.24926295  0.00166511
   0.74927695  0.24394029  0.25238664
   0.74581568  0.99847238  0.00695209
   0.50658370  0.00021531  0.24941934
   0.99585760  0.48204151  0.24346240
   0.50246598  0.76002429  0.00648061
   0.98801763  0.00244932  0.74517299
   0.75509848  0.24363455  0.75303217
   0.73717776  0.00474993  0.50596215
   0.50139950  0.23347746  0.49329249
   0.50318221  0.00065889  0.73962649
   0.99458118  0.00299157  0.25046492
   0.50451930  0.24581040  0.00372244
   0.25533236  0.74895875  0.24919278
   0.24439339  0.50032484  0.99779522
   0.00469026  0.74202493  0.00356482
   0.75003277  0.74961774  0.25119723
   0.75928212  0.49642397  0.00315796
   0.49541511  0.50255185  0.25135720
   0.25138094  0.24711247  0.74878240
   0.25930793  0.99719961  0.50767624
   0.00308242  0.24850640  0.50041083
   0.24641254  0.75518171  0.75066015
   0.25279420  0.50055862  0.49765974
   0.00042312  0.75552069  0.50207513
   0.99626008  0.50074680  0.75288100
   0.74793077  0.76127886  0.75058467
   0.74834954  0.49568247  0.50257194
   0.49759555  0.76212052  0.49315047
   0.49901846  0.49959250  0.74663203
   0.51843792  0.01897990  0.97755871
   0.00027306  0.51443359  0.98145999
   0.50333335  0.73740062  0.25876692
   0.23747528  0.01169937  0.74981287
   0.47761124  0.98356371  0.49546217
   0.73744428  0.97550464  0.76894228
   0.00286909  0.77113277  0.25396168
   0.73547624  0.50670864  0.25336242
   0.01972110  0.00215573  0.49834194
   0.49678565  0.52085820  0.49577336
   0.74265687  0.51617611  0.75150955
   0.75300732  0.74143533  0.49431587
HECN                                    
           1
     8.674474    0.016739   -0.002988
     0.022579    8.727351    0.007126
     0.028156   -0.008089    8.689825
   Nb   Ta   Ti   N    C    Cr   Mo
     7     6     7    13    19     6     6
Direct configuration=     6
   0.99935369  0.99276480  0.99685760
   0.25895377  0.99337565  0.24574062
   0.25285431  0.50526327  0.24590170
   0.50198548  0.49150593  0.00009801
   0.49900645  0.24036608  0.75323454
   0.00053025  0.50120125  0.50232888
   0.49421911  0.76287831  0.74972228
   0.99733239  0.23852589  0.25445426
   0.75096426  0.74899240  0.00909000
   0.00530536  0.25035978  0.74744470
   0.74564767  0.25086057  0.50477551
   0.00279824  0.75076870  0.74995893
   0.25235655  0.49837776  0.75056461
   0.25199663  0.24847262  0.99548258
   0.50790174  0.25105700  0.25051078
   0.74086157  0.99057224  0.26822763
   0.75146510  0.25488175  0.99440253
   0.24885573  0.74986801  0.00016090
   0.25528680  0.24816824  0.50073435
   0.24767117  0.75030655  0.49891390
   0.25156507  0.24955401  0.24894291
   0.25982133  0.00051490  0.99228573
   0.00243961  0.24924691  0.00168232
   0.74909653  0.24385002  0.25225859
   0.74572715  0.99853079  0.00675594
   0.50656976  0.00023097  0.24951115
   0.99605638  0.48212928  0.24353608
   0.50233600  0.75999223  0.00641062
   0.98797497  0.00246531  0.74548584
   0.75499615  0.24360564  0.75321164
   0.73722181  0.00475617  0.50580367
   0.50120939  0.23352135  0.49320284
   0.50329645  0.00066345  0.73982210
   0.99447040  0.00319622  0.25013249
   0.50452166  0.24576211  0.00378483
   0.25550857  0.74893457  0.24919148
   0.24442117  0.50030529  0.99790435
   0.00495215  0.74196710  0.00353871
   0.74976945  0.75005437  0.25095705
   0.75933805  0.49613741  0.00317381
   0.49494904  0.50251644  0.25106649
   0.25148489  0.24685876  0.74879559
   0.25990311  0.99716225  0.50787867
   0.00329363  0.24875285  0.50037914
   0.24660704  0.75527282  0.75068214
   0.25257545  0.50055260  0.49751987
   0.00084166  0.75525679  0.50224522
   0.99642644  0.50075281  0.75295177
   0.74783965  0.76175711  0.75068872
   0.74864276  0.49545103  0.50263991
   0.49726887  0.76263625  0.49298217
   0.49879239  0.49949010  0.74691560
   0.51852282  0.01917577  0.97744210
   0.00034963  0.51459812  0.98128608
   0.50330440  0.73734446  0.25874084
   0.23746413  0.01171849  0.74997140
   0.47755141  0.98360009  0.49537908
   0.73723138  0.97541653  0.76912528
   0.00304384  0.77087820  0.25366132
   0.73550635  0.50635872  0.25281487
   0.01952771  0.00234706  0.49846181
   0.49645089  0.52050733  0.49563821
   0.74283477  0.51567345  0.75207378
   0.75294975  0.74193685  0.49446359
HECN                                    
           1
     8.746674    0.011140   -0.002218
     0.017019    8.787638    0.009027
     0.029186   -0.006324    8.752589
   Nb   Ta   Ti   N    C    Cr   Mo
     7     6     7    13    19     6     6
Direct configuration=     7
   0.00171242  0.99210689  0.99630992
   0.25869878  0.99271239  0.24650565
   0.25223434  0.50611758  0.24555377
   0.50176712  0.49050423  0.99995053
   0.49772235  0.23987401  0.75393784
   0.00185579  0.49990996  0.50469920
   0.49446204  0.76187795  0.74825395
   0.99815293  0.24101073  0.25228964
   0.75035758  0.74911986  0.00722854
   0.00625833  0.24780755  0.74907198
   0.74628741  0.24792387  0.50563094
   0.00232537  0.75196894  0.75145364
   0.25109430  0.49799956  0.75092110
   0.25356651  0.24768072  0.99587364
   0.50675768  0.24906820  0.24954445
   0.73850632  0.99213614  0.26600842
   0.74969301  0.25215637  0.99468041
   0.25109202  0.75033863  0.00118593
   0.25572288  0.24761740  0.50079404
   0.24839741  0.75075976  0.49832738
   0.25211341  0.24882403  0.24909181
   0.25976835  0.00089485  0.99222854
   0.00231371  0.25012905  0.00198700
   0.74783932  0.24275867  0.25108953
   0.74499056  0.99995009  0.00392256
   0.50654148  0.00080662  0.24971111
   0.99695731  0.48550226  0.24465274
   0.50100326  0.76013828  0.00516890
   0.98775895  0.00269581  0.74634180
   0.75445730  0.24412697  0.75355896
   0.73981619  0.00451035  0.50476875
   0.49959337  0.23683357  0.49304971
   0.50435208  0.00125277  0.74248926
   0.99478452  0.99967731  0.24999870
   0.50369039  0.24472567  0.00460926
   0.25794225  0.74958635  0.24882842
   0.24365260  0.49990851  0.99821679
   0.00420109  0.74171536  0.00439746
   0.74716484  0.75016364  0.25255731
   0.76068578  0.49623967  0.00411772
   0.49676708  0.50259607  0.25066682
   0.25133935  0.24625545  0.74899919
   0.25903500  0.99819905  0.50992624
   0.00369122  0.24995388  0.49996523
   0.24786317  0.75700353  0.75084875
   0.25179838  0.50016777  0.49823174
   0.00271030  0.75401530  0.50120935
   0.99778297  0.50107901  0.75405725
   0.74880078  0.75907773  0.74976055
   0.74783575  0.49733615  0.50197506
   0.49665519  0.76140148  0.49088880
   0.49924919  0.49970704  0.74679621
   0.51921642  0.01995678  0.97652584
   0.00085330  0.51667794  0.97794730
   0.50205731  0.73495473  0.25961338
   0.23516694  0.00990626  0.75184041
   0.47839763  0.98530018  0.49322139
   0.73316580  0.97836107  0.77318400
   0.00356187  0.77098002  0.25189759
   0.73231809  0.50678355  0.24992688
   0.02164520  0.00388580  0.49734444
   0.49743918  0.52033722  0.49415612
   0.74418677  0.51624388  0.75717616
   0.75217211  0.74068928  0.49483413
HECN                                    
           1
     8.734444    0.012089   -0.002349
     0.017961    8.777426    0.008705
     0.029011   -0.006623    8.741958
   Nb   Ta   Ti   N    C    Cr   Mo
     7     6     7    13    19     6     6
Direct configuration=     8
   0.00131624  0.99221729  0.99640204
   0.25874170  0.99282402  0.24637696
   0.25233839  0.50597392  0.24561230
   0.50180391  0.49067276  0.99997530
   0.49793813  0.23995696  0.75381952
   0.00163329  0.50012712  0.50430055
   0.49442131  0.76204616  0.74850086
   0.99801478  0.24059255  0.25265377
   0.75045946  0.74909842  0.00754158
   0.00609855  0.24823686  0.74879823
   0.74618028  0.24841786  0.50548698
   0.00240470  0.75176713  0.75120230
   0.25130640  0.49806333  0.75086112
   0.25330288  0.24781378  0.99580787
   0.50695008  0.24940286  0.24970687
   0.73890178  0.99187323  0.26638165
   0.74999101  0.25261506  0.99463356
   0.25071631  0.75025925  0.00101360
   0.25564968  0.24771002  0.50078399
   0.24827535  0.75068342  0.49842605
   0.25202137  0.24894678  0.24906675
   0.25977721  0.00083093  0.99223817
   0.00233477  0.24998068  0.00193579
   0.74805062  0.24294236  0.25128608
   0.74511410  0.99971131  0.00439911
   0.50654617  0.00070979  0.24967750
   0.99680561  0.48493478  0.24446508
   0.50122711  0.76011381  0.00537771
   0.98779523  0.00265709  0.74619786
   0.75454777  0.24403934  0.75350056
   0.73938037  0.00455138  0.50494283
   0.49986448  0.23627653  0.49307555
   0.50417472  0.00115361  0.74204075
   0.99473213  0.00026925  0.25002108
   0.50383017  0.24490014  0.00447056
   0.25753334  0.74947643  0.24888954
   0.24378176  0.49997536  0.99816422
   0.00432730  0.74175782  0.00425302
   0.74760241  0.75014560  0.25228815
   0.76045938  0.49622235  0.00395901
   0.49646165  0.50258246  0.25073407
   0.25136387  0.24635696  0.74896493
   0.25918075  0.99802480  0.50958191
   0.00362429  0.24975178  0.50003489
   0.24765197  0.75671225  0.75082081
   0.25192898  0.50023262  0.49811200
   0.00239651  0.75422391  0.50138354
   0.99755507  0.50102403  0.75387137
   0.74863960  0.75952834  0.74991657
   0.74797110  0.49701909  0.50208693
   0.49675838  0.76160919  0.49124080
   0.49917242  0.49967049  0.74681630
   0.51909980  0.01982529  0.97667997
   0.00076841  0.51632789  0.97850888
   0.50226709  0.73535691  0.25946653
   0.23555307  0.01021145  0.75152599
   0.47825525  0.98501401  0.49358434
   0.73384852  0.97786631  0.77250147
   0.00347481  0.77096277  0.25219421
   0.73285360  0.50671233  0.25041253
   0.02128929  0.00362667  0.49753244
   0.49727315  0.52036568  0.49440538
   0.74395966  0.51614795  0.75631811
   0.75230289  0.74089926  0.49477176
HECN                                    
           1
     8.705010    0.005457   -0.001621
     0.011285    8.742480    0.009925
     0.029636   -0.005373    8.709682
   Nb   Ta   Ti   N    C    Cr   Mo
     7     6     7    13    19     6     6
Direct configuration=     9
   0.00436379  0.99131840  0.99650860
   0.25814254  0.99212072  0.24788171
   0.25225223  0.50690463  0.24600624
   0.50167039  0.48967966  0.99958831
   0.49671286  0.24011146  0.75414663
   0.00174217  0.49896455  0.50723806
   0.49612753  0.76058166  0.74595148
   0.99852740  0.24164492  0.25092750
   0.74986341  0.74913748  0.00627223
   0.00707535  0.24539917  0.74967495
   0.74716522  0.24642166  0.50650002
   0.00194719  0.75314103  0.75183964
   0.25100060  0.49779080  0.75082380
   0.25482967  0.24674687  0.99631577
   0.50547904  0.24740318  0.24913915
   0.73655413  0.99284306  0.26399855
   0.74791778  0.24936272  0.99497084
   0.25305890  0.75087286  0.00202108
   0.25580731  0.24715207  0.50101595
   0.24902701  0.75140963  0.49774530
   0.25210433  0.24833703  0.24923669
   0.25961778  0.00118499  0.99269242
   0.00220516  0.25073186  0.00222710
   0.74730191  0.24178828  0.25063012
   0.74488558  0.00080472  0.00146114
   0.50620465  0.00187408  0.24982857
   0.99794687  0.48806299  0.24638254
   0.50034808  0.75997401  0.00339089
   0.98789956  0.00272912  0.74624816
   0.75415376  0.24430832  0.75317899
   0.74251313  0.00499755  0.50309742
   0.49908309  0.24045525  0.49323484
   0.50528745  0.00134657  0.74500370
   0.99522175  0.99874036  0.25045674
   0.50276979  0.24388301  0.00490608
   0.25973575  0.75016693  0.24855314
   0.24311164  0.49957936  0.99822174
   0.00327844  0.74174402  0.00499615
   0.74520420  0.74951834  0.25339206
   0.76191542  0.49683935  0.00532391
   0.49790718  0.50241664  0.25034495
   0.25091947  0.24604617  0.74936968
   0.25809488  0.99913020  0.51152011
   0.00347435  0.25019199  0.49961486
   0.24833862  0.75828807  0.75100279
   0.25191169  0.49987708  0.49918520
   0.00335214  0.75364456  0.49996804
   0.99860963  0.50114449  0.75477143
   0.74973616  0.75736118  0.74888672
   0.74698658  0.49844719  0.50152704
   0.49693068  0.75986743  0.48894496
   0.50027444  0.50018135  0.74605847
   0.51991822  0.02071252  0.97551809
   0.00087071  0.51935902  0.97453449
   0.50086897  0.73210500  0.26139075
   0.23177995  0.00809187  0.75384989
   0.47853319  0.98690502  0.49101648
   0.72853556  0.97978843  0.77743938
   0.00359823  0.77064053  0.25112760
   0.72951372  0.50850900  0.24818048
   0.02395051  0.00509049  0.49576712
   0.49864932  0.52046588  0.49285715
   0.74538148  0.51748045  0.76103081
   0.75181188  0.73818251  0.49506544
HECN                                    
           1
     8.707701    0.006063   -0.001688
     0.011895    8.745674    0.009814
     0.029579   -0.005487    8.712632
   Nb   Ta   Ti   N    C    Cr   Mo
     7     6     7    13    19     6     6
Direct configuration=    10
   0.00408436  0.99140068  0.99649883
   0.25819755  0.99218532  0.24774365
   0.25226007  0.50681924  0.24597011
   0.50168270  0.48977080  0.99962380
   0.49682522  0.24009737  0.75411661
   0.00173229  0.49907127  0.50696856
   0.49597114  0.76071590  0.74618535
   0.99848030  0.24154829  0.25108589
   0.74991806  0.74913392  0.00638868
   0.00698597  0.24565952  0.74959449
   0.74707503  0.24660479  0.50640706
   0.00198906  0.75301499  0.75178119
   0.25102866  0.49781583  0.75082722
   0.25468973  0.24684468  0.99626917
   0.50561408  0.24758678  0.24919119
   0.73676934  0.99275419  0.26421717
   0.74810814  0.24966132  0.99493984
   0.25284402  0.75081640  0.00192868
   0.25579289  0.24720326  0.50099466
   0.24895802  0.75134293  0.49780776
   0.25209677  0.24839298  0.24922109
   0.25963238  0.00115252  0.99265075
   0.00221700  0.25066294  0.00220039
   0.74737065  0.24189423  0.25069028
   0.74490644  0.00070436  0.00173068
   0.50623589  0.00176726  0.24981473
   0.99784200  0.48777587  0.24620668
   0.50042869  0.75998688  0.00357315
   0.98788998  0.00272250  0.74624355
   0.75418987  0.24428366  0.75320849
   0.74222578  0.00495637  0.50326675
   0.49915446  0.24007184  0.49322027
   0.50518541  0.00132882  0.74473189
   0.99517696  0.99888064  0.25041676
   0.50286711  0.24397643  0.00486610
   0.25953371  0.75010340  0.24858403
   0.24317313  0.49961575  0.99821646
   0.00337463  0.74174537  0.00492797
   0.74542419  0.74957609  0.25329076
   0.76178185  0.49678265  0.00519872
   0.49777462  0.50243176  0.25038065
   0.25096025  0.24607472  0.74933254
   0.25819440  0.99902886  0.51134230
   0.00348807  0.25015160  0.49965340
   0.24827554  0.75814342  0.75098612
   0.25191331  0.49990972  0.49908674
   0.00326453  0.75369764  0.50009790
   0.99851291  0.50113337  0.75468886
   0.74963573  0.75755996  0.74898118
   0.74707677  0.49831620  0.50157841
   0.49691498  0.76002723  0.48915556
   0.50017333  0.50013439  0.74612801
   0.51984309  0.02063103  0.97562470
   0.00086109  0.51908080  0.97489914
   0.50099743  0.73240354  0.26121417
   0.23212615  0.00828667  0.75363664
   0.47850755  0.98673144  0.49125208
   0.72902272  0.97961247  0.77698636
   0.00358693  0.77067008  0.25122545
   0.72981988  0.50834432  0.24838525
   0.02370634  0.00495595  0.49592911
   0.49852309  0.52045657  0.49299919
   0.74525103  0.51735814  0.76059850
   0.75185710  0.73843186  0.49503846
HECN                                    
           1
     8.703396    0.005533   -0.000281
     0.011358    8.745517    0.008972
     0.030973   -0.006335    8.717346
   Nb   Ta   Ti   N    C    Cr   Mo
     7     6     7    13    19     6     6
Direct configuration=    11
   0.00615507  0.99132667  0.99727865
   0.25787460  0.99230218  0.24888708
   0.25248391  0.50674849  0.24703497
   0.50133240  0.48973425  0.99920408
   0.49650822  0.24112642  0.75353481
   0.00035394  0.49891829  0.50803827
   0.49802386  0.75971491  0.74396812
   0.99855330  0.24113004  0.25036133
   0.74910469  0.74989042  0.00658696
   0.00701601  0.24421644  0.74983800
   0.74723094  0.24657115  0.50675885
   0.00232096  0.75435700  0.75081941
   0.25199943  0.49858235  0.75041309
   0.25503005  0.24624840  0.99673556
   0.50430543  0.24671320  0.24952609
   0.73619620  0.99233664  0.26300809
   0.74698164  0.24792813  0.99517407
   0.25397219  0.75125118  0.00187963
   0.25563270  0.24730854  0.50117005
   0.24945521  0.75177254  0.49751675
   0.25188677  0.24859899  0.24933138
   0.26000641  0.00109011  0.99327515
   0.00209390  0.25092579  0.00217255
   0.74739950  0.24141093  0.25070923
   0.74575836  0.00074116  0.00165847
   0.50565792  0.00289499  0.24953171
   0.99863672  0.48888204  0.24773269
   0.50034186  0.75959614  0.00208010
   0.98808181  0.00223019  0.74542761
   0.75397390  0.24364501  0.75275380
   0.74381212  0.00565328  0.50145678
   0.49957317  0.24242610  0.49352721
   0.50499444  0.00092610  0.74558348
   0.99491585  0.00109915  0.25042876
   0.50224035  0.24361353  0.00484202
   0.26018819  0.75015570  0.24865068
   0.24297005  0.49954093  0.99815809
   0.00368333  0.74202790  0.00470036
   0.74457321  0.74955198  0.25236346
   0.76274425  0.49668854  0.00626496
   0.49603462  0.50136371  0.24943442
   0.25085490  0.24571035  0.74979882
   0.25928726  0.99919338  0.51224996
   0.00326594  0.24956378  0.49954476
   0.24836731  0.75871928  0.75099722
   0.25254515  0.49985322  0.49958721
   0.00301101  0.75406496  0.49948255
   0.99849043  0.50078490  0.75458611
   0.75005255  0.75896771  0.74859708
   0.74725418  0.49721365  0.50184865
   0.49750628  0.76061185  0.48797895
   0.50112034  0.50043909  0.74544506
   0.51939776  0.02077854  0.97570347
   0.00032675  0.52076406  0.97424354
   0.50030548  0.73097716  0.26306116
   0.22909380  0.00703047  0.75549643
   0.47823226  0.98834984  0.49023317
   0.72624186  0.97936099  0.77866061
   0.00342580  0.76847685  0.25180473
   0.73072196  0.50948660  0.24801918
   0.02330479  0.00539221  0.49502340
   0.49884938  0.51860887  0.49274765
   0.74624640  0.51687451  0.76161047
   0.75200129  0.73753798  0.49546321
HECN                                    
           1
     8.700333    0.005155    0.000720
     0.010976    8.745405    0.008372
     0.031966   -0.006938    8.720701
   Nb   Ta   Ti   N    C    Cr   Mo