  64  64   0   0
  0.2218804E+02  0.1124000E-08  0.1124000E-08  0.1124000E-08  0.5000000E-15
  1.000000000000000E-004
  CAR 
 HECN                                    
     14.66226716    -59.44265426  301      8.79252145      1.00000000
    -59.443  0.0000E+00  0.0000E+00
    -59.196  0.0000E+00  0.0000E+00
    -58.949  0.0000E+00  0.0000E+00
    -58.702  0.0000E+00  0.0000E+00
    -58.455  0.0000E+00  0.0000E+00
    -58.208  0.0000E+00  0.0000E+00
    -57.961  0.0000E+00  0.0000E+00
    -57.714  0.0000E+00  0.0000E+00
    -57.467  0.0000E+00  0.0000E+00
    -57.220  0.0000E+00  0.0000E+00
    -56.972  0.0000E+00  0.0000E+00
    -56.725  0.0000E+00  0.0000E+00
    -56.478  0.5591E-09  0.1381E-09
    -56.231  0.1951E-02  0.4820E-03
    -55.984  0.3298E+00  0.8195E-01
    -55.737  0.1540E+00  0.1200E+00
    -55.490  0.6212E-04  0.1200E+00
    -55.243  0.5783E-12  0.1200E+00
    -54.996  0.0000E+00  0.1200E+00
    -54.749  0.0000E+00  0.1200E+00
    -54.502  0.0000E+00  0.1200E+00
    -54.255  0.0000E+00  0.1200E+00
    -54.008  0.0000E+00  0.1200E+00
    -53.761  0.0000E+00  0.1200E+00
    -53.514  0.0000E+00  0.1200E+00
    -53.267  0.0000E+00  0.1200E+00
    -53.020  0.0000E+00  0.1200E+00
    -52.773  0.0000E+00  0.1200E+00
    -52.526  0.0000E+00  0.1200E+00
    -52.279  0.0000E+00  0.1200E+00
    -52.032  0.0000E+00  0.1200E+00
    -51.785  0.0000E+00  0.1200E+00
    -51.538  0.0000E+00  0.1200E+00
    -51.291  0.0000E+00  0.1200E+00
    -51.044  0.0000E+00  0.1200E+00
    -50.797  0.0000E+00  0.1200E+00
    -50.550  0.0000E+00  0.1200E+00
    -50.303  0.0000E+00  0.1200E+00
    -50.056  0.0000E+00  0.1200E+00
    -49.809  0.0000E+00  0.1200E+00
    -49.562  0.0000E+00  0.1200E+00
    -49.315  0.1568E-11  0.1200E+00
    -49.068  0.7434E-04  0.1200E+00
    -48.821  0.5299E-01  0.1331E+00
    -48.574  0.2249E+00  0.1887E+00
    -48.327  0.2685E+00  0.2550E+00
    -48.080  0.2036E-01  0.2600E+00
    -47.833  0.8813E-06  0.2600E+00
    -47.586  0.9118E-06  0.2600E+00
    -47.339  0.2339E-01  0.2658E+00
    -47.092  0.2648E+00  0.3312E+00
    -46.845  0.1452E+00  0.3671E+00
    -46.598  0.5228E-01  0.3800E+00
    -46.351  0.7198E-04  0.3800E+00
    -46.104  0.1470E-11  0.3800E+00
    -45.857  0.0000E+00  0.3800E+00
    -45.610  0.0000E+00  0.3800E+00
    -45.363  0.0000E+00  0.3800E+00
    -45.116  0.0000E+00  0.3800E+00
    -44.869  0.0000E+00  0.3800E+00
    -44.622  0.0000E+00  0.3800E+00
    -44.375  0.0000E+00  0.3800E+00
    -44.128  0.0000E+00  0.3800E+00
    -43.881  0.0000E+00  0.3800E+00
    -43.634  0.0000E+00  0.3800E+00
    -43.387  0.0000E+00  0.3800E+00
    -43.140  0.0000E+00  0.3800E+00
    -42.893  0.0000E+00  0.3800E+00
    -42.646  0.0000E+00  0.3800E+00
    -42.399  0.0000E+00  0.3800E+00
    -42.152  0.0000E+00  0.3800E+00
    -41.904  0.0000E+00  0.3800E+00
    -41.657  0.0000E+00  0.3800E+00
    -41.410  0.0000E+00  0.3800E+00
    -41.163  0.0000E+00  0.3800E+00
    -40.916  0.0000E+00  0.3800E+00
    -40.669  0.0000E+00  0.3800E+00
    -40.422  0.0000E+00  0.3800E+00
    -40.175  0.0000E+00  0.3800E+00
    -39.928  0.0000E+00  0.3800E+00
    -39.681  0.0000E+00  0.3800E+00
    -39.434  0.0000E+00  0.3800E+00
    -39.187  0.0000E+00  0.3800E+00
    -38.940  0.0000E+00  0.3800E+00
    -38.693  0.0000E+00  0.3800E+00
    -38.446  0.0000E+00  0.3800E+00
    -38.199  0.0000E+00  0.3800E+00
    -37.952  0.0000E+00  0.3800E+00
    -37.705  0.0000E+00  0.3800E+00
    -37.458  0.0000E+00  0.3800E+00
    -37.211  0.0000E+00  0.3800E+00
    -36.964  0.0000E+00  0.3800E+00
    -36.717  0.0000E+00  0.3800E+00
    -36.470  0.0000E+00  0.3800E+00
    -36.223  0.0000E+00  0.3800E+00
    -35.976  0.0000E+00  0.3800E+00
    -35.729  0.0000E+00  0.3800E+00
    -35.482  0.0000E+00  0.3800E+00
    -35.235  0.0000E+00  0.3800E+00
    -34.988  0.0000E+00  0.3800E+00
    -34.741  0.0000E+00  0.3800E+00
    -34.494  0.0000E+00  0.3800E+00
    -34.247  0.0000E+00  0.3800E+00
    -34.000  0.0000E+00  0.3800E+00
    -33.753  0.0000E+00  0.3800E+00
    -33.506  0.0000E+00  0.3800E+00
    -33.259  0.0000E+00  0.3800E+00
    -33.012  0.0000E+00  0.3800E+00
    -32.765  0.0000E+00  0.3800E+00
    -32.518  0.0000E+00  0.3800E+00
    -32.271  0.0000E+00  0.3800E+00
    -32.024  0.0000E+00  0.3800E+00
    -31.777  0.0000E+00  0.3800E+00
    -31.530  0.0000E+00  0.3800E+00
    -31.283  0.0000E+00  0.3800E+00
    -31.036  0.0000E+00  0.3800E+00
    -30.789  0.0000E+00  0.3800E+00
    -30.542  0.4689E-10  0.3800E+00
    -30.295  0.5497E-03  0.3801E+00
    -30.048  0.3384E+00  0.4637E+00
    -29.801  0.1051E+01  0.7233E+00
    -29.554  0.6748E-01  0.7400E+00
    -29.307  0.1915E-05  0.7400E+00
    -29.060  0.7641E-15  0.7400E+00
    -28.813  0.0000E+00  0.7400E+00
    -28.566  0.0000E+00  0.7400E+00
    -28.319  0.0000E+00  0.7400E+00
    -28.072  0.0000E+00  0.7400E+00
    -27.825  0.0000E+00  0.7400E+00
    -27.578  0.0000E+00  0.7400E+00
    -27.331  0.4149E-14  0.7400E+00
    -27.084  0.3314E-05  0.7400E+00
    -26.836  0.3716E-01  0.7492E+00
    -26.589  0.3572E+00  0.8374E+00
    -26.342  0.6421E+00  0.9960E+00
    -26.095  0.2934E+00  0.1069E+01
    -25.848  0.1274E+00  0.1100E+01
    -25.601  0.1094E-03  0.1100E+01
    -25.354  0.1142E-01  0.1103E+01
    -25.107  0.2610E+00  0.1167E+01
    -24.860  0.9603E+00  0.1404E+01
    -24.613  0.4522E+00  0.1516E+01
    -24.366  0.1543E-01  0.1520E+01
    -24.119  0.1330E-06  0.1520E+01
    -23.872  0.5941E-05  0.1520E+01
    -23.625  0.5231E-01  0.1533E+01
    -23.378  0.3955E+00  0.1631E+01
    -23.131  0.6271E+00  0.1786E+01
    -22.884  0.3423E+00  0.1870E+01
    -22.637  0.4019E-01  0.1880E+01
    -22.390  0.2008E-01  0.1885E+01
    -22.143  0.2879E+00  0.1956E+01
    -21.896  0.4104E+00  0.2057E+01
    -21.649  0.3063E+00  0.2133E+01
    -21.402  0.4301E+00  0.2239E+01
    -21.155  0.1865E+00  0.2285E+01
    -20.908  0.5899E-01  0.2300E+01
    -20.661  0.4989E-05  0.2300E+01
    -20.414  0.5583E-14  0.2300E+01
    -20.167  0.0000E+00  0.2300E+01
    -19.920  0.0000E+00  0.2300E+01
    -19.673  0.0000E+00  0.2300E+01
    -19.426  0.0000E+00  0.2300E+01
    -19.179  0.0000E+00  0.2300E+01
    -18.932  0.0000E+00  0.2300E+01
    -18.685  0.0000E+00  0.2300E+01
    -18.438  0.0000E+00  0.2300E+01
    -18.191  0.0000E+00  0.2300E+01
    -17.944  0.0000E+00  0.2300E+01
    -17.697  0.0000E+00  0.2300E+01
    -17.450  0.0000E+00  0.2300E+01
    -17.203  0.0000E+00  0.2300E+01
    -16.956  0.0000E+00  0.2300E+01
    -16.709  0.0000E+00  0.2300E+01
    -16.462  0.0000E+00  0.2300E+01
    -16.215  0.0000E+00  0.2300E+01
    -15.968  0.0000E+00  0.2300E+01
    -15.721  0.0000E+00  0.2300E+01
    -15.474  0.0000E+00  0.2300E+01
    -15.227  0.0000E+00  0.2300E+01
    -14.980  0.0000E+00  0.2300E+01
    -14.733  0.0000E+00  0.2300E+01
    -14.486  0.0000E+00  0.2300E+01
    -14.239  0.0000E+00  0.2300E+01
    -13.992  0.0000E+00  0.2300E+01
    -13.745  0.0000E+00  0.2300E+01
    -13.498  0.0000E+00  0.2300E+01
    -13.251  0.0000E+00  0.2300E+01
    -13.004  0.0000E+00  0.2300E+01
    -12.757  0.0000E+00  0.2300E+01
    -12.510  0.0000E+00  0.2300E+01
    -12.263  0.0000E+00  0.2300E+01
    -12.016  0.0000E+00  0.2300E+01
    -11.768  0.0000E+00  0.2300E+01
    -11.521  0.0000E+00  0.2300E+01
    -11.274  0.0000E+00  0.2300E+01
    -11.027  0.0000E+00  0.2300E+01
    -10.780  0.0000E+00  0.2300E+01
    -10.533  0.0000E+00  0.2300E+01
    -10.286  0.0000E+00  0.2300E+01
    -10.039  0.0000E+00  0.2300E+01
     -9.792  0.0000E+00  0.2300E+01
     -9.545  0.0000E+00  0.2300E+01
     -9.298  0.0000E+00  0.2300E+01
     -9.051  0.0000E+00  0.2300E+01
     -8.804  0.0000E+00  0.2300E+01
     -8.557  0.0000E+00  0.2300E+01
     -8.310  0.0000E+00  0.2300E+01
     -8.063  0.6464E-14  0.2300E+01
     -7.816  0.1143E-05  0.2300E+01
     -7.569  0.4272E-02  0.2301E+01
     -7.322  0.4675E-01  0.2313E+01
     -7.075  0.7083E-01  0.2330E+01
     -6.828  0.1174E+00  0.2359E+01
     -6.581  0.1298E+00  0.2391E+01
     -6.334  0.2631E+00  0.2456E+01
     -6.087  0.2695E+00  0.2523E+01
     -5.840  0.1424E+00  0.2558E+01
     -5.593  0.8515E-02  0.2560E+01
     -5.346  0.8171E-07  0.2560E+01
     -5.099  0.0000E+00  0.2560E+01
     -4.852  0.0000E+00  0.2560E+01
     -4.605  0.0000E+00  0.2560E+01
     -4.358  0.2739E-13  0.2560E+01
     -4.111  0.2753E-05  0.2560E+01
     -3.864  0.7468E-02  0.2562E+01
     -3.617  0.6333E-01  0.2577E+01
     -3.370  0.2549E-01  0.2584E+01
     -3.123  0.8527E-01  0.2605E+01
     -2.876  0.1111E+00  0.2632E+01
     -2.629  0.1451E+00  0.2668E+01
     -2.382  0.2380E+00  0.2727E+01
     -2.135  0.3020E+00  0.2802E+01
     -1.888  0.2322E+00  0.2859E+01
     -1.641  0.1992E+00  0.2908E+01
     -1.394  0.1025E+00  0.2933E+01
     -1.147  0.2642E-01  0.2940E+01
     -0.900  0.2430E-03  0.2940E+01
     -0.653  0.5481E-09  0.2940E+01
     -0.406  0.0000E+00  0.2940E+01
     -0.159  0.0000E+00  0.2940E+01
      0.088  0.0000E+00  0.2940E+01
      0.335  0.2078E-13  0.2940E+01
      0.582  0.2085E-05  0.2940E+01
      0.829  0.3226E-02  0.2941E+01
      1.076  0.1272E-01  0.2944E+01
      1.323  0.7038E-01  0.2961E+01
      1.570  0.9425E-01  0.2985E+01
      1.817  0.1416E+00  0.3020E+01
      2.064  0.1730E+00  0.3062E+01
      2.311  0.2884E+00  0.3134E+01
      2.558  0.2863E+00  0.3204E+01
      2.805  0.2682E+00  0.3271E+01
      3.052  0.3157E+00  0.3349E+01
      3.300  0.3296E+00  0.3430E+01
      3.547  0.3918E+00  0.3527E+01
      3.794  0.4796E+00  0.3645E+01
      4.041  0.5011E+00  0.3769E+01
      4.288  0.5563E+00  0.3906E+01
      4.535  0.5663E+00  0.4046E+01
      4.782  0.5912E+00  0.4192E+01
      5.029  0.5972E+00  0.4340E+01
      5.276  0.5207E+00  0.4468E+01
      5.523  0.4328E+00  0.4575E+01
      5.770  0.3323E+00  0.4657E+01
      6.017  0.3044E+00  0.4733E+01
      6.264  0.1876E+00  0.4779E+01
      6.511  0.1663E+00  0.4820E+01
      6.758  0.1336E+00  0.4853E+01
      7.005  0.4743E-01  0.4865E+01
      7.252  0.1095E+00  0.4892E+01
      7.499  0.1798E+00  0.4936E+01
      7.746  0.1379E+00  0.4970E+01
      7.993  0.1525E+00  0.5008E+01
      8.240  0.1622E+00  0.5048E+01
      8.487  0.1828E+00  0.5093E+01
      8.734  0.2470E+00  0.5154E+01
      8.981  0.2662E+00  0.5220E+01
      9.228  0.2651E+00  0.5285E+01
      9.475  0.3089E+00  0.5362E+01
      9.722  0.4514E+00  0.5473E+01
      9.969  0.4906E+00  0.5594E+01
     10.216  0.4666E+00  0.5710E+01
     10.463  0.5209E+00  0.5838E+01
     10.710  0.5554E+00  0.5976E+01
     10.957  0.5538E+00  0.6112E+01
     11.204  0.4424E+00  0.6222E+01
     11.451  0.7392E-01  0.6240E+01
     11.698  0.2219E-03  0.6240E+01
     11.945  0.5105E-10  0.6240E+01
     12.192  0.0000E+00  0.6240E+01
     12.439  0.0000E+00  0.6240E+01
     12.686  0.0000E+00  0.6240E+01
     12.933  0.0000E+00  0.6240E+01
     13.180  0.0000E+00  0.6240E+01
     13.427  0.0000E+00  0.6240E+01
     13.674  0.0000E+00  0.6240E+01
     13.921  0.0000E+00  0.6240E+01
     14.168  0.0000E+00  0.6240E+01
     14.415  0.0000E+00  0.6240E+01
     14.662  0.0000E+00  0.6240E+01
