  64  64   0   0
  0.1129557E+02  0.8932500E-09  0.9055600E-09  0.8937200E-09  0.5000000E-15
  1.000000000000000E-004
  CAR 
 HECN                                    
     15.80651151    -58.92992392  301      9.53128776      1.00000000
    -58.930  0.0000E+00  0.0000E+00
    -58.681  0.0000E+00  0.0000E+00
    -58.432  0.0000E+00  0.0000E+00
    -58.183  0.0000E+00  0.0000E+00
    -57.933  0.0000E+00  0.0000E+00
    -57.684  0.0000E+00  0.0000E+00
    -57.435  0.0000E+00  0.0000E+00
    -57.186  0.0000E+00  0.0000E+00
    -56.937  0.0000E+00  0.0000E+00
    -56.688  0.0000E+00  0.0000E+00
    -56.439  0.0000E+00  0.0000E+00
    -56.190  0.0000E+00  0.0000E+00
    -55.940  0.4270E-09  0.1064E-09
    -55.691  0.1610E-02  0.4011E-03
    -55.442  0.2171E+00  0.5449E-01
    -55.193  0.3337E+00  0.1376E+00
    -54.944  0.9494E-02  0.1400E+00
    -54.695  0.2630E-07  0.1400E+00
    -54.446  0.0000E+00  0.1400E+00
    -54.197  0.0000E+00  0.1400E+00
    -53.947  0.0000E+00  0.1400E+00
    -53.698  0.0000E+00  0.1400E+00
    -53.449  0.0000E+00  0.1400E+00
    -53.200  0.0000E+00  0.1400E+00
    -52.951  0.0000E+00  0.1400E+00
    -52.702  0.0000E+00  0.1400E+00
    -52.453  0.0000E+00  0.1400E+00
    -52.204  0.0000E+00  0.1400E+00
    -51.955  0.0000E+00  0.1400E+00
    -51.705  0.0000E+00  0.1400E+00
    -51.456  0.0000E+00  0.1400E+00
    -51.207  0.0000E+00  0.1400E+00
    -50.958  0.0000E+00  0.1400E+00
    -50.709  0.0000E+00  0.1400E+00
    -50.460  0.0000E+00  0.1400E+00
    -50.211  0.0000E+00  0.1400E+00
    -49.962  0.0000E+00  0.1400E+00
    -49.712  0.0000E+00  0.1400E+00
    -49.463  0.0000E+00  0.1400E+00
    -49.214  0.0000E+00  0.1400E+00
    -48.965  0.0000E+00  0.1400E+00
    -48.716  0.0000E+00  0.1400E+00
    -48.467  0.0000E+00  0.1400E+00
    -48.218  0.0000E+00  0.1400E+00
    -47.969  0.0000E+00  0.1400E+00
    -47.719  0.0000E+00  0.1400E+00
    -47.470  0.0000E+00  0.1400E+00
    -47.221  0.0000E+00  0.1400E+00
    -46.972  0.3900E-14  0.1400E+00
    -46.723  0.3715E-05  0.1400E+00
    -46.474  0.4491E-01  0.1512E+00
    -46.225  0.4058E+00  0.2523E+00
    -45.976  0.1109E+00  0.2799E+00
    -45.726  0.2830E-03  0.2800E+00
    -45.477  0.1957E-10  0.2800E+00
    -45.228  0.0000E+00  0.2800E+00
    -44.979  0.0000E+00  0.2800E+00
    -44.730  0.0000E+00  0.2800E+00
    -44.481  0.0000E+00  0.2800E+00
    -44.232  0.0000E+00  0.2800E+00
    -43.983  0.0000E+00  0.2800E+00
    -43.734  0.0000E+00  0.2800E+00
    -43.484  0.0000E+00  0.2800E+00
    -43.235  0.0000E+00  0.2800E+00
    -42.986  0.0000E+00  0.2800E+00
    -42.737  0.0000E+00  0.2800E+00
    -42.488  0.0000E+00  0.2800E+00
    -42.239  0.0000E+00  0.2800E+00
    -41.990  0.0000E+00  0.2800E+00
    -41.741  0.0000E+00  0.2800E+00
    -41.491  0.0000E+00  0.2800E+00
    -41.242  0.0000E+00  0.2800E+00
    -40.993  0.0000E+00  0.2800E+00
    -40.744  0.0000E+00  0.2800E+00
    -40.495  0.0000E+00  0.2800E+00
    -40.246  0.0000E+00  0.2800E+00
    -39.997  0.0000E+00  0.2800E+00
    -39.748  0.0000E+00  0.2800E+00
    -39.498  0.0000E+00  0.2800E+00
    -39.249  0.0000E+00  0.2800E+00
    -39.000  0.0000E+00  0.2800E+00
    -38.751  0.0000E+00  0.2800E+00
    -38.502  0.0000E+00  0.2800E+00
    -38.253  0.0000E+00  0.2800E+00
    -38.004  0.0000E+00  0.2800E+00
    -37.755  0.0000E+00  0.2800E+00
    -37.505  0.0000E+00  0.2800E+00
    -37.256  0.0000E+00  0.2800E+00
    -37.007  0.0000E+00  0.2800E+00
    -36.758  0.0000E+00  0.2800E+00
    -36.509  0.0000E+00  0.2800E+00
    -36.260  0.0000E+00  0.2800E+00
    -36.011  0.0000E+00  0.2800E+00
    -35.762  0.0000E+00  0.2800E+00
    -35.513  0.0000E+00  0.2800E+00
    -35.263  0.0000E+00  0.2800E+00
    -35.014  0.0000E+00  0.2800E+00
    -34.765  0.2737E-08  0.2800E+00
    -34.516  0.2465E-02  0.2806E+00
    -34.267  0.1353E+00  0.3143E+00
    -34.018  0.8576E+00  0.5279E+00
    -33.769  0.4470E+00  0.6393E+00
    -33.520  0.2740E-02  0.6400E+00
    -33.270  0.2056E-08  0.6400E+00
    -33.021  0.0000E+00  0.6400E+00
    -32.772  0.0000E+00  0.6400E+00
    -32.523  0.0000E+00  0.6400E+00
    -32.274  0.0000E+00  0.6400E+00
    -32.025  0.0000E+00  0.6400E+00
    -31.776  0.0000E+00  0.6400E+00
    -31.527  0.0000E+00  0.6400E+00
    -31.277  0.0000E+00  0.6400E+00
    -31.028  0.0000E+00  0.6400E+00
    -30.779  0.0000E+00  0.6400E+00
    -30.530  0.4234E-15  0.6400E+00
    -30.281  0.1074E-05  0.6400E+00
    -30.032  0.3157E-01  0.6479E+00
    -29.783  0.6324E+00  0.8054E+00
    -29.534  0.9185E+00  0.1034E+01
    -29.284  0.1108E+01  0.1310E+01
    -29.035  0.4351E+00  0.1419E+01
    -28.786  0.5345E-02  0.1420E+01
    -28.537  0.1674E-07  0.1420E+01
    -28.288  0.0000E+00  0.1420E+01
    -28.039  0.0000E+00  0.1420E+01
    -27.790  0.0000E+00  0.1420E+01
    -27.541  0.0000E+00  0.1420E+01
    -27.291  0.0000E+00  0.1420E+01
    -27.042  0.0000E+00  0.1420E+01
    -26.793  0.8613E-12  0.1420E+01
    -26.544  0.6067E-04  0.1420E+01
    -26.295  0.6453E-01  0.1436E+01
    -26.046  0.3800E+00  0.1531E+01
    -25.797  0.5035E+00  0.1656E+01
    -25.548  0.2950E+00  0.1730E+01
    -25.299  0.2000E+00  0.1779E+01
    -25.049  0.2035E-02  0.1780E+01
    -24.800  0.1330E-08  0.1780E+01
    -24.551  0.0000E+00  0.1780E+01
    -24.302  0.0000E+00  0.1780E+01
    -24.053  0.0000E+00  0.1780E+01
    -23.804  0.0000E+00  0.1780E+01
    -23.555  0.0000E+00  0.1780E+01
    -23.306  0.3352E-15  0.1780E+01
    -23.056  0.9038E-06  0.1780E+01
    -22.807  0.2298E-01  0.1786E+01
    -22.558  0.6268E+00  0.1942E+01
    -22.309  0.8538E+00  0.2155E+01
    -22.060  0.1756E+00  0.2198E+01
    -21.811  0.6715E-02  0.2200E+01
    -21.562  0.3574E-07  0.2200E+01
    -21.313  0.0000E+00  0.2200E+01
    -21.063  0.0000E+00  0.2200E+01
    -20.814  0.0000E+00  0.2200E+01
    -20.565  0.0000E+00  0.2200E+01
    -20.316  0.0000E+00  0.2200E+01
    -20.067  0.0000E+00  0.2200E+01
    -19.818  0.0000E+00  0.2200E+01
    -19.569  0.0000E+00  0.2200E+01
    -19.320  0.0000E+00  0.2200E+01
    -19.070  0.0000E+00  0.2200E+01
    -18.821  0.0000E+00  0.2200E+01
    -18.572  0.0000E+00  0.2200E+01
    -18.323  0.0000E+00  0.2200E+01
    -18.074  0.0000E+00  0.2200E+01
    -17.825  0.0000E+00  0.2200E+01
    -17.576  0.0000E+00  0.2200E+01
    -17.327  0.0000E+00  0.2200E+01
    -17.078  0.0000E+00  0.2200E+01
    -16.828  0.0000E+00  0.2200E+01
    -16.579  0.0000E+00  0.2200E+01
    -16.330  0.0000E+00  0.2200E+01
    -16.081  0.0000E+00  0.2200E+01
    -15.832  0.0000E+00  0.2200E+01
    -15.583  0.0000E+00  0.2200E+01
    -15.334  0.0000E+00  0.2200E+01
    -15.085  0.0000E+00  0.2200E+01
    -14.835  0.0000E+00  0.2200E+01
    -14.586  0.0000E+00  0.2200E+01
    -14.337  0.0000E+00  0.2200E+01
    -14.088  0.0000E+00  0.2200E+01
    -13.839  0.0000E+00  0.2200E+01
    -13.590  0.0000E+00  0.2200E+01
    -13.341  0.0000E+00  0.2200E+01
    -13.092  0.0000E+00  0.2200E+01
    -12.842  0.0000E+00  0.2200E+01
    -12.593  0.0000E+00  0.2200E+01
    -12.344  0.0000E+00  0.2200E+01
    -12.095  0.0000E+00  0.2200E+01
    -11.846  0.0000E+00  0.2200E+01
    -11.597  0.0000E+00  0.2200E+01
    -11.348  0.0000E+00  0.2200E+01
    -11.099  0.0000E+00  0.2200E+01
    -10.849  0.0000E+00  0.2200E+01
    -10.600  0.0000E+00  0.2200E+01
    -10.351  0.0000E+00  0.2200E+01
    -10.102  0.0000E+00  0.2200E+01
     -9.853  0.0000E+00  0.2200E+01
     -9.604  0.0000E+00  0.2200E+01
     -9.355  0.0000E+00  0.2200E+01
     -9.106  0.0000E+00  0.2200E+01
     -8.857  0.0000E+00  0.2200E+01
     -8.607  0.0000E+00  0.2200E+01
     -8.358  0.0000E+00  0.2200E+01
     -8.109  0.0000E+00  0.2200E+01
     -7.860  0.0000E+00  0.2200E+01
     -7.611  0.1464E-09  0.2200E+01
     -7.362  0.1324E-03  0.2200E+01
     -7.113  0.2117E-01  0.2205E+01
     -6.864  0.5812E-01  0.2220E+01
     -6.614  0.6051E-01  0.2235E+01
     -6.365  0.1283E+00  0.2267E+01
     -6.116  0.1888E+00  0.2314E+01
     -5.867  0.2110E+00  0.2366E+01
     -5.618  0.2339E+00  0.2425E+01
     -5.369  0.1210E+00  0.2455E+01
     -5.120  0.2071E-01  0.2460E+01
     -4.871  0.1418E-05  0.2460E+01
     -4.621  0.9785E-15  0.2460E+01
     -4.372  0.1308E-06  0.2460E+01
     -4.123  0.2285E-02  0.2461E+01
     -3.874  0.4389E-01  0.2472E+01
     -3.625  0.3577E-01  0.2480E+01
     -3.376  0.6992E-01  0.2498E+01
     -3.127  0.7693E-01  0.2517E+01
     -2.878  0.1024E+00  0.2543E+01
     -2.628  0.1830E+00  0.2588E+01
     -2.379  0.2181E+00  0.2642E+01
     -2.130  0.2191E+00  0.2697E+01
     -1.881  0.2326E+00  0.2755E+01
     -1.632  0.1906E+00  0.2802E+01
     -1.383  0.1118E+00  0.2830E+01
     -1.134  0.3839E-01  0.2840E+01
     -0.885  0.6195E-03  0.2840E+01
     -0.636  0.4435E-08  0.2840E+01
     -0.386  0.0000E+00  0.2840E+01
     -0.137  0.0000E+00  0.2840E+01
      0.112  0.0000E+00  0.2840E+01
      0.361  0.1797E-15  0.2840E+01
      0.610  0.1592E-06  0.2840E+01
      0.859  0.1836E-02  0.2840E+01
      1.108  0.1124E-01  0.2843E+01
      1.357  0.6422E-01  0.2859E+01
      1.607  0.8483E-01  0.2880E+01
      1.856  0.1208E+00  0.2910E+01
      2.105  0.1643E+00  0.2951E+01
      2.354  0.2431E+00  0.3012E+01
      2.603  0.2989E+00  0.3086E+01
      2.852  0.2541E+00  0.3150E+01
      3.101  0.3305E+00  0.3232E+01
      3.350  0.2854E+00  0.3303E+01
      3.600  0.3579E+00  0.3392E+01
      3.849  0.4915E+00  0.3515E+01
      4.098  0.5783E+00  0.3659E+01
      4.347  0.6161E+00  0.3812E+01
      4.596  0.6193E+00  0.3967E+01
      4.845  0.5766E+00  0.4110E+01
      5.094  0.5536E+00  0.4248E+01
      5.343  0.4902E+00  0.4370E+01
      5.593  0.3783E+00  0.4465E+01
      5.842  0.3040E+00  0.4540E+01
      6.091  0.3121E+00  0.4618E+01
      6.340  0.2390E+00  0.4678E+01
      6.589  0.1560E+00  0.4716E+01
      6.838  0.1310E+00  0.4749E+01
      7.087  0.5181E-01  0.4762E+01
      7.336  0.1134E+00  0.4790E+01
      7.586  0.1845E+00  0.4836E+01
      7.835  0.2029E+00  0.4887E+01
      8.084  0.1817E+00  0.4932E+01
      8.333  0.1878E+00  0.4979E+01
      8.582  0.2588E+00  0.5043E+01
      8.831  0.2995E+00  0.5118E+01
      9.080  0.3098E+00  0.5195E+01
      9.329  0.2940E+00  0.5268E+01
      9.578  0.3109E+00  0.5346E+01
      9.828  0.3805E+00  0.5441E+01
     10.077  0.4673E+00  0.5557E+01
     10.326  0.5405E+00  0.5692E+01
     10.575  0.5361E+00  0.5825E+01
     10.824  0.5384E+00  0.5959E+01
     11.073  0.5066E+00  0.6085E+01
     11.322  0.5336E+00  0.6218E+01
     11.571  0.5469E+00  0.6355E+01
     11.821  0.5370E+00  0.6488E+01
     12.070  0.4790E+00  0.6608E+01
     12.319  0.3825E+00  0.6703E+01
     12.568  0.6795E-01  0.6720E+01
     12.817  0.1852E-03  0.6720E+01
     13.066  0.4049E-10  0.6720E+01
     13.315  0.0000E+00  0.6720E+01
     13.564  0.0000E+00  0.6720E+01
     13.814  0.0000E+00  0.6720E+01
     14.063  0.0000E+00  0.6720E+01
     14.312  0.0000E+00  0.6720E+01
     14.561  0.0000E+00  0.6720E+01
     14.810  0.0000E+00  0.6720E+01
     15.059  0.0000E+00  0.6720E+01
     15.308  0.0000E+00  0.6720E+01
     15.557  0.0000E+00  0.6720E+01
     15.807  0.0000E+00  0.6720E+01
