HECN                                    
           1
     8.932500    0.000000    0.000000
     0.005753    9.055598    0.000000
     0.032102   -0.015743    8.937128
   Nb   Ta   V    N    C    Cr   W 
   7   6   7  13  19   6   6
Direct configuration=     1
   0.99688001  0.99204997  0.99924002
   0.25398003  0.99714995  0.24912000
   0.24803003  0.50165000  0.24955001
   0.50501006  0.49745998  0.99834003
   0.50479003  0.24631001  0.74710002
   0.99427992  0.50449999  0.49779000
   0.49950005  0.75481999  0.74817004
   0.99437004  0.23617001  0.26379999
   0.75718000  0.74102998  0.01100000
   0.00201000  0.25541000  0.73894001
   0.75307001  0.26163001  0.50533002
   0.99514004  0.74492004  0.74511997
   0.25679999  0.49462002  0.74545002
   0.24788999  0.24839000  0.99657997
   0.50833000  0.25676999  0.25376001
   0.74879004  0.98787999  0.26967001
   0.75719000  0.25603001  0.99591997
   0.24762001  0.74973999  0.99974006
   0.25272001  0.24823001  0.50015003
   0.24457999  0.75048999  0.49983999
   0.24982001  0.24942998  0.24825000
   0.26146999  0.99984002  0.99295996
   0.00281000  0.25024000  0.00130000
   0.75313998  0.24617000  0.25492002
   0.74767001  0.99748000  0.01202000
   0.50714994  0.99977000  0.24673000
   0.99051999  0.48088002  0.24100998
   0.50519005  0.76130999  0.00855000
   0.98896989  0.00202000  0.73708999
   0.75744996  0.24437997  0.74896999
   0.73632001  0.00417000  0.51063000
   0.50563996  0.23264999  0.49544997
   0.50008998  0.00061000  0.73471998
   0.99720000  0.99771992  0.25899999
   0.50427997  0.24673000  0.00262000
   0.25133999  0.74958002  0.24910999
   0.24328000  0.50072997  0.99510994
   0.99837005  0.74313996  0.00460000
   0.75633000  0.73891003  0.25767000
   0.75839004  0.50315998  0.00288000
   0.50700002  0.50333002  0.25878999
   0.24900999  0.25315000  0.74854000
   0.24446000  0.99823996  0.50287998
   0.99804009  0.24229999  0.50128003
   0.24177002  0.75340997  0.75018002
   0.25841001  0.50062002  0.50129001
   0.99000004  0.76215003  0.49746000
   0.99203996  0.50055999  0.75138002
   0.75036005  0.74888000  0.74756004
   0.74036002  0.50197000  0.50067003
   0.50575006  0.74958002  0.49720000
   0.50501003  0.50217998  0.73912003
   0.51588997  0.01358000  0.98075008
   0.99841994  0.50976998  0.98613004
   0.50379003  0.73926997  0.25905001
   0.23780002  0.01082000  0.74607998
   0.47957999  0.98308000  0.49717999
   0.74279003  0.97869994  0.76450995
   0.99864998  0.77573999  0.26102000
   0.73551001  0.51468004  0.26666001
   0.02362000  0.99783001  0.49557002
   0.50539000  0.52833005  0.49917999
   0.73876003  0.52828003  0.73814999
   0.75400003  0.72937999  0.49116997
HECN                                    
           1
     8.173336    0.023456   -0.007106
     0.029043    8.287236    0.001406
     0.022223   -0.012931    8.205327
   Nb   Ta   V    N    C    Cr   W 
   7   6   7  13  19   6   6
Direct configuration=     2
   0.99830062  0.99435325  0.99879625
   0.26015148  0.99571111  0.24611146
   0.25263243  0.50296997  0.24743221
   0.50283113  0.49234598  0.99987652
   0.50072685  0.24135606  0.75088560
   0.99801498  0.50230283  0.50065855
   0.49441203  0.76175948  0.75039512
   0.99534378  0.23555622  0.25795330
   0.75306997  0.74592209  0.01116758
   0.00450911  0.25322238  0.74429852
   0.74681086  0.25484950  0.50326162
   0.00341595  0.74793243  0.74810694
   0.25494274  0.49682332  0.74848567
   0.25009341  0.24935851  0.99408130
   0.50908346  0.25469000  0.25107051
   0.74458715  0.98706929  0.27097327
   0.75324950  0.25775328  0.99422032
   0.24421264  0.74852966  0.99938150
   0.25216090  0.24870090  0.50225082
   0.24524153  0.74997492  0.49949541
   0.24970824  0.24930149  0.24854581
   0.25999755  0.99986493  0.99293457
   0.00248672  0.24784782  0.00128007
   0.75161604  0.24552298  0.25399971
   0.74722553  0.99797612  0.00874807
   0.50706341  0.00015462  0.24897750
   0.99359616  0.48111056  0.24368511
   0.50417798  0.75929552  0.00642670
   0.98907121  0.00241329  0.74174828
   0.75555440  0.24447403  0.75095779
   0.73710921  0.00473606  0.50633595
   0.50384596  0.23265547  0.49467094
   0.50195043  0.00088513  0.73868144
   0.99543131  0.00137635  0.25273683
   0.50476277  0.24597485  0.00341267
   0.25180828  0.74952554  0.24902824
   0.24477225  0.50056957  0.99710400
   0.00352542  0.74304422  0.00448092
   0.75368558  0.74689839  0.25230792
   0.75744002  0.49771956  0.00269152
   0.49951131  0.50162786  0.25388823
   0.25081657  0.24904081  0.74870220
   0.25432981  0.99705687  0.50518338
   0.00121397  0.24523127  0.50091013
   0.24490648  0.75404115  0.75037984
   0.25568608  0.50071496  0.49838826
   0.99712625  0.75874687  0.50044419
   0.99422223  0.50048704  0.75143674
   0.74782848  0.75795992  0.74982389
   0.74698997  0.49596946  0.50281689
   0.50066503  0.75758519  0.49524869
   0.50032572  0.50028714  0.74501789
   0.51869679  0.01869981  0.97844306
   0.00037345  0.51331873  0.98351591
   0.50292248  0.73934985  0.25933321
   0.23818205  0.01281982  0.74887711
   0.47770405  0.98268991  0.49498449
   0.73857393  0.97480538  0.76740205
   0.00241933  0.77504344  0.25701300
   0.73524401  0.50827398  0.25787785
   0.02214061  0.00053221  0.49793403
   0.49683074  0.52452273  0.49694614
   0.74203479  0.51862381  0.74558515
   0.75263727  0.74004380  0.49219127
HECN                                    
           1
     8.624385    0.009520   -0.002884
     0.015206    8.743751    0.000571
     0.028092   -0.014602    8.640119
   Nb   Ta   V    N    C    Cr   W 
   7   6   7  13  19   6   6
Direct configuration=     3
   0.99738278  0.99286044  0.99908289
   0.25614318  0.99665623  0.24805474
   0.24964766  0.50212120  0.24880026
   0.50423544  0.49566233  0.99888286
   0.50335367  0.24456531  0.74843756
   0.99558390  0.50373650  0.49879987
   0.49772766  0.75724507  0.74895885
   0.99471370  0.23595580  0.26173625
   0.75574788  0.74273845  0.01106200
   0.00287915  0.25464789  0.74082922
   0.75086350  0.25923987  0.50460290
  -0.00195388  0.74599225  0.74616967
   0.25615113  0.49538983  0.74652251
   0.24866593  0.24873347  0.99569713
   0.50859183  0.25604146  0.25281030
   0.74731393  0.98758806  0.27013216
   0.75581242  0.25662703  0.99532263
   0.24642307  0.74930915  0.99961531
   0.25252363  0.24839441  0.50089171
   0.24481120  0.75031049  0.49971797
   0.24978041  0.24938474  0.24835443
   0.26095371  0.99984605  0.99295183
   0.00269213  0.24940031  0.00129288
   0.75260489  0.24594013  0.25459605
   0.74751696  0.99765281  0.01086574
   0.50711903 -0.00009498  0.24752317
   0.99159761  0.48096686  0.24195225
   0.50483256  0.76060126  0.00780109
   0.98900349  0.00215870  0.73873375
   0.75678428  0.24440972  0.74967250
   0.73660029  0.00436949  0.50911438
   0.50501131  0.23264852  0.49517608
   0.50074063  0.00071040  0.73611685
   0.99659028 -0.00100152  0.25679131
   0.50444739  0.24646610  0.00289935
   0.25150415  0.74956176  0.24908087
   0.24380184  0.50067669  0.99581273
   0.00017777  0.74311584  0.00455507
   0.75542085  0.74170659  0.25578027
   0.75804673  0.50124988  0.00281341
   0.50437356  0.50271861  0.25706432
   0.24963565  0.25171197  0.74859576
   0.24791748  0.99784338  0.50368709
  -0.00084118  0.24333398  0.50114805
   0.24287096  0.75363715  0.75024884
   0.25745665  0.50064797  0.50026761
   0.99249084  0.76096976  0.49850864
   0.99280505  0.50053842  0.75139880
   0.74948815  0.75206057  0.74836133
   0.74267237  0.49987764  0.50142318
   0.50398313  0.75237840  0.49651521
   0.50336042  0.50150814  0.74120363
   0.51688523  0.01538075  0.97993500
  -0.00088682  0.51101804  0.98520689
   0.50348580  0.73929643  0.25915044
   0.23793616  0.01152251  0.74706702
   0.47892268  0.98293946  0.49640628
   0.74130255  0.97732645  0.76553242
  -0.00002724  0.77550211  0.25960385
   0.73540968  0.51243145  0.26356047
   0.02310497 -0.00122458  0.49640535
   0.50238262  0.52697857  0.49839612
   0.73988588  0.52489984  0.74077071
   0.75354171  0.73311814  0.49153233
HECN                                    
           1
     8.610371    0.009953   -0.003015
     0.015636    8.729566    0.000597
     0.027910   -0.014550    8.626610
   Nb   Ta   V    N    C    Cr   W 
   7   6   7  13  19   6   6
Direct configuration=     4
   0.99740989  0.99290445  0.99907442
   0.25626119  0.99662859  0.24799733
   0.24973562  0.50214635  0.24875985
   0.50419390  0.49556460  0.99891219
   0.50327611  0.24447068  0.74850983
   0.99565538  0.50369441  0.49885468
   0.49763025  0.75737785  0.74900130
   0.99473229  0.23594405  0.26162461
   0.75566919  0.74283206  0.01106517
   0.00292702  0.25460600  0.74093156
   0.75074396  0.25911037  0.50456337
  -0.00179568  0.74604967  0.74622676
   0.25611559  0.49543199  0.74658046
   0.24870802  0.24875194  0.99564943
   0.50860627  0.25600168  0.25275895
   0.74723360  0.98757265  0.27015702
   0.75573702  0.25666007  0.99529014
   0.24635794  0.74928608  0.99960845
   0.25251294  0.24840342  0.50093182
   0.24482386  0.75030063  0.49971139
   0.24977828  0.24938229  0.24836008
   0.26092555  0.99984656  0.99295134
   0.00268600  0.24935458  0.00129250
   0.75257576  0.24592780  0.25457847
   0.74750843  0.99766231  0.01080326
   0.50711738 -0.00008763  0.24756609
   0.99165644  0.48097120  0.24200336
   0.50481324  0.76056277  0.00776054
   0.98900545  0.00216621  0.73882271
   0.75674805  0.24441156  0.74971045
   0.73661534  0.00438030  0.50903239
   0.50497701  0.23264866  0.49516120
   0.50077622  0.00071562  0.73619251
   0.99655634 -0.00093157  0.25667170
   0.50445664  0.24645165  0.00291449
   0.25151310  0.74956071  0.24907931
   0.24383039  0.50067359  0.99585082
   0.00027634  0.74311390  0.00455283
   0.75537008  0.74185938  0.25567785
   0.75802868  0.50114588  0.00280981
   0.50423038  0.50268623  0.25697067
   0.24967028  0.25163336  0.74859887
   0.24810624  0.99782055  0.50373114
  -0.00078056  0.24338996  0.50114100
   0.24293091  0.75364916  0.75025267
   0.25740455  0.50064984  0.50021218
   0.99262719  0.76090454  0.49856567
   0.99284677  0.50053698  0.75139989
   0.74943957  0.75223422  0.74840453
   0.74279928  0.49976277  0.50146423
   0.50388572  0.75253157  0.49647790
   0.50327093  0.50147204  0.74131623
   0.51693877  0.01547858  0.97989095
  -0.00084956  0.51108586  0.98515698
   0.50346921  0.73929797  0.25915584
   0.23794344  0.01156074  0.74712043
   0.47888681  0.98293205  0.49636434
   0.74122204  0.97725208  0.76558762
   0.00004482  0.77548871  0.25952736
   0.73540467  0.51230899  0.26339278
   0.02307664 -0.00117289  0.49645048
   0.50221903  0.52690596  0.49835341
   0.73994875  0.52471514  0.74091272
   0.75351543  0.73332205  0.49155181
HECN                                    
           1
     8.597982    0.027412   -0.005322
     0.033389    8.664731    0.000973
     0.025528   -0.014010    8.625516
   Nb   Ta   V    N    C    Cr   W 
   7   6   7  13  19   6   6
Direct configuration=     5
   0.00047474  0.99681211  0.99708554
   0.26346389  0.99651668  0.24423558
   0.25370301  0.50254051  0.24609705
   0.50088372  0.49115548  0.00103517
   0.49920011  0.23946642  0.75237104
   0.00145415  0.50074466  0.50123457
   0.49152770  0.76445705  0.75234940
   0.99742206  0.23699391  0.25227967
   0.75038087  0.74970078  0.00906057
   0.00516252  0.25091835  0.74966429
   0.74453743  0.25013700  0.50215919
   0.00568387  0.75073970  0.75104240
   0.25200835  0.49848709  0.75030441
   0.25163670  0.24965633  0.99351092
   0.50857143  0.25294491  0.24923192
   0.74223225  0.98788239  0.27017750
   0.75120833  0.25752226  0.99418785
   0.24365665  0.74824870  0.99950461
   0.25254120  0.24880754  0.50255027
   0.24645564  0.74956227  0.49926105
   0.25161455  0.24927335  0.24838937
   0.26099556  0.99965061  0.99181979
   0.00241503  0.24858474  0.00147651
   0.74817101  0.24472906  0.25061992
   0.74612345  0.99986060  0.00794505
   0.50812045  0.00012648  0.24894797
   0.99476344  0.48450372  0.24290171
   0.50144489  0.75971554  0.00650917
   0.98851074  0.00249854  0.74448443
   0.75387712  0.24438686  0.75398906
   0.73812153  0.00367612  0.50631374
   0.50058407  0.23320481  0.49363871
   0.50186370  0.00132637  0.74054102
   0.99423441  0.00336368  0.24948010
   0.50438948  0.24477816  0.00542651
   0.25421799  0.74927287  0.24867542
   0.24433544  0.50022944  0.99835758
   0.00709468  0.74211091  0.00489372
   0.75060814  0.75168377  0.25036976
   0.75859370  0.49336094  0.00284911
   0.49429408  0.50035181  0.25079910
   0.25264232  0.24584730  0.74904139
   0.26089684  0.99690574  0.50727590
   0.00401331  0.24753359  0.50086203
   0.24757447  0.75593796  0.75072675
   0.25326379  0.50029455  0.49701736
   0.00167721  0.75620733  0.50187154
   0.99587380  0.50032456  0.75237585
   0.74710104  0.76121739  0.75028017
   0.74863122  0.49529594  0.50298499
   0.49680870  0.76303605  0.49396788
   0.49844198  0.49930529  0.74751627
   0.51890326  0.01968771  0.97803179
   0.00175799  0.51314874  0.98356031
   0.50176537  0.74117261  0.25815618
   0.23866474  0.01262775  0.75131944
   0.47834304  0.98375850  0.49250188
   0.73640545  0.97607807  0.76928187
   0.00503147  0.76838447  0.25278739
   0.73827379  0.50245293  0.25167813
   0.01741280  0.00325631  0.49973719
   0.49384387  0.51829529  0.49615504
   0.74536986  0.51241409  0.75221314
   0.75072597  0.74683501  0.49488689
HECN                                    
           1
     8.598464    0.026734   -0.005233
     0.032699    8.667250    0.000958
     0.025620   -0.014031    8.625559
   Nb   Ta   V    N    C    Cr   W 
   7   6   7  13  19   6   6
Direct configuration=     6
   0.00035583  0.99665938  0.99716280
   0.26318366  0.99652161  0.24438168
   0.25354869  0.50252538  0.24620048
   0.50101214  0.49132783  0.00095270
   0.49935827  0.23966201  0.75222103
   0.00122825  0.50086059  0.50114202
   0.49176570  0.76417946  0.75221937
   0.99731758  0.23695300  0.25264279
   0.75058722  0.74943147  0.00913854
   0.00507514  0.25106291  0.74932491
   0.74477823  0.25048778  0.50225266
   0.00539316  0.75055671  0.75085519
   0.25216838  0.49836719  0.75015975
   0.25152284  0.24962115  0.99359399
   0.50857257  0.25306456  0.24936897
   0.74242688  0.98786988  0.27017675
   0.75138463  0.25748815  0.99423073
   0.24376168  0.74828910  0.99950868
   0.25254012  0.24879173  0.50248738
   0.24639209  0.74959130  0.49927853
   0.25154309  0.24927776  0.24838821
   0.26099283  0.99965829  0.99186376
   0.00242551  0.24861486  0.00146936
   0.74834235  0.24477563  0.25077379
   0.74617756  0.99977443  0.00805614
   0.50808142  0.00011818  0.24889426
   0.99464282  0.48436568  0.24286677
   0.50157590  0.75974844  0.00655784
   0.98852995  0.00248551  0.74426442
   0.75398879  0.24438761  0.75382282
   0.73806290  0.00370380  0.50641936
   0.50075507  0.23318269  0.49369792
   0.50182138  0.00130256  0.74037203
   0.99432519  0.00319534  0.24975959
   0.50439193  0.24484367  0.00532889
   0.25411272  0.74928435  0.24869109
   0.24431573  0.50024687  0.99826017
   0.00682929  0.74215071  0.00488040
   0.75079429  0.75129880  0.25057610
   0.75857108  0.49366573  0.00284757
   0.49468059  0.50044240  0.25103903
   0.25252620  0.24607403  0.74902415
   0.26039903  0.99694256  0.50713801
   0.00382712  0.24737176  0.50087283
   0.24739396  0.75584873  0.75070828
   0.25342492  0.50030813  0.49714155
   0.00132464  0.75639193  0.50174297
   0.99575599  0.50033312  0.75233790
   0.74719274  0.76086555  0.75020732
   0.74840391  0.49547126  0.50292582
   0.49708496  0.76262428  0.49406552
   0.49862964  0.49938974  0.74727539
   0.51882718  0.01952309  0.97810402
   0.00165671  0.51306819  0.98362234
   0.50183183  0.74109909  0.25819505
   0.23863671  0.01258604  0.75115626
   0.47836431  0.98372610  0.49265198
   0.73659273  0.97612366  0.76913836
   0.00483693  0.76866294  0.25304924
   0.73816147  0.50283896  0.25213331
   0.01763351  0.00308249  0.49960954
   0.49416908  0.51863171  0.49624055
   0.74515780  0.51289608  0.75177393
   0.75083557  0.74630582  0.49475734
HECN                                    
           1
     8.691888    0.015247   -0.003778
     0.021316    8.718555    0.001074
     0.027431   -0.014048    8.714508
   Nb   Ta   V    N    C    Cr   W 
   7   6   7  13  19   6   6
Direct configuration=     7
   0.00332147  0.99717050  0.99601078
   0.26493487  0.99633979  0.24415141
   0.25253977  0.50293560  0.24530900
   0.49987549  0.48955869  0.00157751
   0.49838770  0.23857460  0.75390562
   0.00342440  0.49919549  0.50336058
   0.49134224  0.76395781  0.75231505
   0.99808692  0.23997595  0.24920825
   0.75017546  0.75043002  0.00591048
   0.00535972  0.24903437  0.75233081
   0.74491638  0.24624309  0.50141334
   0.00465870  0.75163833  0.75337815
   0.24980256  0.49822693  0.75114473
   0.25371844  0.25022306  0.99203499
   0.50907787  0.25117780  0.24746118
   0.73858913  0.98887179  0.26963296
   0.74844890  0.25628808  0.99440171
   0.24344568  0.74722404  0.00071550
   0.25237303  0.24820254  0.50389265
   0.24738625  0.74936604  0.49857113
   0.25254893  0.24839043  0.24836916
   0.26192725  0.99946783  0.99173845
   0.00204398  0.24991382  0.00190223
   0.74681299  0.24381636  0.24788113
   0.74580378  0.00183689  0.00582468
   0.50936089 -0.00000978  0.24923975
   0.99532770  0.48945818  0.24356606
   0.49933880  0.75954620  0.00557937
   0.98818538  0.00252842  0.74561170
   0.75329999  0.24513794  0.75465148
   0.74154152  0.00273001  0.50672636
   0.49780631  0.23665604  0.49369184
   0.50177928  0.00215126  0.74312566
   0.99499496 -0.00208538  0.24949585
   0.50315218  0.24321098  0.00685923
   0.25689645  0.74980840  0.24825643
   0.24366600  0.49970482  0.99865101
   0.00596949  0.74236074  0.00546935
   0.74807089  0.75169841  0.25259556
   0.75961085  0.49262590  0.00348192
   0.49702786  0.50043365  0.25045837
   0.25247906  0.24481724  0.74899840
   0.25863913  0.99802349  0.50901580
   0.00471490  0.24963543  0.50026740
   0.24912796  0.75790284  0.75100436
   0.25133412  0.49965785  0.49768131
   0.00359515  0.75423405  0.50069777
   0.99767262  0.50084419  0.75329245
   0.74818175  0.75728147  0.74924143
   0.74726237  0.49888326  0.50196231
   0.49478166  0.75987128  0.49320953
   0.49952408  0.49956986  0.74733806
   0.52082681  0.02099228  0.97689582
   0.00371377  0.51429073  0.98143607
   0.50035340  0.74147227  0.25882413
   0.23724020  0.01131151  0.75426700
   0.48012351  0.98550919  0.48792478
   0.73156155  0.97888373  0.77389783
   0.00605085  0.76822189  0.25098250
   0.73534630  0.50196760  0.24922126
   0.01993644  0.00430548  0.49752327
   0.49618044  0.51851851  0.49494156
   0.74636004  0.51249377  0.75721142
   0.74996383  0.74729623  0.49426427
HECN                                    
           1
     8.671009    0.017814   -0.004103
     0.023860    8.707089    0.001048
     0.027026   -0.014044    8.694630
   Nb   Ta   V    N    C    Cr   W 
   7   6   7  13  19   6   6
Direct configuration=     8
   0.00266563  0.99705606  0.99626572
   0.26454775  0.99637966  0.24420241
   0.25276266  0.50284476  0.24550616
   0.50012733  0.48995208  0.00143925
   0.49860266  0.23881648  0.75353294
   0.00293946  0.49956477  0.50286991
   0.49143593  0.76400718  0.75229387
   0.99791580  0.23930411  0.24996801
   0.75026607  0.75020829  0.00662453
   0.00529753  0.24948497  0.75166590
   0.74488706  0.24718608  0.50159900
   0.00482085  0.75139826  0.75282004
   0.25032567  0.49825880  0.75092676
   0.25323280  0.25008867  0.99237993
   0.50896664  0.25159682  0.24788320
   0.73943727  0.98865034  0.26975310
   0.74909829  0.25655557  0.99436377
   0.24351590  0.74746076  0.00044853
   0.25241020  0.24833350  0.50358179
   0.24716650  0.74941579  0.49872765
   0.25232682  0.24858727  0.24837341
   0.26172072  0.99950986  0.99176621
   0.00212796  0.24962535  0.00180647
   0.74715127  0.24402993  0.24852093
   0.74588571  0.00137878  0.00631827
   0.50907808  0.00001827  0.24916338
   0.99517480  0.48832658  0.24341141
   0.49983340  0.75959180  0.00579572
   0.98826160  0.00251900  0.74531367
   0.75345208  0.24497145  0.75446815
   0.74077276  0.00294532  0.50665858
   0.49845720  0.23588525  0.49369308
   0.50178845  0.00196272  0.74251655
   0.99484843 -0.00091238  0.24955420
   0.50342681  0.24357408  0.00652066
   0.25628085  0.74969114  0.24835269
   0.24380982  0.49982544  0.99856453
   0.00615953  0.74231434  0.00533904
   0.74867294  0.75161045  0.25214875
   0.75938131  0.49285661  0.00334163
   0.49650891  0.50043489  0.25058691
   0.25248985  0.24509647  0.74900409
   0.25902796  0.99778388  0.50860037
   0.00451794  0.24913225  0.50040137
   0.24874401  0.75744596  0.75093894
   0.25179657  0.49980295  0.49756183
   0.00309378  0.75471278  0.50092905
   0.99724878  0.50073007  0.75308137
   0.74796413  0.75807744  0.74945512
   0.74751370  0.49812556  0.50217540
   0.49529165  0.76048359  0.49339878
   0.49932628  0.49952958  0.74732424
   0.52038425  0.02066527  0.97716316
   0.00325855  0.51401850  0.98191976
   0.50068017  0.74138981  0.25868492
   0.23754944  0.01159510  0.75357884
   0.47973387  0.98511250  0.48897052
   0.73267322  0.97827204  0.77284483
   0.00578252  0.76831951  0.25143972
   0.73596882  0.50216202  0.24986530
   0.01942686  0.00403307  0.49798485
   0.49573575  0.51854305  0.49522898
   0.74609458  0.51258280  0.75600868
   0.75015624  0.74707646  0.49437331
HECN                                    
           1
     8.641727    0.003746   -0.001392
     0.009770    8.650371    0.001735
     0.029661   -0.013314    8.664510
   Nb   Ta   V    N    C    Cr   W 
   7   6   7  13  19   6   6
Direct configuration=     9
   0.00652379  0.99717215  0.99593134
   0.26572368  0.99601041  0.24449574
   0.25261859  0.50347462  0.24557064
   0.49913161  0.48836189  0.00171244
   0.49802855  0.23862397  0.75493603
   0.00347563  0.49799416  0.50577859
   0.49268093  0.76313181  0.75193164
   0.99816322  0.24012653  0.24745979
   0.75006861  0.75081836  0.00448721
   0.00527675  0.24752378  0.75325940
   0.74565105  0.24427390  0.50050831
   0.00403551  0.75243667  0.75415822
   0.24954406  0.49799827  0.75134751
   0.25571149  0.25078848  0.99017414
   0.51012167  0.24973661  0.24631658
   0.73488471  0.98945070  0.26955590
   0.74534819  0.25443560  0.99471750
   0.24288508  0.74601434  0.00198656
   0.25188201  0.24779770  0.50585684
   0.24812483  0.74921336  0.49766026
   0.25266939  0.24769737  0.24830971
   0.26262660  0.99936404  0.99235873
   0.00165757  0.25127058  0.00221799
   0.74655026  0.24292696  0.24620984
   0.74624021  0.00331731  0.00395259
   0.51002401 -0.00034415  0.24958462
   0.99582145  0.49332484  0.24478043
   0.49823324  0.75903853  0.00431343
   0.98809327  0.00244165  0.74539055
   0.75298903  0.24554622  0.75417572
   0.74471109  0.00221211  0.50700534
   0.49652556  0.24020599  0.49422148
   0.50133876  0.00236175  0.74531907
   0.99599000 -0.00308477  0.24986448
   0.50162439  0.24192961  0.00758489
   0.25859040  0.75022759  0.24785425
   0.24327044  0.49914240  0.99860826
   0.00415351  0.74292938  0.00592389
   0.74671438  0.75075586  0.25322379
   0.76031629  0.49308346  0.00435602
   0.49872461  0.50068034  0.25055890
   0.25176364  0.24456373  0.74899225
   0.25717420  0.99900156  0.50987836
   0.00458597  0.25022966  0.49974108
   0.24908991  0.75923740  0.75127457
   0.25137930  0.49914973  0.49852647
   0.00404450  0.75350550  0.49947228
   0.99836265  0.50107763  0.75380264
   0.74902843  0.75495079  0.74825560
   0.74623034  0.50093842  0.50143760
   0.49399368  0.75707940  0.49298629
   0.50063327  0.50006118  0.74637935
   0.52326038  0.02178177  0.97561613
   0.00570469  0.51606664  0.97880106
   0.49900878  0.74177064  0.26029285
   0.23503067  0.00990552  0.75750700
   0.48084926  0.98655853  0.48320960
   0.72653518  0.97971523  0.77849811
   0.00658765  0.76711549  0.25021359
   0.73273448  0.50289470  0.24803480
   0.02258913  0.00507679  0.49519034
   0.49764511  0.51893214  0.49401422
   0.74710220  0.51291254  0.76057196
   0.74992257  0.74706437  0.49364533
HECN                                    
           1
     8.643956    0.004817   -0.001598
     0.010843    8.654688    0.001683
     0.029460   -0.013370    8.666803
   Nb   Ta   V    N    C    Cr   W 
   7   6   7  13  19   6   6
Direct configuration=    10
   0.00622908  0.99716278  0.99595697
   0.26563391  0.99603856  0.24447336
   0.25262952  0.50342638  0.24556571
   0.49920787  0.48848386  0.00169154
   0.49807246  0.23863880  0.75482883
   0.00343494  0.49811445  0.50555641
   0.49258594  0.76319872  0.75195933
   0.99814416  0.24006347  0.24765140
   0.75008357  0.75077163  0.00465047
   0.00527862  0.24767406  0.75313766
   0.74559303  0.24449693  0.50059162
   0.00409540  0.75235721  0.75405599
   0.24960380  0.49801833  0.75131535
   0.25552202  0.25073454  0.99034270
   0.51003364  0.24987899  0.24643626
   0.73523233  0.98938994  0.26957086
   0.74563489  0.25459850  0.99469038
   0.24293348  0.74612525  0.00186905
   0.25192247  0.24783883  0.50568304
   0.24805163  0.74922875  0.49774182
   0.25264333  0.24776551  0.24831458
   0.26255744  0.99937510  0.99231349
   0.00169330  0.25114459  0.00218655
   0.74659625  0.24301153  0.24638636
   0.74621284  0.00316872  0.00413332
   0.50995182 -0.00031650  0.24955246
   0.99577147  0.49294179  0.24467590
   0.49835549  0.75908111  0.00442662
   0.98810614  0.00244759  0.74538468
   0.75302432  0.24550224  0.75419805
   0.74441038  0.00226780  0.50697894
   0.49667258  0.23987518  0.49418110
   0.50137312  0.00233125  0.74510499
   0.99590308 -0.00291846  0.24984079
   0.50176229  0.24205584  0.00750355
   0.25841392  0.75018620  0.24789238
   0.24331173  0.49919481  0.99860490
   0.00430667  0.74288251  0.00587917
   0.74686410  0.75082159  0.25314162
   0.76024487  0.49306597  0.00427856
   0.49855534  0.50066126  0.25056109
   0.25181917  0.24460464  0.74899313
   0.25731567  0.99890850  0.50978070
   0.00458062  0.25014556  0.49979153
   0.24906328  0.75910010  0.75124895
   0.25141127  0.49919984  0.49845277
   0.00397200  0.75359788  0.49958358
   0.99827755  0.50105087  0.75374757
   0.74894750  0.75519021  0.74834724
   0.74632799  0.50072305  0.50149395
   0.49409323  0.75734040  0.49301774
   0.50053335  0.50002028  0.74645156
   0.52304053  0.02169586  0.97573438
   0.00551752  0.51590939  0.97903936
   0.49913643  0.74174168  0.26016999
   0.23522336  0.01003531  0.75720687
   0.48076375  0.98644756  0.48364970
   0.72700397  0.97960545  0.77806614
   0.00652627  0.76720764  0.25030726
   0.73298139  0.50283895  0.24817456
   0.02234740  0.00499641  0.49540389
   0.49749919  0.51890208  0.49410706
   0.74702531  0.51288718  0.76022341
   0.74994040  0.74706532  0.49370093
HECN                                    
           1
     8.646994    0.000534    0.003180
     0.006560    8.653256    0.002139
     0.034269   -0.012933    8.673440
   Nb   Ta   V    N    C    Cr   W 
   7   6   7  13  19   6   6
Direct configuration=    11
   0.00965146  0.99732771  0.99677944
   0.26563164  0.99599119  0.24459400
   0.25350268  0.50349252  0.24702174
   0.49846341  0.48853081  0.00137111
   0.49822786  0.23986259  0.75480936
   0.00171691  0.49759274  0.50739187
   0.49450853  0.76213894  0.75162584
   0.99786522  0.23949829  0.24692289
   0.74946300  0.75143111  0.00477409
   0.00460425  0.24652276  0.75289567
   0.74634324  0.24404444  0.49941189
   0.00409464  0.75360234  0.75317618
   0.25084175  0.49856409  0.75075332
   0.25718823  0.25126239  0.98833044
   0.51135962  0.24866047  0.24623661
   0.73267840  0.98976015  0.26973815
   0.74232971  0.25198075  0.99548038
   0.24222576  0.74491251  0.00282572
   0.25111583  0.24806037  0.50815620
   0.24865251  0.74902944  0.49663155
   0.25233981  0.24760929  0.24818837
   0.26341191  0.99918270  0.99336114
   0.00124819  0.25280957  0.00209107
   0.74701712  0.24190085  0.24533386
   0.74791484  0.00469335  0.00390745
   0.50973362 -0.00110686  0.24920751
   0.99642786  0.49560990  0.24599230
   0.49763831  0.75835357  0.00334616
   0.98801629  0.00210577  0.74428185
   0.75257517  0.24508106  0.75306888
   0.74655356  0.00178318  0.50724588
   0.49638056  0.24262633  0.49474580
   0.49978435  0.00203673  0.74617662
   0.99640151 -0.00025799  0.24938861
   0.49991765  0.24111424  0.00782192
   0.25925591  0.75011906  0.24752454
   0.24312349  0.49859746  0.99867898
   0.00312763  0.74355942  0.00581741
   0.74641991  0.75033004  0.25163640
   0.76097380  0.49378638  0.00528780
   0.49701127  0.50067411  0.25001682
   0.25133528  0.24451532  0.74908521
   0.25881985  0.99928763  0.50999073
   0.00421077  0.24939966  0.49939392
   0.24851035  0.75995169  0.75141774
   0.25253553  0.49880403  0.49891662
   0.00381002  0.75383001  0.49900623
   0.99803981  0.50080925  0.75378771
   0.74926756  0.75614030  0.74775476
   0.74663108  0.50016985  0.50180093
   0.49402736  0.75767410  0.49328188
   0.50123263  0.50046216  0.74555127
   0.52460857  0.02103606  0.97549048
   0.00722152  0.51750264  0.97723702
   0.49784409  0.74268555  0.26197338
   0.23304320  0.00848006  0.76084181
   0.48107962  0.98730861  0.48015445
   0.72343255  0.97911704  0.78040933
   0.00697154  0.76417400  0.25047229
   0.73343335  0.50381623  0.24773023
   0.02249570  0.00553843  0.49379902
   0.49769028  0.51699251  0.49404522
   0.74761858  0.51151791  0.76188477
   0.75040370  0.74791295  0.49392934
HECN                                    
           1
     8.648887   -0.002137    0.006159
     0.003890    8.652363    0.002423
     0.037267   -0.012661    8.677578
   Nb   Ta   V    N    C    Cr   W 
   7   6   7  13  19   6   6
Direct configuration=    12
   0.01178433  0.99743159  0.99729067
   0.26563017  0.99596164  0.24466917
   0.25404643  0.50353399  0.24792857