  64  64   0   0
  0.1139878E+02  0.8981741E-09  0.9040843E-09  0.8983983E-09  0.5000000E-15
  1.000000000000000E-004
  CAR 
 HECN                                    
     14.53843613    -52.12236621  301      8.58534531      1.00000000
    -52.122  0.0000E+00  0.0000E+00
    -51.900  0.0000E+00  0.0000E+00
    -51.678  0.0000E+00  0.0000E+00
    -51.456  0.0000E+00  0.0000E+00
    -51.234  0.0000E+00  0.0000E+00
    -51.011  0.0000E+00  0.0000E+00
    -50.789  0.0000E+00  0.0000E+00
    -50.567  0.0000E+00  0.0000E+00
    -50.345  0.0000E+00  0.0000E+00
    -50.123  0.0000E+00  0.0000E+00
    -49.900  0.0000E+00  0.0000E+00
    -49.678  0.4996E-17  0.1110E-17
    -49.456  0.1221E-07  0.2712E-08
    -49.234  0.2107E-02  0.4681E-03
    -49.012  0.1443E+00  0.3253E-01
    -48.789  0.3718E+00  0.1152E+00
    -48.567  0.1101E+00  0.1396E+00
    -48.345  0.1734E-02  0.1400E+00
    -48.123  0.8400E-08  0.1400E+00
    -47.901  0.4754E-14  0.1400E+00
    -47.678  0.7999E-06  0.1400E+00
    -47.456  0.1164E-01  0.1426E+00
    -47.234  0.1880E+00  0.1844E+00
    -47.012  0.2566E+00  0.2414E+00
    -46.790  0.8300E-01  0.2598E+00
    -46.567  0.8057E-03  0.2600E+00
    -46.345  0.1611E-08  0.2600E+00
    -46.123  0.0000E+00  0.2600E+00
    -45.901  0.0000E+00  0.2600E+00
    -45.678  0.0000E+00  0.2600E+00
    -45.456  0.0000E+00  0.2600E+00
    -45.234  0.0000E+00  0.2600E+00
    -45.012  0.0000E+00  0.2600E+00
    -44.790  0.0000E+00  0.2600E+00
    -44.567  0.0000E+00  0.2600E+00
    -44.345  0.0000E+00  0.2600E+00
    -44.123  0.0000E+00  0.2600E+00
    -43.901  0.0000E+00  0.2600E+00
    -43.679  0.0000E+00  0.2600E+00
    -43.456  0.0000E+00  0.2600E+00
    -43.234  0.0000E+00  0.2600E+00
    -43.012  0.0000E+00  0.2600E+00
    -42.790  0.0000E+00  0.2600E+00
    -42.568  0.0000E+00  0.2600E+00
    -42.345  0.0000E+00  0.2600E+00
    -42.123  0.0000E+00  0.2600E+00
    -41.901  0.0000E+00  0.2600E+00
    -41.679  0.0000E+00  0.2600E+00
    -41.457  0.0000E+00  0.2600E+00
    -41.234  0.6263E-09  0.2600E+00
    -41.012  0.5128E-03  0.2601E+00
    -40.790  0.8180E-01  0.2783E+00
    -40.568  0.1371E+00  0.3088E+00
    -40.346  0.1089E+00  0.3330E+00
    -40.123  0.1874E+00  0.3746E+00
    -39.901  0.2451E-01  0.3800E+00
    -39.679  0.5674E-01  0.3927E+00
    -39.457  0.3302E-01  0.4000E+00
    -39.235  0.2241E-04  0.4000E+00
    -39.012  0.1571E-11  0.4000E+00
    -38.790  0.0000E+00  0.4000E+00
    -38.568  0.0000E+00  0.4000E+00
    -38.346  0.0000E+00  0.4000E+00
    -38.124  0.0000E+00  0.4000E+00
    -37.901  0.0000E+00  0.4000E+00
    -37.679  0.0000E+00  0.4000E+00
    -37.457  0.0000E+00  0.4000E+00
    -37.235  0.0000E+00  0.4000E+00
    -37.013  0.0000E+00  0.4000E+00
    -36.790  0.0000E+00  0.4000E+00
    -36.568  0.0000E+00  0.4000E+00
    -36.346  0.0000E+00  0.4000E+00
    -36.124  0.0000E+00  0.4000E+00
    -35.902  0.0000E+00  0.4000E+00
    -35.679  0.0000E+00  0.4000E+00
    -35.457  0.0000E+00  0.4000E+00
    -35.235  0.0000E+00  0.4000E+00
    -35.013  0.0000E+00  0.4000E+00
    -34.791  0.0000E+00  0.4000E+00
    -34.568  0.0000E+00  0.4000E+00
    -34.346  0.0000E+00  0.4000E+00
    -34.124  0.0000E+00  0.4000E+00
    -33.902  0.0000E+00  0.4000E+00
    -33.680  0.0000E+00  0.4000E+00
    -33.457  0.0000E+00  0.4000E+00
    -33.235  0.0000E+00  0.4000E+00
    -33.013  0.0000E+00  0.4000E+00
    -32.791  0.0000E+00  0.4000E+00
    -32.569  0.0000E+00  0.4000E+00
    -32.346  0.0000E+00  0.4000E+00
    -32.124  0.0000E+00  0.4000E+00
    -31.902  0.0000E+00  0.4000E+00
    -31.680  0.0000E+00  0.4000E+00
    -31.458  0.0000E+00  0.4000E+00
    -31.235  0.0000E+00  0.4000E+00
    -31.013  0.0000E+00  0.4000E+00
    -30.791  0.0000E+00  0.4000E+00
    -30.569  0.0000E+00  0.4000E+00
    -30.347  0.0000E+00  0.4000E+00
    -30.124  0.0000E+00  0.4000E+00
    -29.902  0.0000E+00  0.4000E+00
    -29.680  0.0000E+00  0.4000E+00
    -29.458  0.0000E+00  0.4000E+00
    -29.235  0.0000E+00  0.4000E+00
    -29.013  0.0000E+00  0.4000E+00
    -28.791  0.0000E+00  0.4000E+00
    -28.569  0.0000E+00  0.4000E+00
    -28.347  0.0000E+00  0.4000E+00
    -28.124  0.0000E+00  0.4000E+00
    -27.902  0.0000E+00  0.4000E+00
    -27.680  0.0000E+00  0.4000E+00
    -27.458  0.0000E+00  0.4000E+00
    -27.236  0.1574E-08  0.4000E+00
    -27.013  0.1086E-02  0.4002E+00
    -26.791  0.2555E+00  0.4570E+00
    -26.569  0.7485E+00  0.6233E+00
    -26.347  0.5587E+00  0.7475E+00
    -26.125  0.5633E-01  0.7600E+00
    -25.902  0.1967E-04  0.7600E+00
    -25.680  0.7950E-03  0.7602E+00
    -25.458  0.1801E+00  0.8002E+00
    -25.236  0.9857E+00  0.1019E+01
    -25.014  0.6526E+00  0.1164E+01
    -24.791  0.7094E-01  0.1180E+01
    -24.569  0.3901E-04  0.1180E+01
    -24.347  0.3546E-11  0.1180E+01
    -24.125  0.1856E-12  0.1180E+01
    -23.903  0.7536E-05  0.1180E+01
    -23.680  0.3632E-01  0.1188E+01
    -23.458  0.3294E+00  0.1261E+01
    -23.236  0.7677E+00  0.1432E+01
    -23.014  0.4044E+00  0.1522E+01
    -22.792  0.8565E-01  0.1541E+01
    -22.569  0.1484E+00  0.1574E+01
    -22.347  0.5113E+00  0.1687E+01
    -22.125  0.2143E+00  0.1735E+01
    -21.903  0.4397E+00  0.1833E+01
    -21.681  0.3004E+00  0.1899E+01
    -21.458  0.2677E-02  0.1900E+01
    -21.236  0.1164E-07  0.1900E+01
    -21.014  0.0000E+00  0.1900E+01
    -20.792  0.0000E+00  0.1900E+01
    -20.570  0.0000E+00  0.1900E+01
    -20.347  0.0000E+00  0.1900E+01
    -20.125  0.0000E+00  0.1900E+01
    -19.903  0.0000E+00  0.1900E+01
    -19.681  0.3364E-09  0.1900E+01
    -19.459  0.3983E-03  0.1900E+01
    -19.236  0.1021E+00  0.1923E+01
    -19.014  0.3129E+00  0.1992E+01
    -18.792  0.3386E+00  0.2068E+01
    -18.570  0.3777E+00  0.2151E+01
    -18.348  0.4689E+00  0.2256E+01
    -18.125  0.4075E-01  0.2265E+01
    -17.903  0.2250E+00  0.2315E+01
    -17.681  0.2374E-01  0.2320E+01
    -17.459  0.1668E-05  0.2320E+01
    -17.237  0.1059E-13  0.2320E+01
    -17.014  0.0000E+00  0.2320E+01
    -16.792  0.0000E+00  0.2320E+01
    -16.570  0.0000E+00  0.2320E+01
    -16.348  0.0000E+00  0.2320E+01
    -16.126  0.0000E+00  0.2320E+01
    -15.903  0.0000E+00  0.2320E+01
    -15.681  0.0000E+00  0.2320E+01
    -15.459  0.0000E+00  0.2320E+01
    -15.237  0.0000E+00  0.2320E+01
    -15.015  0.0000E+00  0.2320E+01
    -14.792  0.0000E+00  0.2320E+01
    -14.570  0.0000E+00  0.2320E+01
    -14.348  0.0000E+00  0.2320E+01
    -14.126  0.0000E+00  0.2320E+01
    -13.904  0.0000E+00  0.2320E+01
    -13.681  0.0000E+00  0.2320E+01
    -13.459  0.0000E+00  0.2320E+01
    -13.237  0.0000E+00  0.2320E+01
    -13.015  0.0000E+00  0.2320E+01
    -12.792  0.0000E+00  0.2320E+01
    -12.570  0.0000E+00  0.2320E+01
    -12.348  0.0000E+00  0.2320E+01
    -12.126  0.0000E+00  0.2320E+01
    -11.904  0.0000E+00  0.2320E+01
    -11.681  0.0000E+00  0.2320E+01
    -11.459  0.0000E+00  0.2320E+01
    -11.237  0.0000E+00  0.2320E+01
    -11.015  0.0000E+00  0.2320E+01
    -10.793  0.0000E+00  0.2320E+01
    -10.570  0.0000E+00  0.2320E+01
    -10.348  0.0000E+00  0.2320E+01
    -10.126  0.0000E+00  0.2320E+01
     -9.904  0.0000E+00  0.2320E+01
     -9.682  0.0000E+00  0.2320E+01
     -9.459  0.0000E+00  0.2320E+01
     -9.237  0.0000E+00  0.2320E+01
     -9.015  0.0000E+00  0.2320E+01
     -8.793  0.0000E+00  0.2320E+01
     -8.571  0.0000E+00  0.2320E+01
     -8.348  0.0000E+00  0.2320E+01
     -8.126  0.0000E+00  0.2320E+01
     -7.904  0.2711E-10  0.2320E+01
     -7.682  0.2710E-04  0.2320E+01
     -7.460  0.1024E-01  0.2322E+01
     -7.237  0.5928E-01  0.2335E+01
     -7.015  0.3797E-01  0.2344E+01
     -6.793  0.1341E+00  0.2374E+01
     -6.571  0.2197E+00  0.2422E+01
     -6.349  0.3335E+00  0.2497E+01
     -6.126  0.2721E+00  0.2557E+01
     -5.904  0.4916E-01  0.2568E+01
     -5.682  0.4894E-01  0.2579E+01
     -5.460  0.5099E-02  0.2580E+01
     -5.238  0.2736E-05  0.2580E+01
     -5.015  0.2055E-12  0.2580E+01
     -4.793  0.0000E+00  0.2580E+01
     -4.571  0.6166E-14  0.2580E+01
     -4.349  0.3193E-06  0.2580E+01
     -4.127  0.1989E-02  0.2580E+01
     -3.904  0.4279E-01  0.2590E+01
     -3.682  0.4412E-01  0.2600E+01
     -3.460  0.4012E-01  0.2609E+01
     -3.238  0.7984E-01  0.2626E+01
     -3.016  0.1256E+00  0.2654E+01
     -2.793  0.1737E+00  0.2693E+01
     -2.571  0.2490E+00  0.2748E+01
     -2.349  0.2456E+00  0.2803E+01
     -2.127  0.2312E+00  0.2854E+01
     -1.905  0.2282E+00  0.2905E+01
     -1.682  0.1477E+00  0.2938E+01
     -1.460  0.8529E-01  0.2957E+01
     -1.238  0.1442E-01  0.2960E+01
     -1.016  0.6383E-03  0.2960E+01
     -0.794  0.8845E-07  0.2960E+01
     -0.571  0.1127E-14  0.2960E+01
     -0.349  0.0000E+00  0.2960E+01
     -0.127  0.0000E+00  0.2960E+01
      0.095  0.0000E+00  0.2960E+01
      0.317  0.3208E-13  0.2960E+01
      0.540  0.6301E-06  0.2960E+01
      0.762  0.1579E-02  0.2960E+01
      0.984  0.1189E-01  0.2963E+01
      1.206  0.4413E-01  0.2973E+01
      1.428  0.1034E+00  0.2996E+01
      1.651  0.1092E+00  0.3020E+01
      1.873  0.1264E+00  0.3048E+01
      2.095  0.2107E+00  0.3095E+01
      2.317  0.3272E+00  0.3168E+01
      2.539  0.2905E+00  0.3232E+01
      2.762  0.2152E+00  0.3280E+01
      2.984  0.3446E+00  0.3357E+01
      3.206  0.3403E+00  0.3432E+01
      3.428  0.4079E+00  0.3523E+01
      3.651  0.5121E+00  0.3637E+01
      3.873  0.5865E+00  0.3767E+01
      4.095  0.6067E+00  0.3902E+01
      4.317  0.6381E+00  0.4044E+01
      4.539  0.6551E+00  0.4189E+01
      4.762  0.6291E+00  0.4329E+01
      4.984  0.5359E+00  0.4448E+01
      5.206  0.4353E+00  0.4545E+01
      5.428  0.3962E+00  0.4633E+01
      5.650  0.2874E+00  0.4697E+01
      5.873  0.2629E+00  0.4755E+01
      6.095  0.2213E+00  0.4804E+01
      6.317  0.1677E+00  0.4841E+01
      6.539  0.1313E+00  0.4871E+01
      6.761  0.4589E-01  0.4881E+01
      6.984  0.6019E-01  0.4894E+01
      7.206  0.1528E+00  0.4928E+01
      7.428  0.1597E+00  0.4964E+01
      7.650  0.1419E+00  0.4995E+01
      7.872  0.1257E+00  0.5023E+01
      8.095  0.1315E+00  0.5052E+01
      8.317  0.1199E+00  0.5079E+01
      8.539  0.1885E+00  0.5121E+01
      8.761  0.2252E+00  0.5171E+01
      8.983  0.2992E+00  0.5237E+01
      9.206  0.2672E+00  0.5297E+01
      9.428  0.2023E+00  0.5342E+01
      9.650  0.2919E+00  0.5407E+01
      9.872  0.3956E+00  0.5494E+01
     10.094  0.4662E+00  0.5598E+01
     10.317  0.4740E+00  0.5703E+01
     10.539  0.4925E+00  0.5813E+01
     10.761  0.4337E+00  0.5909E+01
     10.983  0.4411E+00  0.6007E+01
     11.205  0.4207E+00  0.6101E+01
     11.428  0.2202E+00  0.6150E+01
     11.650  0.4627E-01  0.6160E+01
     11.872  0.4562E-03  0.6160E+01
     12.094  0.2023E-08  0.6160E+01
     12.316  0.0000E+00  0.6160E+01
     12.539  0.0000E+00  0.6160E+01
     12.761  0.0000E+00  0.6160E+01
     12.983  0.0000E+00  0.6160E+01
     13.205  0.0000E+00  0.6160E+01
     13.427  0.0000E+00  0.6160E+01
     13.650  0.0000E+00  0.6160E+01
     13.872  0.0000E+00  0.6160E+01
     14.094  0.0000E+00  0.6160E+01
     14.316  0.0000E+00  0.6160E+01
     14.538  0.0000E+00  0.6160E+01
