  64  64   0   0
  0.1129557E+02  0.8932500E-09  0.9055600E-09  0.8937200E-09  0.5000000E-15
  1.000000000000000E-004
  CAR 
 HECN                                    
     13.60362555    -44.19401185  301      7.62849275      1.00000000
    -44.194  0.0000E+00  0.0000E+00
    -44.001  0.0000E+00  0.0000E+00
    -43.809  0.0000E+00  0.0000E+00
    -43.616  0.0000E+00  0.0000E+00
    -43.423  0.0000E+00  0.0000E+00
    -43.231  0.0000E+00  0.0000E+00
    -43.038  0.0000E+00  0.0000E+00
    -42.845  0.0000E+00  0.0000E+00
    -42.653  0.0000E+00  0.0000E+00
    -42.460  0.0000E+00  0.0000E+00
    -42.267  0.0000E+00  0.0000E+00
    -42.075  0.3552E-13  0.6844E-14
    -41.882  0.4408E-06  0.8492E-07
    -41.689  0.5187E-02  0.9994E-03
    -41.497  0.1860E+00  0.3684E-01
    -41.304  0.1194E+00  0.5983E-01
    -41.111  0.3296E-01  0.6618E-01
    -40.919  0.2537E+00  0.1151E+00
    -40.726  0.5210E-01  0.1251E+00
    -40.533  0.7533E-01  0.1396E+00
    -40.341  0.2016E-02  0.1400E+00
    -40.148  0.8639E-07  0.1400E+00
    -39.956  0.2950E-14  0.1400E+00
    -39.763  0.0000E+00  0.1400E+00
    -39.570  0.0000E+00  0.1400E+00
    -39.378  0.0000E+00  0.1400E+00
    -39.185  0.0000E+00  0.1400E+00
    -38.992  0.0000E+00  0.1400E+00
    -38.800  0.0000E+00  0.1400E+00
    -38.607  0.0000E+00  0.1400E+00
    -38.414  0.0000E+00  0.1400E+00
    -38.222  0.0000E+00  0.1400E+00
    -38.029  0.0000E+00  0.1400E+00
    -37.836  0.0000E+00  0.1400E+00
    -37.644  0.0000E+00  0.1400E+00
    -37.451  0.0000E+00  0.1400E+00
    -37.258  0.0000E+00  0.1400E+00
    -37.066  0.0000E+00  0.1400E+00
    -36.873  0.0000E+00  0.1400E+00
    -36.680  0.2177E-14  0.1400E+00
    -36.488  0.7081E-07  0.1400E+00
    -36.295  0.1840E-02  0.1404E+00
    -36.102  0.9475E-01  0.1586E+00
    -35.910  0.5259E+00  0.2599E+00
    -35.717  0.1027E+01  0.4577E+00
    -35.524  0.2144E+00  0.4990E+00
    -35.332  0.5099E-02  0.5000E+00
    -35.139  0.5641E-06  0.5000E+00
    -34.946  0.5442E-13  0.5000E+00
    -34.754  0.0000E+00  0.5000E+00
    -34.561  0.0000E+00  0.5000E+00
    -34.368  0.0000E+00  0.5000E+00
    -34.176  0.0000E+00  0.5000E+00
    -33.983  0.0000E+00  0.5000E+00
    -33.790  0.0000E+00  0.5000E+00
    -33.598  0.0000E+00  0.5000E+00
    -33.405  0.0000E+00  0.5000E+00
    -33.212  0.0000E+00  0.5000E+00
    -33.020  0.0000E+00  0.5000E+00
    -32.827  0.0000E+00  0.5000E+00
    -32.634  0.0000E+00  0.5000E+00
    -32.442  0.0000E+00  0.5000E+00
    -32.249  0.2556E-13  0.5000E+00
    -32.057  0.4617E-06  0.5000E+00
    -31.864  0.7651E-02  0.5015E+00
    -31.671  0.3596E+00  0.5707E+00
    -31.479  0.8104E+00  0.7269E+00
    -31.286  0.5722E+00  0.8371E+00
    -31.093  0.1183E+00  0.8599E+00
    -30.901  0.5055E-03  0.8600E+00
    -30.708  0.4122E-08  0.8600E+00
    -30.515  0.2305E-16  0.8600E+00
    -30.323  0.0000E+00  0.8600E+00
    -30.130  0.0000E+00  0.8600E+00
    -29.937  0.0000E+00  0.8600E+00
    -29.745  0.0000E+00  0.8600E+00
    -29.552  0.0000E+00  0.8600E+00
    -29.359  0.0000E+00  0.8600E+00
    -29.167  0.0000E+00  0.8600E+00
    -28.974  0.0000E+00  0.8600E+00
    -28.781  0.0000E+00  0.8600E+00
    -28.589  0.4084E-10  0.8600E+00
    -28.396  0.3424E-04  0.8600E+00
    -28.203  0.3608E-01  0.8670E+00
    -28.011  0.2423E+00  0.9136E+00
    -27.818  0.3291E+00  0.9770E+00
    -27.625  0.6028E+00  0.1093E+01
    -27.433  0.3624E+00  0.1163E+01
    -27.240  0.2830E+00  0.1218E+01
    -27.047  0.1279E-01  0.1220E+01
    -26.855  0.1864E-05  0.1220E+01
    -26.662  0.2500E-12  0.1220E+01
    -26.469  0.0000E+00  0.1220E+01
    -26.277  0.0000E+00  0.1220E+01
    -26.084  0.0000E+00  0.1220E+01
    -25.891  0.0000E+00  0.1220E+01
    -25.699  0.0000E+00  0.1220E+01
    -25.506  0.0000E+00  0.1220E+01
    -25.313  0.0000E+00  0.1220E+01
    -25.121  0.0000E+00  0.1220E+01
    -24.928  0.0000E+00  0.1220E+01
    -24.735  0.0000E+00  0.1220E+01
    -24.543  0.0000E+00  0.1220E+01
    -24.350  0.0000E+00  0.1220E+01
    -24.157  0.5763E-17  0.1220E+01
    -23.965  0.9573E-09  0.1220E+01
    -23.772  0.2388E-03  0.1220E+01
    -23.580  0.8500E-01  0.1236E+01
    -23.387  0.2178E+00  0.1278E+01
    -23.194  0.2086E+00  0.1319E+01
    -23.002  0.9334E+00  0.1498E+01
    -22.809  0.6074E+00  0.1615E+01
    -22.616  0.1245E+00  0.1639E+01
    -22.424  0.3216E-02  0.1640E+01
    -22.231  0.2256E-06  0.1640E+01
    -22.038  0.1300E-13  0.1640E+01
    -21.846  0.0000E+00  0.1640E+01
    -21.653  0.0000E+00  0.1640E+01
    -21.460  0.0000E+00  0.1640E+01
    -21.268  0.0000E+00  0.1640E+01
    -21.075  0.0000E+00  0.1640E+01
    -20.882  0.0000E+00  0.1640E+01
    -20.690  0.3756E-16  0.1640E+01
    -20.497  0.4822E-08  0.1640E+01
    -20.304  0.4624E-03  0.1640E+01
    -20.112  0.5803E-01  0.1651E+01
    -19.919  0.2183E+00  0.1693E+01
    -19.726  0.4139E+00  0.1773E+01
    -19.534  0.2461E+00  0.1820E+01
    -19.341  0.5177E+00  0.1920E+01
    -19.148  0.4409E+00  0.2005E+01
    -18.956  0.2569E+00  0.2055E+01
    -18.763  0.2768E-01  0.2060E+01
    -18.570  0.9283E-05  0.2060E+01
    -18.378  0.3139E-11  0.2060E+01
    -18.185  0.0000E+00  0.2060E+01
    -17.992  0.0000E+00  0.2060E+01
    -17.800  0.0000E+00  0.2060E+01
    -17.607  0.0000E+00  0.2060E+01
    -17.414  0.0000E+00  0.2060E+01
    -17.222  0.0000E+00  0.2060E+01
    -17.029  0.0000E+00  0.2060E+01
    -16.836  0.0000E+00  0.2060E+01
    -16.644  0.0000E+00  0.2060E+01
    -16.451  0.0000E+00  0.2060E+01
    -16.258  0.0000E+00  0.2060E+01
    -16.066  0.0000E+00  0.2060E+01
    -15.873  0.0000E+00  0.2060E+01
    -15.681  0.0000E+00  0.2060E+01
    -15.488  0.0000E+00  0.2060E+01
    -15.295  0.0000E+00  0.2060E+01
    -15.103  0.0000E+00  0.2060E+01
    -14.910  0.0000E+00  0.2060E+01
    -14.717  0.0000E+00  0.2060E+01
    -14.525  0.0000E+00  0.2060E+01
    -14.332  0.0000E+00  0.2060E+01
    -14.139  0.0000E+00  0.2060E+01
    -13.947  0.0000E+00  0.2060E+01
    -13.754  0.0000E+00  0.2060E+01
    -13.561  0.0000E+00  0.2060E+01
    -13.369  0.0000E+00  0.2060E+01
    -13.176  0.0000E+00  0.2060E+01
    -12.983  0.0000E+00  0.2060E+01
    -12.791  0.0000E+00  0.2060E+01
    -12.598  0.0000E+00  0.2060E+01
    -12.405  0.0000E+00  0.2060E+01
    -12.213  0.0000E+00  0.2060E+01
    -12.020  0.0000E+00  0.2060E+01
    -11.827  0.0000E+00  0.2060E+01
    -11.635  0.0000E+00  0.2060E+01
    -11.442  0.0000E+00  0.2060E+01
    -11.249  0.0000E+00  0.2060E+01
    -11.057  0.0000E+00  0.2060E+01
    -10.864  0.0000E+00  0.2060E+01
    -10.671  0.0000E+00  0.2060E+01
    -10.479  0.0000E+00  0.2060E+01
    -10.286  0.0000E+00  0.2060E+01
    -10.093  0.0000E+00  0.2060E+01
     -9.901  0.0000E+00  0.2060E+01
     -9.708  0.0000E+00  0.2060E+01
     -9.515  0.0000E+00  0.2060E+01
     -9.323  0.0000E+00  0.2060E+01
     -9.130  0.2653E-13  0.2060E+01
     -8.937  0.1112E-06  0.2060E+01
     -8.745  0.5868E-03  0.2060E+01
     -8.552  0.2569E-01  0.2065E+01
     -8.359  0.7245E-01  0.2079E+01
     -8.167  0.8365E-01  0.2095E+01
     -7.974  0.1407E+00  0.2122E+01
     -7.782  0.1024E+00  0.2142E+01
     -7.589  0.1601E+00  0.2173E+01
     -7.396  0.1640E+00  0.2204E+01
     -7.204  0.1351E+00  0.2230E+01
     -7.011  0.1802E+00  0.2265E+01
     -6.818  0.1706E+00  0.2298E+01
     -6.626  0.9258E-01  0.2316E+01
     -6.433  0.2137E-01  0.2320E+01
     -6.240  0.2091E-04  0.2320E+01
     -6.048  0.2040E-10  0.2320E+01
     -5.855  0.1682E-07  0.2320E+01
     -5.662  0.2916E-03  0.2320E+01
     -5.470  0.2128E-01  0.2324E+01
     -5.277  0.6551E-01  0.2337E+01
     -5.084  0.1673E-01  0.2340E+01
     -4.892  0.3079E-01  0.2346E+01
     -4.699  0.1097E+00  0.2367E+01
     -4.506  0.1122E+00  0.2389E+01
     -4.314  0.1191E+00  0.2412E+01
     -4.121  0.1945E+00  0.2449E+01
     -3.928  0.2388E+00  0.2495E+01
     -3.736  0.1835E+00  0.2530E+01
     -3.543  0.1583E+00  0.2561E+01
     -3.350  0.1671E+00  0.2593E+01
     -3.158  0.1680E+00  0.2626E+01
     -2.965  0.1244E+00  0.2650E+01
     -2.772  0.1349E+00  0.2675E+01
     -2.580  0.8967E-01  0.2693E+01
     -2.387  0.3440E-01  0.2699E+01
     -2.194  0.3108E-02  0.2700E+01
     -2.002  0.1910E-04  0.2700E+01
     -1.809  0.2142E-09  0.2700E+01
     -1.616  0.1707E-17  0.2700E+01
     -1.424  0.0000E+00  0.2700E+01
     -1.231  0.0000E+00  0.2700E+01
     -1.038  0.2607E-14  0.2700E+01
     -0.846  0.2902E-07  0.2700E+01
     -0.653  0.3151E-03  0.2700E+01
     -0.460  0.8387E-02  0.2702E+01
     -0.268  0.1606E-01  0.2705E+01
     -0.075  0.7895E-01  0.2720E+01
      0.118  0.9416E-01  0.2738E+01
      0.310  0.1217E+00  0.2762E+01
      0.503  0.1398E+00  0.2789E+01
      0.695  0.1848E+00  0.2824E+01
      0.888  0.2429E+00  0.2871E+01
      1.081  0.2706E+00  0.2923E+01
      1.273  0.2302E+00  0.2967E+01
      1.466  0.2527E+00  0.3016E+01
      1.659  0.3033E+00  0.3075E+01
      1.851  0.3182E+00  0.3136E+01
      2.044  0.3282E+00  0.3199E+01
      2.237  0.4268E+00  0.3281E+01
      2.429  0.5087E+00  0.3379E+01
      2.622  0.5685E+00  0.3489E+01
      2.815  0.5769E+00  0.3600E+01
      3.007  0.6284E+00  0.3721E+01
      3.200  0.6108E+00  0.3839E+01
      3.393  0.5736E+00  0.3949E+01
      3.585  0.5393E+00  0.4053E+01
      3.778  0.4580E+00  0.4141E+01
      3.971  0.4653E+00  0.4231E+01
      4.163  0.4108E+00  0.4310E+01
      4.356  0.3455E+00  0.4377E+01
      4.549  0.2978E+00  0.4434E+01
      4.741  0.2796E+00  0.4488E+01
      4.934  0.2462E+00  0.4535E+01
      5.127  0.1790E+00  0.4570E+01
      5.319  0.1468E+00  0.4598E+01
      5.512  0.1131E+00  0.4620E+01
      5.705  0.1043E+00  0.4640E+01
      5.897  0.1358E+00  0.4666E+01
      6.090  0.1742E+00  0.4700E+01
      6.283  0.1663E+00  0.4732E+01
      6.475  0.2166E+00  0.4773E+01
      6.668  0.2100E+00  0.4814E+01
      6.861  0.1927E+00  0.4851E+01
      7.053  0.2315E+00  0.4896E+01
      7.246  0.2620E+00  0.4946E+01
      7.439  0.3118E+00  0.5006E+01
      7.631  0.2300E+00  0.5051E+01
      7.824  0.2219E+00  0.5093E+01
      8.017  0.2866E+00  0.5149E+01
      8.209  0.3360E+00  0.5213E+01
      8.402  0.3718E+00  0.5285E+01
      8.594  0.3736E+00  0.5357E+01
      8.787  0.4042E+00  0.5435E+01
      8.980  0.4203E+00  0.5516E+01
      9.172  0.4018E+00  0.5593E+01
      9.365  0.4116E+00  0.5672E+01
      9.558  0.4005E+00  0.5750E+01
      9.750  0.4129E+00  0.5829E+01
      9.943  0.3718E+00  0.5901E+01
     10.136  0.3720E+00  0.5972E+01
     10.328  0.3592E+00  0.6042E+01
     10.521  0.3724E+00  0.6113E+01
     10.714  0.3620E+00  0.6183E+01
     10.906  0.2467E+00  0.6231E+01
     11.099  0.4794E-01  0.6240E+01
     11.292  0.6257E-03  0.6240E+01
     11.484  0.3972E-07  0.6240E+01
     11.677  0.2835E-14  0.6240E+01
     11.870  0.0000E+00  0.6240E+01
     12.062  0.0000E+00  0.6240E+01
     12.255  0.0000E+00  0.6240E+01
     12.448  0.0000E+00  0.6240E+01
     12.640  0.0000E+00  0.6240E+01
     12.833  0.0000E+00  0.6240E+01
     13.026  0.0000E+00  0.6240E+01
     13.218  0.0000E+00  0.6240E+01
     13.411  0.0000E+00  0.6240E+01
     13.604  0.0000E+00  0.6240E+01
