<?xml version="1.0" encoding="ISO-8859-1"?>
<modeling>
 <generator>
  <i name="program" type="string">vasp </i>
  <i name="version" type="string">5.4.4.18Apr17-6-g9f103f2a35  </i>
  <i name="subversion" type="string">(build Oct 18 2021 20:38:43) complex            parallel </i>
  <i name="platform" type="string">LinuxIFC </i>
  <i name="date" type="string">2024 06 11 </i>
  <i name="time" type="string">16:56:47 </i>
 </generator>
 <incar>
  <i type="string" name="SYSTEM">HECN</i>
  <i type="int" name="ISTART">     0</i>
  <i type="string" name="PREC">normal</i>
  <i type="string" name="ALGO">Fast</i>
  <i type="int" name="ICHARG">     2</i>
  <i type="int" name="NELM">    60</i>
  <i type="int" name="IBRION">     2</i>
  <i name="EDIFF">      0.00001000</i>
  <i name="EDIFFG">     -0.01000000</i>
  <i type="int" name="NSW">   100</i>
  <i type="int" name="ISIF">     3</i>
  <i name="ENCUT">    400.00000000</i>
  <i name="POTIM">      0.50000000</i>
  <i type="logical" name="LREAL"> F  </i>
  <i type="int" name="ISMEAR">     0</i>
  <i name="SIGMA">      0.10000000</i>
  <i type="logical" name="LWAVE"> F  </i>
  <i type="logical" name="LCHARG"> F  </i>
  <v type="int" name="KPOINT_BSE">    -1     0     0     0</v>
  <i type="int" name="NELM">    60</i>
 </incar>
 <structure name="primitive_cell" >
  <crystal>
   <varray name="basis" >
    <v>       8.93249989       0.00000000       0.00000000 </v>
    <v>       0.00575300       9.05559834       0.00000000 </v>
    <v>       0.03210180      -0.01574346       8.93712807 </v>
   </varray>
   <i name="volume">    722.91652451 </i>
   <varray name="rec_basis" >
    <v>       0.11195074      -0.00007112      -0.00040225 </v>
    <v>       0.00000000       0.11042893       0.00019453 </v>
    <v>       0.00000000       0.00000000       0.11189277 </v>
   </varray>
  </crystal>
  <varray name="positions" >
   <v>      -0.00311999      -0.00795003      -0.00075998 </v>
   <v>      -0.25232999      -0.00252000       0.01202000 </v>
   <v>      -0.00162995      -0.25686004       0.00460000 </v>
   <v>      -0.00280000      -0.00228008       0.25899999 </v>
   <v>       0.00281000       0.25024000       0.00130000 </v>
   <v>      -0.01103011       0.00202000      -0.26291001 </v>
   <v>       0.26146999      -0.00015998      -0.00704004 </v>
   <v>      -0.00135002      -0.22426001       0.26102000 </v>
   <v>      -0.25720997      -0.02130006      -0.23549005 </v>
   <v>       0.23780002       0.01082000      -0.25392002 </v>
   <v>      -0.24282000      -0.25897003       0.01100000 </v>
   <v>       0.24762001      -0.25026001      -0.00025994 </v>
   <v>      -0.00485996      -0.25507996      -0.25488003 </v>
   <v>      -0.24281000       0.25603001      -0.00408003 </v>
   <v>       0.25398003      -0.00285005       0.24912000 </v>
   <v>       0.24788999       0.24839000      -0.00342003 </v>
   <v>      -0.00562996       0.23617001       0.26379999 </v>
   <v>      -0.25120996      -0.01212001       0.26967001 </v>
   <v>       0.00201000       0.25541000      -0.26105999 </v>
   <v>       0.24177002      -0.24659003      -0.24981998 </v>
   <v>      -0.24963995      -0.25112000      -0.25243996 </v>
   <v>      -0.24255004       0.24437997      -0.25103001 </v>
   <v>       0.25133999      -0.25041998       0.24910999 </v>
   <v>      -0.24367000      -0.26108997       0.25767000 </v>
   <v>      -0.24686002       0.24616999       0.25492002 </v>
   <v>       0.24982001       0.24942998       0.24825000 </v>
   <v>       0.24900999       0.25315000      -0.25146000 </v>
   <v>      -0.48411003       0.01358000      -0.01924992 </v>
   <v>      -0.00158006      -0.49023002      -0.01386996 </v>
   <v>       0.02362000      -0.00216999       0.49557002 </v>
   <v>      -0.49480995      -0.23869001       0.00855000 </v>
   <v>      -0.49285006      -0.00023001       0.24673000 </v>
   <v>      -0.24160996      -0.49684002       0.00288000 </v>
   <v>      -0.00999997      -0.23784997       0.49746000 </v>
   <v>      -0.00948001       0.48088003       0.24100999 </v>
   <v>       0.24446000      -0.00176004      -0.49712002 </v>
   <v>      -0.26367999       0.00417000      -0.48937000 </v>
   <v>       0.24328000      -0.49927003      -0.00489006 </v>
   <v>      -0.49572003       0.24673000       0.00262000 </v>
   <v>      -0.00796004      -0.49944001      -0.24861998 </v>
   <v>      -0.00195991       0.24229999      -0.49871997 </v>
   <v>      -0.49991002       0.00061000      -0.26528002 </v>
   <v>      -0.26123997      -0.47171998      -0.26185001 </v>
   <v>       0.49950005      -0.24518001      -0.25182996 </v>
   <v>       0.24457999      -0.24951001       0.49983999 </v>
   <v>      -0.24599997      -0.27062001       0.49116997 </v>
   <v>      -0.49520997       0.24631001      -0.25289998 </v>
   <v>       0.24803003      -0.49835000       0.24955001 </v>
   <v>      -0.26448999      -0.48531996       0.26666001 </v>
   <v>      -0.49167000       0.25676999       0.25376001 </v>
   <v>      -0.49620997      -0.26073003       0.25905001 </v>
   <v>      -0.24692999       0.26163001      -0.49466998 </v>
   <v>       0.25272001       0.24823001      -0.49984997 </v>
   <v>       0.25679999       0.49462002      -0.25454998 </v>
   <v>       0.47957999      -0.01691999       0.49717999 </v>
   <v>      -0.49498994       0.49745998      -0.00165997 </v>
   <v>      -0.00572008      -0.49550001       0.49779000 </v>
   <v>      -0.49436004       0.23264998       0.49544997 </v>
   <v>      -0.49424994      -0.25041998       0.49720000 </v>
   <v>      -0.49299998      -0.49666998       0.25878999 </v>
   <v>      -0.49498997      -0.49782002      -0.26087997 </v>
   <v>      -0.25963999      -0.49803000      -0.49932997 </v>
   <v>       0.25841001      -0.49937998      -0.49870999 </v>
   <v>      -0.49461000      -0.47166995       0.49917999 </v>
  </varray>
 </structure>
 <varray name="primitive_index" >
  <v type="int" >        1 </v>
  <v type="int" >       25 </v>
  <v type="int" >       38 </v>
  <v type="int" >       34 </v>
  <v type="int" >       23 </v>
  <v type="int" >       29 </v>
  <v type="int" >       22 </v>
  <v type="int" >       59 </v>
  <v type="int" >       58 </v>
  <v type="int" >       56 </v>
  <v type="int" >        9 </v>
  <v type="int" >       18 </v>
  <v type="int" >       12 </v>
  <v type="int" >       17 </v>
  <v type="int" >        2 </v>
  <v type="int" >       14 </v>
  <v type="int" >        8 </v>
  <v type="int" >       16 </v>
  <v type="int" >       10 </v>
  <v type="int" >       45 </v>
  <v type="int" >       49 </v>
  <v type="int" >       30 </v>
  <v type="int" >       36 </v>
  <v type="int" >       39 </v>
  <v type="int" >       24 </v>
  <v type="int" >       21 </v>
  <v type="int" >       42 </v>
  <v type="int" >       53 </v>
  <v type="int" >       54 </v>
  <v type="int" >       61 </v>
  <v type="int" >       28 </v>
  <v type="int" >       26 </v>
  <v type="int" >       40 </v>
  <v type="int" >       47 </v>
  <v type="int" >       27 </v>
  <v type="int" >       43 </v>
  <v type="int" >       31 </v>
  <v type="int" >       37 </v>
  <v type="int" >       35 </v>
  <v type="int" >       48 </v>
  <v type="int" >       44 </v>
  <v type="int" >       33 </v>
  <v type="int" >       63 </v>
  <v type="int" >        7 </v>
  <v type="int" >       20 </v>
  <v type="int" >       64 </v>
  <v type="int" >        5 </v>
  <v type="int" >        3 </v>
  <v type="int" >       60 </v>
  <v type="int" >       15 </v>
  <v type="int" >       55 </v>
  <v type="int" >       11 </v>
  <v type="int" >       19 </v>
  <v type="int" >       13 </v>
  <v type="int" >       57 </v>
  <v type="int" >        4 </v>
  <v type="int" >        6 </v>
  <v type="int" >       32 </v>
  <v type="int" >       51 </v>
  <v type="int" >       41 </v>
  <v type="int" >       52 </v>
  <v type="int" >       50 </v>
  <v type="int" >       46 </v>
  <v type="int" >       62 </v>
 </varray>
 <kpoints>
  <generation param="Gamma">
   <v type="int" name="divisions">       3        3        3 </v>
   <v name="usershift">      0.00000000       0.00000000       0.00000000 </v>
   <v name="genvec1">      0.33333333      -0.00000000      -0.00000000 </v>
   <v name="genvec2">      0.00000000       0.33333333       0.00000000 </v>
   <v name="genvec3">      0.00000000       0.00000000       0.33333333 </v>
   <v name="shift">      0.00000000       0.00000000       0.00000000 </v>
  </generation>
  <varray name="kpointlist" >
   <v>       0.00000000       0.00000000       0.00000000 </v>
   <v>       0.33333333       0.00000000       0.00000000 </v>
   <v>       0.00000000       0.33333333       0.00000000 </v>
   <v>       0.33333333       0.33333333       0.00000000 </v>
   <v>      -0.33333333       0.33333333       0.00000000 </v>
   <v>       0.00000000       0.00000000       0.33333333 </v>
   <v>       0.33333333       0.00000000       0.33333333 </v>
   <v>      -0.33333333       0.00000000       0.33333333 </v>
   <v>       0.00000000       0.33333333       0.33333333 </v>
   <v>       0.33333333       0.33333333       0.33333333 </v>
   <v>      -0.33333333       0.33333333       0.33333333 </v>
   <v>       0.00000000      -0.33333333       0.33333333 </v>
   <v>       0.33333333      -0.33333333       0.33333333 </v>
   <v>      -0.33333333      -0.33333333       0.33333333 </v>
  </varray>
  <varray name="weights" >
   <v>       0.03703704 </v>
   <v>       0.07407407 </v>
   <v>       0.07407407 </v>
   <v>       0.07407407 </v>
   <v>       0.07407407 </v>
   <v>       0.07407407 </v>
   <v>       0.07407407 </v>
   <v>       0.07407407 </v>
   <v>       0.07407407 </v>
   <v>       0.07407407 </v>
   <v>       0.07407407 </v>
   <v>       0.07407407 </v>
   <v>       0.07407407 </v>
   <v>       0.07407407 </v>
  </varray>
 </kpoints>
 <parameters>
  <separator name="general" >
   <i type="string" name="SYSTEM">HECN</i>
   <i type="logical" name="LCOMPAT"> F  </i>
  </separator>
  <separator name="electronic" >
   <i type="string" name="PREC">normal</i>
   <i name="ENMAX">    400.00000000</i>
   <i name="ENAUG">    644.87300000</i>
   <i name="EDIFF">      0.00001000</i>
   <i type="int" name="IALGO">    68</i>
   <i type="int" name="IWAVPR">    11</i>
   <i type="int" name="NBANDS">   312</i>
   <i name="NELECT">    505.00000000</i>
   <i type="int" name="TURBO">     0</i>
   <i type="int" name="IRESTART">     0</i>
   <i type="int" name="NREBOOT">     0</i>
   <i type="int" name="NMIN">     0</i>
   <i name="EREF">      0.00000000</i>
   <separator name="electronic smearing" >
    <i type="int" name="ISMEAR">     0</i>
    <i name="SIGMA">      0.10000000</i>
    <i name="KSPACING">      0.50000000</i>
    <i type="logical" name="KGAMMA"> T  </i>
   </separator>
   <separator name="electronic projectors" >
    <i type="logical" name="LREAL"> F  </i>
    <v name="ROPT">      0.00000000      0.00000000      0.00000000      0.00000000      0.00000000      0.00000000      0.00000000</v>
    <i type="int" name="LMAXPAW">  -100</i>
    <i type="int" name="LMAXMIX">     2</i>
    <i type="logical" name="NLSPLINE"> F  </i>
   </separator>
   <separator name="electronic startup" >
    <i type="int" name="ISTART">     0</i>
    <i type="int" name="ICHARG">     2</i>
    <i type="int" name="INIWAV">     1</i>
   </separator>
   <separator name="electronic spin" >
    <i type="int" name="ISPIN">     1</i>
    <i type="logical" name="LNONCOLLINEAR"> F  </i>
    <v name="MAGMOM">      1.00000000      1.00000000      1.00000000      1.00000000      1.00000000      1.00000000      1.00000000      1.00000000      1.00000000      1.00000000      1.00000000      1.00000000      1.00000000      1.00000000      1.00000000      1.00000000      1.00000000      1.00000000      1.00000000      1.00000000
      1.00000000      1.00000000      1.00000000      1.00000000      1.00000000      1.00000000      1.00000000      1.00000000      1.00000000      1.00000000      1.00000000      1.00000000      1.00000000      1.00000000      1.00000000      1.00000000      1.00000000      1.00000000      1.00000000      1.00000000
      1.00000000      1.00000000      1.00000000      1.00000000      1.00000000      1.00000000      1.00000000      1.00000000      1.00000000      1.00000000      1.00000000      1.00000000      1.00000000      1.00000000      1.00000000      1.00000000      1.00000000      1.00000000      1.00000000      1.00000000
      1.00000000      1.00000000      1.00000000      1.00000000</v>
    <i name="NUPDOWN">     -1.00000000</i>
    <i type="logical" name="LSORBIT"> F  </i>
    <v name="SAXIS">      0.00000000      0.00000000      1.00000000</v>
    <i type="logical" name="LSPIRAL"> F  </i>
    <v name="QSPIRAL">      0.00000000      0.00000000      0.00000000</v>
    <i type="logical" name="LZEROZ"> F  </i>
   </separator>
   <separator name="electronic exchange-correlation" >
    <i type="logical" name="LASPH"> F  </i>
    <i type="logical" name="LMETAGGA"> F  </i>
   </separator>
   <separator name="electronic convergence" >
    <i type="int" name="NELM">    60</i>
    <i type="int" name="NELMDL">    -5</i>
    <i type="int" name="NELMIN">     2</i>
    <i name="ENINI">    400.00000000</i>
    <separator name="electronic convergence detail" >
     <i type="logical" name="LDIAG"> T  </i>
     <i type="logical" name="LSUBROT"> F  </i>
     <i name="WEIMIN">      0.00100000</i>
     <i name="EBREAK">      0.00000001</i>
     <i name="DEPER">      0.30000000</i>
     <i type="int" name="NRMM">     4</i>
     <i name="TIME">      0.40000000</i>
    </separator>
   </separator>
   <separator name="electronic mixer" >
    <i name="AMIX">      0.40000000</i>
    <i name="BMIX">      1.00000000</i>
    <i name="AMIN">      0.10000000</i>
    <i name="AMIX_MAG">      1.60000000</i>
    <i name="BMIX_MAG">      1.00000000</i>
    <separator name="electronic mixer details" >
     <i type="int" name="IMIX">     4</i>
     <i type="logical" name="MIXFIRST"> F  </i>
     <i type="int" name="MAXMIX">   -45</i>
     <i name="WC">    100.00000000</i>
     <i type="int" name="INIMIX">     1</i>
     <i type="int" name="MIXPRE">     1</i>
     <i type="int" name="MREMOVE">     5</i>
    </separator>
   </separator>
   <separator name="electronic dipolcorrection" >
    <i type="logical" name="LDIPOL"> F  </i>
    <i type="logical" name="LMONO"> F  </i>
    <i type="int" name="IDIPOL">     0</i>
    <i name="EPSILON">      1.00000000</i>
    <v name="DIPOL">   -100.00000000   -100.00000000   -100.00000000</v>
    <i name="EFIELD">      0.00000000</i>
   </separator>
  </separator>
  <separator name="grids" >
   <i type="int" name="NGX">    48</i>
   <i type="int" name="NGY">    48</i>
   <i type="int" name="NGZ">    48</i>
   <i type="int" name="NGXF">    96</i>
   <i type="int" name="NGYF">    96</i>
   <i type="int" name="NGZF">    96</i>
   <i type="logical" name="ADDGRID"> F  </i>
  </separator>
  <separator name="ionic" >
   <i type="int" name="NSW">   100</i>
   <i type="int" name="IBRION">     2</i>
   <i type="int" name="MDALGO">     0</i>
   <i type="int" name="ISIF">     3</i>
   <i name="PSTRESS">      0.00000000</i>
   <i name="EDIFFG">     -0.01000000</i>
   <i type="int" name="NFREE">     1</i>
   <i name="POTIM">      0.50000000</i>
   <i name="SMASS">     -3.00000000</i>
   <i name="SCALEE">      1.00000000</i>
  </separator>
  <separator name="ionic md" >
   <i name="TEBEG">      0.00010000</i>
   <i name="TEEND">      0.00010000</i>
   <i type="int" name="NBLOCK">     1</i>
   <i type="int" name="KBLOCK">   100</i>
   <i type="int" name="NPACO">   256</i>
   <i name="APACO">     16.00000000</i>
  </separator>
  <separator name="symmetry" >
   <i type="int" name="ISYM">     2</i>
   <i name="SYMPREC">      0.00001000</i>
  </separator>
  <separator name="dos" >
   <i type="int" name="LORBIT">     0</i>
   <v name="RWIGS">     -1.00000000     -1.00000000     -1.00000000     -1.00000000     -1.00000000     -1.00000000     -1.00000000</v>
   <i type="int" name="NEDOS">   301</i>
   <i name="EMIN">     10.00000000</i>
   <i name="EMAX">    -10.00000000</i>
   <i name="EFERMI">      0.00000000</i>
  </separator>
  <separator name="writing" >
   <i type="int" name="NWRITE">     2</i>
   <i type="logical" name="LWAVE"> F  </i>
   <i type="logical" name="LDOWNSAMPLE"> F  </i>
   <i type="logical" name="LCHARG"> F  </i>
   <i type="logical" name="LPARD"> F  </i>
   <i type="logical" name="LVTOT"> F  </i>
   <i type="logical" name="LVHAR"> F  </i>
   <i type="logical" name="LELF"> F  </i>
   <i type="logical" name="LOPTICS"> F  </i>
   <v name="STM">      0.00000000      0.00000000      0.00000000      0.00000000      0.00000000      0.00000000      0.00000000</v>
  </separator>
  <separator name="performance" >
   <i type="int" name="NPAR">    24</i>
   <i type="int" name="NSIM">     4</i>
   <i type="int" name="NBLK">    -1</i>
   <i type="logical" name="LPLANE"> T  </i>
   <i type="logical" name="LSCALAPACK"> T  </i>
   <i type="logical" name="LSCAAWARE"> F  </i>
   <i type="logical" name="LSCALU"> F  </i>
   <i type="logical" name="LASYNC"> F  </i>
   <i type="logical" name="LORBITALREAL"> F  </i>
  </separator>
  <separator name="miscellaneous" >
   <i type="int" name="IDIOT">     3</i>
   <i type="int" name="ISPECIAL">     0</i>
   <i type="logical" name="LMUSIC"> F  </i>
   <v name="POMASS">    178.49000000    180.94800000     91.22400000     14.00100000     12.01100000     51.99600000    183.85000000</v>
   <v name="DARWINR">      0.00000000      0.00000000      0.00000000      0.00000000      0.00000000      0.00000000      0.00000000</v>
   <v name="DARWINV">      1.00000000      1.00000000      1.00000000      1.00000000      1.00000000      1.00000000      1.00000000</v>
   <i type="logical" name="LCORR"> T  </i>
  </separator>
  <i type="logical" name="GGA_COMPAT"> T  </i>
  <i type="logical" name="LBERRY"> F  </i>
  <i type="int" name="ICORELEVEL">     0</i>
  <i type="logical" name="LDAU"> F  </i>
  <i type="int" name="I_CONSTRAINED_M">     0</i>
  <separator name="electronic exchange-correlation" >
   <i type="string" name="GGA">--</i>
   <i type="int" name="VOSKOWN">     0</i>
   <i type="logical" name="LHFCALC"> F  </i>
   <i type="string" name="PRECFOCK"></i>
   <i type="logical" name="LSYMGRAD"> F  </i>
   <i type="logical" name="LHFONE"> F  </i>
   <i type="logical" name="LRHFCALC"> F  </i>
   <i type="logical" name="LTHOMAS"> F  </i>
   <i type="logical" name="LMODELHF"> F  </i>
   <i name="ENCUT4O">     -1.00000000</i>
   <i type="int" name="EXXOEP">     0</i>
   <i type="int" name="FOURORBIT">     0</i>
   <i name="AEXX">      0.00000000</i>
   <i name="HFALPHA">      0.00000000</i>
   <i name="MCALPHA">      0.00000000</i>
   <i name="ALDAX">      1.00000000</i>
   <i name="AGGAX">      1.00000000</i>
   <i name="ALDAC">      1.00000000</i>
   <i name="AGGAC">      1.00000000</i>
   <i type="int" name="NKREDX">     1</i>
   <i type="int" name="NKREDY">     1</i>
   <i type="int" name="NKREDZ">     1</i>
   <i type="logical" name="SHIFTRED"> F  </i>
   <i type="logical" name="ODDONLY"> F  </i>
   <i type="logical" name="EVENONLY"> F  </i>
   <i type="int" name="LMAXFOCK">     0</i>
   <i type="int" name="NMAXFOCKAE">     0</i>
   <i type="logical" name="LFOCKAEDFT"> F  </i>
   <i name="HFSCREEN">      0.00000000</i>
   <i name="HFSCREENC">      0.00000000</i>
   <i type="int" name="NBANDSGWLOW">     0</i>
  </separator>
  <separator name="vdW DFT" >
   <i type="logical" name="LUSE_VDW"> F  </i>
   <i name="Zab_VDW">     -0.84910000</i>
   <i name="PARAM1">      0.12340000</i>
   <i name="PARAM2">      1.00000000</i>
   <i name="PARAM3">      0.00000000</i>
  </separator>
  <separator name="model GW" >
   <i type="int" name="MODEL_GW">     0</i>
   <i name="MODEL_EPS0">      6.77734242</i>
   <i name="MODEL_ALPHA">      1.00000000</i>
  </separator>
  <separator name="linear response parameters" >
   <i type="logical" name="LEPSILON"> F  </i>
   <i type="logical" name="LRPA"> F  </i>
   <i type="logical" name="LNABLA"> F  </i>
   <i type="logical" name="LVEL"> F  </i>
   <i type="int" name="KINTER">     0</i>
   <i name="CSHIFT">      0.10000000</i>
   <i name="OMEGAMAX">     -1.00000000</i>
   <i name="DEG_THRESHOLD">      0.00200000</i>
   <i name="RTIME">     -0.10000000</i>
   <i name="WPLASMAI">      0.00000000</i>
   <v name="DFIELD">      0.00000000      0.00000000      0.00000000</v>
   <v name="WPLASMA">      0.00000000      0.00000000      0.00000000      0.00000000      0.00000000      0.00000000      0.00000000      0.00000000      0.00000000</v>
  </separator>
  <separator name="orbital magnetization" >
   <i type="logical" name="NUCIND"> F  </i>
   <v name="MAGPOS">      0.00000000      0.00000000      0.00000000</v>
   <i type="logical" name="LNICSALL"> T  </i>
   <i type="logical" name="ORBITALMAG"> F  </i>
   <i type="logical" name="LMAGBLOCH"> F  </i>
   <i type="logical" name="LCHIMAG"> F  </i>
   <i type="logical" name="LGAUGE"> T  </i>
   <i type="int" name="MAGATOM">     0</i>
   <v name="MAGDIPOL">      0.00000000      0.00000000      0.00000000</v>
   <v name="AVECCONST">      0.00000000      0.00000000      0.00000000</v>
  </separator>
  <separator name="response functions" >
   <i type="logical" name="LADDER"> F  </i>
   <i type="logical" name="LRPAFORCE"> F  </i>
   <i type="logical" name="LFXC"> F  </i>
   <i type="logical" name="LHARTREE"> T  </i>
   <i type="int" name="IBSE">     0</i>
   <v type="int" name="KPOINT">    -1     0     0     0</v>
   <i type="logical" name="LTCTE"> F  </i>
   <i type="logical" name="LTETE"> F  </i>
   <i type="logical" name="LTRIPLET"> F  </i>
   <i type="logical" name="LFXCEPS"> F  </i>
   <i type="logical" name="LFXHEG"> F  </i>
   <i type="int" name="NATURALO">     2</i>
   <i type="logical" name="L2ORDER"> F  </i>
   <i type="logical" name="LMP2LT"> F  </i>
   <i type="logical" name="LUSEW"> F  </i>
   <i name="ENCUTGW">     -2.00000000</i>
   <i name="ENCUTGWSOFT">     -2.00000000</i>
   <i name="ENCUTLF">     -1.00000000</i>
   <i type="int" name="LMAXMP2">    -1</i>
   <i name="SCISSOR">      0.00000000</i>
   <i type="int" name="NOMEGA">     0</i>
   <i type="int" name="NOMEGAR">     0</i>
   <i type="int" name="NBANDSGW">    -1</i>
   <i type="int" name="NBANDSO">    -1</i>
   <i type="int" name="NBANDSV">    -1</i>
   <i type="int" name="NELM">    60</i>
   <i type="int" name="NELMHF">     1</i>
   <i type="int" name="DIM">     3</i>
   <i type="int" name="ANTIRES">     0</i>
   <i name="OMEGAMAX">    -30.00000000</i>
   <i name="OMEGAMIN">    -30.00000000</i>
   <i name="OMEGATL">   -200.00000000</i>
   <i type="int" name="OMEGAGRID">   140</i>
   <i name="CSHIFT">     -0.10000000</i>
   <i type="logical" name="SELFENERGY"> F  </i>
   <i type="logical" name="LSPECTRAL"> F  </i>
   <i type="logical" name="LSPECTRALGW"> F  </i>
   <i type="logical" name="LSINGLES"> F  </i>
   <i type="logical" name="LFERMIGW"> F  </i>
   <i type="logical" name="ODDONLYGW"> F  </i>
   <i type="logical" name="EVENONLYGW"> F  </i>
   <i type="int" name="NKREDLFX">     1</i>
   <i type="int" name="NKREDLFY">     1</i>
   <i type="int" name="NKREDLFZ">     1</i>
   <i type="int" name="MAXMEM">  2800</i>
   <i type="int" name="TELESCOPE">     0</i>
   <i type="int" name="TAUPAR">     1</i>
   <i type="int" name="OMEGAPAR">    -1</i>
   <i name="LAMBDA">      1.00000000</i>
  </separator>
  <separator name="External order field" >
   <i name="OFIELD_KAPPA">      0.00000000</i>
   <v name="OFIELD_K">      0.00000000      0.00000000      0.00000000</v>
   <i name="OFIELD_Q6_NEAR">      0.00000000</i>
   <i name="OFIELD_Q6_FAR">      0.00000000</i>
   <i name="OFIELD_A">      0.00000000</i>
  </separator>
 </parameters>
 <atominfo>
  <atoms>      64 </atoms>
  <types>       7 </types>
  <array name="atoms" >
   <dimension dim="1">ion</dimension>
   <field type="string">element</field>
   <field type="int">atomtype</field>
   <set>
    <rc><c>Hf</c><c>   1</c></rc>
    <rc><c>Hf</c><c>   1</c></rc>
    <rc><c>Hf</c><c>   1</c></rc>
    <rc><c>Hf</c><c>   1</c></rc>
    <rc><c>Hf</c><c>   1</c></rc>
    <rc><c>Hf</c><c>   1</c></rc>
    <rc><c>Hf</c><c>   1</c></rc>
    <rc><c>Ta</c><c>   2</c></rc>
    <rc><c>Ta</c><c>   2</c></rc>
    <rc><c>Ta</c><c>   2</c></rc>
    <rc><c>Ta</c><c>   2</c></rc>
    <rc><c>Ta</c><c>   2</c></rc>
    <rc><c>Ta</c><c>   2</c></rc>
    <rc><c>Zr</c><c>   3</c></rc>
    <rc><c>Zr</c><c>   3</c></rc>
    <rc><c>Zr</c><c>   3</c></rc>
    <rc><c>Zr</c><c>   3</c></rc>
    <rc><c>Zr</c><c>   3</c></rc>
    <rc><c>Zr</c><c>   3</c></rc>
    <rc><c>Zr</c><c>   3</c></rc>
    <rc><c>N </c><c>   4</c></rc>
    <rc><c>N </c><c>   4</c></rc>
    <rc><c>N </c><c>   4</c></rc>
    <rc><c>N </c><c>   4</c></rc>
    <rc><c>N </c><c>   4</c></rc>
    <rc><c>N </c><c>   4</c></rc>
    <rc><c>N </c><c>   4</c></rc>
    <rc><c>N </c><c>   4</c></rc>
    <rc><c>N </c><c>   4</c></rc>
    <rc><c>N </c><c>   4</c></rc>
    <rc><c>N </c><c>   4</c></rc>
    <rc><c>N </c><c>   4</c></rc>
    <rc><c>N </c><c>   4</c></rc>
    <rc><c>C </c><c>   5</c></rc>
    <rc><c>C </c><c>   5</c></rc>
    <rc><c>C </c><c>   5</c></rc>
    <rc><c>C </c><c>   5</c></rc>
    <rc><c>C </c><c>   5</c></rc>
    <rc><c>C </c><c>   5</c></rc>
    <rc><c>C </c><c>   5</c></rc>
    <rc><c>C </c><c>   5</c></rc>
    <rc><c>C </c><c>   5</c></rc>
    <rc><c>C </c><c>   5</c></rc>
    <rc><c>C </c><c>   5</c></rc>
    <rc><c>C </c><c>   5</c></rc>
    <rc><c>C </c><c>   5</c></rc>
    <rc><c>C </c><c>   5</c></rc>
    <rc><c>C </c><c>   5</c></rc>
    <rc><c>C </c><c>   5</c></rc>
    <rc><c>C </c><c>   5</c></rc>
    <rc><c>C </c><c>   5</c></rc>
    <rc><c>C </c><c>   5</c></rc>
    <rc><c>Cr</c><c>   6</c></rc>
    <rc><c>Cr</c><c>   6</c></rc>
    <rc><c>Cr</c><c>   6</c></rc>
    <rc><c>Cr</c><c>   6</c></rc>
    <rc><c>Cr</c><c>   6</c></rc>
    <rc><c>Cr</c><c>   6</c></rc>
    <rc><c>W </c><c>   7</c></rc>
    <rc><c>W </c><c>   7</c></rc>
    <rc><c>W </c><c>   7</c></rc>
    <rc><c>W </c><c>   7</c></rc>
    <rc><c>W </c><c>   7</c></rc>
    <rc><c>W </c><c>   7</c></rc>
   </set>
  </array>
  <array name="atomtypes" >
   <dimension dim="1">type</dimension>
   <field type="int">atomspertype</field>
   <field type="string">element</field>
   <field>mass</field>
   <field>valence</field>
   <field type="string">pseudopotential</field>
   <set>
    <rc><c>   7</c><c>Hf</c><c>    178.49000000</c><c>     10.00000000</c><c> PAW_PBE Hf_pv 06Sep2000                </c></rc>
    <rc><c>   6</c><c>Ta</c><c>    180.94800000</c><c>     11.00000000</c><c> PAW_PBE Ta_pv 07Sep2000                </c></rc>
    <rc><c>   7</c><c>Zr</c><c>     91.22400000</c><c>     12.00000000</c><c> PAW_PBE Zr_sv 07Sep2000                </c></rc>
    <rc><c>  13</c><c>N </c><c>     14.00100000</c><c>      5.00000000</c><c> PAW_PBE N 08Apr2002                    </c></rc>
    <rc><c>  19</c><c>C </c><c>     12.01100000</c><c>      4.00000000</c><c> PAW_PBE C 08Apr2002                    </c></rc>
    <rc><c>   6</c><c>Cr</c><c>     51.99600000</c><c>     12.00000000</c><c> PAW_PBE Cr_pv 07Sep2000                </c></rc>
    <rc><c>   6</c><c>W </c><c>    183.85000000</c><c>     12.00000000</c><c> PAW_PBE W_pv 06Sep2000                 </c></rc>
   </set>
  </array>
 </atominfo>
 <structure name="initialpos" >
  <crystal>
   <varray name="basis" >
    <v>       8.93249989       0.00000000       0.00000000 </v>
    <v>       0.00575300       9.05559834       0.00000000 </v>
    <v>       0.03210180      -0.01574346       8.93712807 </v>
   </varray>
   <i name="volume">    722.91652451 </i>
   <varray name="rec_basis" >
    <v>       0.11195074      -0.00007112      -0.00040225 </v>
    <v>       0.00000000       0.11042893       0.00019453 </v>
    <v>       0.00000000       0.00000000       0.11189277 </v>
   </varray>
  </crystal>
  <varray name="positions" >
   <v>       0.99688001       0.99204997       0.99924002 </v>
   <v>       0.25398003       0.99714995       0.24912000 </v>
   <v>       0.24803003       0.50165000       0.24955001 </v>
   <v>       0.50501006       0.49745998       0.99834003 </v>
   <v>       0.50479003       0.24631001       0.74710002 </v>
   <v>       0.99427992       0.50449999       0.49779000 </v>
   <v>       0.49950005       0.75481999       0.74817004 </v>
   <v>       0.99437004       0.23617001       0.26379999 </v>
   <v>       0.75718000       0.74102998       0.01100000 </v>
   <v>       0.00201000       0.25541000       0.73894001 </v>
   <v>       0.75307001       0.26163001       0.50533002 </v>
   <v>       0.99514004       0.74492004       0.74511997 </v>
   <v>       0.25679999       0.49462002       0.74545002 </v>
   <v>       0.24788999       0.24839000       0.99657997 </v>
   <v>       0.50833000       0.25676999       0.25376001 </v>
   <v>       0.74879004       0.98787999       0.26967001 </v>
   <v>       0.75719000       0.25603001       0.99591997 </v>
   <v>       0.24762001       0.74973999       0.99974006 </v>
   <v>       0.25272001       0.24823001       0.50015003 </v>
   <v>       0.24457999       0.75048999       0.49983999 </v>
   <v>       0.24982001       0.24942998       0.24825000 </v>
   <v>       0.26146999       0.99984002       0.99295996 </v>
   <v>       0.00281000       0.25024000       0.00130000 </v>
   <v>       0.75313998       0.24617000       0.25492002 </v>
   <v>       0.74767001       0.99748000       0.01202000 </v>
   <v>       0.50714994       0.99977000       0.24673000 </v>
   <v>       0.99051999       0.48088002       0.24100998 </v>
   <v>       0.50519005       0.76130999       0.00855000 </v>
   <v>       0.98896989       0.00202000       0.73708999 </v>
   <v>       0.75744996       0.24437997       0.74896999 </v>
   <v>       0.73632001       0.00417000       0.51063000 </v>
   <v>       0.50563996       0.23264999       0.49544997 </v>
   <v>       0.50008998       0.00061000       0.73471998 </v>
   <v>       0.99720000       0.99771992       0.25899999 </v>
   <v>       0.50427997       0.24673000       0.00262000 </v>
   <v>       0.25133999       0.74958002       0.24910999 </v>
   <v>       0.24328000       0.50072997       0.99510994 </v>
   <v>       0.99837005       0.74313996       0.00460000 </v>
   <v>       0.75633000       0.73891003       0.25767000 </v>
   <v>       0.75839004       0.50315998       0.00288000 </v>
   <v>       0.50700002       0.50333002       0.25878999 </v>
   <v>       0.24900999       0.25315000       0.74854000 </v>
   <v>       0.24446000       0.99823996       0.50287998 </v>
   <v>       0.99804009       0.24229999       0.50128003 </v>
   <v>       0.24177002       0.75340997       0.75018002 </v>
   <v>       0.25841001       0.50062002       0.50129001 </v>
   <v>       0.99000004       0.76215003       0.49746000 </v>
   <v>       0.99203996       0.50055999       0.75138002 </v>
   <v>       0.75036005       0.74888000       0.74756004 </v>
   <v>       0.74036002       0.50197000       0.50067003 </v>
   <v>       0.50575006       0.74958002       0.49720000 </v>
   <v>       0.50501003       0.50217998       0.73912003 </v>
   <v>       0.51588997       0.01358000       0.98075008 </v>
   <v>       0.99841994       0.50976998       0.98613004 </v>
   <v>       0.50379003       0.73926997       0.25905001 </v>
   <v>       0.23780002       0.01082000       0.74607998 </v>
   <v>       0.47957999       0.98308000       0.49717999 </v>
   <v>       0.74279003       0.97869994       0.76450995 </v>
   <v>       0.99864998       0.77573999       0.26102000 </v>
   <v>       0.73551001       0.51468004       0.26666001 </v>
   <v>       0.02362000       0.99783001       0.49557002 </v>
   <v>       0.50539000       0.52833005       0.49917999 </v>
   <v>       0.73876003       0.52828003       0.73814999 </v>
   <v>       0.75400003       0.72937999       0.49116997 </v>
  </varray>
 </structure>
 <calculation>
  <scstep>
   <time name="dav">   21.01   21.05</time>
   <time name="total">   21.05   21.09</time>
   <energy>
    <i name="alphaZ">   4790.65724447 </i>
    <i name="ewald"> -40481.67597482 </i>
    <i name="hartreedc">  -6716.53296466 </i>
    <i name="XCdc">   1715.37992636 </i>
    <i name="pawpsdc">  27513.46112031 </i>
    <i name="pawaedc"> -27451.73538451 </i>
    <i name="eentropy">     -0.07455632 </i>
    <i name="bandstr">   1069.44056301 </i>
    <i name="atom">  44954.85287439 </i>
    <i name="e_fr_energy">   5393.77284824 </i>
    <i name="e_wo_entrp">   5393.84740456 </i>
    <i name="e_0_energy">   5393.81012640 </i>
   </energy>
  </scstep>
  <scstep>
   <time name="dav">   22.54   22.55</time>
   <time name="total">   22.54   22.55</time>
   <energy>
    <i name="e_fr_energy">     58.14225186 </i>
    <i name="e_wo_entrp">     58.26831757 </i>
    <i name="e_0_energy">     58.20528471 </i>
   </energy>
  </scstep>
  <scstep>
   <time name="dav">   30.56   30.65</time>
   <time name="total">   30.56   30.65</time>
   <energy>
    <i name="e_fr_energy">   -726.94719645 </i>
    <i name="e_wo_entrp">   -726.85991480 </i>
    <i name="e_0_energy">   -726.90355563 </i>
   </energy>
  </scstep>
  <scstep>
   <time name="dav">   34.40   34.46</time>
   <time name="total">   34.40   34.46</time>
   <energy>
    <i name="e_fr_energy">   -793.51507276 </i>
    <i name="e_wo_entrp">   -793.43131742 </i>
    <i name="e_0_energy">   -793.47319509 </i>
   </energy>
  </scstep>
  <scstep>
   <time name="dav">   35.28   35.33</time>
   <time name="total">   35.53   35.59</time>
   <energy>
    <i name="e_fr_energy">   -797.10984068 </i>
    <i name="e_wo_entrp">   -797.02192446 </i>
    <i name="e_0_energy">   -797.06588257 </i>
   </energy>
  </scstep>
  <scstep>
   <time name="diag">    1.89    1.89</time>
   <time name="diis">   18.68   18.72</time>
   <time name="orth">    0.43    0.43</time>
   <time name="total">   21.29   21.34</time>
   <energy>
    <i name="e_fr_energy">  -1011.21413947 </i>
    <i name="e_wo_entrp">  -1010.97880735 </i>
    <i name="e_0_energy">  -1011.09647341 </i>
   </energy>
  </scstep>
  <scstep>
   <time name="diag">    1.89    1.89</time>
   <time name="diis">   20.59   20.71</time>
   <time name="orth">    1.12    1.20</time>
   <time name="total">   23.93   24.13</time>
   <energy>
    <i name="e_fr_energy">   -661.07076132 </i>
    <i name="e_wo_entrp">   -660.94556851 </i>
    <i name="e_0_energy">   -661.00816492 </i>
   </energy>
  </scstep>
  <scstep>
   <time name="diag">    4.18    4.42</time>
   <time name="diis">   22.27   22.31</time>
   <time name="orth">    0.43    0.43</time>
   <time name="total">   27.20   27.53</time>
   <energy>
    <i name="e_fr_energy">   -669.00860933 </i>
    <i name="e_wo_entrp">   -668.88148497 </i>
    <i name="e_0_energy">   -668.94504715 </i>
   </energy>
  </scstep>
  <scstep>
   <time name="diag">    1.87    1.87</time>
   <time name="diis">   20.80   20.82</time>
   <time name="orth">    0.43    0.43</time>
   <time name="total">   23.39   23.41</time>
   <energy>
    <i name="e_fr_energy">   -664.30356865 </i>
    <i name="e_wo_entrp">   -664.17221957 </i>
    <i name="e_0_energy">   -664.23789411 </i>
   </energy>
  </scstep>
  <scstep>
   <time name="diag">    1.88    1.88</time>
   <time name="diis">   22.48   22.55</time>
   <time name="orth">    0.43    0.43</time>
   <time name="total">   25.07   25.14</time>
   <energy>
    <i name="e_fr_energy">   -659.46192706 </i>
    <i name="e_wo_entrp">   -659.31318211 </i>
    <i name="e_0_energy">   -659.38755458 </i>
   </energy>
  </scstep>
  <scstep>
   <time name="diag">    1.88    1.88</time>
   <time name="diis">   21.51   21.60</time>
   <time name="orth">    0.43    0.43</time>
   <time name="total">   24.11   24.19</time>
   <energy>
    <i name="e_fr_energy">   -661.35681793 </i>
    <i name="e_wo_entrp">   -661.21336110 </i>
    <i name="e_0_energy">   -661.28508952 </i>
   </energy>
  </scstep>
  <scstep>
   <time name="diag">    1.91    1.91</time>
   <time name="diis">   20.85   20.88</time>
   <time name="orth">    0.43    0.43</time>
   <time name="total">   23.48   23.52</time>
   <energy>
    <i name="e_fr_energy">   -658.62537662 </i>
    <i name="e_wo_entrp">   -658.47024270 </i>
    <i name="e_0_energy">   -658.54780966 </i>
   </energy>
  </scstep>
  <scstep>
   <time name="diag">    1.91    1.92</time>
   <time name="diis">   21.39   21.43</time>
   <time name="orth">    0.43    0.43</time>
   <time name="total">   24.02   24.06</time>
   <energy>
    <i name="e_fr_energy">   -659.05863150 </i>
    <i name="e_wo_entrp">   -658.89878748 </i>
    <i name="e_0_energy">   -658.97870949 </i>
   </energy>
  </scstep>
  <scstep>
   <time name="diag">    1.87    1.87</time>
   <time name="diis">   21.73   21.74</time>
   <time name="orth">    0.43    0.43</time>
   <time name="total">   24.32   24.33</time>
   <energy>
    <i name="e_fr_energy">   -658.65140975 </i>
    <i name="e_wo_entrp">   -658.50350334 </i>
    <i name="e_0_energy">   -658.57745654 </i>
   </energy>
  </scstep>
  <scstep>
   <time name="diag">    1.89    1.89</time>
   <time name="diis">   21.64   21.77</time>
   <time name="orth">    0.43    0.43</time>
   <time name="total">   24.25   24.38</time>
   <energy>
    <i name="e_fr_energy">   -658.58324484 </i>
    <i name="e_wo_entrp">   -658.41660125 </i>
    <i name="e_0_energy">   -658.49992304 </i>
   </energy>
  </scstep>
  <scstep>
   <time name="diag">    1.87    1.87</time>
   <time name="diis">   22.08   22.09</time>
   <time name="orth">    0.43    0.43</time>
   <time name="total">   24.68   24.70</time>
   <energy>
    <i name="e_fr_energy">   -658.33736298 </i>
    <i name="e_wo_entrp">   -658.18508128 </i>
    <i name="e_0_energy">   -658.26122213 </i>
   </energy>
  </scstep>
  <scstep>
   <time name="diag">    1.89    1.89</time>
   <time name="diis">   22.09   22.17</time>
   <time name="orth">    0.45    0.45</time>
   <time name="total">   24.72   24.80</time>
   <energy>
    <i name="e_fr_energy">   -658.27350751 </i>
    <i name="e_wo_entrp">   -658.11352367 </i>
    <i name="e_0_energy">   -658.19351559 </i>
   </energy>
  </scstep>
  <scstep>
   <time name="diag">    1.88    1.88</time>
   <time name="diis">   22.03   22.09</time>
   <time name="orth">    0.43    0.43</time>
   <time name="total">   24.64   24.69</time>
   <energy>
    <i name="e_fr_energy">   -658.27594647 </i>
    <i name="e_wo_entrp">   -658.11825086 </i>
    <i name="e_0_energy">   -658.19709867 </i>
   </energy>
  </scstep>
  <scstep>
   <time name="diag">    1.89    1.89</time>
   <time name="diis">   22.03   22.05</time>
   <time name="orth">    0.44    0.44</time>
   <time name="total">   24.65   24.67</time>
   <energy>
    <i name="e_fr_energy">   -658.26823108 </i>
    <i name="e_wo_entrp">   -658.10995373 </i>
    <i name="e_0_energy">   -658.18909241 </i>
   </energy>
  </scstep>
  <scstep>
   <time name="diag">    1.90    1.94</time>
   <time name="diis">   21.93   21.97</time>
   <time name="orth">    0.43    0.43</time>
   <time name="total">   24.55   24.63</time>
   <energy>
    <i name="e_fr_energy">   -658.26239301 </i>
    <i name="e_wo_entrp">   -658.10439758 </i>
    <i name="e_0_energy">   -658.18339529 </i>
   </energy>
  </scstep>
  <scstep>
   <time name="diag">    1.87    1.87</time>
   <time name="diis">   21.42   21.47</time>
   <time name="orth">    0.43    0.43</time>
   <time name="total">   24.01   24.06</time>
   <energy>
    <i name="e_fr_energy">   -658.26245637 </i>
    <i name="e_wo_entrp">   -658.10447820 </i>
    <i name="e_0_energy">   -658.18346729 </i>
   </energy>
  </scstep>
  <scstep>
   <time name="diag">    1.87    1.87</time>
   <time name="diis">   19.43   19.47</time>
   <time name="orth">    0.44    0.44</time>
   <time name="total">   22.03   22.08</time>
   <energy>
    <i name="e_fr_energy">   -658.26245651 </i>
    <i name="e_wo_entrp">   -658.10441071 </i>
    <i name="e_0_energy">   -658.18343361 </i>
   </energy>
  </scstep>
  <scstep>
   <time name="diag">    1.91    1.91</time>
   <time name="diis">   18.32   18.34</time>
   <time name="orth">    0.43    0.43</time>
   <time name="total">   20.94   20.97</time>
   <energy>
    <i name="e_fr_energy">   -658.26249095 </i>
    <i name="e_wo_entrp">   -658.10447133 </i>
    <i name="e_0_energy">   -658.18348114 </i>
   </energy>
  </scstep>
  <scstep>
   <time name="diag">    1.88    1.88</time>
   <time name="diis">   16.37   16.38</time>
   <time name="orth">    0.43    0.43</time>
   <time name="total">   18.96   18.97</time>
   <energy>
    <i name="e_fr_energy">   -658.26250129 </i>
    <i name="e_wo_entrp">   -658.10447950 </i>
    <i name="e_0_energy">   -658.18349040 </i>
   </energy>
  </scstep>
  <scstep>
   <time name="diag">    1.89    1.89</time>
   <time name="diis">   13.39   13.43</time>
   <time name="orth">    0.43    0.43</time>
   <time name="total">   16.00   16.04</time>
   <energy>
    <i name="e_fr_energy">   -658.26251453 </i>
    <i name="e_wo_entrp">   -658.10449499 </i>
    <i name="e_0_energy">   -658.18350476 </i>
   </energy>
  </scstep>
  <scstep>
   <time name="diag">    1.85    1.86</time>
   <time name="diis">   11.77   11.79</time>
   <time name="orth">    0.43    0.43</time>
   <time name="total">   14.09   14.12</time>
   <energy>
    <i name="alphaZ">   4790.65724447 </i>
    <i name="ewald"> -40481.67597482 </i>
    <i name="hartreedc">  -6301.22453295 </i>
    <i name="XCdc">   1707.97416191 </i>
    <i name="pawpsdc">  29329.86888707 </i>
    <i name="pawaedc"> -29325.36508599 </i>
    <i name="eentropy">     -0.15802038 </i>
    <i name="bandstr">  -5333.19207548 </i>
    <i name="atom">  44954.85287439 </i>
    <i name="e_fr_energy">   -658.26252179 </i>
    <i name="e_wo_entrp">   -658.10450141 </i>
    <i name="e_0_energy">   -658.18351160 </i>
   </energy>
  </scstep>
  <structure>
   <crystal>
    <varray name="basis" >
     <v>       8.93249989       0.00000000       0.00000000 </v>
     <v>       0.00575300       9.05559834       0.00000000 </v>
     <v>       0.03210180      -0.01574346       8.93712807 </v>
    </varray>
    <i name="volume">    722.91652451 </i>
    <varray name="rec_basis" >
     <v>       0.11195074      -0.00007112      -0.00040225 </v>
     <v>       0.00000000       0.11042893       0.00019453 </v>
     <v>       0.00000000       0.00000000       0.11189277 </v>
    </varray>
   </crystal>
   <varray name="positions" >
    <v>       0.99688001       0.99204997       0.99924002 </v>
    <v>       0.25398003       0.99714995       0.24912000 </v>
    <v>       0.24803003       0.50165000       0.24955001 </v>
    <v>       0.50501006       0.49745998       0.99834003 </v>
    <v>       0.50479003       0.24631001       0.74710002 </v>
    <v>       0.99427992       0.50449999       0.49779000 </v>
    <v>       0.49950005       0.75481999       0.74817004 </v>
    <v>       0.99437004       0.23617001       0.26379999 </v>
    <v>       0.75718000       0.74102998       0.01100000 </v>
    <v>       0.00201000       0.25541000       0.73894001 </v>
    <v>       0.75307001       0.26163001       0.50533002 </v>
    <v>       0.99514004       0.74492004       0.74511997 </v>
    <v>       0.25679999       0.49462002       0.74545002 </v>
    <v>       0.24788999       0.24839000       0.99657997 </v>
    <v>       0.50833000       0.25676999       0.25376001 </v>
    <v>       0.74879004       0.98787999       0.26967001 </v>
    <v>       0.75719000       0.25603001       0.99591997 </v>
    <v>       0.24762001       0.74973999       0.99974006 </v>
    <v>       0.25272001       0.24823001       0.50015003 </v>
    <v>       0.24457999       0.75048999       0.49983999 </v>
    <v>       0.24982001       0.24942998       0.24825000 </v>
    <v>       0.26146999       0.99984002       0.99295996 </v>
    <v>       0.00281000       0.25024000       0.00130000 </v>
    <v>       0.75313998       0.24617000       0.25492002 </v>
    <v>       0.74767001       0.99748000       0.01202000 </v>
    <v>       0.50714994       0.99977000       0.24673000 </v>
    <v>       0.99051999       0.48088002       0.24100998 </v>
    <v>       0.50519005       0.76130999       0.00855000 </v>
    <v>       0.98896989       0.00202000       0.73708999 </v>
    <v>       0.75744996       0.24437997       0.74896999 </v>
    <v>       0.73632001       0.00417000       0.51063000 </v>
    <v>       0.50563996       0.23264999       0.49544997 </v>
    <v>       0.50008998       0.00061000       0.73471998 </v>
    <v>       0.99720000       0.99771992       0.25899999 </v>
    <v>       0.50427997       0.24673000       0.00262000 </v>
    <v>       0.25133999       0.74958002       0.24910999 </v>
    <v>       0.24328000       0.50072997       0.99510994 </v>
    <v>       0.99837005       0.74313996       0.00460000 </v>
    <v>       0.75633000       0.73891003       0.25767000 </v>
    <v>       0.75839004       0.50315998       0.00288000 </v>
    <v>       0.50700002       0.50333002       0.25878999 </v>
    <v>       0.24900999       0.25315000       0.74854000 </v>
    <v>       0.24446000       0.99823996       0.50287998 </v>
    <v>       0.99804009       0.24229999       0.50128003 </v>
    <v>       0.24177002       0.75340997       0.75018002 </v>
    <v>       0.25841001       0.50062002       0.50129001 </v>
    <v>       0.99000004       0.76215003       0.49746000 </v>
    <v>       0.99203996       0.50055999       0.75138002 </v>
    <v>       0.75036005       0.74888000       0.74756004 </v>
    <v>       0.74036002       0.50197000       0.50067003 </v>
    <v>       0.50575006       0.74958002       0.49720000 </v>
    <v>       0.50501003       0.50217998       0.73912003 </v>
    <v>       0.51588997       0.01358000       0.98075008 </v>
    <v>       0.99841994       0.50976998       0.98613004 </v>
    <v>       0.50379003       0.73926997       0.25905001 </v>
    <v>       0.23780002       0.01082000       0.74607998 </v>
    <v>       0.47957999       0.98308000       0.49717999 </v>
    <v>       0.74279003       0.97869994       0.76450995 </v>
    <v>       0.99864998       0.77573999       0.26102000 </v>
    <v>       0.73551001       0.51468004       0.26666001 </v>
    <v>       0.02362000       0.99783001       0.49557002 </v>
    <v>       0.50539000       0.52833005       0.49917999 </v>
    <v>       0.73876003       0.52828003       0.73814999 </v>
    <v>       0.75400003       0.72937999       0.49116997 </v>
   </varray>
  </structure>
  <varray name="forces" >
   <v>      -0.13951337       0.46165453      -0.89216788 </v>
   <v>       1.45132309      -0.04903727      -0.70201803 </v>
   <v>      -0.11577147       0.03205600      -0.69756416 </v>
   <v>      -0.60563270       0.42334829       0.21832451 </v>
   <v>       0.01124609      -1.60720540      -0.19541792 </v>
   <v>       0.34905174      -0.43420870       0.27193297 </v>
   <v>      -0.33601217       2.12799825       0.79003259 </v>
   <v>       0.12953655      -0.28022087      -0.62860710 </v>
   <v>      -0.62779215       0.53384150      -0.12987842 </v>
   <v>       0.22537421      -0.29081521       0.58513133 </v>
   <v>      -0.44205499      -0.87337077       0.16318931 </v>
   <v>       0.51546394       0.19674851       0.81475255 </v>
   <v>      -0.64233671       0.28295436       0.92321519 </v>
   <v>       0.17911746      -0.28986570      -0.24804610 </v>
   <v>      -0.33700607      -1.37880926      -0.28859638 </v>
   <v>      -1.73052687       0.61189574      -0.41683846 </v>
   <v>      -0.19881517      -0.55115861      -0.17285197 </v>
   <v>       0.62832982       0.23370339      -0.13223145 </v>
   <v>       0.51416465      -0.26892136       0.24805202 </v>
   <v>       0.78011306       0.26533390       0.14254821 </v>
   <v>      -0.27815054       0.09109682       0.09715803 </v>
   <v>      -0.60213615       0.06721240       0.36622241 </v>
   <v>      -0.12143540      -0.44639300      -0.10310361 </v>
   <v>       0.53361305       0.38214982       0.33956319 </v>
   <v>      -0.03290952      -0.44894843      -1.21945879 </v>
   <v>      -1.12788823      -0.39949439       0.26474262 </v>
   <v>       0.27036507       0.29840686       0.59519332 </v>
   <v>       0.59493962      -0.37976044      -0.68025340 </v>
   <v>      -0.03273290       0.09401700       0.74271010 </v>
   <v>      -0.53980970       0.03326540      -0.53551567 </v>
   <v>       0.39810538      -0.02230196       0.36188743 </v>
   <v>       0.43251583       0.12238630       1.16268029 </v>
   <v>       0.51649653      -0.06915007       0.63487945 </v>
   <v>       0.83644969       1.03997574      -1.16065236 </v>
   <v>       0.10594047      -0.03584865      -0.93552344 </v>
   <v>       0.05737856      -0.17122957       0.07268458 </v>
   <v>       0.22472235       0.00068195       0.27154665 </v>
   <v>      -0.47225811      -0.03793589      -0.17810685 </v>
   <v>      -0.72323372       0.29265138      -1.05568862 </v>
   <v>       0.17779035       0.47368417      -0.05504539 </v>
   <v>      -1.27813049       0.83927081      -0.87156898 </v>
   <v>       0.14484837      -0.38915889      -0.04919722 </v>
   <v>       1.73323653      -0.05914562       0.51294714 </v>
   <v>      -0.25459075       0.65777594       0.16795223 </v>
   <v>       0.24937282      -0.10321640      -0.02103341 </v>
   <v>      -0.54560976       0.03497079      -0.42646544 </v>
   <v>       0.29414447      -0.70108238       0.86604528 </v>
   <v>       0.20275729      -0.02438721       0.15068676 </v>
   <v>      -0.36842641       1.67045923       0.34562991 </v>
   <v>       1.19866616      -1.26543515       0.44468372 </v>
   <v>      -0.11726113       1.49326839      -0.51687940 </v>
   <v>      -0.75993252      -0.24370845       0.95896251 </v>
   <v>       0.35356046       0.22408712      -0.19770696 </v>
   <v>       0.20471200       0.37989639      -0.63195072 </v>
   <v>       0.03674397      -0.30783462      -0.11392234 </v>
   <v>      -0.05534186       0.34401863       0.14188958 </v>
   <v>      -0.68904311       0.02746136       0.30244507 </v>
   <v>      -0.67386193      -0.85147481       0.55637455 </v>
   <v>       0.83651933      -0.64611476      -0.95006597 </v>
   <v>       0.37294134      -0.69975417      -1.43793274 </v>
   <v>      -0.89959173       0.54261293       0.90628248 </v>
   <v>      -0.46118473      -0.87116933      -0.46512405 </v>
   <v>       0.85479442      -1.51709814       1.07537933 </v>
   <v>      -0.20534429       1.43537158       0.61368790 </v>
  </varray>
  <varray name="stress" >
   <v>     -15.69362237       3.77209426      -3.15010957 </v>
   <v>       3.77209463     -26.86268318      -0.68963206 </v>
   <v>      -3.15010919      -0.68963340     -13.00089788 </v>
  </varray>
  <energy>
   <i name="e_fr_energy">   -658.26252179 </i>
   <i name="e_wo_entrp">   -658.18351160 </i>
   <i name="e_0_energy">     -0.15802038 </i>
  </energy>
  <time name="totalsc">  669.35  671.09</time>
 </calculation>
 <calculation>
  <scstep>
   <time name="dav">   23.48   23.53</time>
   <time name="total">   23.78   23.83</time>
   <energy>
    <i name="alphaZ">   4882.37880930 </i>
    <i name="ewald"> -40777.90765779 </i>
    <i name="hartreedc">  -6310.48782204 </i>
    <i name="XCdc">   1719.03254423 </i>
    <i name="pawpsdc">  29329.85491827 </i>
    <i name="pawaedc"> -29325.34211974 </i>
    <i name="eentropy">     -0.13683560 </i>
    <i name="bandstr">  -5126.50868283 </i>
    <i name="atom">  44954.85287439 </i>
    <i name="e_fr_energy">   -654.26397182 </i>
    <i name="e_wo_entrp">   -654.12713622 </i>
    <i name="e_0_energy">   -654.19555402 </i>
   </energy>
  </scstep>
  <scstep>
   <time name="diag">    1.89    1.90</time>
   <time name="diis">   21.97   22.00</time>
   <time name="orth">    0.44    0.44</time>
   <time name="total">   24.59   24.62</time>
   <energy>
    <i name="e_fr_energy">   -668.61871751 </i>
    <i name="e_wo_entrp">   -668.46705064 </i>
    <i name="e_0_energy">   -668.54288408 </i>
   </energy>
  </scstep>
  <scstep>
   <time name="diag">    1.88    1.89</time>
   <time name="diis">   19.16   19.21</time>
   <time name="orth">    0.44    0.46</time>
   <time name="total">   21.76   21.84</time>
   <energy>
    <i name="e_fr_energy">   -661.28534713 </i>
    <i name="e_wo_entrp">   -661.15146992 </i>
    <i name="e_0_energy">   -661.21840852 </i>
   </energy>
  </scstep>
  <scstep>
   <time name="diag">    1.89    1.89</time>
   <time name="diis">   22.12   22.20</time>
   <time name="orth">    0.43    0.43</time>
   <time name="total">   24.72   24.80</time>
   <energy>
    <i name="e_fr_energy">   -661.43295794 </i>
    <i name="e_wo_entrp">   -661.28951484 </i>
    <i name="e_0_energy">   -661.36123639 </i>
   </energy>
  </scstep>
  <scstep>
   <time name="diag">    1.89    1.89</time>
   <time name="diis">   20.32   20.39</time>
   <time name="orth">    0.43    0.43</time>
   <time name="total">   22.93   23.00</time>
   <energy>
    <i name="e_fr_energy">   -660.67078913 </i>
    <i name="e_wo_entrp">   -660.53291195 </i>
    <i name="e_0_energy">   -660.60185054 </i>
   </energy>
  </scstep>
  <scstep>
   <time name="diag">    1.94    1.98</time>
   <time name="diis">   20.94   20.98</time>
   <time name="orth">    0.44    0.44</time>
   <time name="total">   23.60   23.68</time>
   <energy>
    <i name="e_fr_energy">   -660.41807293 </i>
    <i name="e_wo_entrp">   -660.27419065 </i>
    <i name="e_0_energy">   -660.34613179 </i>
   </energy>
  </scstep>
  <scstep>
   <time name="diag">    1.89    1.89</time>
   <time name="diis">   21.30   21.36</time>
   <time name="orth">    0.45    0.45</time>
   <time name="total">   23.93   23.99</time>
   <energy>
    <i name="e_fr_energy">   -660.31548201 </i>
    <i name="e_wo_entrp">   -660.16796327 </i>
    <i name="e_0_energy">   -660.24172264 </i>
   </energy>
  </scstep>
  <scstep>
   <time name="diag">    1.88    1.88</time>
   <time name="diis">   20.68   20.73</time>
   <time name="orth">    0.43    0.43</time>
   <time name="total">   23.27   23.32</time>
   <energy>
    <i name="e_fr_energy">   -660.42073397 </i>
    <i name="e_wo_entrp">   -660.27807705 </i>
    <i name="e_0_energy">   -660.34940551 </i>
   </energy>
  </scstep>
  <scstep>
   <time name="diag">    1.92    1.92</time>
   <time name="diis">   20.85   20.88</time>
   <time name="orth">    0.43    0.43</time>
   <time name="total">   23.48   23.52</time>
   <energy>
    <i name="e_fr_energy">   -660.29856138 </i>
    <i name="e_wo_entrp">   -660.15580387 </i>
    <i name="e_0_energy">   -660.22718263 </i>
   </energy>
  </scstep>
  <scstep>
   <time name="diag">    1.88    1.88</time>
   <time name="diis">   22.14   22.25</time>
   <time name="orth">    0.43    0.43</time>
   <time name="total">   24.73   24.85</time>
   <energy>
    <i name="e_fr_energy">   -660.27782739 </i>
    <i name="e_wo_entrp">   -660.13363494 </i>
    <i name="e_0_energy">   -660.20573117 </i>
   </energy>
  </scstep>
  <scstep>
   <time name="diag">    1.88    1.88</time>
   <time name="diis">   22.75   22.81</time>
   <time name="orth">    0.43    0.43</time>
   <time name="total">   25.35   25.41</time>
   <energy>
    <i name="e_fr_energy">   -660.28434087 </i>
    <i name="e_wo_entrp">   -660.13829606 </i>
    <i name="e_0_energy">   -660.21131846 </i>
   </energy>
  </scstep>
  <scstep>
   <time name="diag">    1.87    1.87</time>
   <time name="diis">   21.00   21.06</time>
   <time name="orth">    0.43    0.43</time>
   <time name="total">   23.59   23.65</time>
   <energy>
    <i name="e_fr_energy">   -660.27615937 </i>
    <i name="e_wo_entrp">   -660.13257218 </i>
    <i name="e_0_energy">   -660.20436578 </i>
   </energy>
  </scstep>
  <scstep>
   <time name="diag">    1.88    1.88</time>
   <time name="diis">   22.20   22.28</time>
   <time name="orth">    0.44    0.44</time>
   <time name="total">   24.80   24.89</time>
   <energy>
    <i name="e_fr_energy">   -660.27681432 </i>
    <i name="e_wo_entrp">   -660.13263050 </i>
    <i name="e_0_energy">   -660.20472241 </i>
   </energy>
  </scstep>
  <scstep>
   <time name="diag">    1.87    1.87</time>
   <time name="diis">   21.63   21.68</time>
   <time name="orth">    0.44    0.44</time>
   <time name="total">   24.21   24.26</time>
   <energy>
    <i name="e_fr_energy">   -660.27725204 </i>
    <i name="e_wo_entrp">   -660.13315017 </i>
    <i name="e_0_energy">   -660.20520111 </i>
   </energy>
  </scstep>
  <scstep>
   <time name="diag">    1.88    1.88</time>
   <time name="diis">   20.76   20.85</time>
   <time name="orth">    0.42    0.42</time>
   <time name="total">   23.35   23.44</time>
   <energy>
    <i name="e_fr_energy">   -660.27740265 </i>
    <i name="e_wo_entrp">   -660.13328379 </i>
    <i name="e_0_energy">   -660.20534322 </i>
   </energy>
  </scstep>
  <scstep>
   <time name="diag">    1.91    1.92</time>
   <time name="diis">   18.50   18.55</time>
   <time name="orth">    0.43    0.43</time>
   <time name="total">   21.13   21.19</time>
   <energy>
    <i name="e_fr_energy">   -660.27744254 </i>
    <i name="e_wo_entrp">   -660.13335203 </i>
    <i name="e_0_energy">   -660.20539729 </i>
   </energy>
  </scstep>
  <scstep>
   <time name="diag">    1.89    1.89</time>
   <time name="diis">   17.02   17.05</time>
   <time name="orth">    0.43    0.43</time>
   <time name="total">   19.62   19.67</time>
   <energy>
    <i name="e_fr_energy">   -660.27745846 </i>
    <i name="e_wo_entrp">   -660.13336922 </i>
    <i name="e_0_energy">   -660.20541384 </i>
   </energy>
  </scstep>
  <scstep>
   <time name="diag">    1.89    1.90</time>
   <time name="diis">   16.02   16.07</time>
   <time name="orth">    0.43    0.43</time>
   <time name="total">   18.62   18.69</time>
   <energy>
    <i name="e_fr_energy">   -660.27746427 </i>
    <i name="e_wo_entrp">   -660.13336251 </i>
    <i name="e_0_energy">   -660.20541339 </i>
   </energy>
  </scstep>
  <scstep>
   <time name="diag">    1.86    1.86</time>
   <time name="diis">   13.62   13.65</time>
   <time name="orth">    0.43    0.43</time>
   <time name="total">   15.95   15.98</time>
   <energy>
    <i name="alphaZ">   4882.37880930 </i>
    <i name="ewald"> -40777.90765779 </i>
    <i name="hartreedc">  -6191.00400663 </i>
    <i name="XCdc">   1712.14980205 </i>
    <i name="pawpsdc">  29503.57333589 </i>
    <i name="pawaedc"> -29499.16773497 </i>
    <i name="eentropy">     -0.14410069 </i>
    <i name="bandstr">  -5245.00878946 </i>
    <i name="atom">  44954.85287439 </i>
    <i name="e_fr_energy">   -660.27746791 </i>
    <i name="e_wo_entrp">   -660.13336722 </i>
    <i name="e_0_energy">   -660.20541756 </i>
   </energy>
  </scstep>
  <structure>
   <crystal>
    <varray name="basis" >
     <v>       8.88482112       0.01145999      -0.00957034 </v>
     <v>       0.01734021       8.97286957      -0.00213021 </v>
     <v>       0.02233496      -0.01765470       8.89757890 </v>
    </varray>
    <i name="volume">    709.33563751 </i>
    <varray name="rec_basis" >
     <v>       0.11255148      -0.00021757      -0.00028296 </v>
     <v>      -0.00014351       0.11144740       0.00022150 </v>
     <v>       0.00012103       0.00002645       0.11238987 </v>
    </varray>
   </crystal>
   <varray name="positions" >
    <v>       0.99614226       0.99450100       0.99442409 </v>
    <v>       0.26183213       0.99688213       0.24533050 </v>
    <v>       0.24741819       0.50181423       0.24578455 </v>
    <v>       0.50173347       0.49971737       0.99951855 </v>
    <v>       0.50486008       0.23774598       0.74604515 </v>
    <v>       0.99616129       0.50218935       0.49925789 </v>
    <v>       0.49766269       0.76616407       0.75243464 </v>
    <v>       0.99508280       0.23467127       0.26040676 </v>
    <v>       0.75379010       0.74387274       0.01029892 </v>
    <v>       0.00321684       0.25386621       0.74209855 </v>
    <v>       0.75068239       0.25697876       0.50621092 </v>
    <v>       0.99790748       0.74597584       0.74951801 </v>
    <v>       0.25331197       0.49613609       0.75043354 </v>
    <v>       0.24886318       0.24684344       0.99524101 </v>
    <v>       0.50652023       0.24942184       0.25220216 </v>
    <v>       0.73944980       0.99113589       0.26741992 </v>
    <v>       0.75612148       0.25309215       0.99498692 </v>
    <v>       0.25101526       0.75098378       0.99902627 </v>
    <v>       0.25549302       0.24679969       0.50148902 </v>
    <v>       0.24878955       0.75190486       0.50060946 </v>
    <v>       0.24831558       0.24991620       0.24877445 </v>
    <v>       0.25821063       0.00020152       0.99493683 </v>
    <v>       0.00215768       0.24786093       0.00074345 </v>
    <v>       0.75601402       0.24820904       0.25675298 </v>
    <v>       0.74751748       0.99507683       0.00543736 </v>
    <v>       0.50105467       0.99764422       0.24815908 </v>
    <v>       0.99196761       0.48247534       0.24422284 </v>
    <v>       0.50841771       0.75928048       0.00487799 </v>
    <v>       0.98877837       0.00252783       0.74109915 </v>
    <v>       0.75454483       0.24455217       0.74607927 </v>
    <v>       0.73846315       0.00405459       0.51258347 </v>
    <v>       0.50795291       0.23331290       0.50172612 </v>
    <v>       0.50286739       0.00024757       0.73814706 </v>
    <v>       0.00173645       0.00324938       0.25273479 </v>
    <v>       0.50487041       0.24653024      -0.00242996 </v>
    <v>       0.25164905       0.74866849       0.24950234 </v>
    <v>       0.24448841       0.50073615       0.99657575 </v>
    <v>       0.99582306       0.74293619       0.00363858 </v>
    <v>       0.75244344       0.74045919       0.25197138 </v>
    <v>       0.75934969       0.50568296       0.00258286 </v>
    <v>       0.50011112       0.50779296       0.25408526 </v>
    <v>       0.24979458       0.25107634       0.74827444 </v>
    <v>       0.25381112       0.99792968       0.50564887 </v>
    <v>       0.99665958       0.24580580       0.50218664 </v>
    <v>       0.24311759       0.75285990       0.75006648 </v>
    <v>       0.25547143       0.50080232       0.49898795 </v>
    <v>       0.99157425       0.75842322       0.50213491 </v>
    <v>       0.99313217       0.50043149       0.75219342 </v>
    <v>       0.74835782       0.75778242       0.74942575 </v>
    <v>       0.74682948       0.49523272       0.50307043 </v>
    <v>       0.50512166       0.75753038       0.49440988 </v>
    <v>       0.50088801       0.50089066       0.74429651 </v>
    <v>       0.51780255       0.01477194       0.97968285 </v>
    <v>       0.99953651       0.51178791       0.98271876 </v>
    <v>       0.50399174       0.73762894       0.25843506 </v>
    <v>       0.23749720       0.01265405       0.74684590 </v>
    <v>       0.47585265       0.98322914       0.49881259 </v>
    <v>       0.73914276       0.97416902       0.76751326 </v>
    <v>       0.00318851       0.77228897       0.25589154 </v>
    <v>       0.73755450       0.51093868       0.25889804 </v>
    <v>       0.01874203       0.00072922       0.50046213 </v>
    <v>       0.50291124       0.52368463       0.49666925 </v>
    <v>       0.74336095       0.52020795       0.74395489 </v>
    <v>       0.75287418       0.73703252       0.49448266 </v>
   </varray>
  </structure>
  <varray name="forces" >
   <v>       0.08846400      -0.00497604      -0.35774880 </v>
   <v>      -0.13495855      -0.06022585       0.05970508 </v>
   <v>      -0.35574197      -0.17558055       0.10553855 </v>
   <v>       0.03849750      -0.15147613      -0.03244940 </v>
   <v>      -0.15395807      -0.15338400       0.27044035 </v>
   <v>       0.41532138      -0.06075194       0.10650928 </v>
   <v>       0.05206355      -0.31729256      -0.16193936 </v>
   <v>       0.25536065       0.28932928      -0.13197421 </v>
   <v>      -0.25740950       0.23769351      -0.29045436 </v>
   <v>       0.07939907      -0.25857521       0.30705860 </v>
   <v>      -0.02024577      -0.64618608       0.09482872 </v>
   <v>      -0.14017109      -0.05556222       0.48196468 </v>
   <v>      -0.26483894      -0.01209292       0.04446113 </v>
   <v>       0.13536170      -0.20018250       0.00917375 </v>
   <v>      -0.14642801       0.28147831      -0.22630301 </v>
   <v>       0.31839632      -0.13874367      -0.43861831 </v>
   <v>      -0.35539318      -0.04558037      -0.02799613 </v>
   <v>      -0.06593099       0.30539813       0.06526299 </v>
   <v>      -0.08352175       0.01702305      -0.00078591 </v>
   <v>      -0.09967276       0.01525756       0.00540260 </v>
   <v>      -0.06825314      -0.11253920      -0.05022403 </v>
   <v>      -0.29982010      -0.00909167       0.17582271 </v>
   <v>      -0.00362167      -0.13711989      -0.09720342 </v>
   <v>      -0.06542812       0.11422077      -0.03966863 </v>
   <v>      -0.13562381      -0.07337014      -0.72918899 </v>
   <v>      -0.27493441      -0.23731560      -0.01262998 </v>
   <v>       0.12970687       0.52850066       0.24965874 </v>
   <v>       0.07678476      -0.04790449      -0.40339261 </v>
   <v>       0.08561485       0.10078955       0.34267076 </v>
   <v>      -0.10057515       0.30391675      -0.16762521 </v>
   <v>       0.76892658      -0.18729835       0.05512036 </v>
   <v>       0.16046623       0.44554041       0.03762038 </v>
   <v>       0.40558568       0.11935949       0.63344753 </v>
   <v>      -0.02943978      -0.86731680      -0.11529112 </v>
   <v>      -0.08277779      -0.03640412      -0.10195220 </v>
   <v>       0.15318699       0.04641811      -0.12727759 </v>
   <v>      -0.04345962       0.04921370      -0.05428385 </v>
   <v>       0.22221523       0.03160746      -0.00043787 </v>
   <v>      -0.28967657       0.10950638       0.21881879 </v>
   <v>       0.05692893      -0.17104784       0.01268174 </v>
   <v>      -0.03702607      -0.03657737      -0.22288269 </v>
   <v>       0.04397794      -0.18767940       0.00295740 </v>
   <v>      -0.04346281       0.14808566       0.32554026 </v>
   <v>       0.13797605       0.23072111      -0.05961447 </v>
   <v>       0.15777419       0.10937394       0.13177114 </v>
   <v>      -0.10055520      -0.00223491       0.01886065 </v>
   <v>       0.24996499      -0.13573134      -0.04587992 </v>
   <v>       0.34268397      -0.05431284       0.17146225 </v>
   <v>       0.04960352      -0.30366538      -0.11043460 </v>
   <v>      -0.14883619       0.45175769      -0.26981016 </v>
   <v>       0.19721027       0.24835222      -0.10313743 </v>
   <v>       0.04415791       0.16819347       0.00367840 </v>
   <v>       0.37256895      -0.18807252      -0.25925886 </v>
   <v>       0.00142759       0.32517935      -0.36765455 </v>
   <v>      -0.32332010      -0.41772512       0.14587153 </v>
   <v>      -0.55405844       0.00755159      -0.11468792 </v>
   <v>      -0.18824675       0.17645496       0.14623942 </v>
   <v>      -0.55130139      -0.00087742       0.62330527 </v>
   <v>       0.08059441       0.61938897      -0.30270269 </v>
   <v>      -0.36823026      -0.02887404      -0.34900586 </v>
   <v>       0.53865072       0.16088634       0.08333923 </v>
   <v>       0.57405527       0.08421024      -0.23689397 </v>
   <v>       0.16958267       0.44025074       0.94620253 </v>
   <v>      -0.61559077      -0.64989086       0.13399329 </v>
  </varray>
  <varray name="stress" >
   <v>      21.20076181       2.79886390       0.82907603 </v>
   <v>       2.79886592      13.64536840      -1.25758971 </v>
   <v>       0.82907745      -1.25758790      17.93698792 </v>
  </varray>
  <energy>
   <i name="e_fr_energy">   -660.27746791 </i>
   <i name="e_wo_entrp">   -660.20541756 </i>
   <i name="e_0_energy">     -0.14410069 </i>
  </energy>
  <time name="totalsc">  478.59  479.90</time>
 </calculation>
 <calculation>
  <scstep>
   <time name="dav">   26.13   26.18</time>
   <time name="total">   26.42   26.48</time>
   <energy>
    <i name="alphaZ">   4884.04410591 </i>
    <i name="ewald"> -40782.12681702 </i>
    <i name="hartreedc">  -6192.17037847 </i>
    <i name="XCdc">   1712.35861925 </i>
    <i name="pawpsdc">  29503.56967755 </i>
    <i name="pawaedc"> -29499.14308506 </i>
    <i name="eentropy">     -0.14369499 </i>
    <i name="bandstr">  -5241.51728044 </i>
    <i name="atom">  44954.85287439 </i>
    <i name="e_fr_energy">   -660.27597887 </i>
    <i name="e_wo_entrp">   -660.13228388 </i>
    <i name="e_0_energy">   -660.20413138 </i>
   </energy>
  </scstep>
  <scstep>
   <time name="diag">    1.87    1.87</time>
   <time name="diis">   21.53   21.56</time>
   <time name="orth">    0.43    0.43</time>
   <time name="total">   24.11   24.15</time>
   <energy>
    <i name="e_fr_energy">   -660.28193611 </i>
    <i name="e_wo_entrp">   -660.13863132 </i>
    <i name="e_0_energy">   -660.21028372 </i>
   </energy>
  </scstep>
  <scstep>
   <time name="diag">    1.87    1.88</time>
   <time name="diis">   18.69   18.73</time>
   <time name="orth">    0.43    0.43</time>
   <time name="total">   21.27   21.32</time>
   <energy>
    <i name="e_fr_energy">   -660.27835470 </i>
    <i name="e_wo_entrp">   -660.13429125 </i>
    <i name="e_0_energy">   -660.20632297 </i>
   </energy>
  </scstep>
  <scstep>
   <time name="diag">    1.87    1.87</time>
   <time name="diis">   17.97   17.99</time>
   <time name="orth">    0.43    0.43</time>
   <time name="total">   20.56   20.58</time>
   <energy>
    <i name="e_fr_energy">   -660.27840158 </i>
    <i name="e_wo_entrp">   -660.13477351 </i>
    <i name="e_0_energy">   -660.20658755 </i>
   </energy>
  </scstep>
  <scstep>
   <time name="diag">    1.88    1.88</time>
   <time name="diis">   16.46   16.50</time>
   <time name="orth">    0.43    0.43</time>
   <time name="total">   19.06   19.09</time>
   <energy>
    <i name="e_fr_energy">   -660.27822593 </i>
    <i name="e_wo_entrp">   -660.13456461 </i>
    <i name="e_0_energy">   -660.20639527 </i>
   </energy>
  </scstep>
  <scstep>
   <time name="diag">    1.87    1.87</time>
   <time name="diis">   13.12   13.23</time>
   <time name="orth">    0.43    0.43</time>
   <time name="total">   15.70   15.81</time>
   <energy>
    <i name="e_fr_energy">   -660.27809104 </i>
    <i name="e_wo_entrp">   -660.13427877 </i>
    <i name="e_0_energy">   -660.20618490 </i>
   </energy>
  </scstep>
  <scstep>
   <time name="diag">    1.87    1.87</time>
   <time name="diis">   18.50   18.57</time>
   <time name="orth">    0.43    0.43</time>
   <time name="total">   21.08   21.15</time>
   <energy>
    <i name="e_fr_energy">   -660.27810861 </i>
    <i name="e_wo_entrp">   -660.13450799 </i>
    <i name="e_0_energy">   -660.20630830 </i>
   </energy>
  </scstep>
  <scstep>
   <time name="diag">    1.88    1.88</time>
   <time name="diis">   10.97   10.98</time>
   <time name="orth">    0.43    0.43</time>
   <time name="total">   13.57   13.58</time>
   <energy>
    <i name="e_fr_energy">   -660.27806832 </i>
    <i name="e_wo_entrp">   -660.13419550 </i>
    <i name="e_0_energy">   -660.20613191 </i>
   </energy>
  </scstep>
  <scstep>
   <time name="diag">    1.87    1.87</time>
   <time name="diis">    9.86    9.86</time>
   <time name="orth">    0.43    0.43</time>
   <time name="total">   12.45   12.45</time>
   <energy>
    <i name="e_fr_energy">   -660.27808285 </i>
    <i name="e_wo_entrp">   -660.13430114 </i>
    <i name="e_0_energy">   -660.20619200 </i>
   </energy>
  </scstep>
  <scstep>
   <time name="diag">    1.95    1.96</time>
   <time name="diis">    9.34    9.35</time>
   <time name="orth">    0.43    0.43</time>
   <time name="total">   12.01   12.03</time>
   <energy>
    <i name="e_fr_energy">   -660.27805539 </i>
    <i name="e_wo_entrp">   -660.13428597 </i>
    <i name="e_0_energy">   -660.20617068 </i>
   </energy>
  </scstep>
  <scstep>
   <time name="diag">    1.87    1.87</time>
   <time name="diis">    9.62    9.64</time>
   <time name="orth">    0.43    0.43</time>
   <time name="total">   11.95   11.97</time>
   <energy>
    <i name="alphaZ">   4884.04410591 </i>
    <i name="ewald"> -40782.12681702 </i>
    <i name="hartreedc">  -6190.04897756 </i>
    <i name="XCdc">   1712.23599619 </i>
    <i name="pawpsdc">  29507.46713514 </i>
    <i name="pawaedc"> -29503.04209094 </i>
    <i name="eentropy">     -0.14376541 </i>
    <i name="bandstr">  -5243.51651944 </i>
    <i name="atom">  44954.85287439 </i>
    <i name="e_fr_energy">   -660.27805874 </i>
    <i name="e_wo_entrp">   -660.13429333 </i>
    <i name="e_0_energy">   -660.20617603 </i>
   </energy>
  </scstep>
  <structure>
   <crystal>
    <varray name="basis" >
     <v>       8.88396695       0.01166530      -0.00974180 </v>
     <v>       0.01754780       8.97138747      -0.00216837 </v>
     <v>       0.02215998      -0.01768894       8.89687037 </v>
    </varray>
    <i name="volume">    709.09377765 </i>
    <varray name="rec_basis" >
     <v>       0.11256231      -0.00022024      -0.00028080 </v>
     <v>      -0.00014612       0.11146582       0.00022198 </v>
     <v>       0.00012322       0.00002693       0.11239882 </v>
    </varray>
   </crystal>
   <varray name="positions" >
    <v>       0.99612882       0.99454532       0.99433742 </v>
    <v>       0.26197349       0.99687709       0.24526246 </v>
    <v>       0.24740710       0.50181720       0.24571678 </v>
    <v>       0.50167443       0.49975826       0.99953970 </v>
    <v>       0.50486152       0.23759113       0.74602613 </v>
    <v>       0.99619526       0.50214753       0.49928433 </v>
    <v>       0.49762941       0.76636923       0.75251140 </v>
    <v>       0.99509561       0.23464414       0.26034571 </v>
    <v>       0.75372897       0.74392421       0.01028625 </v>
    <v>       0.00323868       0.25383828       0.74215541 </v>
    <v>       0.75063951       0.25689472       0.50622670 </v>
    <v>       0.99795738       0.74599488       0.74959721 </v>
    <v>       0.25324921       0.49616360       0.75052316 </v>
    <v>       0.24888071       0.24681545       0.99521693 </v>
    <v>       0.50648778       0.24928902       0.25217406 </v>
    <v>       0.73928144       0.99119496       0.26737926 </v>
    <v>       0.75610229       0.25303906       0.99497009 </v>
    <v>       0.25107637       0.75100619       0.99901350 </v>
    <v>       0.25554302       0.24677377       0.50151316 </v>
    <v>       0.24886535       0.75193035       0.50062340 </v>
    <v>       0.24828848       0.24992503       0.24878386 </v>
    <v>       0.25815196       0.00020814       0.99497234 </v>
    <v>       0.00214598       0.24781793       0.00073341 </v>
    <v>       0.75606577       0.24824585       0.25678603 </v>
    <v>       0.74751466       0.99503336       0.00531889 </v>
    <v>       0.50094497       0.99760593       0.24818467 </v>
    <v>       0.99199371       0.48250416       0.24428069 </v>
    <v>       0.50847582       0.75924369       0.00481197 </v>
    <v>       0.98877498       0.00253704       0.74117129 </v>
    <v>       0.75449245       0.24455533       0.74602720 </v>
    <v>       0.73850179       0.00405246       0.51261867 </v>
    <v>       0.50799467       0.23332485       0.50183911 </v>
    <v>       0.50291749       0.00024097       0.73820878 </v>
    <v>       0.00181791       0.00334923       0.25262216 </v>
    <v>       0.50488095       0.24652659      -0.00252082 </v>
    <v>       0.25165465       0.74865201       0.24950941 </v>
    <v>       0.24451021       0.50073624       0.99660215 </v>
    <v>       0.99577717       0.74293256       0.00362123 </v>
    <v>       0.75237329       0.74048726       0.25186877 </v>
    <v>       0.75936691       0.50572855       0.00257755 </v>
    <v>       0.49998685       0.50787379       0.25400048 </v>
    <v>       0.24980875       0.25103883       0.74826966 </v>
    <v>       0.25397960       0.99792387       0.50569887 </v>
    <v>       0.99663465       0.24586922       0.50220294 </v>
    <v>       0.24314187       0.75284992       0.75006446 </v>
    <v>       0.25541846       0.50080567       0.49894646 </v>
    <v>       0.99160278       0.75835582       0.50221905 </v>
    <v>       0.99315186       0.50042914       0.75220808 </v>
    <v>       0.74832158       0.75794344       0.74945932 </v>
    <v>       0.74694621       0.49511076       0.50311372 </v>
    <v>       0.50511010       0.75767413       0.49435970 </v>
    <v>       0.50081390       0.50086746       0.74438958 </v>
    <v>       0.51783694       0.01479344       0.97966369 </v>
    <v>       0.99955651       0.51182435       0.98265741 </v>
    <v>       0.50399540       0.73759927       0.25842399 </v>
    <v>       0.23749171       0.01268722       0.74685969 </v>
    <v>       0.47578554       0.98323193       0.49884190 </v>
    <v>       0.73907723       0.97408720       0.76756722 </v>
    <v>       0.00327023       0.77222645       0.25579933 </v>
    <v>       0.73759126       0.51087096       0.25875839 </v>
    <v>       0.01865420       0.00078177       0.50055009 </v>
    <v>       0.50286666       0.52360069       0.49662400 </v>
    <v>       0.74344412       0.52006192       0.74405940 </v>
    <v>       0.75285378       0.73717092       0.49454228 </v>
   </varray>
  </structure>
  <varray name="forces" >
   <v>       0.09397727      -0.01446155      -0.34586350 </v>
   <v>      -0.16970497      -0.06005004       0.07216715 </v>
   <v>      -0.36102549      -0.18000489       0.12178287 </v>
   <v>       0.05172488      -0.16212834      -0.03858800 </v>
   <v>      -0.15736350      -0.12218068       0.28028010 </v>
   <v>       0.41662914      -0.05325548       0.10255421 </v>
   <v>       0.05525438      -0.36748369      -0.17851560 </v>
   <v>       0.25726549       0.30204819      -0.12416794 </v>
   <v>      -0.25004081       0.23115529      -0.29320129 </v>
   <v>       0.07598618      -0.25772413       0.30190169 </v>
   <v>      -0.01257827      -0.64205115       0.09179858 </v>
   <v>      -0.15061938      -0.05922458       0.47402353 </v>
   <v>      -0.25641121      -0.01655864       0.02729328 </v>
   <v>       0.13463268      -0.19891302       0.01488172 </v>
   <v>      -0.14249408       0.31272279      -0.22455745 </v>
   <v>       0.35215446      -0.15123651      -0.43913185 </v>
   <v>      -0.35832015      -0.03725862      -0.02385150 </v>
   <v>      -0.07849240       0.30742327       0.06838963 </v>
   <v>      -0.09384279       0.02331691      -0.00631389 </v>
   <v>      -0.11691751       0.00882813       0.00340185 </v>
   <v>      -0.06451656      -0.11631338      -0.05259683 </v>
   <v>      -0.29404915      -0.01021093       0.17106785 </v>
   <v>      -0.00175032      -0.13017838      -0.09700518 </v>
   <v>      -0.07540150       0.11060062      -0.04641104 </v>
   <v>      -0.13693863      -0.06519321      -0.71971599 </v>
   <v>      -0.25556597      -0.23695112      -0.01701110 </v>
   <v>       0.12648044       0.53293594       0.24318725 </v>
   <v>       0.06648936      -0.04118510      -0.39626190 </v>
   <v>       0.08738835       0.10047897       0.33395601 </v>
   <v>      -0.09173963       0.30911273      -0.16018514 </v>
   <v>       0.77601713      -0.18994170       0.04994526 </v>
   <v>       0.15472007       0.45075296       0.01625298 </v>
   <v>       0.40248740       0.12588937       0.63176209 </v>
[...]
      </set>
     </set>
    </set>
   </array>
  </eigenvalues>
  <separator name="orbital magnetization" >
   <v name="MAGDIPOLOUT">      0.00000000      0.00000000      0.00000000</v>
  </separator>
  <dos>
   <i name="efermi">      7.62849275 </i>
   <total>
    <array>
     <dimension dim="1">gridpoints</dimension>
     <dimension dim="2">spin</dimension>
     <field>energy</field>
     <field>total</field>
     <field>integrated</field>
     <set>
      <set comment="spin 1">
       <r>   -44.1940     0.0000     0.0000 </r>
       <r>   -44.0014     0.0000     0.0000 </r>
       <r>   -43.8087     0.0000     0.0000 </r>
       <r>   -43.6160     0.0000     0.0000 </r>
       <r>   -43.4234     0.0000     0.0000 </r>
       <r>   -43.2307     0.0000     0.0000 </r>
       <r>   -43.0381     0.0000     0.0000 </r>
       <r>   -42.8454     0.0000     0.0000 </r>
       <r>   -42.6527     0.0000     0.0000 </r>
       <r>   -42.4601     0.0000     0.0000 </r>
       <r>   -42.2674     0.0000     0.0000 </r>
       <r>   -42.0748     0.0000     0.0000 </r>
       <r>   -41.8821     0.0000     0.0000 </r>
       <r>   -41.6894     0.5187     0.0999 </r>
       <r>   -41.4968    18.6013     3.6836 </r>
       <r>   -41.3041    11.9370     5.9834 </r>
       <r>   -41.1115     3.2958     6.6184 </r>
       <r>   -40.9188    25.3702    11.5062 </r>
       <r>   -40.7262     5.2098    12.5099 </r>
       <r>   -40.5335     7.5329    13.9612 </r>
       <r>   -40.3408     0.2016    14.0000 </r>
       <r>   -40.1482     0.0000    14.0000 </r>
       <r>   -39.9555     0.0000    14.0000 </r>
       <r>   -39.7629     0.0000    14.0000 </r>
       <r>   -39.5702     0.0000    14.0000 </r>
       <r>   -39.3775     0.0000    14.0000 </r>
       <r>   -39.1849     0.0000    14.0000 </r>
       <r>   -38.9922     0.0000    14.0000 </r>
       <r>   -38.7996     0.0000    14.0000 </r>
       <r>   -38.6069     0.0000    14.0000 </r>
       <r>   -38.4142     0.0000    14.0000 </r>
       <r>   -38.2216     0.0000    14.0000 </r>
       <r>   -38.0289     0.0000    14.0000 </r>
       <r>   -37.8363     0.0000    14.0000 </r>
       <r>   -37.6436     0.0000    14.0000 </r>
       <r>   -37.4510     0.0000    14.0000 </r>
       <r>   -37.2583     0.0000    14.0000 </r>
       <r>   -37.0656     0.0000    14.0000 </r>
       <r>   -36.8730     0.0000    14.0000 </r>
       <r>   -36.6803     0.0000    14.0000 </r>
       <r>   -36.4877     0.0000    14.0000 </r>
       <r>   -36.2950     0.1840    14.0355 </r>
       <r>   -36.1023     9.4746    15.8608 </r>
       <r>   -35.9097    52.5906    25.9929 </r>
       <r>   -35.7170   102.6587    45.7710 </r>
       <r>   -35.5244    21.4409    49.9017 </r>
       <r>   -35.3317     0.5099    50.0000 </r>
       <r>   -35.1390     0.0001    50.0000 </r>
       <r>   -34.9464     0.0000    50.0000 </r>
       <r>   -34.7537     0.0000    50.0000 </r>
       <r>   -34.5611     0.0000    50.0000 </r>
       <r>   -34.3684     0.0000    50.0000 </r>
       <r>   -34.1758     0.0000    50.0000 </r>
       <r>   -33.9831     0.0000    50.0000 </r>
       <r>   -33.7904     0.0000    50.0000 </r>
       <r>   -33.5978     0.0000    50.0000 </r>
       <r>   -33.4051     0.0000    50.0000 </r>
       <r>   -33.2125     0.0000    50.0000 </r>
       <r>   -33.0198     0.0000    50.0000 </r>
       <r>   -32.8271     0.0000    50.0000 </r>
       <r>   -32.6345     0.0000    50.0000 </r>
       <r>   -32.4418     0.0000    50.0000 </r>
       <r>   -32.2492     0.0000    50.0000 </r>
       <r>   -32.0565     0.0000    50.0000 </r>
       <r>   -31.8638     0.7651    50.1474 </r>
       <r>   -31.6712    35.9574    57.0749 </r>
       <r>   -31.4785    81.0392    72.6878 </r>
       <r>   -31.2859    57.2170    83.7112 </r>
       <r>   -31.0932    11.8296    85.9903 </r>
       <r>   -30.9006     0.0506    86.0000 </r>
       <r>   -30.7079     0.0000    86.0000 </r>
       <r>   -30.5152     0.0000    86.0000 </r>
       <r>   -30.3226     0.0000    86.0000 </r>
       <r>   -30.1299     0.0000    86.0000 </r>
       <r>   -29.9373     0.0000    86.0000 </r>
       <r>   -29.7446     0.0000    86.0000 </r>
       <r>   -29.5519     0.0000    86.0000 </r>
       <r>   -29.3593     0.0000    86.0000 </r>
       <r>   -29.1666     0.0000    86.0000 </r>
       <r>   -28.9740     0.0000    86.0000 </r>
       <r>   -28.7813     0.0000    86.0000 </r>
       <r>   -28.5886     0.0000    86.0000 </r>
       <r>   -28.3960     0.0034    86.0007 </r>
       <r>   -28.2033     3.6076    86.6957 </r>
       <r>   -28.0107    24.2275    91.3633 </r>
       <r>   -27.8180    32.9137    97.7045 </r>
       <r>   -27.6254    60.2835   109.3186 </r>
       <r>   -27.4327    36.2398   116.3005 </r>
       <r>   -27.2400    28.3041   121.7536 </r>
       <r>   -27.0474     1.2789   122.0000 </r>
       <r>   -26.8547     0.0002   122.0000 </r>
       <r>   -26.6621     0.0000   122.0000 </r>
       <r>   -26.4694     0.0000   122.0000 </r>
       <r>   -26.2767     0.0000   122.0000 </r>
       <r>   -26.0841     0.0000   122.0000 </r>
       <r>   -25.8914     0.0000   122.0000 </r>
       <r>   -25.6988     0.0000   122.0000 </r>
       <r>   -25.5061     0.0000   122.0000 </r>
       <r>   -25.3135     0.0000   122.0000 </r>
       <r>   -25.1208     0.0000   122.0000 </r>
       <r>   -24.9281     0.0000   122.0000 </r>
       <r>   -24.7355     0.0000   122.0000 </r>
       <r>   -24.5428     0.0000   122.0000 </r>
       <r>   -24.3502     0.0000   122.0000 </r>
       <r>   -24.1575     0.0000   122.0000 </r>
       <r>   -23.9648     0.0000   122.0000 </r>
       <r>   -23.7722     0.0239   122.0046 </r>
       <r>   -23.5795     8.4996   123.6421 </r>
       <r>   -23.3869    21.7781   127.8379 </r>
       <r>   -23.1942    20.8567   131.8561 </r>
       <r>   -23.0015    93.3367   149.8382 </r>
       <r>   -22.8089    60.7382   161.5400 </r>
       <r>   -22.6162    12.4472   163.9380 </r>
       <r>   -22.4236     0.3216   164.0000 </r>
       <r>   -22.2309     0.0000   164.0000 </r>
       <r>   -22.0383     0.0000   164.0000 </r>
       <r>   -21.8456     0.0000   164.0000 </r>
       <r>   -21.6529     0.0000   164.0000 </r>
       <r>   -21.4603     0.0000   164.0000 </r>
       <r>   -21.2676     0.0000   164.0000 </r>
       <r>   -21.0750     0.0000   164.0000 </r>
       <r>   -20.8823     0.0000   164.0000 </r>
       <r>   -20.6896     0.0000   164.0000 </r>
       <r>   -20.4970     0.0000   164.0000 </r>
       <r>   -20.3043     0.0462   164.0089 </r>
       <r>   -20.1117     5.8027   165.1268 </r>
       <r>   -19.9190    21.8303   169.3326 </r>
       <r>   -19.7263    41.3944   177.3076 </r>
       <r>   -19.5337    24.6058   182.0482 </r>
       <r>   -19.3410    51.7724   192.0226 </r>
       <r>   -19.1484    44.0940   200.5177 </r>
       <r>   -18.9557    25.6874   205.4666 </r>
       <r>   -18.7631     2.7678   205.9998 </r>
       <r>   -18.5704     0.0009   206.0000 </r>
       <r>   -18.3777     0.0000   206.0000 </r>
       <r>   -18.1851     0.0000   206.0000 </r>
       <r>   -17.9924     0.0000   206.0000 </r>
       <r>   -17.7998     0.0000   206.0000 </r>
       <r>   -17.6071     0.0000   206.0000 </r>
       <r>   -17.4144     0.0000   206.0000 </r>
       <r>   -17.2218     0.0000   206.0000 </r>
       <r>   -17.0291     0.0000   206.0000 </r>
       <r>   -16.8365     0.0000   206.0000 </r>
       <r>   -16.6438     0.0000   206.0000 </r>
       <r>   -16.4511     0.0000   206.0000 </r>
       <r>   -16.2585     0.0000   206.0000 </r>
       <r>   -16.0658     0.0000   206.0000 </r>
       <r>   -15.8732     0.0000   206.0000 </r>
       <r>   -15.6805     0.0000   206.0000 </r>
       <r>   -15.4879     0.0000   206.0000 </r>
       <r>   -15.2952     0.0000   206.0000 </r>
       <r>   -15.1025     0.0000   206.0000 </r>
       <r>   -14.9099     0.0000   206.0000 </r>
       <r>   -14.7172     0.0000   206.0000 </r>
       <r>   -14.5246     0.0000   206.0000 </r>
       <r>   -14.3319     0.0000   206.0000 </r>
       <r>   -14.1392     0.0000   206.0000 </r>
       <r>   -13.9466     0.0000   206.0000 </r>
       <r>   -13.7539     0.0000   206.0000 </r>
       <r>   -13.5613     0.0000   206.0000 </r>
       <r>   -13.3686     0.0000   206.0000 </r>
       <r>   -13.1759     0.0000   206.0000 </r>
       <r>   -12.9833     0.0000   206.0000 </r>
       <r>   -12.7906     0.0000   206.0000 </r>
       <r>   -12.5980     0.0000   206.0000 </r>
       <r>   -12.4053     0.0000   206.0000 </r>
       <r>   -12.2127     0.0000   206.0000 </r>
       <r>   -12.0200     0.0000   206.0000 </r>
       <r>   -11.8273     0.0000   206.0000 </r>
       <r>   -11.6347     0.0000   206.0000 </r>
       <r>   -11.4420     0.0000   206.0000 </r>
       <r>   -11.2494     0.0000   206.0000 </r>
       <r>   -11.0567     0.0000   206.0000 </r>
       <r>   -10.8640     0.0000   206.0000 </r>
       <r>   -10.6714     0.0000   206.0000 </r>
       <r>   -10.4787     0.0000   206.0000 </r>
       <r>   -10.2861     0.0000   206.0000 </r>
       <r>   -10.0934     0.0000   206.0000 </r>
       <r>    -9.9007     0.0000   206.0000 </r>
       <r>    -9.7081     0.0000   206.0000 </r>
       <r>    -9.5154     0.0000   206.0000 </r>
       <r>    -9.3228     0.0000   206.0000 </r>
       <r>    -9.1301     0.0000   206.0000 </r>
       <r>    -8.9375     0.0000   206.0000 </r>
       <r>    -8.7448     0.0587   206.0113 </r>
       <r>    -8.5521     2.5690   206.5062 </r>
       <r>    -8.3595     7.2453   207.9021 </r>
       <r>    -8.1668     8.3649   209.5137 </r>
       <r>    -7.9742    14.0718   212.2248 </r>
       <r>    -7.7815    10.2446   214.1985 </r>
       <r>    -7.5888    16.0132   217.2835 </r>
       <r>    -7.3962    16.3978   220.4427 </r>
       <r>    -7.2035    13.5098   223.0455 </r>
       <r>    -7.0109    18.0221   226.5176 </r>
       <r>    -6.8182    17.0594   229.8042 </r>
       <r>    -6.6255     9.2582   231.5879 </r>
       <r>    -6.4329     2.1368   231.9996 </r>
       <r>    -6.2402     0.0021   232.0000 </r>
       <r>    -6.0476     0.0000   232.0000 </r>
       <r>    -5.8549     0.0000   232.0000 </r>
       <r>    -5.6623     0.0292   232.0056 </r>
       <r>    -5.4696     2.1277   232.4155 </r>
       <r>    -5.2769     6.5509   233.6776 </r>
       <r>    -5.0843     1.6732   234.0000 </r>
       <r>    -4.8916     3.0786   234.5931 </r>
       <r>    -4.6990    10.9651   236.7056 </r>
       <r>    -4.5063    11.2151   238.8663 </r>
       <r>    -4.3136    11.9122   241.1613 </r>
       <r>    -4.1210    19.4543   244.9093 </r>
       <r>    -3.9283    23.8811   249.5102 </r>
       <r>    -3.7357    18.3514   253.0458 </r>
       <r>    -3.5430    15.8326   256.0961 </r>
       <r>    -3.3503    16.7148   259.3163 </r>
       <r>    -3.1577    16.7995   262.5529 </r>
       <r>    -2.9650    12.4443   264.9504 </r>
       <r>    -2.7724    13.4911   267.5496 </r>
       <r>    -2.5797     8.9666   269.2771 </r>
       <r>    -2.3871     3.4398   269.9398 </r>
       <r>    -2.1944     0.3108   269.9996 </r>
       <r>    -2.0017     0.0019   270.0000 </r>
       <r>    -1.8091     0.0000   270.0000 </r>
       <r>    -1.6164     0.0000   270.0000 </r>
       <r>    -1.4238     0.0000   270.0000 </r>
       <r>    -1.2311     0.0000   270.0000 </r>
       <r>    -1.0384     0.0000   270.0000 </r>
       <r>    -0.8458     0.0000   270.0000 </r>
       <r>    -0.6531     0.0315   270.0061 </r>
       <r>    -0.4605     0.8387   270.1676 </r>
       <r>    -0.2678     1.6059   270.4770 </r>
       <r>    -0.0751     7.8946   271.9980 </r>
       <r>     0.1175     9.4161   273.8121 </r>
       <r>     0.3102    12.1687   276.1565 </r>
       <r>     0.5028    13.9815   278.8502 </r>
       <r>     0.6955    18.4798   282.4105 </r>
       <r>     0.8881    24.2863   287.0894 </r>
       <r>     1.0808    27.0635   292.3035 </r>
       <r>     1.2735    23.0236   296.7392 </r>
       <r>     1.4661    25.2722   301.6081 </r>
       <r>     1.6588    30.3261   307.4506 </r>
       <r>     1.8514    31.8157   313.5802 </r>
       <r>     2.0441    32.8173   319.9028 </r>
       <r>     2.2368    42.6828   328.1260 </r>
       <r>     2.4294    50.8744   337.9274 </r>
       <r>     2.6221    56.8483   348.8797 </r>
       <r>     2.8147    57.6939   359.9949 </r>
       <r>     3.0074    62.8391   372.1014 </r>
       <r>     3.2001    61.0844   383.8699 </r>
       <r>     3.3927    57.3633   394.9214 </r>
       <r>     3.5854    53.9334   405.3122 </r>
       <r>     3.7780    45.7979   414.1356 </r>
       <r>     3.9707    46.5330   423.1005 </r>
       <r>     4.1633    41.0763   431.0143 </r>
       <r>     4.3560    34.5499   437.6706 </r>
       <r>     4.5487    29.7798   443.4080 </r>
       <r>     4.7413    27.9604   448.7948 </r>
       <r>     4.9340    24.6177   453.5376 </r>
       <r>     5.1266    17.8975   456.9857 </r>
       <r>     5.3193    14.6800   459.8140 </r>
       <r>     5.5120    11.3060   461.9922 </r>
       <r>     5.7046    10.4272   464.0011 </r>
       <r>     5.8973    13.5804   466.6174 </r>
       <r>     6.0899    17.4189   469.9733 </r>
       <r>     6.2826    16.6269   473.1767 </r>
       <r>     6.4753    21.6582   477.3493 </r>
       <r>     6.6679    20.9955   481.3943 </r>
       <r>     6.8606    19.2684   485.1065 </r>
       <r>     7.0532    23.1478   489.5661 </r>
       <r>     7.2459    26.2006   494.6139 </r>
       <r>     7.4385    31.1778   500.6206 </r>
       <r>     7.6312    23.0047   505.0527 </r>
       <r>     7.8239    22.1933   509.3284 </r>
       <r>     8.0165    28.6630   514.8506 </r>
       <r>     8.2092    33.5990   521.3237 </r>
       <r>     8.4018    37.1829   528.4873 </r>
       <r>     8.5945    37.3645   535.6859 </r>
       <r>     8.7872    40.4204   543.4733 </r>
       <r>     8.9798    42.0276   551.5703 </r>
       <r>     9.1725    40.1806   559.3114 </r>
       <r>     9.3651    41.1565   567.2406 </r>
       <r>     9.5578    40.0518   574.9569 </r>
       <r>     9.7504    41.2946   582.9127 </r>
       <r>     9.9431    37.1758   590.0749 </r>
       <r>    10.1358    37.1951   597.2409 </r>
       <r>    10.3284    35.9188   604.1610 </r>
       <r>    10.5211    37.2402   611.3356 </r>
       <r>    10.7137    36.2045   618.3107 </r>
       <r>    10.9064    24.6734   623.0643 </r>
       <r>    11.0991     4.7942   623.9879 </r>
       <r>    11.2917     0.0626   624.0000 </r>
       <r>    11.4844     0.0000   624.0000 </r>
       <r>    11.6770     0.0000   624.0000 </r>
       <r>    11.8697     0.0000   624.0000 </r>
       <r>    12.0624     0.0000   624.0000 </r>
       <r>    12.2550     0.0000   624.0000 </r>
       <r>    12.4477     0.0000   624.0000 </r>
       <r>    12.6403     0.0000   624.0000 </r>
       <r>    12.8330     0.0000   624.0000 </r>
       <r>    13.0256     0.0000   624.0000 </r>
       <r>    13.2183     0.0000   624.0000 </r>
       <r>    13.4110     0.0000   624.0000 </r>
       <r>    13.6036     0.0000   624.0000 </r>
      </set>
     </set>
    </array>
   </total>
  </dos>
 </calculation>
 <structure name="finalpos" >
  <crystal>
   <varray name="basis" >
    <v>       8.93303981       0.02003102      -0.01829881 </v>
    <v>       0.02613148       8.96729684      -0.00729586 </v>
    <v>       0.01378574      -0.02273639       8.94853841 </v>
   </varray>
   <i name="volume">    716.82074023 </i>
   <varray name="rec_basis" >
    <v>       0.11194435      -0.00032636      -0.00017329 </v>
    <v>      -0.00024948       0.11151728       0.00028373 </v>
    <v>       0.00022871       0.00009025       0.11174997 </v>
   </varray>
  </crystal>
  <varray name="positions" >
   <v>       0.99715236       0.99310114       0.99404207 </v>
   <v>       0.26153246       0.99645351       0.25211007 </v>
   <v>       0.24255153       0.50103872       0.24447106 </v>
   <v>       0.50155101       0.50076372       0.99817540 </v>
   <v>       0.50434383       0.24585038       0.74427102 </v>
   <v>       0.99694260       0.50290768       0.49933731 </v>
   <v>       0.50071964       0.75623159       0.74372367 </v>
   <v>       0.99621832       0.23502328       0.25710417 </v>
   <v>       0.75230308       0.74633603       0.00723607 </v>
   <v>       0.00340899       0.24886823       0.74337269 </v>
   <v>       0.75257514       0.25404934       0.50604795 </v>
   <v>       0.99972491       0.74621325       0.75362516 </v>
   <v>       0.24832032       0.49661706       0.75126238 </v>
   <v>       0.24877410       0.24262250       0.99398266 </v>
   <v>       0.50355403       0.25053648       0.25081977 </v>
   <v>       0.73883291       0.99048635       0.26393442 </v>
   <v>       0.75220851       0.24844874       0.99410505 </v>
   <v>       0.25501367       0.75561288       0.99895163 </v>
   <v>       0.25342825       0.24957166       0.50259763 </v>
   <v>       0.24897770       0.75089914       0.50158184 </v>
   <v>       0.24600821       0.24894493       0.24814019 </v>
   <v>       0.24810547      -0.00004463       0.00355187 </v>
   <v>       0.00030274       0.24504585      -0.00054030 </v>
   <v>       0.75547317       0.25096895       0.25523786 </v>
   <v>       0.74602746       0.99239397      -0.00194506 </v>
   <v>       0.49786004       0.99689341       0.27998707 </v>
   <v>       0.99274177       0.49105913       0.24950306 </v>
   <v>       0.50961911       0.76039061      -0.00749480 </v>
   <v>       0.98529247       0.00364533       0.74369246 </v>
   <v>       0.75402675       0.25700143       0.74422856 </v>
   <v>       0.76472226       0.01059353       0.50651602 </v>
   <v>       0.50979450       0.25083239       0.50126518 </v>
   <v>       0.53053519      -0.00001999       0.73721945 </v>
   <v>       0.00103890       0.00001519       0.25098122 </v>
   <v>       0.50273413       0.23978331      -0.00507201 </v>
   <v>       0.25361118       0.74906669       0.24962735 </v>
   <v>       0.24269533       0.50158493       0.99465847 </v>
   <v>       0.99787364       0.74365816       0.00470515 </v>
   <v>       0.74585949       0.74065349       0.25034570 </v>
   <v>       0.76177775       0.50312285       0.00649951 </v>
   <v>       0.49416310       0.50476321       0.24831934 </v>
   <v>       0.24964599       0.24766623       0.74836025 </v>
   <v>       0.25204306       0.00003350       0.51279636 </v>
   <v>       0.99798962       0.24945569       0.50109135 </v>
   <v>       0.24454872       0.75561473       0.75055689 </v>
   <v>       0.25306988       0.50122471       0.49930588 </v>
   <v>       0.98947923       0.75741971       0.50140267 </v>
   <v>       0.00003304       0.49968362       0.75249823 </v>
   <v>       0.75165781       0.75266760       0.74702636 </v>
   <v>       0.74702186       0.49668561       0.50499677 </v>
   <v>       0.50573967       0.76393579       0.49162185 </v>
   <v>       0.50460759       0.50176529       0.74286826 </v>
   <v>       0.52509396       0.00766507       0.95418029 </v>
   <v>       0.99510362       0.52080032       0.97624703 </v>
   <v>       0.50160831       0.73047633       0.27187975 </v>
   <v>       0.21984950       0.01095662       0.73890363 </v>
   <v>       0.46799278       0.99209836       0.52253956 </v>
   <v>       0.74192921       0.96490980       0.77362420 </v>
   <v>       0.00203761       0.77227848       0.25514723 </v>
   <v>       0.73129073       0.50813471       0.25291772 </v>
   <v>       0.01505816       0.00348043       0.49971571 </v>
   <v>       0.50580328       0.51405735       0.48806068 </v>
   <v>       0.75680419       0.51769571       0.76254138 </v>
   <v>       0.74319652       0.72930967       0.49153977 </v>
  </varray>
 </structure>
</modeling>
