HECN                                    
           1
     8.932500    0.000000    0.000000
     0.005753    9.055598    0.000000
     0.032102   -0.015743    8.937128
   Hf   Ta   Zr   N    C    Cr   W 
   7   6   7  13  19   6   6
Direct configuration=     1
   0.99688001  0.99204997  0.99924002
   0.25398003  0.99714995  0.24912000
   0.24803003  0.50165000  0.24955001
   0.50501006  0.49745998  0.99834003
   0.50479003  0.24631001  0.74710002
   0.99427992  0.50449999  0.49779000
   0.49950005  0.75481999  0.74817004
   0.99437004  0.23617001  0.26379999
   0.75718000  0.74102998  0.01100000
   0.00201000  0.25541000  0.73894001
   0.75307001  0.26163001  0.50533002
   0.99514004  0.74492004  0.74511997
   0.25679999  0.49462002  0.74545002
   0.24788999  0.24839000  0.99657997
   0.50833000  0.25676999  0.25376001
   0.74879004  0.98787999  0.26967001
   0.75719000  0.25603001  0.99591997
   0.24762001  0.74973999  0.99974006
   0.25272001  0.24823001  0.50015003
   0.24457999  0.75048999  0.49983999
   0.24982001  0.24942998  0.24825000
   0.26146999  0.99984002  0.99295996
   0.00281000  0.25024000  0.00130000
   0.75313998  0.24617000  0.25492002
   0.74767001  0.99748000  0.01202000
   0.50714994  0.99977000  0.24673000
   0.99051999  0.48088002  0.24100998
   0.50519005  0.76130999  0.00855000
   0.98896989  0.00202000  0.73708999
   0.75744996  0.24437997  0.74896999
   0.73632001  0.00417000  0.51063000
   0.50563996  0.23264999  0.49544997
   0.50008998  0.00061000  0.73471998
   0.99720000  0.99771992  0.25899999
   0.50427997  0.24673000  0.00262000
   0.25133999  0.74958002  0.24910999
   0.24328000  0.50072997  0.99510994
   0.99837005  0.74313996  0.00460000
   0.75633000  0.73891003  0.25767000
   0.75839004  0.50315998  0.00288000
   0.50700002  0.50333002  0.25878999
   0.24900999  0.25315000  0.74854000
   0.24446000  0.99823996  0.50287998
   0.99804009  0.24229999  0.50128003
   0.24177002  0.75340997  0.75018002
   0.25841001  0.50062002  0.50129001
   0.99000004  0.76215003  0.49746000
   0.99203996  0.50055999  0.75138002
   0.75036005  0.74888000  0.74756004
   0.74036002  0.50197000  0.50067003
   0.50575006  0.74958002  0.49720000
   0.50501003  0.50217998  0.73912003
   0.51588997  0.01358000  0.98075008
   0.99841994  0.50976998  0.98613004
   0.50379003  0.73926997  0.25905001
   0.23780002  0.01082000  0.74607998
   0.47957999  0.98308000  0.49717999
   0.74279003  0.97869994  0.76450995
   0.99864998  0.77573999  0.26102000
   0.73551001  0.51468004  0.26666001
   0.02362000  0.99783001  0.49557002
   0.50539000  0.52833005  0.49917999
   0.73876003  0.52828003  0.73814999
   0.75400003  0.72937999  0.49116997
HECN                                    
           1
     8.884821    0.011460   -0.009570
     0.017340    8.972870   -0.002130
     0.022335   -0.017655    8.897579
   Hf   Ta   Zr   N    C    Cr   W 
   7   6   7  13  19   6   6
Direct configuration=     2
   0.99614226  0.99450100  0.99442409
   0.26183213  0.99688213  0.24533050
   0.24741819  0.50181423  0.24578455
   0.50173347  0.49971737  0.99951855
   0.50486008  0.23774598  0.74604515
   0.99616129  0.50218935  0.49925789
   0.49766269  0.76616407  0.75243464
   0.99508280  0.23467127  0.26040676
   0.75379010  0.74387274  0.01029892
   0.00321684  0.25386621  0.74209855
   0.75068239  0.25697876  0.50621092
   0.99790748  0.74597584  0.74951801
   0.25331197  0.49613609  0.75043354
   0.24886318  0.24684344  0.99524101
   0.50652023  0.24942184  0.25220216
   0.73944980  0.99113589  0.26741992
   0.75612148  0.25309215  0.99498692
   0.25101526  0.75098378  0.99902627
   0.25549302  0.24679969  0.50148902
   0.24878955  0.75190486  0.50060946
   0.24831558  0.24991620  0.24877445
   0.25821063  0.00020152  0.99493683
   0.00215768  0.24786093  0.00074345
   0.75601402  0.24820904  0.25675298
   0.74751748  0.99507683  0.00543736
   0.50105467  0.99764422  0.24815908
   0.99196761  0.48247534  0.24422284
   0.50841771  0.75928048  0.00487799
   0.98877837  0.00252783  0.74109915
   0.75454483  0.24455217  0.74607927
   0.73846315  0.00405459  0.51258347
   0.50795291  0.23331290  0.50172612
   0.50286739  0.00024757  0.73814706
   0.00173645  0.00324938  0.25273479
   0.50487041  0.24653024 -0.00242996
   0.25164905  0.74866849  0.24950234
   0.24448841  0.50073615  0.99657575
   0.99582306  0.74293619  0.00363858
   0.75244344  0.74045919  0.25197138
   0.75934969  0.50568296  0.00258286
   0.50011112  0.50779296  0.25408526
   0.24979458  0.25107634  0.74827444
   0.25381112  0.99792968  0.50564887
   0.99665958  0.24580580  0.50218664
   0.24311759  0.75285990  0.75006648
   0.25547143  0.50080232  0.49898795
   0.99157425  0.75842322  0.50213491
   0.99313217  0.50043149  0.75219342
   0.74835782  0.75778242  0.74942575
   0.74682948  0.49523272  0.50307043
   0.50512166  0.75753038  0.49440988
   0.50088801  0.50089066  0.74429651
   0.51780255  0.01477194  0.97968285
   0.99953651  0.51178791  0.98271876
   0.50399174  0.73762894  0.25843506
   0.23749720  0.01265405  0.74684590
   0.47585265  0.98322914  0.49881259
   0.73914276  0.97416902  0.76751326
   0.00318851  0.77228897  0.25589154
   0.73755450  0.51093868  0.25889804
   0.01874203  0.00072922  0.50046213
   0.50291124  0.52368463  0.49666925
   0.74336095  0.52020795  0.74395489
   0.75287418  0.73703252  0.49448266
HECN                                    
           1
     8.883967    0.011665   -0.009742
     0.017548    8.971387   -0.002168
     0.022160   -0.017689    8.896870
   Hf   Ta   Zr   N    C    Cr   W 
   7   6   7  13  19   6   6
Direct configuration=     3
   0.99612882  0.99454532  0.99433742
   0.26197349  0.99687709  0.24526246
   0.24740710  0.50181720  0.24571678
   0.50167443  0.49975826  0.99953970
   0.50486152  0.23759113  0.74602613
   0.99619526  0.50214753  0.49928433
   0.49762941  0.76636923  0.75251140
   0.99509561  0.23464414  0.26034571
   0.75372897  0.74392421  0.01028625
   0.00323868  0.25383828  0.74215541
   0.75063951  0.25689472  0.50622670
   0.99795738  0.74599488  0.74959721
   0.25324921  0.49616360  0.75052316
   0.24888071  0.24681545  0.99521693
   0.50648778  0.24928902  0.25217406
   0.73928144  0.99119496  0.26737926
   0.75610229  0.25303906  0.99497009
   0.25107637  0.75100619  0.99901350
   0.25554302  0.24677377  0.50151316
   0.24886535  0.75193035  0.50062340
   0.24828848  0.24992503  0.24878386
   0.25815196  0.00020814  0.99497234
   0.00214598  0.24781793  0.00073341
   0.75606577  0.24824585  0.25678603
   0.74751466  0.99503336  0.00531889
   0.50094497  0.99760593  0.24818467
   0.99199371  0.48250416  0.24428069
   0.50847582  0.75924369  0.00481197
   0.98877498  0.00253704  0.74117129
   0.75449245  0.24455533  0.74602720
   0.73850179  0.00405246  0.51261867
   0.50799467  0.23332485  0.50183911
   0.50291749  0.00024097  0.73820878
   0.00181791  0.00334923  0.25262216
   0.50488095  0.24652659 -0.00252082
   0.25165465  0.74865201  0.24950941
   0.24451021  0.50073624  0.99660215
   0.99577717  0.74293256  0.00362123
   0.75237329  0.74048726  0.25186877
   0.75936691  0.50572855  0.00257755
   0.49998685  0.50787379  0.25400048
   0.24980875  0.25103883  0.74826966
   0.25397960  0.99792387  0.50569887
   0.99663465  0.24586922  0.50220294
   0.24314187  0.75284992  0.75006446
   0.25541846  0.50080567  0.49894646
   0.99160278  0.75835582  0.50221905
   0.99315186  0.50042914  0.75220808
   0.74832158  0.75794344  0.74945932
   0.74694621  0.49511076  0.50311372
   0.50511010  0.75767413  0.49435970
   0.50081390  0.50086746  0.74438958
   0.51783694  0.01479344  0.97966369
   0.99955651  0.51182435  0.98265741
   0.50399540  0.73759927  0.25842399
   0.23749171  0.01268722  0.74685969
   0.47578554  0.98323193  0.49884190
   0.73907723  0.97408720  0.76756722
   0.00327023  0.77222645  0.25579933
   0.73759126  0.51087096  0.25875839
   0.01865420  0.00078177  0.50055009
   0.50286666  0.52360069  0.49662400
   0.74344412  0.52006192  0.74405940
   0.75285378  0.73717092  0.49454228
HECN                                    
           1
     8.939844    0.022366   -0.009087
     0.028423    8.998525   -0.006408
     0.022991   -0.021911    8.944408
   Hf   Ta   Zr   N    C    Cr   W 
   7   6   7  13  19   6   6
Direct configuration=     4
   0.99649025  0.99497577  0.99145287
   0.26268423  0.99649665  0.24486670
   0.24531141  0.50088399  0.24559283
   0.50127522  0.49935585  0.99957460
   0.50401817  0.23514372  0.74733018
   0.99885811  0.50137432  0.50015084
   0.49755170  0.76675828  0.75242805
   0.99664432  0.23595707  0.25896538
   0.75166027  0.74576605  0.00854287
   0.00390415  0.25212690  0.74445639
   0.75008038  0.25245823  0.50690801
   0.99770830  0.74590182  0.75309238
   0.25112530  0.49639478  0.75170724
   0.24981933  0.24541724  0.99501977
   0.50533539  0.24943802  0.25062641
   0.73925983  0.99105532  0.26452092
   0.75392813  0.25222573  0.99464341
   0.25135161  0.75292586  0.99923779
   0.25561016  0.24660020  0.50175768
   0.24910528  0.75227382  0.50080250
   0.24762523  0.24939939  0.24860601
   0.25586820  0.00023358  0.99631246
   0.00200371  0.24661667  0.00008917
   0.75625323  0.24926875  0.25691564
   0.74674622  0.99417162  0.00003041
   0.49828534  0.99588569  0.24838638
   0.99297605  0.48571555  0.24627502
   0.50951651  0.75859096  0.00189185
   0.98920648  0.00318877  0.74382417
   0.75338510  0.24625913  0.74455270
   0.74317946  0.00299781  0.51330214
   0.50931621  0.23589489  0.50323664
   0.50568085  0.00084786  0.74236361
   0.00253952 -0.00035846  0.25078377
   0.50453313  0.24628609 -0.00404474
   0.25256358  0.74873304  0.24888384
   0.24449368  0.50100756  0.99657669
   0.99652293  0.74306596  0.00344162
   0.75002200  0.74139764  0.25199358
   0.75986980  0.50527094  0.00259213
   0.49847282  0.50852317  0.25187431
   0.25020513  0.24961162  0.74823390
   0.25552363  0.99868520  0.50804188
   0.99713593  0.24779630  0.50204824
   0.24426733  0.75334964  0.75077303
   0.25430226  0.50082906  0.49860900
   0.99329013  0.75689009  0.50286391
   0.99525844  0.50010697  0.75331529
   0.74821861  0.75798103  0.74920279
   0.74735551  0.49628200  0.50209316
   0.50609040  0.76056485  0.49325813
   0.50026852  0.50153870  0.74539210
   0.52027055  0.01397176  0.97803739
   0.99978020  0.51398895  0.97998303
   0.50224705  0.73501117  0.25911109
   0.23436809  0.01306677  0.74636599
   0.47405505  0.98424055  0.49995181
   0.73533417  0.97325974  0.77157741
   0.00457921  0.77493652  0.25313985
   0.73595461  0.50997728  0.25532067
   0.02066258  0.00221841  0.50195894
   0.50556129  0.52313558  0.49483965
   0.74525054  0.52089187  0.75040360
   0.74923957  0.73513947  0.49591507
HECN                                    
           1
     8.940917    0.022571   -0.009075
     0.028632    8.999046   -0.006490
     0.023007   -0.021992    8.945321
   Hf   Ta   Zr   N    C    Cr   W 
   7   6   7  13  19   6   6
Direct configuration=     5
   0.99649715  0.99498398  0.99139776
   0.26269780  0.99648934  0.24485914
   0.24527144  0.50086617  0.24559046
   0.50126761  0.49934815  0.99957526
   0.50400213  0.23509688  0.74735507
   0.99890895  0.50135946  0.50016738
   0.49755020  0.76676573  0.75242646
   0.99667385  0.23598216  0.25893902
   0.75162074  0.74580135  0.00850958
   0.00391688  0.25209414  0.74450033
   0.75006981  0.25237330  0.50692099
   0.99770354  0.74590007  0.75315915
   0.25108475  0.49639926  0.75172986
   0.24983728  0.24539044  0.99501598
   0.50531340  0.24944089  0.25059684
   0.73925943  0.99105262  0.26446632
   0.75388665  0.25221021  0.99463716
   0.25135681  0.75296262  0.99924209
   0.25561145  0.24659688  0.50176235
   0.24910985  0.75228040  0.50080593
   0.24761259  0.24938934  0.24860260
   0.25582461  0.00023413  0.99633807
   0.00200103  0.24659367  0.00007685
   0.75625679  0.24928834  0.25691812
   0.74673158  0.99415509 -0.00007063
   0.49823462  0.99585281  0.24839022
   0.99299472  0.48577704  0.24631315
   0.50953639  0.75857842  0.00183605
   0.98921469  0.00320126  0.74387485
   0.75336393  0.24629176  0.74452455
   0.74326876  0.00297752  0.51331518
   0.50934137  0.23594408  0.50326336
   0.50573357  0.00085945  0.74244298
   0.00255338 -0.00042948  0.25074862
   0.50452650  0.24628148 -0.00407385
   0.25258093  0.74873457  0.24887189
   0.24449336  0.50101275  0.99657621
   0.99653716  0.74306849  0.00343819
   0.74997710  0.74141513  0.25199597
   0.75987941  0.50526217  0.00259241
   0.49844391  0.50853562  0.25183370
   0.25021272  0.24958428  0.74823320
   0.25555307  0.99869976  0.50808664
   0.99714545  0.24783319  0.50204531
   0.24428880  0.75335919  0.75078657
   0.25428096  0.50082954  0.49860256
   0.99332237  0.75686199  0.50287621
   0.99529865  0.50010076  0.75333644
   0.74821665  0.75798175  0.74919789
   0.74736330  0.49630441  0.50207368
   0.50610904  0.76062017  0.49323712
   0.50025809  0.50155157  0.74541126
   0.52031702  0.01395595  0.97800631
   0.99978442  0.51403037  0.97993195
   0.50221374  0.73496166  0.25912419
   0.23430847  0.01307410  0.74635657
   0.47402200  0.98425991  0.49997303
   0.73526274  0.97324402  0.77165402
   0.00460413  0.77498836  0.25308907
   0.73592340  0.50996018  0.25525499
   0.02070088  0.00224589  0.50198586
   0.50561273  0.52312660  0.49480556
   0.74528499  0.52090778  0.75052481
   0.74917063  0.73510066  0.49594128
HECN                                    
           1
     8.903489    0.028423   -0.009804
     0.034492    8.964077   -0.005725
     0.022114   -0.021164    8.895367
   Hf   Ta   Zr   N    C    Cr   W 
   7   6   7  13  19   6   6
Direct configuration=     6
   0.99705970  0.99507659  0.98960230
   0.26167456  0.99653871  0.24590477
   0.24341459  0.50021965  0.24587405
   0.50111520  0.49886760  0.99896058
   0.50295816  0.23560196  0.74807980
   0.99946478  0.50122219  0.50123190
   0.49789929  0.76418466  0.75070332
   0.99757179  0.23526441  0.25803270
   0.75062627  0.74679679  0.00703770
   0.00480659  0.25014121  0.74536779
   0.75034097  0.24903862  0.50737116
   0.99756067  0.74547637  0.75539436
   0.25020990  0.49618029  0.75192787
   0.25011665  0.24422392  0.99484334
   0.50471733  0.25088466  0.24985252
   0.74006230  0.99059121  0.26252168
   0.75251452  0.25151084  0.99450752
   0.25139350  0.75416537  0.99934646
   0.25554909  0.24728274  0.50203670
   0.24936295  0.75202141  0.50103236
   0.24722438  0.24875142  0.24830977
   0.25312487  0.00028546  0.99790863
   0.00160403  0.24564799 -0.00071763
   0.75599735  0.25012399  0.25655159
   0.74634896  0.99378711 -0.00428638
   0.49793766  0.99461903  0.24871323
   0.99400662  0.48857530  0.24862972
   0.50983278  0.75807614 -0.00097897
   0.99043385  0.00388250  0.74521521
   0.75266840  0.24854231  0.74373651
   0.74969401  0.00309511  0.51224389
   0.51056423  0.23976605  0.50316240
   0.50914801  0.00079387  0.74689809
   0.00239386 -0.00151183  0.25027604
   0.50378820  0.24584748 -0.00422783
   0.25315630  0.74876160  0.24848561
   0.24398548  0.50128689  0.99608347
   0.99715606  0.74356466  0.00390224
   0.74835285  0.74153706  0.25278549
   0.76025239  0.50462954  0.00273167
   0.49756309  0.50775459  0.25080408
   0.25034095  0.24858827  0.74841909
   0.25598310  0.99934491  0.51024044
   0.99787101  0.24890553  0.50205545
   0.24468834  0.75402933  0.75142134
   0.25395432  0.50098778  0.49903479
   0.99357781  0.75664925  0.50216647
   0.99729145  0.49975359  0.75415429
   0.74845440  0.75683537  0.74856433
   0.74780775  0.49690452  0.50173189
   0.50709949  0.76256934  0.49241792
   0.50102098  0.50287748  0.74481705
   0.52361020  0.01243173  0.97570969
   0.99936038  0.51720905  0.97716994
   0.50031387  0.73230989  0.26083002
   0.22932156  0.01318742  0.74512048
   0.47229388  0.98580279  0.50157618
   0.73075145  0.97223337  0.77610915
   0.00510589  0.77565839  0.25160287
   0.73327634  0.51027096  0.25274152
   0.02235525  0.00318848  0.50299898
   0.50850410  0.52271327  0.49258731
   0.74729152  0.52241613  0.75659690
   0.74607410  0.73202740  0.49607835
HECN                                    
           1
     8.910051    0.027397   -0.009676
     0.033464    8.970208   -0.005859
     0.022271   -0.021309    8.904125
   Hf   Ta   Zr   N    C    Cr   W 
   7   6   7  13  19   6   6
Direct configuration=     7
   0.99696069  0.99506033  0.98991884
   0.26185470  0.99652992  0.24572044
   0.24374142  0.50033323  0.24582407
   0.50114199  0.49895215  0.99906895
   0.50314201  0.23551295  0.74795205
   0.99936689  0.50124643  0.50104421
   0.49783755  0.76463895  0.75100707
   0.99741363  0.23539083  0.25819246
   0.75080149  0.74662146  0.00729723
   0.00464971  0.25048505  0.74521481
   0.75029283  0.24962557  0.50729174
   0.99758574  0.74555095  0.75500028
   0.25036389  0.49621873  0.75189297
   0.25006733  0.24442926  0.99487376
   0.50482245  0.25063047  0.24998378
   0.73992093  0.99067248  0.26286451
   0.75275601  0.25163377  0.99453039
   0.25138719  0.75395369  0.99932807
   0.25556014  0.24716202  0.50198834
   0.24931836  0.75206703  0.50099243
   0.24729266  0.24886364  0.24836139
   0.25360015  0.00027613  0.99763178
   0.00167382  0.24581438 -0.00057757
   0.75604313  0.24997688  0.25661622
   0.74641634  0.99385178 -0.00354313
   0.49798979  0.99483614  0.24865626
   0.99382877  0.48808295  0.24822133
   0.50978059  0.75816453 -0.00048269
   0.99021927  0.00376276  0.74497889
   0.75279113  0.24814612  0.74387549
   0.74856284  0.00307515  0.51243267
   0.51034939  0.23909352  0.50318024
   0.50854680  0.00080588  0.74611259
   0.00242183 -0.00132136  0.25035934
   0.50391813  0.24592377 -0.00420068
   0.25305501  0.74875691  0.24855371
   0.24407494  0.50123857  0.99617035
   0.99704715  0.74347742  0.00382042
   0.74863881  0.74151542  0.25264633
   0.76018665  0.50474093  0.00270711
   0.49771809  0.50789194  0.25098561
   0.25031825  0.24876359  0.74838630
   0.25590744  0.99923144  0.50986072
   0.99774340  0.24871688  0.50205367
   0.24461807  0.75391144  0.75130943
   0.25401184  0.50095990  0.49895860
   0.99353282  0.75668671  0.50229160
   0.99694055  0.49981493  0.75401006
   0.74841242  0.75703716  0.74867601
   0.74772958  0.49679895  0.50179215
   0.50692536  0.76222639  0.49256236
   0.50088683  0.50264420  0.74492182
   0.52303027  0.01270035  0.97611452
   0.99943545  0.51664951  0.97765694
   0.50064801  0.73277641  0.26052927
   0.23019957  0.01316688  0.74533848
   0.47259828  0.98553106  0.50129359
   0.73154550  0.97241078  0.77532375
   0.00501766  0.77554050  0.25186489
   0.73374245  0.51021592  0.25318469
   0.02206408  0.00302279  0.50282036
   0.50799505  0.52278632  0.49297834
   0.74693835  0.52215098  0.75552636
   0.74661890  0.73256794  0.49605418
HECN                                    
           1
     8.921317    0.025596   -0.011953
     0.031643    8.988914   -0.001246
     0.020019   -0.016767    8.908589
   Hf   Ta   Zr   N    C    Cr   W 
   7   6   7  13  19   6   6
Direct configuration=     8
   0.99763541  0.99489368  0.99022758
   0.26061323  0.99706286  0.24770012
   0.24274358  0.50019326  0.24603487
   0.50073526  0.49915206  0.99833689
   0.50257520  0.23833366  0.74731384
   0.99776967  0.50173664  0.50156383
   0.49817943  0.76108728  0.74854821
   0.99739050  0.23393961  0.25758580
   0.75088959  0.74670863  0.00674345
   0.00513197  0.24893528  0.74480003
   0.75121076  0.24811568  0.50722440
   0.99803725  0.74550448  0.75484755
   0.25079897  0.49593339  0.75123293
   0.24946145  0.24396405  0.99505572
   0.50463302  0.25164076  0.25044655
   0.74048793  0.99047423  0.26253727
   0.75282506  0.25104101  0.99463444
   0.25197273  0.75397853  0.99921735
   0.25580169  0.24834812  0.50193755
   0.24988011  0.75137899  0.50114646
   0.24717690  0.24854619  0.24818004
   0.25148435  0.00028581  0.99866691
   0.00111593  0.24564740 -0.00102744
   0.75577005  0.25046554  0.25590552
   0.74698675  0.99396568 -0.00428282
   0.49932270  0.99441470  0.24911013
   0.99432507  0.48963002  0.24970518
   0.50920761  0.75801387 -0.00176923
   0.99147444  0.00393548  0.74434232
   0.75265486  0.24994897  0.74422347
   0.75446529  0.00463151  0.51045282
   0.51100529  0.24285874  0.50213180
   0.51122407  0.00013029  0.74855339
   0.00182422  0.00074677  0.25073314
   0.50319331  0.24516540 -0.00337297
   0.25334889  0.74849962  0.24882668
   0.24312145  0.50136351  0.99560476
   0.99715360  0.74405498  0.00470761
   0.74796783  0.74121141  0.25281191
   0.76063229  0.50433860  0.00327852
   0.49637550  0.50612382  0.25070123
   0.25036173  0.24839833  0.74864010
   0.25619638  0.99934976  0.51123991
   0.99834621  0.24867445  0.50206646
   0.24414170  0.75458343  0.75134484
   0.25439100  0.50123008  0.49972885
   0.99242968  0.75743785  0.50111733
   0.99791735  0.49951010  0.75417826
   0.74876388  0.75666460  0.74817420
   0.74861783  0.49537808  0.50261443
   0.50700421  0.76352182  0.49183182
   0.50237331  0.50364709  0.74344750
   0.52517789  0.01129787  0.97442098
   0.99860480  0.51946966  0.97657382
   0.49936126  0.73156826  0.26236796
   0.22561147  0.01302581  0.74408987
   0.47207491  0.98750043  0.50346351
   0.72827587  0.97126514  0.77723741
   0.00480316  0.77284789  0.25197910
   0.73281197  0.51050235  0.25191015
   0.02070179  0.00327592  0.50337626
   0.50864944  0.52104739  0.49130188
   0.74926351  0.52164854  0.75912030
   0.74551781  0.73175435  0.49515741
HECN                                    
           1
     8.925447    0.024936   -0.012787
     0.030975    8.995771    0.000445
     0.019193   -0.015103    8.910225
   Hf   Ta   Zr   N    C    Cr   W 
   7   6   7  13  19   6   6
Direct configuration=     9
   0.99788241  0.99483271  0.99034078
   0.26015899  0.99725734  0.24842516
   0.24237831  0.50014195  0.24611204
   0.50058631  0.49922529  0.99806863
   0.50236787  0.23936547  0.74707945
   0.99718506  0.50191573  0.50175395
   0.49830407  0.75978867  0.74764811
   0.99738187  0.23340891  0.25736383
   0.75092179  0.74674062  0.00654056
   0.00530835  0.24836854  0.74464841
   0.75154666  0.24756349  0.50720010
   0.99820252  0.74548755  0.75479165
   0.25095815  0.49582918  0.75099122
   0.24923964  0.24379381  0.99512241
   0.50456380  0.25201020  0.25061588
   0.74069544  0.99040182  0.26241748
   0.75285030  0.25082419  0.99467268
   0.25218707  0.75398768  0.99917684
   0.25589020  0.24878198  0.50191874
   0.25008572  0.75112734  0.50120307
   0.24713448  0.24843010  0.24811365
   0.25070992  0.00028899  0.99904592
   0.00091165  0.24558637 -0.00119227
   0.75567005  0.25064438  0.25564504
   0.74719550  0.99400752 -0.00455378
   0.49981064  0.99426057  0.24927661
   0.99450702  0.49019565  0.25024853
   0.50899774  0.75795896 -0.00224058
   0.99193388  0.00399886  0.74410919
   0.75260515  0.25060832  0.74435060
   0.75662593  0.00520158  0.50972776
   0.51124560  0.24423618  0.50174705
   0.51220431 -0.00011707  0.74944796
   0.00160565  0.00150312  0.25086963
   0.50292799  0.24488780 -0.00306967
   0.25345647  0.74840548  0.24892676
   0.24277237  0.50140924  0.99539744
   0.99719270  0.74426608  0.00503254
   0.74772220  0.74110014  0.25287256
   0.76079544  0.50419137  0.00348797
   0.49588386  0.50547705  0.25059726
   0.25037765  0.24826469  0.74873316
   0.25630229  0.99939280  0.51174517
   0.99856687  0.24865898  0.50207121
   0.24396737  0.75482918  0.75135764
   0.25452989  0.50132880  0.50001102
   0.99202580  0.75771273  0.50068689
   0.99827492  0.49939864  0.75424003
   0.74889246  0.75652845  0.74799046
   0.74894297  0.49485829  0.50291602
   0.50703311  0.76399579  0.49156395
   0.50291740  0.50401431  0.74290733
   0.52596379  0.01078537  0.97380102
   0.99830085  0.52050132  0.97617640
   0.49889029  0.73112592  0.26304167
   0.22393178  0.01297410  0.74363204
   0.47188367  0.98822032  0.50425803
   0.72707906  0.97084549  0.77793838
   0.00472444  0.77186298  0.25202143
   0.73247125  0.51060729  0.25144308
   0.02020316  0.00336831  0.50357974
   0.50888870  0.52041171  0.49068810
   0.75011498  0.52146427  0.76043725
   0.74511459  0.73145685  0.49482893
HECN                                    
           1
     8.938074    0.020245   -0.014049
     0.026346    8.976018    0.000908
     0.017997   -0.014618    8.930384
   Hf   Ta   Zr   N    C    Cr   W 
   7   6   7  13  19   6   6
Direct configuration=    10
   0.99831636  0.99393346  0.99178317
   0.26056304  0.99672324  0.24998041
   0.24225999  0.50051727  0.24602184
   0.50031857  0.49982074  0.99844413
   0.50301020  0.24099662  0.74636149
   0.99623930  0.50229365  0.50144306
   0.49872558  0.75861345  0.74618249
   0.99668354  0.23443678  0.25761154
   0.75107158  0.74642336  0.00686914
   0.00504577  0.24800370  0.74381273
   0.75281003  0.24759088  0.50715062
   0.99856018  0.74584865  0.75335503
   0.25090810  0.49579302  0.75051285
   0.24850248  0.24379299  0.99517500
   0.50467694  0.25130778  0.25104656
   0.74071273  0.98971928  0.26291066
   0.75292007  0.25066972  0.99453492
   0.25306365  0.75400493  0.99920466
   0.25550540  0.24885417  0.50193207
   0.25001213  0.75119861  0.50095074
   0.24696064  0.24854946  0.24829574
   0.24944685  0.00018830  0.99973794
   0.00062147  0.24552809 -0.00095677
   0.75598015  0.25056653  0.25540681
   0.74837362  0.99382201 -0.00259381
   0.49981772  0.99500256  0.25005519
   0.99416121  0.49086888  0.25052746
   0.50859288  0.75770255 -0.00230533
   0.99183106  0.00339472  0.74338016
   0.75291276  0.25157538  0.74478881
   0.75992413  0.00719663  0.50828952
   0.51136189  0.24670073  0.50152063
   0.51322939 -0.00002960  0.74863850
   0.00147141 -0.00017887  0.25105146
   0.50301887  0.24399847 -0.00310973
   0.25355169  0.74834527  0.24950249
   0.24218033  0.50139567  0.99509811
   0.99703071  0.74462567  0.00502013
   0.74742220  0.74094242  0.25178460
   0.76116813  0.50438639  0.00461499
   0.49494686  0.50476540  0.25003247
   0.25035486  0.24831363  0.74862572
   0.25608803  0.99950044  0.51244146
   0.99874317  0.24833325  0.50155160
   0.24344637  0.75505296  0.75080439
   0.25460024  0.50142346  0.50021109
   0.99104763  0.75779498  0.50072664
   0.99855798  0.49935958  0.75412743
   0.74931791  0.75689584  0.74784130
   0.74831444  0.49401955  0.50370340
   0.50657816  0.76441584  0.49042504
   0.50382624  0.50329429  0.74234355
   0.52585947  0.01068420  0.97317104
   0.99744347  0.52187921  0.97649836
   0.49852672  0.73019938  0.26455268
   0.22229426  0.01313849  0.74243550
   0.47223732  0.98945587  0.50715975
   0.72687285  0.96948882  0.77721909
   0.00437384  0.77268458  0.25302676
   0.73304352  0.51056019  0.25153247
   0.01848043  0.00331492  0.50292647
   0.50863139  0.51883831  0.48971000
   0.75224104  0.52022689  0.76087247
   0.74521141  0.73123611  0.49403149
HECN                                    
           1
     8.942017    0.018780   -0.014442
     0.024901    8.969850    0.001052
     0.017623   -0.014467    8.936679
   Hf   Ta   Zr   N    C    Cr   W 
   7   6   7  13  19   6   6
Direct configuration=    11
   0.99845159  0.99365210  0.99223258
   0.26068901  0.99655614  0.25046497
   0.24222315  0.50063471  0.24599372
   0.50023519  0.50000702  0.99856110
   0.50321072  0.24150720  0.74613782
   0.99594445  0.50241177  0.50134615
   0.49885676  0.75824577  0.74572591
   0.99646597  0.23475832  0.25768866
   0.75111826  0.74632409  0.00697152
   0.00496380  0.24788950  0.74355237
   0.75320396  0.24759966  0.50713525
   0.99867170  0.74596173  0.75290747
   0.25089247  0.49578171  0.75036381
   0.24827263  0.24379261  0.99519135
   0.50471212  0.25108798  0.25118076
   0.74071804  0.98950567  0.26306433
   0.75294180  0.25062140  0.99449200
   0.25333698  0.75401047  0.99921337
   0.25538543  0.24887669  0.50193620
   0.24998918  0.75122091  0.50087212
   0.24690646  0.24858679  0.24835245
   0.24905302  0.00015657  0.99995348
   0.00053099  0.24550979 -0.00088341
   0.75607681  0.25054222  0.25533260
   0.74874103  0.99376411 -0.00198313
   0.49982008  0.99523474  0.25029775
   0.99405351  0.49107950  0.25061434
   0.50846660  0.75762225 -0.00232552
   0.99179887  0.00320565  0.74315304
   0.75300885  0.25187806  0.74492533
   0.76095280  0.00782153  0.50784155
   0.51139854  0.24747201  0.50145006
   0.51354901 -0.00000205  0.74838636
   0.00142929 -0.00070525  0.25110813
   0.50304707  0.24372018 -0.00312219
   0.25358140  0.74832644  0.24968186
   0.24199572  0.50139133  0.99500483
   0.99698026  0.74473817  0.00501625
   0.74732858  0.74089303  0.25144563
   0.76128442  0.50444746  0.00496613
   0.49465456  0.50454255  0.24985648
   0.25034775  0.24832894  0.74859224
   0.25602126  0.99953408  0.51265838
   0.99879807  0.24823135  0.50138973
   0.24328393  0.75512291  0.75063200
   0.25462220  0.50145309  0.50027342
   0.99074265  0.75782056  0.50073898
   0.99864622  0.49934741  0.75409237
   0.74945062  0.75701088  0.74779485
   0.74811836  0.49375696  0.50394869
   0.50643632  0.76454724  0.49007019
   0.50410949  0.50306913  0.74216795
   0.52582690  0.01065254  0.97297477
   0.99717636  0.52231026  0.97659861
   0.49841327  0.72990935  0.26502343
   0.22178363  0.01318969  0.74206264
   0.47234791  0.98984253  0.50806377
   0.72680831  0.96906424  0.77699501
   0.00426469  0.77294161  0.25333994
   0.73322195  0.51054555  0.25156035
   0.01794323  0.00329794  0.50272287
   0.50855086  0.51834590  0.48940530
   0.75290380  0.51984001  0.76100817
   0.74524153  0.73116706  0.49378305
HECN                                    
           1
     8.923864    0.019661   -0.015705
     0.025731    8.969598   -0.001690
     0.016303   -0.017191    8.919632
   Hf   Ta   Zr   N    C    Cr   W 
   7   6   7  13  19   6   6
Direct configuration=    12
   0.99847605  0.99322196  0.99302597
   0.26149851  0.99656173  0.25148331
   0.24224050  0.50050562  0.24590757