HECN                                    
           1
     8.832540   -0.006492   -0.000259
    -0.006505    8.826739   -0.009875
    -0.000253   -0.009851    8.783778
   Ti   W    V    N    C    Zr   Ta
   7   6   6  13  19   7   6
Direct configuration=     1
   0.00046877  0.00303954  0.01031360
   0.24249069  0.00824884  0.24634558
   0.26230744  0.48668388  0.25189643
   0.50010889  0.49873824  0.99873661
   0.49909952  0.25683788  0.75457052
   0.00914598  0.49446061  0.49717717
   0.50089794  0.74381558  0.75206768
   0.00259850  0.24210166  0.25335536
   0.76144114  0.74750445  0.00304142
   0.00318835  0.26037234  0.74671215
   0.75686350  0.26430831  0.49225309
   0.99748263  0.73727201  0.74775835
   0.25638692  0.49763545  0.75018566
   0.26682244  0.26372013  0.98899267
   0.50768492  0.26094214  0.24023552
   0.76444607  0.99307957  0.23820617
   0.72599868  0.25121820  0.01952762
   0.23153875  0.72984847  0.00360721
   0.23435609  0.24905431  0.51457480
   0.25268420  0.24907965  0.24860160
   0.24461254  0.00857988  0.00822976
   0.99779428  0.24065607  0.00063852
   0.74577214  0.24188376  0.24736054
   0.75680576  0.00570870  0.00557233
   0.50274439  0.00980839  0.24843098
   0.99950650  0.49768419  0.25758599
   0.50027175  0.74623838  0.99269414
   0.99913721  0.00229083  0.75161852
   0.74621959  0.25321591  0.75064443
   0.75695218  0.00163156  0.49401212
   0.49933888  0.25717595  0.49951329
   0.50217670  0.00442140  0.75060737
   0.00105548  0.00042878  0.24564670
   0.49660418  0.25834529  0.00103937
   0.24215760  0.74768782  0.23913938
   0.25523904  0.49984175  0.00424415
   0.00570527  0.75358173  0.00223326
   0.75442018  0.74711482  0.25446084
   0.74185007  0.49114820  0.99964083
   0.49529712  0.49281767  0.24712191
   0.25384905  0.25263916  0.75124287
   0.24500189  0.00931616  0.49382818
   0.00326498  0.25394072  0.50087472
   0.25272416  0.74605470  0.76230788
   0.25274632  0.48765316  0.49606925
   0.99263755  0.75419207  0.49832041
   0.99835739  0.49849064  0.74397930
   0.74484471  0.74621684  0.75033626
   0.75697720  0.49978644  0.49648768
   0.50443388  0.74719353  0.50625016
   0.50259010  0.50002901  0.75009544
   0.49766613  0.00350323  0.00449352
   0.99875485  0.49330119  0.00524038
   0.49679660  0.74729754  0.24562594
   0.24607563  0.00037831  0.75721696
   0.49812168  0.00868100  0.49412187
   0.75324199  0.99968744  0.75207381
   0.24957059  0.74820092  0.49836518
   0.00067185  0.76493251  0.25205027
   0.73076015  0.49397980  0.24212837
   0.00854898  0.01093253  0.48401493
   0.50207062  0.50150064  0.49876995
   0.74400768  0.50433527  0.75658275
   0.74661440  0.72953551  0.50093099
HECN                                    
           1
     8.865822   -0.003433    0.010663
    -0.003470    8.846552   -0.004819
     0.010609   -0.004824    8.792684
   Ti   W    V    N    C    Zr   Ta
   7   6   6  13  19   7   6
Direct configuration=     2
  -0.00012082  0.00444161  0.01069532
   0.24307201  0.00983938  0.24529620
   0.25968512  0.48739192  0.25147988
   0.49767698  0.49853046  0.99841727
   0.49706812  0.25668256  0.75585468
   0.00742851  0.49537905  0.49764936
   0.50037858  0.74528616  0.75289674
   0.00123602  0.23795728  0.25503422
   0.76576142  0.74726409  0.00180842
   0.00834857  0.26611322  0.74478216
   0.75947614  0.26605100  0.49012190
   0.99660723  0.73301274  0.74906948
   0.25815744  0.49625464  0.75113714
   0.26764014  0.26424261  0.98858430
   0.50446850  0.25897844  0.23891618
   0.76459241  0.99445401  0.23706866
   0.72450571  0.25204186  0.01844873
   0.22992614  0.72943670  0.00290618
   0.23529630  0.25049554  0.51717298
   0.25012933  0.24930638  0.24774664
   0.24457669  0.00940178  0.00783019
   0.99808696  0.24010800  0.00024715
   0.74711307  0.24090475  0.24921489
   0.75716082  0.00507402  0.00565909
   0.50284140  0.00969158  0.24892102
   0.99913619  0.49552365  0.25715703
   0.50120524  0.74620271  0.99205526
   0.99938870  0.00247224  0.75147505
   0.74799750  0.25300705  0.74912152
   0.75625192  0.00318224  0.49401644
   0.50164279  0.25669233  0.50000444
   0.50197564  0.00435814  0.75046781
   0.00103567  0.00383948  0.24350630
   0.49648199  0.25839598  0.00082912
   0.24471706  0.74798127  0.23852640
   0.25534387  0.49923602  0.00180719
   0.00413225  0.75356299 -0.00089628
   0.75216414  0.74926062  0.24971608
   0.74211178  0.49378737  0.99979725
   0.49440484  0.49307967  0.24601320
   0.25182666  0.25465314  0.75105150
   0.24704629  0.00984571  0.49470400
   0.00269483  0.25551741  0.50051726
   0.25112023  0.74346907  0.76240754
   0.25042243  0.48803142  0.49848089
   0.99545451  0.75261208  0.50153725
   0.00062368  0.49899344  0.74394994
   0.74681668  0.74803137  0.75331543
   0.75647105  0.49506825  0.49761639
   0.50311023  0.74827368  0.50596008
   0.49882492  0.49943611  0.75189862
   0.49767039  0.00340155  0.00500025
   0.99980569  0.49374146  0.00480312
   0.49635814  0.74908542  0.24359319
   0.24601689  0.00043197  0.75686196
   0.50038689  0.00933852  0.49328011
   0.75363266  0.99983054  0.75313916
   0.24870934  0.74834405  0.49974740
   0.00048940  0.75855132  0.25094921
   0.73941257  0.49442267  0.24696173
   0.00161641  0.00794888  0.48861379
   0.49818322  0.49421563  0.50011374
   0.74386389  0.49933410  0.75381363
   0.75034130  0.73850133  0.50112890
HECN                                    
           1
     8.864717   -0.003535    0.010300
    -0.003571    8.845894   -0.004987
     0.010248   -0.004990    8.792388
   Ti   W    V    N    C    Zr   Ta
   7   6   6  13  19   7   6
Direct configuration=     3
  -0.00010129  0.00439515  0.01068266
   0.24305275  0.00978666  0.24533107
   0.25977187  0.48736842  0.25149360
   0.49775743  0.49853731  0.99842776
   0.49713537  0.25668771  0.75581200
   0.00748536  0.49534861  0.49763364
   0.50039582  0.74523745  0.75286924
   0.00128111  0.23809461  0.25497838
   0.76561844  0.74727208  0.00184950
   0.00817784  0.26592303  0.74484651
   0.75938963  0.26599325  0.49019274
   0.99663620  0.73315388  0.74902587
   0.25809889  0.49630043  0.75110562
   0.26761307  0.26422530  0.98859789
   0.50457484  0.25904345  0.23895977
   0.76458753  0.99440845  0.23710643
   0.72455507  0.25201454  0.01848448
   0.22997946  0.72945031  0.00292937
   0.23526532  0.25044784  0.51708685
   0.25021382  0.24929882  0.24777490
   0.24457787  0.00937454  0.00784346
   0.99807726  0.24012615  0.00026014
   0.74706878  0.24093724  0.24915341
   0.75714907  0.00509506  0.00565622
   0.50283821  0.00969546  0.24890477
   0.99914840  0.49559522  0.25717121
   0.50117433  0.74620389  0.99207649
   0.99938038  0.00246623  0.75147982
   0.74793861  0.25301396  0.74917211
   0.75627511  0.00313085  0.49401630
   0.50156658  0.25670839  0.49998823
   0.50198228  0.00436023  0.75047243
   0.00103628  0.00372643  0.24357738
   0.49648603  0.25839429  0.00083609
   0.24463236  0.74797157  0.23854685
   0.25534030  0.49925605  0.00188803
   0.00418416  0.75356353 -0.00079253
   0.75223860  0.74918941  0.24987344
   0.74210316  0.49369993  0.99979212
   0.49443432  0.49307096  0.24604995
   0.25189359  0.25458639  0.75105780
   0.24697869  0.00982820  0.49467504
   0.00271370  0.25546516  0.50052913
   0.25117327  0.74355472  0.76240412
   0.25049942  0.48801891  0.49840080
   0.99536142  0.75266452  0.50143061
   0.00054871  0.49897681  0.74395102
   0.74675158  0.74797133  0.75321671
   0.75648779  0.49522460  0.49757883
   0.50315402  0.74823787  0.50596967
   0.49894955  0.49945575  0.75183864
   0.49767027  0.00340493  0.00498344
   0.99977091  0.49372688  0.00481768
   0.49637259  0.74902614  0.24366064
   0.24601882  0.00043018  0.75687373
   0.50031192  0.00931675  0.49330814
   0.75361978  0.99982582  0.75310384
   0.24873790  0.74833932  0.49970152
   0.00049531  0.75876273  0.25098560
   0.73912651  0.49440819  0.24680175
   0.00184592  0.00804774  0.48846088
   0.49831180  0.49445699  0.50006886
   0.74386848  0.49949975  0.75390539
   0.75021811  0.73820430  0.50112266
HECN                                    
           1
     8.823518   -0.007094    0.011583
    -0.007128    8.801159   -0.001469
     0.011503   -0.001486    8.769427
   Ti   W    V    N    C    Zr   Ta
   7   6   6  13  19   7   6
Direct configuration=     4
  -0.00037280  0.00615095  0.00985659
   0.24235082  0.01113595  0.24545250
   0.25816938  0.48807041  0.25073741
   0.49734929  0.49817893  0.99938297
   0.49468086  0.25562166  0.75769821
   0.00585833  0.49667047  0.49804802
   0.50068455  0.74580713  0.75281602
  -0.00099549  0.23685109  0.25716499
   0.76873357  0.74622993  0.00025999
   0.01251661  0.27003149  0.74360217
   0.76304293  0.26448787  0.48752239
   0.99576756  0.72820646  0.75031754
   0.25948829  0.49572458  0.75196056
   0.26836664  0.26420185  0.98823010
   0.50207068  0.25799893  0.23746549
   0.76592185  0.99528004  0.23517055
   0.72354860  0.25383039  0.01835483
   0.22820934  0.72915899  0.00209048
   0.23462675  0.25104599  0.51896273
   0.24764660  0.24965397  0.24670068
   0.24482777  0.01011173  0.00757475
   0.99842635  0.24005896 -0.00030865
   0.74721501  0.24006316  0.24948418
   0.75718050  0.00483581  0.00590794
   0.50257613  0.00973857  0.24866634
   0.99882032  0.49477534  0.25683792
   0.50194949  0.74638055  0.99124848
   0.99940819  0.00320994  0.75092101
   0.74952714  0.25249410  0.74765550
   0.75555042  0.00316936  0.49419016
   0.50359480  0.25583034  0.50060992
   0.50186983  0.00401558  0.75054534
   0.00124604  0.00002618  0.24500293
   0.49632421  0.25841621  0.00068255
   0.24496747  0.74805056  0.23810138
   0.25508919  0.49887585  0.00093224
   0.00407910  0.75360690 -0.00209624
   0.75181556  0.75085420  0.24770905
   0.74262069  0.49565093  0.00055019
   0.49647406  0.49275840  0.24615159
   0.25110562  0.25419194  0.75155010
   0.24631739  0.01074166  0.49507872
   0.00372009  0.25538541  0.50075116
   0.24993366  0.74263451  0.76260983
   0.24883247  0.48829254  0.49975927
   0.99671070  0.75111010  0.50264317
   0.00193732  0.49997413  0.74394008
   0.74789174  0.74766351  0.75430649
   0.75510410  0.49908229  0.49944768
   0.50379032  0.74781187  0.50567562
   0.49805126  0.49933078  0.75290107
   0.49746032  0.00401160  0.00441844
   0.99996238  0.49269056  0.00404651
   0.49660888  0.74831415  0.24351547
   0.24598685  0.00043868  0.75655481
   0.50112765  0.00949698  0.49332589
   0.75387312  0.00129269  0.75596783
   0.24927969  0.74901954  0.50016032
   0.00116476  0.75861280  0.25014019
   0.74118543  0.49597998  0.24911514
   0.00058220  0.00623554  0.48911117
   0.49626968  0.49297662  0.49927062
   0.74186695  0.49833150  0.75198322
   0.75001147  0.73912149  0.50156705
HECN                                    
           1
     8.830713   -0.006472    0.011359
    -0.006507    8.808971   -0.002084
     0.011284   -0.002098    8.773437
   Ti   W    V    N    C    Zr   Ta
   7   6   6  13  19   7   6
Direct configuration=     5
  -0.00032531  0.00584274  0.01000134
   0.24247388  0.01089919  0.24543131
   0.25845046  0.48794726  0.25086982
   0.49742095  0.49824193  0.99921568
   0.49511162  0.25580908  0.75736782
   0.00614370  0.49643860  0.49797552
   0.50063385  0.74570712  0.75282538
  -0.00059592  0.23706967  0.25678199
   0.76818706  0.74641251  0.00053831
   0.01175506  0.26930998  0.74382045
   0.76240201  0.26475165  0.48798993
   0.99592035  0.72907498  0.75009101
   0.25924458  0.49582562  0.75181086
   0.26823442  0.26420589  0.98829452
   0.50251007  0.25818234  0.23772699
   0.76568763  0.99512683  0.23550960
   0.72372505  0.25351173  0.01837763
   0.22851990  0.72921019  0.00223729
   0.23473879  0.25094118  0.51863431
   0.24809696  0.24959174  0.24688872
   0.24478386  0.00998230  0.00762186
   0.99836509  0.24007069 -0.00020906
   0.74718942  0.24021659  0.24942621
   0.75717501  0.00488133  0.00586385
   0.50262210  0.00973101  0.24870808
   0.99887793  0.49491925  0.25689621
   0.50181346  0.74634943  0.99139349
   0.99940324  0.00307936  0.75101891
   0.74924844  0.25258513  0.74792105
   0.75567757  0.00316267  0.49415970
   0.50323903  0.25598435  0.50050106
   0.50188959  0.00407609  0.75053255
   0.00120954  0.00067573  0.24475308
   0.49635259  0.25841237  0.00070943
   0.24490866  0.74803664  0.23817939
   0.25513325  0.49894253  0.00109956
   0.00409749  0.75359921 -0.00186798
   0.75188961  0.75056188  0.24808811
   0.74252977  0.49530850  0.00041761
   0.49611621  0.49281312  0.24613382
   0.25124390  0.25426126  0.75146386
   0.24643336  0.01058141  0.49500809
   0.00354353  0.25539935  0.50071230
   0.25015121  0.74279613  0.76257372
   0.24912494  0.48824472  0.49952139
   0.99647412  0.75138292  0.50243080
   0.00169362  0.49979898  0.74394210
   0.74769175  0.74771753  0.75411569
   0.75534664  0.49840542  0.49912070
   0.50367871  0.74788658  0.50572709
   0.49820890  0.49935285  0.75271502
   0.49749710  0.00390510  0.00451740
   0.99992884  0.49287238  0.00418146
   0.49656747  0.74843909  0.24354084
   0.24599245  0.00043717  0.75661065
   0.50098452  0.00946529  0.49332282
   0.75382864  0.00103541  0.75546649
   0.24918460  0.74890014  0.50008005
   0.00104729  0.75863901  0.25028822
   0.74082415  0.49570411  0.24871025
   0.00080406  0.00655375  0.48899715
   0.49662805  0.49323655  0.49941022
   0.74221815  0.49853656  0.75231963
   0.75004767  0.73896055  0.50148930
HECN                                    
           1
     8.864236   -0.012492    0.009160
    -0.012520    8.833024   -0.000448
     0.009089   -0.000473    8.816215
   Ti   W    V    N    C    Zr   Ta
   7   6   6  13  19   7   6
Direct configuration=     6
   0.00000604  0.00803695  0.00910047
   0.24168215  0.01191231  0.24580061
   0.25740691  0.48882911  0.25001235
   0.49802745  0.49823558  0.00091643
   0.49284301  0.25423829  0.75906306
   0.00441512  0.49807288  0.49779086
   0.50145210  0.74613409  0.75269582
  -0.00385228  0.23612248  0.25833131
   0.76933532  0.74490989 -0.00114239
   0.01436886  0.27111235  0.74380523
   0.76582923  0.26368836  0.48588226
   0.99545397  0.72602141  0.75084017
   0.26055484  0.49600451  0.75248559
   0.26840100  0.26347333  0.98830103
   0.49997846  0.25731116  0.23643461
   0.76711755  0.99580951  0.23320183
   0.72377431  0.25571585  0.01851029
   0.22755675  0.72958236  0.00140821
   0.23394408  0.25121919  0.51960846
   0.24592934  0.25010934  0.24563588
   0.24489956  0.01063405  0.00748748
   0.99866811  0.24014307 -0.00091742
   0.74625109  0.23947438  0.24821365
   0.75714338  0.00504283  0.00639986
   0.50216641  0.00998841  0.24823035
   0.99885852  0.49425336  0.25675177
   0.50242721  0.74648993  0.99060211
   0.99942573  0.00439641  0.75043661
   0.75089029  0.25218873  0.74639157
   0.75506811  0.00299478  0.49437190
   0.50506382  0.25523319  0.50110583
   0.50170612  0.00354331  0.75050285
   0.00158934 -0.00347466  0.24622791
   0.49607144  0.25867389  0.00059265
   0.24447596  0.74797647  0.23778679
   0.25500881  0.49865790  0.00131446
   0.00509437  0.75369156 -0.00210057
   0.75251355  0.75200113  0.24752904
   0.74284820  0.49664076  0.00120847
   0.49785939  0.49206043  0.24666027
   0.25195342  0.25271972  0.75253734
   0.24540869  0.01170401  0.49507703
   0.00579802  0.25497311  0.50169614
   0.24936638  0.74285150  0.76277412
   0.24783873  0.48851768  0.49991427
   0.99681753  0.74993880  0.50256320
   0.00232812  0.50012095  0.74381525
   0.74807184  0.74719138  0.75387195
   0.75380276  0.50190032  0.50059146
   0.50471281  0.74700672  0.50546353
   0.49856239  0.49932059  0.75320942
   0.49688601  0.00408152  0.00409301
   0.99959687  0.49087321  0.00394556
   0.49674866  0.74760267  0.24344701
   0.24581315 -0.00022588  0.75652868
   0.50137994  0.00960804  0.49352900
   0.75422789  0.00315109  0.75855113
   0.25009874  0.74944769  0.50003050
   0.00204652  0.75915299  0.24984600
   0.74124149  0.49741587  0.25023812
   0.00113395  0.00498425  0.48921660
   0.49561167  0.49345298  0.49794380
   0.73953275  0.49799650  0.75136125
   0.74876873  0.73906609  0.50227866
HECN                                    
           1
     8.856043   -0.011021    0.009697
    -0.011051    8.827145   -0.000848
     0.009626   -0.000870    8.805759
   Ti   W    V    N    C    Zr   Ta
   7   6   6  13  19   7   6
Direct configuration=     7
  -0.00007495  0.00750200  0.00931967
   0.24187474  0.01166550  0.24571088
   0.25766092  0.48861429  0.25022102
   0.49787966  0.49823710  0.00050271
   0.49339557  0.25462163  0.75865078
   0.00483577  0.49767479  0.49783596
   0.50125280  0.74602987  0.75272731
  -0.00305930  0.23635397  0.25795462
   0.76905607  0.74527590 -0.00073372
   0.01373211  0.27067257  0.74380885
   0.76499501  0.26394689  0.48639466
   0.99556799  0.72676585  0.75065783
   0.26023573  0.49596072  0.75232140
   0.26836056  0.26365187  0.98829940
   0.50059513  0.25752388  0.23674908
   0.76676940  0.99564276  0.23376311
   0.72376194  0.25517857  0.01847812
   0.22779127  0.72949176  0.00160995
   0.23413749  0.25115160  0.51937157
   0.24645714  0.24998347  0.24594078
   0.24487129  0.01047516  0.00752019
   0.99859436  0.24012534 -0.00074513
   0.74647977  0.23965540  0.24850861
   0.75715103  0.00500349  0.00626949
   0.50227736  0.00992572  0.24834659
   0.99886337  0.49441567  0.25678688
   0.50227779  0.74645554  0.99079457
   0.99942007  0.00407534  0.75057830
   0.75049066  0.25228501  0.74676348
   0.75521653  0.00303582  0.49432032
   0.50461957  0.25541602  0.50095858
   0.50175088  0.00367321  0.75051006
   0.00149745 -0.00246297  0.24586896
   0.49613986  0.25861019  0.00062109
   0.24458136  0.74799119  0.23788231
   0.25503915  0.49872731  0.00126219
   0.00485163  0.75366887 -0.00204405
   0.75236142  0.75165017  0.24766506
   0.74277039  0.49631600  0.00101614
   0.49743502  0.49224364  0.24653207
   0.25178084  0.25309541  0.75227611
   0.24565801  0.01143054  0.49506037
   0.00524906  0.25507668  0.50145667
   0.24955747  0.74283814  0.76272543
   0.24815185  0.48845137  0.49981880
   0.99673414  0.75029076  0.50253091
   0.00217357  0.50004236  0.74384608
   0.74797939  0.74731956  0.75393119
   0.75417802  0.50104873  0.50023397
   0.50446117  0.74722101  0.50552754
   0.49847629  0.49932842  0.75308914
   0.49703481  0.00403860  0.00419628
   0.99967805  0.49136057  0.00400287
   0.49670468  0.74780652  0.24346978
   0.24585692 -0.00006423  0.75654860
   0.50128362  0.00957319  0.49347883
   0.75413013  0.00263545  0.75780090
   0.24987606  0.74931407  0.50004252
   0.00180316  0.75902752  0.24995352
   0.74113949  0.49699862  0.24986654
   0.00105387  0.00536678  0.48916313
   0.49585921  0.49340033  0.49830056
   0.74018678  0.49812854  0.75159451
   0.74908009  0.73904061  0.50208674
HECN                                    
           1
     8.861790   -0.013648    0.008766
    -0.013683    8.821686   -0.000944
     0.008714   -0.000971    8.798733
   Ti   W    V    N    C    Zr   Ta
   7   6   6  13  19   7   6
Direct configuration=     8
   0.00061275  0.00883953  0.00961119
   0.24155229  0.01212299  0.24577361
   0.25781961  0.48891471  0.24988075
   0.49849241  0.49840791  0.00162035
   0.49269494  0.25396420  0.75913462
   0.00413498  0.49819448  0.49722844
   0.50198307  0.74612120  0.75293386
  -0.00544549  0.23491531  0.25835344
   0.76874332  0.74413252 -0.00151584
   0.01398145  0.26995933  0.74461300
   0.76629763  0.26496425  0.48582185
   0.99558618  0.72708109  0.75062718
   0.26116967  0.49625191  0.75255201
   0.26831128  0.26317563  0.98857921
   0.49930128  0.25726752  0.23614219
   0.76762581  0.99580579  0.23230618
   0.72401555  0.25647713  0.01888426
   0.22777284  0.72965911  0.00132968
   0.23372185  0.25133236  0.51975198
   0.24560255  0.25027984  0.24518981
   0.24482103  0.01074311  0.00749393
   0.99860514  0.24012487 -0.00105060
   0.74524498  0.23975905  0.24706901
   0.75711246  0.00530245  0.00674714
   0.50180741  0.01007484  0.24810574
   0.99888389  0.49383020  0.25677047
   0.50269029  0.74653204  0.99073191
   0.99944049  0.00519874  0.75037037
   0.75149736  0.25264935  0.74568519
   0.75538260  0.00320267  0.49464204
   0.50560231  0.25567705  0.50117251
   0.50170250  0.00335910  0.75044365
   0.00162519 -0.00223513  0.24574126
   0.49605646  0.25876364  0.00068411
   0.24425816  0.74792116  0.23776764
   0.25513744  0.49872159  0.00179789
   0.00537771  0.75345295 -0.00162655
   0.75327475  0.75196753  0.24825646
   0.74268744  0.49643872  0.00127366
   0.49728843  0.49172796  0.24697741
   0.25287206  0.25248527  0.75298384
   0.24551155  0.01189343  0.49493821
   0.00671975  0.25481047  0.50219453
   0.24954692  0.74312294  0.76261762
   0.24811462  0.48863080  0.49949707
   0.99620090  0.75001095  0.50198135
   0.00183567  0.49924741  0.74384976
   0.74786059  0.74740640  0.75305043
   0.75346520  0.49985642  0.50015448
   0.50468382  0.74674228  0.50526113
   0.49876400  0.49913253  0.75282001
   0.49640574  0.00372978  0.00461288
   0.99938273  0.49033202  0.00440872
   0.49665645  0.74798821  0.24295288
   0.24542198 -0.00101631  0.75665273
   0.50138057  0.00996493  0.49329374
   0.75464207  0.00382912  0.75887111
   0.25006668  0.74909086  0.49979638
   0.00221810  0.75838441  0.25000159
   0.74101092  0.49754382  0.25031678
   0.00129490  0.00486239  0.48949179
   0.49593376  0.49329785  0.49764015
   0.73891777  0.49763021  0.75194957
   0.74862393  0.73994576  0.50279292
HECN                                    
           1
     8.863325   -0.014349    0.008518
    -0.014386    8.820229   -0.000970
     0.008471   -0.000997    8.796857
   Ti   W    V    N    C    Zr   Ta
   7   6   6  13  19   7   6
Direct configuration=     9
   0.00079634  0.00919688  0.00968910
   0.24146630  0.01224517  0.24579036
   0.25786196  0.48899497  0.24978984
   0.49865593  0.49845359  0.00191898
   0.49250797  0.25378853  0.75926387
   0.00394804  0.49833325  0.49706610
   0.50217791  0.74614566  0.75298907
  -0.00608221  0.23453081  0.25845993
   0.76865977  0.74382706 -0.00172483
   0.01404794  0.26976882  0.74482786
   0.76664523  0.26523612  0.48566884
   0.99559106  0.72716531  0.75061900
   0.26141887  0.49632977  0.75261365
   0.26829811  0.26304841  0.98865396
   0.49895605  0.25719893  0.23598000
   0.76785427  0.99584941  0.23191694
   0.72408333  0.25682404  0.01899279
   0.22776793  0.72970381  0.00125479
   0.23361098  0.25138062  0.51985360
   0.24537456  0.25035894  0.24498915
   0.24480764  0.01081468  0.00748691
   0.99860801  0.24012475 -0.00113221
   0.74491552  0.23978664  0.24668434
   0.75710221  0.00538231  0.00687475
   0.50168203  0.01011464  0.24804137
   0.99888932  0.49367381  0.25676609
   0.50280034  0.74655250  0.99071519
   0.99944602  0.00549884  0.75031482
   0.75176594  0.25274675  0.74539712
   0.75542692  0.00324726  0.49472800
   0.50586452  0.25574686  0.50122970
   0.50168957  0.00327519  0.75042591
   0.00165928 -0.00217426  0.24570714
   0.49603422  0.25880463  0.00070095
   0.24417193  0.74790242  0.23773699
   0.25516367  0.49872008  0.00194103
   0.00551806  0.75339531 -0.00151499
   0.75351847  0.75205238  0.24841450
   0.74266532  0.49647150  0.00134246
   0.49724929  0.49159020  0.24709639
   0.25316316  0.25232237  0.75317296
   0.24547251  0.01201707  0.49490557
   0.00711212  0.25473947  0.50239171
   0.24954412  0.74319902  0.76258882
   0.24810469  0.48867873  0.49941111
   0.99605860  0.74993616  0.50183450
   0.00174546  0.49903503  0.74385073
   0.74782887  0.74742958  0.75281511
   0.75327493  0.49953786  0.50013321
   0.50474318  0.74661441  0.50518995
   0.49884074  0.49908023  0.75274811
   0.49623790  0.00364723  0.00472417
   0.99930387  0.49005724  0.00451714
   0.49664359  0.74803674  0.24281478
   0.24530587 -0.00127068  0.75668054
   0.50140646  0.01006959  0.49324429
   0.75477877  0.00414803  0.75915707
   0.25011751  0.74903124  0.49973061
   0.00232875  0.75821264  0.25001445
   0.74097667  0.49768945  0.25043707
   0.00135917  0.00472767  0.48957961
   0.49595363  0.49327048  0.49746370
   0.73857918  0.49749699  0.75204440
   0.74850232  0.74018752  0.50298159
HECN                                    
           1
     8.862163   -0.015200    0.010317
    -0.015237    8.817143   -0.000169
     0.010252   -0.000195    8.801987
   Ti   W    V    N    C    Zr   Ta
   7   6   6  13  19   7   6
Direct configuration=    10
   0.00132803  0.00940273  0.00984552
   0.24153365  0.01254824  0.24582720
   0.25818395  0.48879515  0.24980124
   0.49859250  0.49840509  0.00220841
   0.49257294  0.25352603  0.75929663
   0.00390496  0.49815803  0.49685634
   0.50256561  0.74638929  0.75312700
  -0.00789843  0.23510016  0.25865682
   0.76874430  0.74327741 -0.00210159
   0.01456478  0.26882952  0.74560014
   0.76705359  0.26461434  0.48528105
   0.99536234  0.72702671  0.75065158
   0.26169881  0.49629685  0.75266037
   0.26843579  0.26311662  0.98913955
   0.49811819  0.25691757  0.23591939
   0.76833613  0.99588159  0.23165493
   0.72366150  0.25740832  0.01905892
   0.22781584  0.72939169  0.00132173
   0.23381350  0.25170070  0.52044091
   0.24490032  0.25034378  0.24463933
   0.24467602  0.01082334  0.00759209
   0.99836714  0.23992740 -0.00096537
   0.74404888  0.24008671  0.24634608
   0.75713124  0.00550242  0.00705101
   0.50123002  0.01020692  0.24816535
   0.99873706  0.49339008  0.25682442
   0.50323482  0.74650722  0.99084305
   0.99949028  0.00601826  0.75044132
   0.75244216  0.25327392  0.74442698
   0.75580678  0.00335958  0.49509555
   0.50659887  0.25601897  0.50121856
   0.50186106  0.00314081  0.75046782
   0.00173627 -0.00212341  0.24538814
   0.49615356  0.25868010  0.00071415
   0.24443816  0.74790761  0.23767547
   0.25533620  0.49885636  0.00197281
   0.00515097  0.75315895 -0.00149068
   0.75370325  0.75199175  0.24855736
   0.74250453  0.49615651  0.00132786
   0.49664978  0.49176043  0.24708125
   0.25341744  0.25248338  0.75333908
   0.24590548  0.01201552  0.49483413
   0.00727227  0.25472197  0.50204193
   0.24986273  0.74294188  0.76239229
   0.24838386  0.48855209  0.49929853
   0.99586909  0.75010645  0.50158901
   0.00139876  0.49915386  0.74399088
   0.74786980  0.74780646  0.75260401
   0.75319639  0.49924857  0.50015316
   0.50443289  0.74680161  0.50495821
   0.49853736  0.49881371  0.75281097
   0.49590479  0.00369796  0.00456766
   0.99947963  0.49034901  0.00465610
   0.49679829  0.74847193  0.24283428
   0.24533370 -0.00164445  0.75652224
   0.50151255  0.01039477  0.49315465
   0.75475468  0.00450445  0.75919365
   0.24991625  0.74868238  0.49955302
   0.00220054  0.75804336  0.25001422
   0.74091046  0.49779539  0.25028874
   0.00113486  0.00446146  0.48983192
   0.49600396  0.49301041  0.49734082
   0.73877422  0.49755928  0.75217250
   0.74854533  0.74025547  0.50324001
HECN                                    
           1
     8.861551   -0.015648    0.011265
    -0.015685    8.815517    0.000254
     0.011190    0.000228    8.804691
   Ti   W    V    N    C    Zr   Ta
   7   6   6  13  19   7   6
Direct configuration=    11
   0.00160824  0.00951127  0.00992783
   0.24156916  0.01270801  0.24584658
   0.25835365  0.48868982  0.24980722
   0.49855904  0.49837950  0.00236085
   0.49260717  0.25338765  0.75931390
   0.00388227  0.49806567  0.49674588
   0.50276995  0.74651773  0.75319959
  -0.00885565  0.23540020  0.25876068
   0.76878886  0.74298767 -0.00230000
   0.01483704  0.26833435  0.74600686
   0.76726882  0.26428660  0.48507680
   0.99524179  0.72695364  0.75066877
   0.26184634  0.49627951  0.75268494
   0.26850830  0.26315256  0.98939528
   0.49767660  0.25676922  0.23588758
   0.76859013  0.99589859  0.23151689
   0.72343919  0.25771630  0.01909376
   0.22784106  0.72922716  0.00135699
   0.23392019  0.25186942  0.52075019
   0.24465040  0.25033578  0.24445514
   0.24460664  0.01082790  0.00764750
   0.99824016  0.23982334 -0.00087746
   0.74359217  0.24024486  0.24616800
   0.75714653  0.00556573  0.00714383
   0.50099178  0.01025553  0.24823070
   0.99865679  0.49324050  0.25685518
   0.50346380  0.74648336  0.99091034
   0.99951362  0.00629207  0.75050791
   0.75279868  0.25355191  0.74391594
   0.75600694  0.00341879  0.49528907
   0.50698592  0.25616244  0.50121260
   0.50195143  0.00306997  0.75048988
   0.00177688 -0.00209659  0.24522013
   0.49621646  0.25861445  0.00072110
   0.24457848  0.74791036  0.23764305
   0.25542714  0.49892821  0.00198952
   0.00495748  0.75303433 -0.00147783
   0.75380063  0.75195980  0.24863258
   0.74241976  0.49599045  0.00132021
   0.49633383  0.49185014  0.24707332
   0.25355146  0.25256826  0.75342653
   0.24613368  0.01201474  0.49479645
   0.00735671  0.25471278  0.50185770
   0.25003066  0.74280636  0.76228876
   0.24853100  0.48848535  0.49923921
   0.99576924  0.75019622  0.50145972
   0.00121603  0.49921648  0.74406473
   0.74789142  0.74800515  0.75249281
   0.75315499  0.49909606  0.50016368
   0.50426938  0.74690029  0.50483618
   0.49837744  0.49867319  0.75284412
   0.49572925  0.00372469  0.00448527
   0.99957226  0.49050283  0.00472925
   0.49687985  0.74870135  0.24284451
   0.24534836 -0.00184147  0.75643889
   0.50156849  0.01056621  0.49310741
   0.75474200  0.00469234  0.75921290
   0.24981017  0.74849847  0.49945952
   0.00213295  0.75795411  0.25001412
   0.74087559  0.49785125  0.25021062
   0.00101660  0.00432110  0.48996484
   0.49603049  0.49287332  0.49727610
   0.73887701  0.49759212  0.75223995
   0.74856798  0.74029128  0.50337611
HECN                                    
           1
     8.865702   -0.015396    0.013326
    -0.015445    8.813259   -0.000351
     0.013245   -0.000373    8.802229
   Ti   W    V    N    C    Zr   Ta
   7   6   6  13  19   7   6
Direct configuration=    12
   0.00195540  0.00928655  0.00985295
   0.24163092  0.01312482  0.24600353
   0.25845552  0.48831391  0.24987818