  64  64   0   0
  0.1047606E+02  0.8730095E-09  0.8770920E-09  0.8756499E-09  0.5000000E-15
  1.000000000000000E-004
  CAR 
 HECN                                    
     15.79581341    -58.78351528  301      9.60630043      1.00000000
    -58.784  0.0000E+00  0.0000E+00
    -58.535  0.0000E+00  0.0000E+00
    -58.286  0.0000E+00  0.0000E+00
    -58.038  0.0000E+00  0.0000E+00
    -57.789  0.0000E+00  0.0000E+00
    -57.541  0.0000E+00  0.0000E+00
    -57.292  0.0000E+00  0.0000E+00
    -57.043  0.0000E+00  0.0000E+00
    -56.795  0.0000E+00  0.0000E+00
    -56.546  0.0000E+00  0.0000E+00
    -56.298  0.0000E+00  0.0000E+00
    -56.049  0.0000E+00  0.0000E+00
    -55.800  0.3550E-09  0.8824E-10
    -55.552  0.1160E-02  0.2885E-03
    -55.303  0.2669E+00  0.6665E-01
    -55.055  0.2941E+00  0.1398E+00
    -54.806  0.9934E-03  0.1400E+00
    -54.557  0.1616E-09  0.1400E+00
    -54.309  0.0000E+00  0.1400E+00
    -54.060  0.0000E+00  0.1400E+00
    -53.812  0.0000E+00  0.1400E+00
    -53.563  0.0000E+00  0.1400E+00
    -53.314  0.0000E+00  0.1400E+00
    -53.066  0.0000E+00  0.1400E+00
    -52.817  0.0000E+00  0.1400E+00
    -52.569  0.0000E+00  0.1400E+00
    -52.320  0.0000E+00  0.1400E+00
    -52.071  0.0000E+00  0.1400E+00
    -51.823  0.0000E+00  0.1400E+00
    -51.574  0.0000E+00  0.1400E+00
    -51.326  0.0000E+00  0.1400E+00
    -51.077  0.0000E+00  0.1400E+00
    -50.828  0.0000E+00  0.1400E+00
    -50.580  0.0000E+00  0.1400E+00
    -50.331  0.0000E+00  0.1400E+00
    -50.083  0.0000E+00  0.1400E+00
    -49.834  0.0000E+00  0.1400E+00
    -49.585  0.0000E+00  0.1400E+00
    -49.337  0.0000E+00  0.1400E+00
    -49.088  0.0000E+00  0.1400E+00
    -48.840  0.0000E+00  0.1400E+00
    -48.591  0.0000E+00  0.1400E+00
    -48.342  0.0000E+00  0.1400E+00
    -48.094  0.0000E+00  0.1400E+00
    -47.845  0.0000E+00  0.1400E+00
    -47.597  0.0000E+00  0.1400E+00
    -47.348  0.0000E+00  0.1400E+00
    -47.099  0.0000E+00  0.1400E+00
    -46.851  0.1262E-07  0.1400E+00
    -46.602  0.6285E-02  0.1416E+00
    -46.354  0.2644E+00  0.2073E+00
    -46.105  0.2184E+00  0.2616E+00
    -45.856  0.7382E-01  0.2799E+00
    -45.608  0.2649E-03  0.2800E+00
    -45.359  0.1842E-10  0.2800E+00
    -45.111  0.0000E+00  0.2800E+00
    -44.862  0.0000E+00  0.2800E+00
    -44.613  0.0000E+00  0.2800E+00
    -44.365  0.0000E+00  0.2800E+00
    -44.116  0.0000E+00  0.2800E+00
    -43.868  0.0000E+00  0.2800E+00
    -43.619  0.0000E+00  0.2800E+00
    -43.370  0.0000E+00  0.2800E+00
    -43.122  0.0000E+00  0.2800E+00
    -42.873  0.0000E+00  0.2800E+00
    -42.625  0.0000E+00  0.2800E+00
    -42.376  0.0000E+00  0.2800E+00
    -42.127  0.0000E+00  0.2800E+00
    -41.879  0.0000E+00  0.2800E+00
    -41.630  0.0000E+00  0.2800E+00
    -41.382  0.0000E+00  0.2800E+00
    -41.133  0.0000E+00  0.2800E+00
    -40.884  0.0000E+00  0.2800E+00
    -40.636  0.0000E+00  0.2800E+00
    -40.387  0.0000E+00  0.2800E+00
    -40.139  0.0000E+00  0.2800E+00
    -39.890  0.0000E+00  0.2800E+00
    -39.641  0.0000E+00  0.2800E+00
    -39.393  0.0000E+00  0.2800E+00
    -39.144  0.0000E+00  0.2800E+00
    -38.896  0.0000E+00  0.2800E+00
    -38.647  0.0000E+00  0.2800E+00
    -38.398  0.0000E+00  0.2800E+00
    -38.150  0.0000E+00  0.2800E+00
    -37.901  0.0000E+00  0.2800E+00
    -37.653  0.0000E+00  0.2800E+00
    -37.404  0.0000E+00  0.2800E+00
    -37.156  0.0000E+00  0.2800E+00
    -36.907  0.0000E+00  0.2800E+00
    -36.658  0.0000E+00  0.2800E+00
    -36.410  0.0000E+00  0.2800E+00
    -36.161  0.0000E+00  0.2800E+00
    -35.913  0.0000E+00  0.2800E+00
    -35.664  0.0000E+00  0.2800E+00
    -35.415  0.0000E+00  0.2800E+00
    -35.167  0.0000E+00  0.2800E+00
    -34.918  0.0000E+00  0.2800E+00
    -34.670  0.0000E+00  0.2800E+00
    -34.421  0.0000E+00  0.2800E+00
    -34.172  0.0000E+00  0.2800E+00
    -33.924  0.0000E+00  0.2800E+00
    -33.675  0.0000E+00  0.2800E+00
    -33.427  0.0000E+00  0.2800E+00
    -33.178  0.0000E+00  0.2800E+00
    -32.929  0.0000E+00  0.2800E+00
    -32.681  0.0000E+00  0.2800E+00
    -32.432  0.0000E+00  0.2800E+00
    -32.184  0.0000E+00  0.2800E+00
    -31.935  0.0000E+00  0.2800E+00
    -31.686  0.0000E+00  0.2800E+00
    -31.438  0.0000E+00  0.2800E+00
    -31.189  0.0000E+00  0.2800E+00
    -30.941  0.0000E+00  0.2800E+00
    -30.692  0.9646E-15  0.2800E+00
    -30.443  0.1581E-05  0.2800E+00
    -30.195  0.2219E-01  0.2855E+00
    -29.946  0.1599E+00  0.3253E+00
    -29.698  0.6056E+00  0.4758E+00
    -29.449  0.6668E+00  0.6416E+00
    -29.200  0.1225E+01  0.9461E+00
    -28.952  0.4572E+00  0.1060E+01
    -28.703  0.8482E-03  0.1060E+01
    -28.455  0.6866E-10  0.1060E+01
    -28.206  0.0000E+00  0.1060E+01
    -27.957  0.0000E+00  0.1060E+01
    -27.709  0.0000E+00  0.1060E+01
    -27.460  0.0000E+00  0.1060E+01
    -27.212  0.0000E+00  0.1060E+01
    -26.963  0.0000E+00  0.1060E+01
    -26.714  0.1829E-14  0.1060E+01
    -26.466  0.2275E-05  0.1060E+01
    -26.217  0.3088E-01  0.1068E+01
    -25.969  0.4243E+00  0.1173E+01
    -25.720  0.5872E+00  0.1319E+01
    -25.471  0.2867E+00  0.1390E+01
    -25.223  0.1190E+00  0.1420E+01
    -24.974  0.6324E-04  0.1420E+01
    -24.726  0.4723E-12  0.1420E+01
    -24.477  0.0000E+00  0.1420E+01
    -24.228  0.0000E+00  0.1420E+01
    -23.980  0.0000E+00  0.1420E+01
    -23.731  0.0000E+00  0.1420E+01
    -23.483  0.0000E+00  0.1420E+01
    -23.234  0.1234E-07  0.1420E+01
    -22.985  0.4390E-02  0.1421E+01
    -22.737  0.1691E+00  0.1463E+01
    -22.488  0.6691E+00  0.1629E+01
    -22.240  0.7139E+00  0.1807E+01
    -21.991  0.1330E+00  0.1840E+01
    -21.742  0.3854E-04  0.1840E+01
    -21.494  0.1707E-12  0.1840E+01
    -21.245  0.0000E+00  0.1840E+01
    -20.997  0.0000E+00  0.1840E+01
    -20.748  0.0000E+00  0.1840E+01
    -20.499  0.0000E+00  0.1840E+01
    -20.251  0.0000E+00  0.1840E+01
    -20.002  0.0000E+00  0.1840E+01
    -19.754  0.0000E+00  0.1840E+01
    -19.505  0.0000E+00  0.1840E+01
    -19.256  0.0000E+00  0.1840E+01
    -19.008  0.0000E+00  0.1840E+01
    -18.759  0.0000E+00  0.1840E+01
    -18.511  0.0000E+00  0.1840E+01
    -18.262  0.0000E+00  0.1840E+01
    -18.013  0.0000E+00  0.1840E+01
    -17.765  0.0000E+00  0.1840E+01
    -17.516  0.0000E+00  0.1840E+01
    -17.268  0.0000E+00  0.1840E+01
    -17.019  0.0000E+00  0.1840E+01
    -16.770  0.0000E+00  0.1840E+01
    -16.522  0.0000E+00  0.1840E+01
    -16.273  0.0000E+00  0.1840E+01
    -16.025  0.0000E+00  0.1840E+01
    -15.776  0.0000E+00  0.1840E+01
    -15.528  0.0000E+00  0.1840E+01
    -15.279  0.0000E+00  0.1840E+01
    -15.030  0.0000E+00  0.1840E+01
    -14.782  0.0000E+00  0.1840E+01
    -14.533  0.0000E+00  0.1840E+01
    -14.285  0.0000E+00  0.1840E+01
    -14.036  0.0000E+00  0.1840E+01
    -13.787  0.0000E+00  0.1840E+01
    -13.539  0.0000E+00  0.1840E+01
    -13.290  0.0000E+00  0.1840E+01
    -13.042  0.0000E+00  0.1840E+01
    -12.793  0.0000E+00  0.1840E+01
    -12.544  0.0000E+00  0.1840E+01
    -12.296  0.0000E+00  0.1840E+01
    -12.047  0.0000E+00  0.1840E+01
    -11.799  0.0000E+00  0.1840E+01
    -11.550  0.0000E+00  0.1840E+01
    -11.301  0.0000E+00  0.1840E+01
    -11.053  0.0000E+00  0.1840E+01
    -10.804  0.0000E+00  0.1840E+01
    -10.556  0.0000E+00  0.1840E+01
    -10.307  0.0000E+00  0.1840E+01
    -10.058  0.0000E+00  0.1840E+01
     -9.810  0.0000E+00  0.1840E+01
     -9.561  0.0000E+00  0.1840E+01
     -9.313  0.0000E+00  0.1840E+01
     -9.064  0.0000E+00  0.1840E+01
     -8.815  0.0000E+00  0.1840E+01
     -8.567  0.0000E+00  0.1840E+01
     -8.318  0.0000E+00  0.1840E+01
     -8.070  0.0000E+00  0.1840E+01
     -7.821  0.3783E-11  0.1840E+01
     -7.572  0.2893E-04  0.1840E+01
     -7.324  0.1190E-01  0.1843E+01
     -7.075  0.5813E-01  0.1857E+01
     -6.827  0.5312E-01  0.1871E+01
     -6.578  0.1122E+00  0.1899E+01
     -6.329  0.1473E+00  0.1935E+01
     -6.081  0.1984E+00  0.1984E+01
     -5.832  0.1805E+00  0.2029E+01
     -5.584  0.1895E+00  0.2076E+01
     -5.335  0.1457E-01  0.2080E+01
     -5.086  0.6236E-01  0.2096E+01
     -4.838  0.1782E-01  0.2100E+01
     -4.589  0.8598E-06  0.2100E+01
     -4.341  0.3282E-15  0.2100E+01
     -4.092  0.1320E-08  0.2100E+01
     -3.843  0.4777E-03  0.2100E+01
     -3.595  0.3581E-01  0.2109E+01
     -3.346  0.4778E-01  0.2121E+01
     -3.098  0.7461E-01  0.2139E+01
     -2.849  0.1041E+00  0.2165E+01
     -2.600  0.1857E+00  0.2211E+01
     -2.352  0.2776E+00  0.2280E+01
     -2.103  0.2929E+00  0.2353E+01
     -1.855  0.2158E+00  0.2407E+01
     -1.606  0.1644E+00  0.2448E+01
     -1.357  0.1078E+00  0.2475E+01
     -1.109  0.2116E-01  0.2480E+01
     -0.860  0.4563E-03  0.2480E+01
     -0.612  0.4556E-08  0.2480E+01
     -0.363  0.0000E+00  0.2480E+01
     -0.114  0.0000E+00  0.2480E+01
      0.134  0.0000E+00  0.2480E+01
      0.383  0.9893E-13  0.2480E+01
      0.631  0.4793E-05  0.2480E+01
      0.880  0.4657E-02  0.2481E+01
      1.129  0.2163E-01  0.2487E+01
      1.377  0.8801E-01  0.2508E+01
      1.626  0.9100E-01  0.2531E+01
      1.874  0.1524E+00  0.2569E+01
      2.123  0.2009E+00  0.2619E+01
      2.372  0.2403E+00  0.2679E+01
      2.620  0.2860E+00  0.2750E+01
      2.869  0.2782E+00  0.2819E+01
      3.117  0.3005E+00  0.2894E+01
      3.366  0.3133E+00  0.2971E+01
      3.615  0.3811E+00  0.3066E+01
      3.863  0.5037E+00  0.3191E+01
      4.112  0.5627E+00  0.3331E+01
      4.360  0.6132E+00  0.3484E+01
      4.609  0.6429E+00  0.3644E+01
      4.858  0.6600E+00  0.3808E+01
      5.106  0.5836E+00  0.3953E+01
      5.355  0.4458E+00  0.4064E+01
      5.603  0.3574E+00  0.4152E+01
      5.852  0.2807E+00  0.4222E+01
      6.101  0.2131E+00  0.4275E+01
      6.349  0.2197E+00  0.4330E+01
      6.598  0.1805E+00  0.4375E+01
      6.846  0.8237E-01  0.4395E+01
      7.095  0.1182E+00  0.4425E+01
      7.343  0.1425E+00  0.4460E+01
      7.592  0.1827E+00  0.4505E+01
      7.841  0.2009E+00  0.4555E+01
      8.089  0.1874E+00  0.4602E+01
      8.338  0.1870E+00  0.4648E+01
      8.586  0.2361E+00  0.4707E+01
      8.835  0.2708E+00  0.4774E+01
      9.084  0.2794E+00  0.4844E+01
      9.332  0.2207E+00  0.4899E+01
      9.581  0.2551E+00  0.4962E+01
      9.829  0.3021E+00  0.5037E+01
     10.078  0.3737E+00  0.5130E+01
     10.327  0.4508E+00  0.5242E+01
     10.575  0.4807E+00  0.5362E+01
     10.824  0.5287E+00  0.5493E+01
     11.072  0.5152E+00  0.5621E+01
     11.321  0.5230E+00  0.5751E+01
     11.570  0.5318E+00  0.5883E+01
     11.818  0.5063E+00  0.6009E+01
     12.067  0.4911E+00  0.6131E+01
     12.315  0.3692E+00  0.6223E+01
     12.564  0.6728E-01  0.6240E+01
     12.813  0.2225E-03  0.6240E+01
     13.061  0.4716E-10  0.6240E+01
     13.310  0.0000E+00  0.6240E+01
     13.558  0.0000E+00  0.6240E+01
     13.807  0.0000E+00  0.6240E+01
     14.056  0.0000E+00  0.6240E+01
     14.304  0.0000E+00  0.6240E+01
     14.553  0.0000E+00  0.6240E+01
     14.801  0.0000E+00  0.6240E+01
     15.050  0.0000E+00  0.6240E+01
     15.299  0.0000E+00  0.6240E+01
     15.547  0.0000E+00  0.6240E+01
     15.796  0.0000E+00  0.6240E+01
