 running on   24 total cores
 distrk:  each k-point on   24 cores,    1 groups
 distr:  one band on    1 cores,   24 groups
 using from now: INCAR     
 vasp.5.4.4.18Apr17-6-g9f103f2a35 (build Oct 18 2021 20:38:43) complex          
  
 POSCAR found type information on POSCAR  V  Ta Nb N  C  W  Mo
 POSCAR found :  7 types and      64 ions
 scaLAPACK will be used

 ----------------------------------------------------------------------------- 
|                                                                             |
|           W    W    AA    RRRRR   N    N  II  N    N   GGGG   !!!           |
|           W    W   A  A   R    R  NN   N  II  NN   N  G    G  !!!           |
|           W    W  A    A  R    R  N N  N  II  N N  N  G       !!!           |
|           W WW W  AAAAAA  RRRRR   N  N N  II  N  N N  G  GGG   !            |
|           WW  WW  A    A  R   R   N   NN  II  N   NN  G    G                |
|           W    W  A    A  R    R  N    N  II  N    N   GGGG   !!!           |
|                                                                             |
|      For optimal performance we recommend to set                            |
|        NCORE= 4 - approx SQRT( number of cores)                             |
|      NCORE specifies how many cores store one orbital (NPAR=cpu/NCORE).     |
|      This setting can  greatly improve the performance of VASP for DFT.     |
|      The default,   NCORE=1            might be grossly inefficient         |
|      on modern multi-core architectures or massively parallel machines.     |
|      Do your own testing !!!!                                               |
|      Unfortunately you need to use the default for GW and RPA calculations. |
|      (for HF NCORE is supported but not extensively tested yet)             |
|                                                                             |
 ----------------------------------------------------------------------------- 


 ----------------------------------------------------------------------------- 
|                                                                             |
|  ADVICE TO THIS USER RUNNING 'VASP/VAMP'   (HEAR YOUR MASTER'S VOICE ...):  |
|                                                                             |
|      You have a (more or less) 'large supercell' and for larger cells       |
|      it might be more efficient to use real space projection operators      |
|      So try LREAL= Auto  in the INCAR   file.                               |
|      Mind: If you want to do a very accurate calculations keep the          |
|      reciprocal projection scheme          (i.e. LREAL=.FALSE.)             |
|                                                                             |
 ----------------------------------------------------------------------------- 

 LDA part: xc-table for Pade appr. of Perdew
 POSCAR, INCAR and KPOINTS ok, starting setup
 FFT: planning ...
 WAVECAR not read
 entering main loop
       N       E                     dE             d eps       ncg     rms          rms(c)
DAV:   1     0.571947971038E+04    0.57195E+04   -0.22104E+05  8736   0.142E+03
DAV:   2     0.378564325853E+01   -0.57157E+04   -0.54847E+04  9048   0.591E+02
DAV:   3    -0.727584168125E+03   -0.73137E+03   -0.70175E+03 14088   0.177E+02
DAV:   4    -0.784407218793E+03   -0.56823E+02   -0.55579E+02 14928   0.541E+01
DAV:   5    -0.789455367851E+03   -0.50481E+01   -0.49974E+01 16032   0.124E+01    0.648E+01
RMM:   6    -0.738912562300E+03    0.50543E+02   -0.13066E+03 12043   0.608E+01    0.703E+01
RMM:   7    -0.688549019610E+03    0.50364E+02   -0.19266E+02 10477   0.382E+01    0.364E+01
RMM:   8    -0.662595467150E+03    0.25954E+02   -0.32486E+01 13003   0.105E+01    0.144E+01
RMM:   9    -0.659904563464E+03    0.26909E+01   -0.67406E+00 11624   0.680E+00    0.865E+00
RMM:  10    -0.659949654249E+03   -0.45091E-01   -0.49895E+00 12877   0.400E+00    0.970E+00
RMM:  11    -0.659505591499E+03    0.44406E+00   -0.31314E+00 12908   0.341E+00    0.649E+00
RMM:  12    -0.659420355586E+03    0.85236E-01   -0.12948E+00 12947   0.197E+00    0.552E+00
RMM:  13    -0.659186956475E+03    0.23340E+00   -0.46369E-01 12907   0.129E+00    0.170E+00
RMM:  14    -0.659190763832E+03   -0.38074E-02   -0.29612E-01 13554   0.780E-01    0.187E+00
RMM:  15    -0.659175278765E+03    0.15485E-01   -0.16441E-01 13814   0.560E-01    0.833E-01
RMM:  16    -0.659179298243E+03   -0.40195E-02   -0.86020E-02 13120   0.407E-01    0.597E-01
RMM:  17    -0.659184008409E+03   -0.47102E-02   -0.46281E-02 12431   0.379E-01    0.723E-01
RMM:  18    -0.659181704182E+03    0.23042E-02   -0.25669E-02 12754   0.237E-01    0.314E-01
RMM:  19    -0.659181928392E+03   -0.22421E-03   -0.15625E-02 13771   0.157E-01    0.162E-01
RMM:  20    -0.659182412211E+03   -0.48382E-03   -0.70063E-03 13417   0.962E-02    0.146E-01
RMM:  21    -0.659182566467E+03   -0.15426E-03   -0.41434E-03 12998   0.802E-02    0.550E-02
WARNING in EDDRMM: call to ZHEGV failed, returncode =   6  3      6
RMM:  22    -0.659182775098E+03   -0.20863E-03   -0.24273E-03 12517   0.557E-02    0.696E-02
RMM:  23    -0.659182872845E+03   -0.97747E-04   -0.14765E-03 11347   0.424E-02    0.325E-02
WARNING in EDDRMM: call to ZHEGV failed, returncode =   6  3      7
WARNING in EDDRMM: call to ZHEGV failed, returncode =   8  4      7
RMM:  24    -0.659182941001E+03   -0.68156E-04   -0.89322E-04  9790   0.317E-02    0.107E-02
RMM:  25    -0.659182988679E+03   -0.47677E-04   -0.52070E-04  9147   0.254E-02    0.692E-03
WARNING in EDDRMM: call to ZHEGV failed, returncode =   8  4      5
WARNING in EDDRMM: call to ZHEGV failed, returncode =   8  4      5
RMM:  26    -0.659183021331E+03   -0.32652E-04   -0.33484E-04  8665   0.212E-02    0.516E-03
RMM:  27    -0.659183041380E+03   -0.20049E-04   -0.19952E-04  7977   0.192E-02    0.260E-03
RMM:  28    -0.659183054407E+03   -0.13027E-04   -0.13193E-04  7622   0.161E-02    0.176E-03
RMM:  29    -0.659183062373E+03   -0.79664E-05   -0.80685E-05  6900   0.148E-02
   1 F= -.65918306E+03 E0= -.65910465E+03  d E =-.659183E+03
 curvature:   0.00 expect dE= 0.000E+00 dE for cont linesearch  0.000E+00
 trial: gam= 0.00000 g(F)=  0.793E-02 g(S)=  0.207E-01 ort = 0.000E+00 (trialstep = 0.100E+01)
 search vector abs. value=  0.286E-01
 bond charge predicted
       N       E                     dE             d eps       ncg     rms          rms(c)
DAV:   1    -0.659339236188E+03   -0.15618E+00   -0.60503E+00 11568   0.924E+00    0.355E+00
RMM:   2    -0.660135107844E+03   -0.79587E+00   -0.26804E+00 10225   0.407E+00    0.922E+00
RMM:   3    -0.659211928879E+03    0.92318E+00   -0.65583E-01  9847   0.251E+00    0.158E+00
RMM:   4    -0.659224735500E+03   -0.12807E-01   -0.14947E-01 11172   0.101E+00    0.215E+00
RMM:   5    -0.659183539924E+03    0.41196E-01   -0.53328E-02 10486   0.527E-01    0.676E-01
RMM:   6    -0.659183682037E+03   -0.14211E-03   -0.25965E-02 10699   0.391E-01    0.853E-01
RMM:   7    -0.659178030998E+03    0.56510E-02   -0.88232E-03 11043   0.219E-01    0.273E-01
RMM:   8    -0.659177747627E+03    0.28337E-03   -0.25461E-03 13514   0.114E-01    0.246E-01
RMM:   9    -0.659177378680E+03    0.36895E-03   -0.94828E-04 13294   0.598E-02    0.102E-01
RMM:  10    -0.659177405404E+03   -0.26725E-04   -0.44612E-04 12945   0.423E-02    0.644E-02
RMM:  11    -0.659177475955E+03   -0.70550E-04   -0.27575E-04 12035   0.284E-02    0.711E-02
RMM:  12    -0.659177519655E+03   -0.43700E-04   -0.20184E-04 11565   0.273E-02    0.382E-02
WARNING in EDDRMM: call to ZHEGV failed, returncode =   6  3     10
RMM:  13    -0.659177576453E+03   -0.56798E-04   -0.16347E-04 11236   0.230E-02    0.322E-02
RMM:  14    -0.659177602555E+03   -0.26102E-04   -0.11590E-04 10416   0.219E-02    0.341E-02
RMM:  15    -0.659177607336E+03   -0.47811E-05   -0.67857E-05  9153   0.193E-02
   2 F= -.65917761E+03 E0= -.65909985E+03  d E =0.545504E-02
 trial-energy change:    0.005455  1 .order    0.005091   -0.028609    0.038791
 step:   0.4166(harm=  0.4245)  dis= 0.00269  next Energy=  -659.188995 (dE=-0.593E-02)
 bond charge predicted
       N       E                     dE             d eps       ncg     rms          rms(c)
DAV:   1    -0.659246024101E+03   -0.68422E-01   -0.20683E+00 11016   0.539E+00    0.216E+00
RMM:   2    -0.659547170038E+03   -0.30115E+00   -0.87750E-01 10494   0.230E+00    0.534E+00
RMM:   3    -0.659199642463E+03    0.34753E+00   -0.23499E-01  9904   0.145E+00    0.826E-01
RMM:   4    -0.659206646480E+03   -0.70040E-02   -0.51543E-02 11207   0.614E-01    0.132E+00
RMM:   5    -0.659190966347E+03    0.15680E-01   -0.18293E-02 10716   0.294E-01    0.353E-01
RMM:   6    -0.659191456192E+03   -0.48984E-03   -0.86065E-03 10813   0.225E-01    0.511E-01
RMM:   7    -0.659189324411E+03    0.21318E-02   -0.27641E-03 11063   0.123E-01    0.145E-01
RMM:   8    -0.659189225874E+03    0.98537E-04   -0.90251E-04 12295   0.644E-02    0.145E-01
RMM:   9    -0.659189093851E+03    0.13202E-03   -0.33559E-04 11607   0.382E-02    0.650E-02
RMM:  10    -0.659189065136E+03    0.28716E-04   -0.14278E-04 11068   0.248E-02    0.354E-02
RMM:  11    -0.659189075211E+03   -0.10076E-04   -0.87763E-05  9310   0.195E-02    0.421E-02
RMM:  12    -0.659189065951E+03    0.92599E-05   -0.63845E-05  8525   0.187E-02
   3 F= -.65918907E+03 E0= -.65911092E+03  d E =-.600358E-02
 curvature:  -0.21 expect dE=-0.211E-02 dE for cont linesearch -0.160E-05
 trial: gam= 0.36349 g(F)=  0.707E-02 g(S)=  0.286E-02 ort =-0.464E-03 (trialstep = 0.883E+00)
 search vector abs. value=  0.134E-01
 bond charge predicted
       N       E                     dE             d eps       ncg     rms          rms(c)
DAV:   1    -0.659171744348E+03    0.17331E-01   -0.18773E+00  9744   0.479E+00    0.288E-01
RMM:   2    -0.659195927800E+03   -0.24183E-01   -0.25605E-01 13112   0.135E+00    0.353E-01
RMM:   3    -0.659196753539E+03   -0.82574E-03   -0.18951E-02 12875   0.405E-01    0.376E-01
RMM:   4    -0.659195709805E+03    0.10437E-02   -0.32088E-03 11791   0.152E-01    0.108E-01
RMM:   5    -0.659195707579E+03    0.22265E-05   -0.97927E-04 11963   0.696E-02    0.118E-01
RMM:   6    -0.659195631453E+03    0.76126E-04   -0.45229E-04 11623   0.427E-02    0.846E-02
RMM:   7    -0.659195595197E+03    0.36256E-04   -0.37041E-04 11421   0.360E-02    0.682E-02
RMM:   8    -0.659195560200E+03    0.34997E-04   -0.10779E-04  8622   0.267E-02    0.281E-02
RMM:   9    -0.659195562473E+03   -0.22727E-05   -0.65813E-05  7481   0.168E-02
   4 F= -.65919556E+03 E0= -.65911722E+03  d E =-.649652E-02
 trial-energy change:   -0.006497  1 .order   -0.006507   -0.008626   -0.004387
 step:   1.7976(harm=  1.7976)  dis= 0.01558  next Energy=  -659.197843 (dE=-0.878E-02)
 bond charge predicted
       N       E                     dE             d eps       ncg     rms          rms(c)
DAV:   1    -0.659172368151E+03    0.23192E-01   -0.20125E+00  9600   0.496E+00    0.298E-01
RMM:   2    -0.659198258703E+03   -0.25891E-01   -0.27464E-01 13094   0.140E+00    0.356E-01
RMM:   3    -0.659199190692E+03   -0.93199E-03   -0.20310E-02 12863   0.418E-01    0.385E-01
RMM:   4    -0.659198117879E+03    0.10728E-02   -0.37178E-03 12015   0.160E-01    0.116E-01
RMM:   5    -0.659198111208E+03    0.66717E-05   -0.11107E-03 11901   0.735E-02    0.119E-01
RMM:   6    -0.659198049299E+03    0.61909E-04   -0.53888E-04 11626   0.458E-02    0.973E-02
RMM:   7    -0.659198020992E+03    0.28307E-04   -0.43643E-04 11409   0.389E-02    0.806E-02
RMM:   8    -0.659197966644E+03    0.54348E-04   -0.15148E-04  9575   0.292E-02    0.269E-02
RMM:   9    -0.659197974537E+03   -0.78924E-05   -0.83264E-05  7927   0.183E-02
   5 F= -.65919797E+03 E0= -.65911945E+03  d E =-.890859E-02
 curvature:  -1.23 expect dE=-0.990E-02 dE for cont linesearch -0.333E-05
 trial: gam= 0.71967 g(F)=  0.759E-02 g(S)=  0.452E-03 ort = 0.190E-03 (trialstep = 0.935E+00)
 search vector abs. value=  0.152E-01
 bond charge predicted
       N       E                     dE             d eps       ncg     rms          rms(c)
DAV:   1    -0.659173395471E+03    0.24571E-01   -0.23895E+00  9168   0.533E+00    0.409E-01
RMM:   2    -0.659208207813E+03   -0.34812E-01   -0.34359E-01 13108   0.156E+00    0.675E-01
RMM:   3    -0.659204650136E+03    0.35577E-02   -0.26899E-02 12434   0.487E-01    0.306E-01
RMM:   4    -0.659204745778E+03   -0.95642E-04   -0.55283E-03 12695   0.179E-01    0.310E-01
RMM:   5    -0.659204003327E+03    0.74245E-03   -0.16521E-03 11864   0.956E-02    0.102E-01
RMM:   6    -0.659203962163E+03    0.41164E-04   -0.84712E-04 12131   0.558E-02    0.930E-02
RMM:   7    -0.659203979761E+03   -0.17598E-04   -0.52233E-04 11568   0.426E-02    0.115E-01
RMM:   8    -0.659203881638E+03    0.98122E-04   -0.21716E-04 10544   0.314E-02    0.348E-02
RMM:   9    -0.659203887622E+03   -0.59835E-05   -0.10542E-04  7598   0.206E-02    0.390E-02
RMM:  10    -0.659203877784E+03    0.98377E-05   -0.50491E-05  6377   0.167E-02
   6 F= -.65920388E+03 E0= -.65912549E+03  d E =-.590325E-02
 trial-energy change:   -0.005903  1 .order   -0.005829   -0.007653   -0.004005
 step:   1.7697(harm=  1.9621)  dis= 0.01497  next Energy=  -659.205716 (dE=-0.774E-02)
 bond charge predicted
       N       E                     dE             d eps       ncg     rms          rms(c)
DAV:   1    -0.659181888433E+03    0.21999E-01   -0.19023E+00  9168   0.478E+00    0.367E-01
RMM:   2    -0.659209846326E+03   -0.27958E-01   -0.27452E-01 13083   0.139E+00    0.615E-01
RMM:   3    -0.659206799314E+03    0.30470E-02   -0.21504E-02 12431   0.439E-01    0.269E-01
RMM:   4    -0.659206879397E+03   -0.80083E-04   -0.44376E-03 12712   0.160E-01    0.273E-01
RMM:   5    -0.659206309121E+03    0.57028E-03   -0.13543E-03 11688   0.867E-02    0.915E-02
RMM:   6    -0.659206294691E+03    0.14429E-04   -0.68547E-04 12011   0.500E-02    0.953E-02
RMM:   7    -0.659206292580E+03    0.21113E-05   -0.43962E-04 11346   0.387E-02    0.102E-01
RMM:   8    -0.659206212039E+03    0.80541E-04   -0.18963E-04 10231   0.293E-02    0.296E-02
RMM:   9    -0.659206219264E+03   -0.72257E-05   -0.87225E-05  7185   0.197E-02
   7 F= -.65920622E+03 E0= -.65912800E+03  d E =-.824473E-02
 curvature:  -1.76 expect dE=-0.174E-01 dE for cont linesearch -0.112E-03
 trial: gam= 1.16364 g(F)=  0.511E-02 g(S)=  0.478E-02 ort = 0.982E-03 (trialstep = 0.512E+00)
 search vector abs. value=  0.328E-01
 bond charge predicted
       N       E                     dE             d eps       ncg     rms          rms(c)
DAV:   1    -0.659194642440E+03    0.11570E-01   -0.15475E+00  9456   0.442E+00    0.708E-01
RMM:   2    -0.659245007854E+03   -0.50365E-01   -0.31276E-01 11151   0.153E+00    0.174E+00
RMM:   3    -0.659210986077E+03    0.34022E-01   -0.39936E-02 10318   0.701E-01    0.302E-01
RMM:   4    -0.659212216383E+03   -0.12303E-02   -0.10814E-02 12233   0.226E-01    0.469E-01
RMM:   5    -0.659210318617E+03    0.18978E-02   -0.25346E-03 11734   0.118E-01    0.142E-01
RMM:   6    -0.659210479282E+03   -0.16066E-03   -0.13683E-03 11635   0.754E-02    0.209E-01
RMM:   7    -0.659210153017E+03    0.32627E-03   -0.69343E-04 11706   0.562E-02    0.712E-02
RMM:   8    -0.659210143916E+03    0.91007E-05   -0.29677E-04 11686   0.330E-02    0.699E-02
RMM:   9    -0.659210120045E+03    0.23871E-04   -0.12001E-04  8613   0.228E-02    0.325E-02
RMM:  10    -0.659210121208E+03   -0.11624E-05   -0.55700E-05  6708   0.168E-02
   8 F= -.65921012E+03 E0= -.65913229E+03  d E =-.390194E-02
 trial-energy change:   -0.003902  1 .order   -0.003889   -0.005648   -0.002129
 step:   0.8218(harm=  0.8218)  dis= 0.01077  next Energy=  -659.210752 (dE=-0.453E-02)
 bond charge predicted
       N       E                     dE             d eps       ncg     rms          rms(c)
DAV:   1    -0.659205088058E+03    0.50320E-02   -0.56682E-01  9744   0.268E+00    0.431E-01
RMM:   2    -0.659223785262E+03   -0.18697E-01   -0.11458E-01 11059   0.921E-01    0.106E+00
RMM:   3    -0.659211096486E+03    0.12689E-01   -0.14758E-02 10226   0.426E-01    0.183E-01
RMM:   4    -0.659211557068E+03   -0.46058E-03   -0.40106E-03 12033   0.137E-01    0.284E-01
RMM:   5    -0.659210867850E+03    0.68922E-03   -0.95520E-04 11442   0.710E-02    0.839E-02
RMM:   6    -0.659210937565E+03   -0.69715E-04   -0.50395E-04 11468   0.455E-02    0.127E-01
RMM:   7    -0.659210820651E+03    0.11691E-03   -0.25632E-04 11088   0.345E-02    0.404E-02
RMM:   8    -0.659210822704E+03   -0.20532E-05   -0.10714E-04  9071   0.216E-02    0.395E-02
RMM:   9    -0.659210817155E+03    0.55488E-05   -0.44335E-05  6523   0.174E-02
   9 F= -.65921082E+03 E0= -.65913323E+03  d E =-.459789E-02
 curvature:  -1.22 expect dE=-0.146E-01 dE for cont linesearch -0.185E-07
 trial: gam= 1.34270 g(F)=  0.508E-02 g(S)=  0.684E-02 ort = 0.223E-04 (trialstep = 0.265E+00)
 search vector abs. value=  0.711E-01
 bond charge predicted
       N       E                     dE             d eps       ncg     rms          rms(c)
DAV:   1    -0.659202325229E+03    0.84975E-02   -0.88270E-01  9216   0.315E+00    0.216E-01
RMM:   2    -0.659213965077E+03   -0.11640E-01   -0.12308E-01 13264   0.909E-01    0.229E-01
RMM:   3    -0.659214092249E+03   -0.12717E-03   -0.85142E-03 12740   0.262E-01    0.221E-01
RMM:   4    -0.659213845811E+03    0.24644E-03   -0.17988E-03 12486   0.101E-01    0.130E-01
RMM:   5    -0.659213754529E+03    0.91283E-04   -0.57688E-04 11243   0.490E-02    0.691E-02
RMM:   6    -0.659213738149E+03    0.16380E-04   -0.27269E-04 11209   0.341E-02    0.649E-02
RMM:   7    -0.659213745390E+03   -0.72415E-05   -0.22434E-04 10499   0.279E-02    0.701E-02
RMM:   8    -0.659213707368E+03    0.38022E-04   -0.87093E-05  8082   0.236E-02    0.219E-02
RMM:   9    -0.659213709586E+03   -0.22174E-05   -0.43376E-05  6439   0.156E-02
  10 F= -.65921371E+03 E0= -.65913626E+03  d E =-.289243E-02
 trial-energy change:   -0.002892  1 .order   -0.002830   -0.003165   -0.002496
 step:   0.6735(harm=  1.2532)  dis= 0.01480  next Energy=  -659.215864 (dE=-0.505E-02)
 bond charge predicted
       N       E                     dE             d eps       ncg     rms          rms(c)
DAV:   1    -0.659189632888E+03    0.24074E-01   -0.21042E+00  9072   0.483E+00    0.336E-01
RMM:   2    -0.659217514590E+03   -0.27882E-01   -0.29441E-01 13266   0.140E+00    0.367E-01
RMM:   3    -0.659217775141E+03   -0.26055E-03   -0.20287E-02 12733   0.404E-01    0.355E-01
RMM:   4    -0.659217162883E+03    0.61226E-03   -0.43226E-03 12489   0.157E-01    0.209E-01
RMM:   5    -0.659216894948E+03    0.26793E-03   -0.13379E-03 11678   0.739E-02    0.999E-02
RMM:   6    -0.659216858896E+03    0.36052E-04   -0.64867E-04 11874   0.514E-02    0.973E-02
RMM:   7    -0.659216877020E+03   -0.18124E-04   -0.49443E-04 11619   0.404E-02    0.108E-01
RMM:   8    -0.659216788071E+03    0.88949E-04   -0.20457E-04 10665   0.316E-02    0.311E-02
RMM:   9    -0.659216793427E+03   -0.53562E-05   -0.97149E-05  7683   0.195E-02
  11 F= -.65921679E+03 E0= -.65913961E+03  d E =-.597627E-02
 curvature:  -2.45 expect dE=-0.186E-01 dE for cont linesearch -0.902E-03
 ZBRENT: increasing intervall
 opt :   1.4908  next Energy=  -659.217461 (dE=-0.664E-02)
 bond charge predicted
       N       E                     dE             d eps       ncg     rms          rms(c)
DAV:   1    -0.659108502233E+03    0.10829E+00   -0.84237E+00  9072   0.967E+00    0.671E-01
RMM:   2    -0.659220270482E+03   -0.11177E+00   -0.11828E+00 13289   0.282E+00    0.713E-01
RMM:   3    -0.659221515446E+03   -0.12450E-02   -0.79590E-02 12764   0.803E-01    0.717E-01
RMM:   4    -0.659218973137E+03    0.25423E-02   -0.17302E-02 12522   0.312E-01    0.416E-01
RMM:   5    -0.659217905045E+03    0.10681E-02   -0.52421E-03 12461   0.146E-01    0.198E-01
RMM:   6    -0.659217772106E+03    0.13294E-03   -0.26343E-03 12644   0.103E-01    0.199E-01
RMM:   7    -0.659217807866E+03   -0.35760E-04   -0.19434E-03 12365   0.798E-02    0.210E-01
RMM:   8    -0.659217472811E+03    0.33506E-03   -0.78771E-04 12094   0.588E-02    0.607E-02
RMM:   9    -0.659217496819E+03   -0.24008E-04   -0.38215E-04 10863   0.319E-02    0.685E-02
RMM:  10    -0.659217465359E+03    0.31460E-04   -0.20038E-04  9368   0.248E-02    0.209E-02
RMM:  11    -0.659217468974E+03   -0.36152E-05   -0.11392E-04  8118   0.170E-02    0.204E-02
RMM:  12    -0.659217470925E+03   -0.19511E-05   -0.56632E-05  6602   0.164E-02
  12 F= -.65921747E+03 E0= -.65914095E+03  d E =-.665377E-02
 curvature:  -1.81 expect dE=-0.301E-01 dE for cont linesearch -0.551E-03
 ZBRENT: bracketing found
 ZBRENT: interpolating
 opt :   1.1016  next Energy=  -659.218377 (dE=-0.756E-02)
 bond charge predicted
       N       E                     dE             d eps       ncg     rms          rms(c)
DAV:   1    -0.659193837893E+03    0.23631E-01   -0.19096E+00  9072   0.461E+00    0.319E-01
RMM:   2    -0.659218902854E+03   -0.25065E-01   -0.26528E-01 13228   0.133E+00    0.341E-01
RMM:   3    -0.659219088799E+03   -0.18594E-03   -0.17657E-02 12723   0.376E-01    0.338E-01
RMM:   4    -0.659218448864E+03    0.63993E-03   -0.37090E-03 12142   0.146E-01    0.188E-01
RMM:   5    -0.659218232468E+03    0.21640E-03   -0.10707E-03 11488   0.685E-02    0.100E-01
RMM:   6    -0.659218176641E+03    0.55827E-04   -0.48545E-04 11597   0.456E-02    0.893E-02
RMM:   7    -0.659218200643E+03   -0.24002E-04   -0.41622E-04 11207   0.384E-02    0.108E-01
RMM:   8    -0.659218113425E+03    0.87218E-04   -0.18103E-04 10136   0.311E-02    0.325E-02
RMM:   9    -0.659218115886E+03   -0.24609E-05   -0.70894E-05  7024   0.197E-02
  13 F= -.65921812E+03 E0= -.65914127E+03  d E =-.729873E-02
 curvature:  -2.97 expect dE=-0.326E-01 dE for cont linesearch -0.285E-04
 trial: gam= 0.49045 g(F)=  0.791E-02 g(S)=  0.306E-02 ort = 0.826E-03 (trialstep = 0.432E+00)
 search vector abs. value=  0.289E-01
 bond charge predicted
       N       E                     dE             d eps       ncg     rms          rms(c)
DAV:   1    -0.659213484040E+03    0.46294E-02   -0.92843E-01  9456   0.323E+00    0.544E-01
RMM:   2    -0.659241067145E+03   -0.27583E-01   -0.17507E-01 11634   0.113E+00    0.128E+00
RMM:   3    -0.659222579652E+03    0.18487E-01   -0.22220E-02 10636   0.504E-01    0.262E-01
RMM:   4    -0.659223104408E+03   -0.52476E-03   -0.60121E-03 12127   0.171E-01    0.369E-01
RMM:   5    -0.659221870009E+03    0.12344E-02   -0.16017E-03 11501   0.988E-02    0.103E-01
RMM:   6    -0.659221842960E+03    0.27049E-04   -0.86191E-04 11783   0.604E-02    0.123E-01
RMM:   7    -0.659221758970E+03    0.83990E-04   -0.40985E-04 11093   0.422E-02    0.822E-02
RMM:   8    -0.659221693888E+03    0.65082E-04   -0.15229E-04  9863   0.267E-02    0.366E-02
RMM:   9    -0.659221692403E+03    0.14846E-05   -0.61200E-05  6985   0.198E-02
  14 F= -.65922169E+03 E0= -.65914474E+03  d E =-.357652E-02
 trial-energy change:   -0.003577  1 .order   -0.003567   -0.004917   -0.002217
 step:   0.7870(harm=  0.7870)  dis= 0.01171  next Energy=  -659.222593 (dE=-0.448E-02)
 bond charge predicted
       N       E                     dE             d eps       ncg     rms          rms(c)
DAV:   1    -0.659217112029E+03    0.45819E-02   -0.62729E-01  9696   0.266E+00    0.450E-01
RMM:   2    -0.659236011031E+03   -0.18899E-01   -0.11922E-01 11593   0.932E-01    0.106E+00
RMM:   3    -0.659223318742E+03    0.12692E-01   -0.15246E-02 10576   0.417E-01    0.219E-01
RMM:   4    -0.659223693227E+03   -0.37448E-03   -0.42083E-03 12058   0.141E-01    0.307E-01
RMM:   5    -0.659222849893E+03    0.84333E-03   -0.11495E-03 11395   0.813E-02    0.837E-02
RMM:   6    -0.659222831045E+03    0.18848E-04   -0.62560E-04 11984   0.505E-02    0.955E-02
RMM:   7    -0.659222786058E+03    0.44987E-04   -0.30689E-04 10814   0.348E-02    0.673E-02
RMM:   8    -0.659222741418E+03    0.44640E-04   -0.11387E-04  8997   0.238E-02    0.242E-02
RMM:   9    -0.659222744595E+03   -0.31769E-05   -0.52950E-05  6723   0.175E-02
  15 F= -.65922274E+03 E0= -.65914572E+03  d E =-.462871E-02
 curvature:  -1.00 expect dE=-0.111E-01 dE for cont linesearch -0.550E-05
 trial: gam= 0.97054 g(F)=  0.366E-02 g(S)=  0.741E-02 ort = 0.399E-03 (trialstep = 0.372E+00)
 search vector abs. value=  0.391E-01
 bond charge predicted
       N       E                     dE             d eps       ncg     rms          rms(c)
DAV:   1    -0.659216395743E+03    0.63457E-02   -0.92299E-01  9408   0.309E+00    0.438E-01
RMM:   2    -0.659238789858E+03   -0.22394E-01   -0.15543E-01 12467   0.104E+00    0.106E+00
RMM:   3    -0.659226566714E+03    0.12223E-01   -0.17290E-02 11221   0.422E-01    0.207E-01
RMM:   4    -0.659226890956E+03   -0.32424E-03   -0.41029E-03 12590   0.140E-01    0.297E-01
RMM:   5    -0.659226167330E+03    0.72363E-03   -0.11296E-03 11988   0.809E-02    0.976E-02
RMM:   6    -0.659226257616E+03   -0.90286E-04   -0.71948E-04 11737   0.519E-02    0.149E-01
RMM:   7    -0.659226082299E+03    0.17532E-03   -0.39147E-04 11511   0.429E-02    0.429E-02
RMM:   8    -0.659226070925E+03    0.11373E-04   -0.15020E-04  9296   0.231E-02    0.253E-02
RMM:   9    -0.659226075946E+03   -0.50207E-05   -0.57233E-05  6595   0.198E-02
  16 F= -.65922608E+03 E0= -.65914910E+03  d E =-.333135E-02
 trial-energy change:   -0.003331  1 .order   -0.003286   -0.004263   -0.002309
 step:   0.7191(harm=  0.8121)  dis= 0.01208  next Energy=  -659.227188 (dE=-0.444E-02)
 bond charge predicted
       N       E                     dE             d eps       ncg     rms          rms(c)
DAV:   1    -0.659218997656E+03    0.70733E-02   -0.80229E-01  9408   0.288E+00    0.410E-01
RMM:   2    -0.659238582592E+03   -0.19585E-01   -0.13526E-01 12391   0.975E-01    0.989E-01
RMM:   3    -0.659227845265E+03    0.10737E-01   -0.15123E-02 11139   0.397E-01    0.187E-01
RMM:   4    -0.659228122736E+03   -0.27747E-03   -0.35350E-03 12492   0.129E-01    0.269E-01
RMM:   5    -0.659227532813E+03    0.58992E-03   -0.97293E-04 11877   0.739E-02    0.875E-02
RMM:   6    -0.659227616192E+03   -0.83379E-04   -0.61409E-04 11665   0.478E-02    0.137E-01
RMM:   7    -0.659227474719E+03    0.14147E-03   -0.32733E-04 11446   0.387E-02    0.402E-02
RMM:   8    -0.659227473059E+03    0.16600E-05   -0.13212E-04  9369   0.222E-02    0.328E-02
RMM:   9    -0.659227472008E+03    0.10507E-05   -0.52417E-05  6543   0.183E-02
  17 F= -.65922747E+03 E0= -.65915056E+03  d E =-.472741E-02
 curvature:  -1.32 expect dE=-0.690E-02 dE for cont linesearch -0.660E-04
 ZBRENT: extrapolating
 opt :   0.8198  next Energy=  -659.227542 (dE=-0.480E-02)
 bond charge predicted
       N       E                     dE             d eps       ncg     rms          rms(c)
DAV:   1    -0.659226816848E+03    0.65621E-03   -0.67871E-02 10080   0.840E-01    0.121E-01
RMM:   2    -0.659228527992E+03   -0.17111E-02   -0.11617E-02 12307   0.284E-01    0.293E-01
RMM:   3    -0.659227581797E+03    0.94619E-03   -0.13384E-03 11008   0.118E-01    0.556E-02
RMM:   4    -0.659227611841E+03   -0.30044E-04   -0.32809E-04 11085   0.383E-02    0.791E-02
RMM:   5    -0.659227562041E+03    0.49799E-04   -0.88599E-05  7517   0.254E-02    0.248E-02
RMM:   6    -0.659227572475E+03   -0.10434E-04   -0.58862E-05  6877   0.177E-02    0.394E-02
RMM:   7    -0.659227563262E+03    0.92126E-05   -0.30321E-05  5977   0.167E-02
  18 F= -.65922756E+03 E0= -.65915068E+03  d E =-.481867E-02
 curvature:  -1.41 expect dE=-0.909E-02 dE for cont linesearch -0.334E-05
 trial: gam= 0.58461 g(F)=  0.449E-02 g(S)=  0.195E-02 ort = 0.304E-03 (trialstep = 0.462E+00)
 search vector abs. value=  0.202E-01
 bond charge predicted
       N       E                     dE             d eps       ncg     rms          rms(c)
DAV:   1    -0.659221884241E+03    0.56882E-02   -0.72965E-01  9456   0.271E+00    0.207E-01
RMM:   2    -0.659230420975E+03   -0.85367E-02   -0.93534E-02 13332   0.809E-01    0.194E-01
RMM:   3    -0.659230597585E+03   -0.17661E-03   -0.63793E-03 12716   0.237E-01    0.206E-01
RMM:   4    -0.659230234320E+03    0.36326E-03   -0.13076E-03 12494   0.911E-02    0.846E-02
RMM:   5    -0.659230239310E+03   -0.49893E-05   -0.53081E-04 11603   0.468E-02    0.876E-02
RMM:   6    -0.659230188259E+03    0.51051E-04   -0.29494E-04 11403   0.358E-02    0.524E-02
RMM:   7    -0.659230189472E+03   -0.12130E-05   -0.17734E-04 10051   0.265E-02    0.546E-02
RMM:   8    -0.659230166572E+03    0.22900E-04   -0.56884E-05  6728   0.201E-02    0.156E-02
RMM:   9    -0.659230169346E+03   -0.27744E-05   -0.34145E-05  6267   0.146E-02
  19 F= -.65923017E+03 E0= -.65915332E+03  d E =-.260608E-02
 trial-energy change:   -0.002606  1 .order   -0.002561   -0.003060   -0.002062
 step:   1.0507(harm=  1.4160)  dis= 0.01099  next Energy=  -659.231578 (dE=-0.401E-02)
 bond charge predicted
       N       E                     dE             d eps       ncg     rms          rms(c)
DAV:   1    -0.659218552731E+03    0.11614E-01   -0.11885E+00  9408   0.346E+00    0.264E-01
RMM:   2    -0.659232543234E+03   -0.13991E-01   -0.15278E-01 13342   0.103E+00    0.262E-01
RMM:   3    -0.659232810189E+03   -0.26695E-03   -0.10500E-02 12732   0.305E-01    0.272E-01
RMM:   4    -0.659232249176E+03    0.56101E-03   -0.21879E-03 12744   0.118E-01    0.139E-01
RMM:   5    -0.659232184223E+03    0.64954E-04   -0.86096E-04 12142   0.583E-02    0.106E-01
RMM:   6    -0.659232135480E+03    0.48743E-04   -0.48890E-04 11938   0.454E-02    0.856E-02
RMM:   7    -0.659232112338E+03    0.23142E-04   -0.31171E-04 11140   0.335E-02    0.666E-02
RMM:   8    -0.659232079097E+03    0.33241E-04   -0.11423E-04  8707   0.245E-02    0.288E-02
RMM:   9    -0.659232079205E+03   -0.10800E-06   -0.61666E-05  6920   0.165E-02
  20 F= -.65923208E+03 E0= -.65915531E+03  d E =-.451594E-02
 curvature:  -1.84 expect dE=-0.721E-02 dE for cont linesearch -0.256E-03
 ZBRENT: increasing intervall
 opt :   2.2285  next Energy=  -659.230766 (dE=-0.320E-02)
 bond charge predicted
       N       E                     dE             d eps       ncg     rms          rms(c)
DAV:   1    -0.659176691123E+03    0.55388E-01   -0.47545E+00  9408   0.692E+00    0.530E-01
RMM:   2    -0.659232893464E+03   -0.56202E-01   -0.61201E-01 13344   0.206E+00    0.543E-01
RMM:   3    -0.659233704186E+03   -0.81072E-03   -0.41775E-02 12714   0.611E-01    0.540E-01
RMM:   4    -0.659231511873E+03    0.21923E-02   -0.86780E-03 12768   0.238E-01    0.284E-01
RMM:   5    -0.659231195434E+03    0.31644E-03   -0.33347E-03 12817   0.115E-01    0.210E-01
RMM:   6    -0.659231031977E+03    0.16346E-03   -0.19240E-03 12700   0.900E-02    0.179E-01
RMM:   7    -0.659230892925E+03    0.13905E-03   -0.11991E-03 12081   0.651E-02    0.127E-01
RMM:   8    -0.659230773240E+03    0.11969E-03   -0.45605E-04 11589   0.442E-02    0.594E-02
RMM:   9    -0.659230771556E+03    0.16839E-05   -0.23757E-04 10388   0.262E-02    0.417E-02
RMM:  10    -0.659230765015E+03    0.65409E-05   -0.12427E-04  8488   0.194E-02    0.163E-02
RMM:  11    -0.659230771456E+03   -0.64416E-05   -0.72421E-05  7110   0.159E-02
  21 F= -.65923077E+03 E0= -.65915425E+03  d E =-.320819E-02
 curvature:   9.44 expect dE= 0.146E+00 dE for cont linesearch  0.956E-02
 ZBRENT: bracketing found
 ZBRENT: interpolating
 opt :   1.3692  next Energy=  -659.232346 (dE=-0.478E-02)
 bond charge predicted
       N       E                     dE             d eps       ncg     rms          rms(c)
DAV:   1    -0.659204010814E+03    0.26754E-01   -0.25300E+00  9408   0.505E+00    0.388E-01
RMM:   2    -0.659233812028E+03   -0.29801E-01   -0.32455E-01 13325   0.150E+00    0.407E-01
RMM:   3    -0.659234073117E+03   -0.26109E-03   -0.22053E-02 12663   0.446E-01    0.400E-01
RMM:   4    -0.659232932804E+03    0.11403E-02   -0.45507E-03 12392   0.170E-01    0.223E-01
RMM:   5    -0.659232685266E+03    0.24754E-03   -0.16583E-03 12319   0.849E-02    0.151E-01
RMM:   6    -0.659232581058E+03    0.10421E-03   -0.92069E-04 12315   0.627E-02    0.130E-01
RMM:   7    -0.659232513098E+03    0.67960E-04   -0.61539E-04 11423   0.477E-02    0.991E-02
RMM:   8    -0.659232429554E+03    0.83544E-04   -0.22922E-04 10748   0.336E-02    0.414E-02
RMM:   9    -0.659232426490E+03    0.30642E-05   -0.10490E-04  8098   0.208E-02    0.309E-02
RMM:  10    -0.659232420823E+03    0.56669E-05   -0.49828E-05  6371   0.160E-02
  22 F= -.65923242E+03 E0= -.65915571E+03  d E =-.485756E-02
 curvature:  -0.26 expect dE=-0.140E-02 dE for cont linesearch -0.390E-05
 trial: gam= 0.69308 g(F)=  0.290E-02 g(S)=  0.241E-02 ort = 0.546E-03 (trialstep = 0.643E+00)
 search vector abs. value=  0.157E-01
 bond charge predicted
       N       E                     dE             d eps       ncg     rms          rms(c)
DAV:   1    -0.659223725368E+03    0.87011E-02   -0.11314E+00  9072   0.369E+00    0.556E-01
RMM:   2    -0.659254436146E+03   -0.30711E-01   -0.20444E-01 11864   0.125E+00    0.130E+00
RMM:   3    -0.659235571003E+03    0.18865E-01   -0.24675E-02 10659   0.542E-01    0.262E-01
RMM:   4    -0.659236167199E+03   -0.59620E-03   -0.66370E-03 12249   0.181E-01    0.376E-01
RMM:   5    -0.659234900493E+03    0.12667E-02   -0.16658E-03 11433   0.104E-01    0.111E-01
RMM:   6    -0.659234930095E+03   -0.29602E-04   -0.89918E-04 11644   0.623E-02    0.152E-01
RMM:   7    -0.659234765141E+03    0.16495E-03   -0.45124E-04 11358   0.452E-02    0.691E-02
RMM:   8    -0.659234721190E+03    0.43951E-04   -0.17612E-04 10622   0.276E-02    0.429E-02
RMM:   9    -0.659234714644E+03    0.65457E-05   -0.66865E-05  7237   0.200E-02
  23 F= -.65923471E+03 E0= -.65915797E+03  d E =-.229382E-02
 trial-energy change:   -0.002294  1 .order   -0.002254   -0.003658   -0.000851
 step:   0.8382(harm=  0.8382)  dis= 0.00544  next Energy=  -659.234804 (dE=-0.238E-02)
 bond charge predicted
       N       E                     dE             d eps       ncg     rms          rms(c)
DAV:   1    -0.659233851368E+03    0.86982E-03   -0.10428E-01  9744   0.112E+00    0.169E-01
RMM:   2    -0.659236687367E+03   -0.28360E-02   -0.18935E-02 11819   0.381E-01    0.395E-01
RMM:   3    -0.659234961187E+03    0.17262E-02   -0.23116E-03 10657   0.165E-01    0.814E-02
RMM:   4    -0.659235021702E+03   -0.60514E-04   -0.64390E-04 11575   0.544E-02    0.116E-01
RMM:   5    -0.659234902486E+03    0.11922E-03   -0.16779E-04  9175   0.343E-02    0.338E-02
RMM:   6    -0.659234905481E+03   -0.29947E-05   -0.93932E-05  8049   0.226E-02
  24 F= -.65923491E+03 E0= -.65915816E+03  d E =-.248466E-02
 curvature:  -1.16 expect dE=-0.444E-02 dE for cont linesearch -0.139E-04
 trial: gam= 0.61684 g(F)=  0.159E-02 g(S)=  0.223E-02 ort = 0.434E-03 (trialstep = 0.682E+00)
 search vector abs. value=  0.104E-01
 bond charge predicted
       N       E                     dE             d eps       ncg     rms          rms(c)
DAV:   1    -0.659229546281E+03    0.53562E-02   -0.82485E-01  9120   0.318E+00    0.508E-01
RMM:   2    -0.659253451312E+03   -0.23905E-01   -0.15095E-01 11833   0.108E+00    0.122E+00
RMM:   3    -0.659237252728E+03    0.16199E-01   -0.18916E-02 10427   0.473E-01    0.275E-01
RMM:   4    -0.659237824308E+03   -0.57158E-03   -0.55211E-03 12152   0.170E-01    0.379E-01
RMM:   5    -0.659236573354E+03    0.12510E-02   -0.15242E-03 11648   0.101E-01    0.100E-01
RMM:   6    -0.659236628609E+03   -0.55255E-04   -0.81043E-04 11683   0.577E-02    0.146E-01
RMM:   7    -0.659236473731E+03    0.15488E-03   -0.36604E-04 11127   0.421E-02    0.568E-02
RMM:   8    -0.659236451214E+03    0.22517E-04   -0.14028E-04  9255   0.240E-02    0.363E-02
RMM:   9    -0.659236449328E+03    0.18858E-05   -0.56579E-05  6664   0.195E-02
  25 F= -.65923645E+03 E0= -.65915991E+03  d E =-.154385E-02
 trial-energy change:   -0.001544  1 .order   -0.001472   -0.002794   -0.000149
 step:   0.7151(harm=  0.7208)  dis= 0.00322  next Energy=  -659.236453 (dE=-0.155E-02)
 bond charge predicted
       N       E                     dE             d eps       ncg     rms          rms(c)
DAV:   1    -0.659236437599E+03    0.13615E-04   -0.20120E-03 11088   0.156E-01    0.275E-02
RMM:   2    -0.659236513079E+03   -0.75480E-04   -0.40336E-04 11077   0.543E-02    0.694E-02
RMM:   3    -0.659236461164E+03    0.51916E-04   -0.54101E-05  6671   0.263E-02    0.158E-02
RMM:   4    -0.659236463167E+03   -0.20028E-05   -0.16060E-05  5585   0.138E-02
  26 F= -.65923646E+03 E0= -.65915994E+03  d E =-.155769E-02
 curvature:  -0.89 expect dE=-0.113E-02 dE for cont linesearch -0.536E-05
 trial: gam= 0.28982 g(F)=  0.916E-03 g(S)=  0.347E-03 ort = 0.250E-03 (trialstep = 0.689E+00)
 search vector abs. value=  0.228E-02
 bond charge predicted
       N       E                     dE             d eps       ncg     rms          rms(c)
DAV:   1    -0.659235502582E+03    0.95858E-03   -0.18068E-01  9600   0.143E+00    0.116E-01
RMM:   2    -0.659237438844E+03   -0.19363E-02   -0.20931E-02 13067   0.409E-01    0.141E-01
RMM:   3    -0.659237318131E+03    0.12071E-03   -0.16926E-03 12369   0.126E-01    0.945E-02
RMM:   4    -0.659237282710E+03    0.35421E-04   -0.36618E-04 11692   0.501E-02    0.844E-02
RMM:   5    -0.659237235204E+03    0.47506E-04   -0.13462E-04  9111   0.310E-02    0.360E-02
RMM:   6    -0.659237238814E+03   -0.36096E-05   -0.73946E-05  7696   0.202E-02
  27 F= -.65923724E+03 E0= -.65916078E+03  d E =-.775647E-03
 trial-energy change:   -0.000776  1 .order   -0.000735   -0.000920   -0.000550
 step:   1.1725(harm=  1.7154)  dis= 0.00285  next Energy=  -659.237446 (dE=-0.983E-03)
 bond charge predicted
       N       E                     dE             d eps       ncg     rms          rms(c)
DAV:   1    -0.659236648107E+03    0.58710E-03   -0.88654E-02  9216   0.100E+00    0.843E-02
RMM:   2    -0.659237630554E+03   -0.98245E-03   -0.10397E-02 13042   0.288E-01    0.114E-01
RMM:   3    -0.659237544719E+03    0.85835E-04   -0.90832E-04 12112   0.900E-02    0.687E-02
RMM:   4    -0.659237551233E+03   -0.65143E-05   -0.21371E-04 10204   0.385E-02    0.790E-02
RMM:   5    -0.659237502265E+03    0.48968E-04   -0.86667E-05  7840   0.258E-02    0.208E-02
RMM:   6    -0.659237511200E+03   -0.89351E-05   -0.48844E-05  6620   0.176E-02
  28 F= -.65923751E+03 E0= -.65916110E+03  d E =-.104803E-02
 curvature:  -1.05 expect dE=-0.925E-03 dE for cont linesearch -0.583E-04
 ZBRENT: increasing intervall
 opt :   2.1398  next Energy=  -659.237425 (dE=-0.962E-03)
 bond charge predicted
       N       E                     dE             d eps       ncg     rms          rms(c)
DAV:   1    -0.659234045707E+03    0.34566E-02   -0.35530E-01  9072   0.200E+00    0.164E-01
RMM:   2    -0.659237849109E+03   -0.38034E-02   -0.41275E-02 13078   0.575E-01    0.201E-01
RMM:   3    -0.659237623471E+03    0.22564E-03   -0.34790E-03 12455   0.180E-01    0.131E-01
RMM:   4    -0.659237534033E+03    0.89439E-04   -0.73774E-04 12517   0.705E-02    0.105E-01
RMM:   5    -0.659237465099E+03    0.68934E-04   -0.27635E-04 10817   0.394E-02    0.538E-02
RMM:   6    -0.659237475159E+03   -0.10060E-04   -0.15785E-04  9901   0.266E-02    0.641E-02
RMM:   7    -0.659237447424E+03    0.27735E-04   -0.91872E-05  8164   0.204E-02    0.287E-02
RMM:   8    -0.659237441108E+03    0.63159E-05   -0.29230E-05  6040   0.159E-02
  29 F= -.65923744E+03 E0= -.65916113E+03  d E =-.977941E-03
 curvature:   1.55 expect dE= 0.414E-02 dE for cont linesearch  0.172E-03
 ZBRENT: bracketing found
 ZBRENT: interpolating
 opt :   1.5730  next Energy=  -659.237582 (dE=-0.112E-02)
 bond charge predicted
       N       E                     dE             d eps       ncg     rms          rms(c)
DAV:   1    -0.659236448215E+03    0.99921E-03   -0.12233E-01  9168   0.117E+00    0.969E-02
RMM:   2    -0.659237752392E+03   -0.13042E-02   -0.14080E-02 13014   0.335E-01    0.123E-01
RMM:   3    -0.659237655928E+03    0.96464E-04   -0.11517E-03 12113   0.107E-01    0.768E-02
RMM:   4    -0.659237631016E+03    0.24912E-04   -0.24078E-04 10020   0.410E-02    0.699E-02
RMM:   5    -0.659237590457E+03    0.40558E-04   -0.77468E-05  7422   0.281E-02    0.264E-02
RMM:   6    -0.659237590508E+03   -0.50350E-07   -0.40273E-05  6421   0.165E-02
  30 F= -.65923759E+03 E0= -.65916121E+03  d E =-.112734E-02
 curvature:  -0.64 expect dE=-0.903E-03 dE for cont linesearch -0.787E-08
 trial: gam= 1.19923 g(F)=  0.652E-03 g(S)=  0.754E-03 ort =-0.528E-05 (trialstep = 0.422E+00)
 search vector abs. value=  0.467E-02
 bond charge predicted
       N       E                     dE             d eps       ncg     rms          rms(c)
DAV:   1    -0.659236672165E+03    0.91829E-03   -0.14527E-01  9216   0.137E+00    0.180E-01
RMM:   2    -0.659240196513E+03   -0.35243E-02   -0.23893E-02 11298   0.433E-01    0.430E-01
RMM:   3    -0.659238122829E+03    0.20737E-02   -0.28655E-03 10258   0.191E-01    0.932E-02
RMM:   4    -0.659238185715E+03   -0.62886E-04   -0.74712E-04 11822   0.624E-02    0.126E-01
RMM:   5    -0.659238046553E+03    0.13916E-03   -0.17373E-04  9481   0.364E-02    0.401E-02
RMM:   6    -0.659238049665E+03   -0.31117E-05   -0.85714E-05  8143   0.234E-02
  31 F= -.65923805E+03 E0= -.65916164E+03  d E =-.459157E-03
 trial-energy change:   -0.000459  1 .order   -0.000452   -0.000591   -0.000312
 step:   0.8933(harm=  0.8933)  dis= 0.00289  next Energy=  -659.238216 (dE=-0.626E-03)
 bond charge predicted
       N       E                     dE             d eps       ncg     rms          rms(c)
DAV:   1    -0.659236445127E+03    0.16014E-02   -0.17976E-01  9120   0.153E+00    0.204E-01
RMM:   2    -0.659240792592E+03   -0.43475E-02   -0.29837E-02 11220   0.486E-01    0.474E-01
RMM:   3    -0.659238229619E+03    0.25630E-02   -0.36242E-03 10321   0.214E-01    0.974E-02
RMM:   4    -0.659238343289E+03   -0.11367E-03   -0.95814E-04 11921   0.691E-02    0.149E-01
RMM:   5    -0.659238151812E+03    0.19148E-03   -0.24546E-04 10266   0.408E-02    0.411E-02
RMM:   6    -0.659238169415E+03   -0.17603E-04   -0.13607E-04  9118   0.267E-02    0.664E-02
RMM:   7    -0.659238131579E+03    0.37837E-04   -0.65289E-05  7544   0.204E-02    0.184E-02
RMM:   8    -0.659238129762E+03    0.18170E-05   -0.27184E-05  5998   0.159E-02
  32 F= -.65923813E+03 E0= -.65916170E+03  d E =-.539254E-03
 curvature:  -1.49 expect dE=-0.193E-02 dE for cont linesearch -0.151E-04
 trial: gam= 0.94271 g(F)=  0.551E-03 g(S)=  0.744E-03 ort =-0.218E-03 (trialstep = 0.479E+00)
 search vector abs. value=  0.503E-02
 bond charge predicted
       N       E                     dE             d eps       ncg     rms          rms(c)
DAV:   1    -0.659236351597E+03    0.17800E-02   -0.20286E-01  9072   0.163E+00    0.181E-01
RMM:   2    -0.659240477005E+03   -0.41254E-02   -0.31431E-02 12308   0.489E-01    0.413E-01
RMM:   3    -0.659238546913E+03    0.19301E-02   -0.33471E-03 11020   0.187E-01    0.976E-02
RMM:   4    -0.659238645618E+03   -0.98705E-04   -0.82065E-04 12117   0.665E-02    0.142E-01
RMM:   5    -0.659238475644E+03    0.16997E-03   -0.21370E-04 10270   0.388E-02    0.368E-02
RMM:   6    -0.659238491876E+03   -0.16232E-04   -0.12332E-04  8882   0.244E-02    0.606E-02
RMM:   7    -0.659238467563E+03    0.24313E-04   -0.55241E-05  6912   0.197E-02    0.244E-02
RMM:   8    -0.659238465233E+03    0.23298E-05   -0.24541E-05  5885   0.152E-02
  33 F= -.65923847E+03 E0= -.65916208E+03  d E =-.335472E-03
 trial-energy change:   -0.000335  1 .order   -0.000346   -0.000522   -0.000170
 step:   0.7093(harm=  0.7093)  dis= 0.00219  next Energy=  -659.238516 (dE=-0.387E-03)
 bond charge predicted
       N       E                     dE             d eps       ncg     rms          rms(c)
DAV:   1    -0.659238003240E+03    0.46432E-03   -0.46807E-02  9504   0.781E-01    0.862E-02
RMM:   2    -0.659238973266E+03   -0.97003E-03   -0.72928E-03 12168   0.235E-01    0.200E-01
RMM:   3    -0.659238521692E+03    0.45157E-03   -0.78766E-04 10869   0.904E-02    0.493E-02
RMM:   4    -0.659238543577E+03   -0.21885E-04   -0.19020E-04  9680   0.323E-02    0.676E-02
RMM:   5    -0.659238507757E+03    0.35820E-04   -0.50918E-05  6800   0.222E-02    0.186E-02
RMM:   6    -0.659238511817E+03   -0.40600E-05   -0.27402E-05  5965   0.145E-02
  34 F= -.65923851E+03 E0= -.65916216E+03  d E =-.382056E-03
 curvature:  -1.64 expect dE=-0.775E-03 dE for cont linesearch -0.197E-06
 trial: gam= 0.10077 g(F)=  0.381E-03 g(S)=  0.919E-04 ort = 0.246E-04 (trialstep = 0.525E+00)
 search vector abs. value=  0.529E-03
 bond charge predicted
       N       E                     dE             d eps       ncg     rms          rms(c)
DAV:   1    -0.659238479572E+03    0.28185E-04   -0.26103E-02  9744   0.598E-01    0.771E-02
RMM:   2    -0.659239035508E+03   -0.55594E-03   -0.40900E-03 11363   0.178E-01    0.170E-01
RMM:   3    -0.659238713297E+03    0.32221E-03   -0.46607E-04 10113   0.729E-02    0.463E-02
RMM:   4    -0.659238727393E+03   -0.14096E-04   -0.13258E-04  9103   0.273E-02    0.639E-02
RMM:   5    -0.659238690476E+03    0.36917E-04   -0.39588E-05  6420   0.202E-02    0.162E-02
RMM:   6    -0.659238696297E+03   -0.58218E-05   -0.23279E-05  5799   0.149E-02
  35 F= -.65923870E+03 E0= -.65916236E+03  d E =-.184480E-03
 trial-energy change:   -0.000184  1 .order   -0.000190   -0.000250   -0.000131
 step:   1.1029(harm=  1.1029)  dis= 0.00102  next Energy=  -659.238774 (dE=-0.262E-03)
 bond charge predicted
       N       E                     dE             d eps       ncg     rms          rms(c)
DAV:   1    -0.659238474378E+03    0.21610E-03   -0.31397E-02  9552   0.658E-01    0.846E-02
RMM:   2    -0.659239134801E+03   -0.66042E-03   -0.49512E-03 11414   0.194E-01    0.185E-01
RMM:   3    -0.659238757074E+03    0.37773E-03   -0.56714E-04 10363   0.797E-02    0.522E-02
RMM:   4    -0.659238776025E+03   -0.18950E-04   -0.16801E-04  9604   0.299E-02    0.733E-02
RMM:   5    -0.659238728588E+03    0.47436E-04   -0.51243E-05  6829   0.226E-02    0.191E-02
RMM:   6    -0.659238734512E+03   -0.59235E-05   -0.30414E-05  6053   0.162E-02
  36 F= -.65923873E+03 E0= -.65916243E+03  d E =-.222694E-03
 curvature:  -0.61 expect dE=-0.261E-03 dE for cont linesearch -0.265E-05
 trial: gam= 0.99600 g(F)=  0.165E-03 g(S)=  0.260E-03 ort =-0.478E-04 (trialstep = 0.396E+00)
 search vector abs. value=  0.855E-03
 bond charge predicted
       N       E                     dE             d eps       ncg     rms          rms(c)
DAV:   1    -0.659238701767E+03    0.26821E-04   -0.26004E-02  9768   0.644E-01    0.118E-01
RMM:   2    -0.659239817466E+03   -0.11157E-02   -0.58470E-03  9373   0.216E-01    0.286E-01
RMM:   3    -0.659238869181E+03    0.94829E-03   -0.89876E-04  9255   0.117E-01    0.493E-02
RMM:   4    -0.659238892474E+03   -0.23294E-04   -0.25257E-04 11520   0.347E-02    0.724E-02
RMM:   5    -0.659238844421E+03    0.48053E-04   -0.62063E-05  7597   0.222E-02    0.245E-02
RMM:   6    -0.659238840048E+03    0.43730E-05   -0.31343E-05  6027   0.171E-02
  37 F= -.65923884E+03 E0= -.65916249E+03  d E =-.105536E-03
 trial-energy change:   -0.000106  1 .order   -0.000105   -0.000150   -0.000061
 step:   0.6659(harm=  0.6659)  dis= 0.00090  next Energy=  -659.238860 (dE=-0.126E-03)
 bond charge predicted
       N       E                     dE             d eps       ncg     rms          rms(c)
DAV:   1    -0.659238786991E+03    0.57431E-04   -0.11871E-02  9744   0.437E-01    0.858E-02
RMM:   2    -0.659239385326E+03   -0.59834E-03   -0.28272E-03  9097   0.151E-01    0.218E-01
RMM:   3    -0.659238860911E+03    0.52441E-03   -0.46727E-04  8705   0.836E-02    0.416E-02
RMM:   4    -0.659238871774E+03   -0.10863E-04   -0.12473E-04  9072   0.255E-02    0.529E-02
RMM:   5    -0.659238842446E+03    0.29328E-04   -0.29913E-05  6010   0.194E-02    0.137E-02
RMM:   6    -0.659238844692E+03   -0.22456E-05   -0.19144E-05  5549   0.143E-02
  38 F= -.65923884E+03 E0= -.65916248E+03  d E =-.110180E-03
 curvature:  -0.75 expect dE=-0.271E-03 dE for cont linesearch -0.382E-05
 trial: gam= 0.61096 g(F)=  0.217E-03 g(S)=  0.142E-03 ort =-0.658E-04 (trialstep = 0.450E+00)
 search vector abs. value=  0.598E-03
 bond charge predicted
       N       E                     dE             d eps       ncg     rms          rms(c)
DAV:   1    -0.659238725469E+03    0.11698E-03   -0.22217E-02  9408   0.560E-01    0.529E-02
RMM:   2    -0.659239035056E+03   -0.30959E-03   -0.32058E-03 12057   0.154E-01    0.779E-02
RMM:   3    -0.659238964975E+03    0.70081E-04   -0.28144E-04  9654   0.513E-02    0.361E-02
RMM:   4    -0.659238963063E+03    0.19120E-05   -0.59754E-05  7039   0.223E-02
  39 F= -.65923896E+03 E0= -.65916258E+03  d E =-.118371E-03
 trial-energy change:   -0.000118  1 .order   -0.000112   -0.000144   -0.000080
 step:   1.0212(harm=  1.0212)  dis= 0.00135  next Energy=  -659.239008 (dE=-0.163E-03)
 bond charge predicted
       N       E                     dE             d eps       ncg     rms          rms(c)
DAV:   1    -0.659238626534E+03    0.33844E-03   -0.35742E-02  9168   0.709E-01    0.737E-02
RMM:   2    -0.659239195789E+03   -0.56926E-03   -0.52129E-03 12144   0.196E-01    0.148E-01
RMM:   3    -0.659238998923E+03    0.19687E-03   -0.47422E-04 10694   0.659E-02    0.563E-02
RMM:   4    -0.659239000082E+03   -0.11584E-05   -0.14965E-04  9417   0.288E-02    0.618E-02
RMM:   5    -0.659238960728E+03    0.39354E-04   -0.56681E-05  6779   0.222E-02    0.212E-02
RMM:   6    -0.659238960890E+03   -0.16177E-06   -0.30077E-05  6063   0.161E-02
  40 F= -.65923896E+03 E0= -.65916253E+03  d E =-.116198E-03
 curvature:  -0.96 expect dE=-0.381E-03 dE for cont linesearch -0.122E-04
 ZBRENT: interpolating
 opt :   0.8335  next Energy=  -659.238969 (dE=-0.124E-03)
 bond charge predicted
       N       E                     dE             d eps       ncg     rms          rms(c)
DAV:   1    -0.659238929327E+03    0.31401E-04   -0.39949E-03  9744   0.237E-01    0.257E-02
RMM:   2    -0.659239012734E+03   -0.83407E-04   -0.62048E-04 11183   0.682E-02    0.663E-02
RMM:   3    -0.659238968353E+03    0.44381E-04   -0.55403E-05  6281   0.272E-02    0.156E-02
RMM:   4    -0.659238965895E+03    0.24576E-05   -0.10306E-05  5286   0.132E-02
  41 F= -.65923897E+03 E0= -.65916255E+03  d E =-.121204E-03
 curvature:  -0.64 expect dE=-0.292E-03 dE for cont linesearch -0.123E-05
 trial: gam= 1.10769 g(F)=  0.115E-03 g(S)=  0.340E-03 ort =-0.339E-04 (trialstep = 0.283E+00)
 search vector abs. value=  0.111E-02
 bond charge predicted
       N       E                     dE             d eps       ncg     rms          rms(c)
DAV:   1    -0.659238920224E+03    0.48129E-04   -0.17367E-02  9744   0.533E-01    0.104E-01
RMM:   2    -0.659239822041E+03   -0.90182E-03   -0.42845E-03  9392   0.185E-01    0.266E-01
RMM:   3    -0.659239037884E+03    0.78416E-03   -0.69281E-04  9145   0.100E-01    0.540E-02
RMM:   4    -0.659239050462E+03   -0.12578E-04   -0.18400E-04  9801   0.310E-02    0.634E-02
RMM:   5    -0.659239013639E+03    0.36823E-04   -0.42392E-05  6513   0.214E-02    0.175E-02
RMM:   6    -0.659239016128E+03   -0.24890E-05   -0.20034E-05  5479   0.157E-02
  42 F= -.65923902E+03 E0= -.65916263E+03  d E =-.502325E-04
 trial-energy change:   -0.000050  1 .order   -0.000074   -0.000118   -0.000030
 step:   0.3781(harm=  0.3781)  dis= 0.00077  next Energy=  -659.239045 (dE=-0.789E-04)
 bond charge predicted
       N       E                     dE             d eps       ncg     rms          rms(c)
DAV:   1    -0.659238999995E+03    0.13643E-04   -0.19552E-03 10224   0.180E-01    0.408E-02
RMM:   2    -0.659239168982E+03   -0.16899E-03   -0.57634E-04  8897   0.672E-02    0.125E-01
RMM:   3    -0.659239017547E+03    0.15144E-03   -0.10580E-04  7430   0.380E-02    0.289E-02
RMM:   4    -0.659239012851E+03    0.46956E-05   -0.20919E-05  5649   0.145E-02
  43 F= -.65923901E+03 E0= -.65916263E+03  d E =-.469558E-04
 curvature:  -0.50 expect dE=-0.928E-04 dE for cont linesearch -0.497E-06
 trial: gam=-0.04376 g(F)=  0.132E-03 g(S)=  0.518E-04 ort = 0.331E-04 (trialstep = 0.302E+00)
 search vector abs. value=  0.183E-03
 bond charge predicted
       N       E                     dE             d eps       ncg     rms          rms(c)
DAV:   1    -0.659239038214E+03   -0.20668E-04   -0.27166E-03  9408   0.163E-01    0.439E-02
RMM:   2    -0.659239153785E+03   -0.11557E-03   -0.56573E-04  9674   0.666E-02    0.997E-02
RMM:   3    -0.659239039976E+03    0.11381E-03   -0.96050E-05  7667   0.365E-02    0.221E-02
RMM:   4    -0.659239045486E+03   -0.55096E-05   -0.26843E-05  5881   0.166E-02
  44 F= -.65923905E+03 E0= -.65916268E+03  d E =-.326350E-04
 trial-energy change:   -0.000033  1 .order   -0.000040   -0.000055   -0.000025
 step:   0.5597(harm=  0.5597)  dis= 0.00060  next Energy=  -659.239064 (dE=-0.511E-04)
 reached required accuracy - stopping structural energy minimisation
