HECN                                    
           1
     8.730077   -0.004777    0.017266
     0.000848    8.770912   -0.011556
     0.048681   -0.026773    8.756323
   V    Ta   Nb   N    C    W    Mo
   7   6   7  13  19   6   6
Direct configuration=     1
   0.03055237  0.98569117  0.99120872
   0.24279593  0.97717920  0.25815512
   0.26871340  0.51366450  0.25056927
   0.50134293  0.47871446  0.99252286
   0.49311237  0.25805498  0.75987462
   0.00478395  0.49867583  0.52602551
   0.50282428  0.72473899  0.73478177
   0.00543021  0.25360697  0.25517493
   0.74431118  0.74891210  0.00230975
   0.00771793  0.24469369  0.74692423
   0.75482156  0.26284552  0.50288562
   0.99940488  0.75607080  0.74977136
   0.25462545  0.49848599  0.75111956
   0.25125674  0.25096551  0.99502129
   0.49685804  0.24856404  0.24785792
   0.74830701  0.99414939  0.26208497
   0.74413062  0.24482289  0.99305405
   0.25052836  0.74805533  0.00311946
   0.24738721  0.24925882  0.50142081
   0.24841844  0.74775210  0.50129341
   0.24870644  0.25309470  0.24803751
   0.26362883  0.00072188  0.00944497
   0.99693952  0.24462135  0.00008202
   0.75321740  0.24830739  0.25146622
   0.75921341  0.99551653  0.01203584
   0.48607684  0.99490322  0.22597752
   0.00468836  0.49115828  0.23859963
   0.50290993  0.76188087  0.00049258
   0.97850660  0.00208076  0.75471202
   0.74871839  0.24739909  0.74593629
   0.74449808  0.00636204  0.51338070
   0.50654698  0.24644227  0.50758833
   0.48843044  0.00584856  0.73701207
   0.00408706  0.00489974  0.23876761
   0.49740245  0.25699012  0.99594585
   0.25069750  0.74694161  0.25177158
   0.25503018  0.50001484  0.00604162
   0.99829370  0.75321422  0.00260657
   0.74934127  0.74357534  0.25050826
   0.74889827  0.49757810  0.00475872
   0.48921693  0.50695289  0.24388969
   0.25829847  0.24952272  0.74847353
   0.25515815  0.99857136  0.50125770
   0.00017668  0.25482286  0.50010241
   0.25827184  0.75242695  0.75280362
   0.24672642  0.49903340  0.49332421
   0.99903659  0.74486525  0.49956294
   0.99890514  0.50075720  0.74799327
   0.74181608  0.75629689  0.74603553
   0.76114604  0.49767300  0.49956710
   0.50558510  0.75797519  0.51118682
   0.50082403  0.49457832  0.75391990
   0.51315094  0.01890237  0.97946643
   0.00165110  0.51231184  0.98456445
   0.49967303  0.75601017  0.26833690
   0.23192529  0.00346135  0.75727886
   0.49470674  0.99896676  0.47453560
   0.72606099  0.99185951  0.76955567
   0.99980731  0.76873153  0.25524969
   0.72034175  0.50155020  0.25194639
   0.01431628  0.00084054  0.48510840
   0.50050300  0.50860678  0.50200323
   0.74206868  0.51427248  0.75838274
   0.75747926  0.72455702  0.49511391
HECN                                    
           1
     8.711664   -0.004605    0.017362
     0.001007    8.747755   -0.011742
     0.048709   -0.026911    8.738445
   V    Ta   Nb   N    C    W    Mo
   7   6   7  13  19   6   6
Direct configuration=     2
   0.03029554  0.98560625  0.99104682
   0.24298057  0.97718876  0.25816624
   0.26854409  0.51354689  0.25064568
   0.50120912  0.47883430  0.99287932
   0.49308552  0.25790838  0.76017144
   0.00470739  0.49854749  0.52597664
   0.50308117  0.72521684  0.73454010
   0.00535704  0.25360486  0.25517575
   0.74425633  0.74897220  0.00227729
   0.00779084  0.24466972  0.74694357
   0.75485825  0.26265334  0.50273852
   0.99940716  0.75598007  0.74969394
   0.25471067  0.49857417  0.75120663
   0.25115851  0.25092215  0.99495965
   0.49681488  0.24847503  0.24801429
   0.74830100  0.99412771  0.26227017
   0.74432920  0.24479342  0.99296879
   0.25055782  0.74801609  0.00325562
   0.24741514  0.24915364  0.50150215
   0.24832245  0.74778419  0.50119424
   0.24858757  0.25325612  0.24801442
   0.26339908  0.00074194  0.00968709
   0.99708595  0.24458895  0.00003714
   0.75327930  0.24830656  0.25138716
   0.75937039  0.99540625  0.01198205
   0.48587981  0.99447313  0.22610532
   0.00440448  0.49110437  0.23867373
   0.50281663  0.76205347  0.00049540
   0.97829752  0.00212486  0.75443968
   0.74888620  0.24729184  0.74588591
   0.74443331  0.00654429  0.51350411
   0.50659595  0.24693301  0.50761027
   0.48845005  0.00589291  0.73672794
   0.00392675  0.00514721  0.23844650
   0.49745500  0.25678139  0.99622843
   0.25067456  0.74679735  0.25181798
   0.25500904  0.49995841  0.00613030
   0.99827653  0.75317016  0.00243957
   0.74945008  0.74369756  0.25062472
   0.74891763  0.49744301  0.00471457
   0.48958294  0.50665457  0.24401885
   0.25834397  0.24956349  0.74835772
   0.25498376  0.99860859  0.50127067
   0.00021597  0.25479213  0.50002737
   0.25837632  0.75240773  0.75273388
   0.24692229  0.49904576  0.49334418
   0.99892135  0.74488747  0.49949045
   0.99895171  0.50065508  0.74810758
   0.74185425  0.75620426  0.74618059
   0.76135903  0.49764814  0.49954385
   0.50552612  0.75828476  0.51081352
   0.50105893  0.49493574  0.75397928
   0.51287520  0.01864384  0.97939022
   0.00179788  0.51217848  0.98468690
   0.49966206  0.75583180  0.26806020
   0.23190502  0.00329586  0.75750323
   0.49451495  0.99970278  0.47436169
   0.72628598  0.99164590  0.76973343
   0.99985591  0.76870542  0.25529762
   0.72055787  0.50178386  0.25178948
   0.01414627  0.00086950  0.48510637
   0.50044803  0.50842450  0.50200416
   0.74208424  0.51424295  0.75838733
   0.75739179  0.72469885  0.49523243
HECN                                    
           1
     8.722406   -0.004706    0.017306
     0.000915    8.761265   -0.011633
     0.048693   -0.026831    8.748875
   V    Ta   Nb   N    C    W    Mo
   7   6   7  13  19   6   6
Direct configuration=     3
   0.03044570  0.98565593  0.99114147
   0.24287262  0.97718317  0.25815974
   0.26864308  0.51361568  0.25060101
   0.50128736  0.47876420  0.99267093
   0.49310122  0.25799413  0.75999792
   0.00475215  0.49862256  0.52600521
   0.50293099  0.72493732  0.73468138
   0.00539982  0.25360609  0.25517527
   0.74428840  0.74893705  0.00229626
   0.00774822  0.24468375  0.74693226
   0.75483680  0.26276576  0.50282452
   0.99940583  0.75603314  0.74973920
   0.25466085  0.49852259  0.75115573
   0.25121594  0.25094751  0.99499568
   0.49684011  0.24852710  0.24792288
   0.74830452  0.99414039  0.26216191
   0.74421310  0.24481066  0.99301864
   0.25054060  0.74803904  0.00317602
   0.24739881  0.24921516  0.50145460
   0.24837857  0.74776542  0.50125221
   0.24865707  0.25316169  0.24802791
   0.26353340  0.00073020  0.00954555
   0.99700034  0.24460790  0.00006338
   0.75324311  0.24830704  0.25143338
   0.75927861  0.99547076  0.01201350
   0.48599500  0.99472471  0.22603061
   0.00457045  0.49113590  0.23863041
   0.50287118  0.76195251  0.00049375
   0.97841975  0.00209906  0.75459889
   0.74878809  0.24735458  0.74591537
   0.74447118  0.00643768  0.51343196
   0.50656732  0.24664595  0.50759744
   0.48843859  0.00586697  0.73689404
   0.00402047  0.00500246  0.23863422
   0.49742428  0.25690348  0.99606324
   0.25068797  0.74688174  0.25179086
   0.25502140  0.49999142  0.00607846
   0.99828656  0.75319593  0.00253720
   0.74938646  0.74362606  0.25055664
   0.74890631  0.49752203  0.00474038
   0.48936895  0.50682907  0.24394335
   0.25831737  0.24953964  0.74842542
   0.25508572  0.99858681  0.50126309
   0.00019300  0.25481011  0.50007124
   0.25831524  0.75241898  0.75277465
   0.24680778  0.49903853  0.49333250
   0.99898873  0.74487447  0.49953283
   0.99892449  0.50071481  0.74804075
   0.74183193  0.75625844  0.74609579
   0.76123451  0.49766268  0.49955744
   0.50556060  0.75810368  0.51103175
   0.50092160  0.49472667  0.75394456
   0.51303641  0.01879507  0.97943477
   0.00171207  0.51225649  0.98461532
   0.49966847  0.75593614  0.26822196
   0.23191687  0.00339266  0.75737206
   0.49462709  0.99927224  0.47446335
   0.72615444  0.99177085  0.76962952
   0.99982750  0.76872070  0.25526960
   0.72043152  0.50164718  0.25188121
   0.01424567  0.00085256  0.48510755
   0.50048017  0.50853112  0.50200362
   0.74207514  0.51426022  0.75838465
   0.75744293  0.72461589  0.49516314
HECN                                    
           1
     8.723103   -0.004530    0.017320
     0.001091    8.759403   -0.011860
     0.048707   -0.027048    8.750495
   V    Ta   Nb   N    C    W    Mo
   7   6   7  13  19   6   6
Direct configuration=     4
   0.03010153  0.98562079  0.99096879
   0.24302767  0.97728445  0.25814558
   0.26845599  0.51340025  0.25068296
   0.50113727  0.47896200  0.99306121
   0.49313437  0.25781357  0.76029286
   0.00468429  0.49849336  0.52587980
   0.50318766  0.72556215  0.73443013
   0.00530336  0.25355641  0.25514261
   0.74426004  0.74899771  0.00228334
   0.00778765  0.24470344  0.74697164
   0.75486287  0.26249087  0.50265662
   0.99941343  0.75591465  0.74964658
   0.25478019  0.49865109  0.75123159
   0.25109344  0.25087312  0.99495770
   0.49679632  0.24834421  0.24815036
   0.74828945  0.99418309  0.26232838
   0.74445304  0.24476302  0.99295907
   0.25058636  0.74802834  0.00332979
   0.24748436  0.24912102  0.50149186
   0.24829348  0.74779767  0.50115132
   0.24856572  0.25334448  0.24799517
   0.26327974  0.00074231  0.00986391
   0.99714571  0.24455389  0.00002119
   0.75327933  0.24831714  0.25130482
   0.75951121  0.99537493  0.01202549
   0.48577184  0.99429871  0.22607973
   0.00426303  0.49123315  0.23877402
   0.50271357  0.76206098  0.00047253
   0.97819570  0.00212667  0.75425422
   0.74892850  0.24725527  0.74587863
   0.74442750  0.00657242  0.51359463
   0.50658123  0.24724884  0.50770069
   0.48842596  0.00589571  0.73653018
   0.00387122  0.00522722  0.23825902
   0.49747841  0.25673431  0.99638603
   0.25064281  0.74671633  0.25183175
   0.25503816  0.49993058  0.00621973
   0.99826789  0.75316830  0.00240173
   0.74951623  0.74377131  0.25064941
   0.74891466  0.49737438  0.00470384
   0.48960488  0.50648773  0.24404133
   0.25841264  0.24956964  0.74831695
   0.25488321  0.99861847  0.50129629
   0.00026915  0.25480266  0.50000822
   0.25846117  0.75240881  0.75271253
   0.24698013  0.49904599  0.49333661
   0.99889672  0.74487223  0.49946170
   0.99897548  0.50059728  0.74812418
   0.74189011  0.75611827  0.74622296
   0.76147026  0.49764075  0.49953128
   0.50547967  0.75846814  0.51065386
   0.50112876  0.49508062  0.75406050
   0.51274431  0.01845482  0.97938595
   0.00186393  0.51204196  0.98480053
   0.49964723  0.75564623  0.26789450
   0.23193097  0.00318239  0.75759054
   0.49443318  0.00014556  0.47433887
   0.72637645  0.99163466  0.76970860
   0.99990420  0.76860178  0.25526331
   0.72084314  0.50183884  0.25171957
   0.01395269  0.00088587  0.48511678
   0.50046815  0.50832146  0.50200627
   0.74213201  0.51412042  0.75836567
   0.75730074  0.72490702  0.49533424
HECN                                    
           1
     8.723824   -0.004348    0.017334
     0.001273    8.757475   -0.012095
     0.048721   -0.027274    8.752172
   V    Ta   Nb   N    C    W    Mo
   7   6   7  13  19   6   6
Direct configuration=     5
   0.02974532  0.98558441  0.99079009
   0.24318814  0.97738930  0.25813092
   0.26826237  0.51317722  0.25076777
   0.50098192  0.47916681  0.99346511
   0.49316868  0.25762664  0.76059808
   0.00461406  0.49835960  0.52575002
   0.50345330  0.72620903  0.73417013
   0.00520353  0.25350497  0.25510881
   0.74423069  0.74906052  0.00226997
   0.00782846  0.24472384  0.74701240
   0.75488986  0.26220626  0.50248285
   0.99942130  0.75579198  0.74955073
   0.25490370  0.49878412  0.75131010
   0.25096665  0.25079610  0.99491838
   0.49675101  0.24815488  0.24838577
   0.74827385  0.99422730  0.26250067
   0.74470137  0.24471369  0.99289742
   0.25063371  0.74801726  0.00348892
   0.24757290  0.24902356  0.50153042
   0.24820541  0.74783105  0.50104691
   0.24847118  0.25353372  0.24796128
   0.26301721  0.00075487  0.01019339
   0.99729618  0.24449796 -0.00002247
   0.75331683  0.24832759  0.25117177
   0.75975196  0.99527572  0.01203790
   0.48554089  0.99385769  0.22613055
   0.00394485  0.49133385  0.23892264
   0.50255044  0.76217329  0.00045059
   0.97796381  0.00215524  0.75389754
   0.74907383  0.24715245  0.74584062
   0.74438229  0.00671193  0.51376298
   0.50659561  0.24787302  0.50780755
   0.48841289  0.00592547  0.73615362
   0.00371675  0.00545992  0.23787073
   0.49753445  0.25655918  0.99672008
   0.25059608  0.74654508  0.25187406
   0.25505551  0.49986760  0.00636592
   0.99824856  0.75313970  0.00226153
   0.74965053  0.74392168  0.25074542
   0.74892331  0.49722151  0.00466602
   0.48984906  0.50613433  0.24414271
   0.25851125  0.24960069  0.74820470
   0.25467361  0.99865125  0.50133065
   0.00034797  0.25479494  0.49994299
   0.25861220  0.75239827  0.75264824
   0.24715851  0.49905370  0.49334086
   0.99880149  0.74486991  0.49938809
   0.99902826  0.50047560  0.74821051
   0.74195033  0.75597316  0.74635456
   0.76171427  0.49761804  0.49950421
   0.50539591  0.75884546  0.51026281
   0.50134317  0.49544706  0.75418049
   0.51244200  0.01810256  0.97933541
   0.00202111  0.51181985  0.98499220
   0.49962525  0.75534609  0.26755562
   0.23194556  0.00296470  0.75781663
   0.49423246  0.00104970  0.47421007
   0.72660623  0.99149365  0.76979044
   0.99998359  0.76847867  0.25525681
   0.72126916  0.50203725  0.25155229
   0.01364946  0.00092037  0.48512632
   0.50045572  0.50810440  0.50200901
   0.74219086  0.51397568  0.75834604
   0.75715357  0.72520845  0.49551132
HECN                                    
           1
     8.722973   -0.004278    0.017048
     0.001343    8.760314   -0.011588
     0.048424   -0.026772    8.754705
   V    Ta   Nb   N    C    W    Mo
   7   6   7  13  19   6   6
Direct configuration=     6
   0.02951747  0.98551182  0.99048425
   0.24297120  0.97740417  0.25816830
   0.26846746  0.51291909  0.25085936
   0.50087726  0.47910579  0.99370419
   0.49332774  0.25745597  0.76102261
   0.00462994  0.49833603  0.52584788
   0.50371307  0.72671953  0.73351655
   0.00515712  0.25328021  0.25514117
   0.74429438  0.74905764  0.00238083
   0.00795978  0.24484466  0.74695635
   0.75498088  0.26206558  0.50236348
   0.99946044  0.75558570  0.74946928
   0.25521898  0.49897521  0.75133192
   0.25103066  0.25070359  0.99479308
   0.49675655  0.24759419  0.24871980
   0.74829301  0.99431665  0.26255741
   0.74465120  0.24452825  0.99282817
   0.25050423  0.74803867  0.00368034
   0.24763187  0.24903731  0.50152339
   0.24817967  0.74784723  0.50088942
   0.24837106  0.25377593  0.24792682
   0.26267288  0.00073262  0.01050049
   0.99735513  0.24446993 -0.00006379
   0.75327217  0.24839197  0.25101114
   0.75979015  0.99521694  0.01210695
   0.48540378  0.99346139  0.22596032
   0.00362245  0.49162072  0.23910645
   0.50245820  0.76208086  0.00043799
   0.97797922  0.00210279  0.75340382
   0.74914961  0.24705139  0.74579424
   0.74427159  0.00672101  0.51395329
   0.50659908  0.24865584  0.50818759
   0.48854415  0.00598358  0.73587875
   0.00370263  0.00524265  0.23779273
   0.49764384  0.25649259  0.99706505
   0.25056083  0.74646969  0.25190945
   0.25507722  0.49983695  0.00647048
   0.99822853  0.75296979  0.00220555
   0.74968294  0.74406703  0.25071889
   0.74897353  0.49724122  0.00458536
   0.48978082  0.50577758  0.24428519
   0.25859931  0.24954948  0.74825617
   0.25437689  0.99864183  0.50146135
   0.00047646  0.25479529  0.49990848
   0.25870385  0.75242405  0.75267430
   0.24725144  0.49905742  0.49343862
   0.99877321  0.74487112  0.49935968
   0.99919283  0.50038708  0.74823324
   0.74216132  0.75572656  0.74643400
   0.76174700  0.49777078  0.49942436
   0.50524551  0.75933380  0.50983322
   0.50136326  0.49580506  0.75440370
   0.51263926  0.01803384  0.97908754
   0.00214615  0.51173613  0.98496535
   0.49958692  0.75467459  0.26770554
   0.23186343  0.00276314  0.75792936
   0.49391673  0.00195261  0.47397284
   0.72622235  0.99149937  0.76988139
   0.00022285  0.76869076  0.25515383
   0.72160181  0.50226962  0.25151202
   0.01335511  0.00092841  0.48476445
   0.50076235  0.50836072  0.50205602
   0.74214795  0.51384507  0.75835690
   0.75688167  0.72519330  0.49571321
HECN                                    
           1
     8.722214   -0.004216    0.016793
     0.001406    8.762846   -0.011137
     0.048160   -0.026325    8.756964
   V    Ta   Nb   N    C    W    Mo
   7   6   7  13  19   6   6
Direct configuration=     7
   0.02931421  0.98544712  0.99021154
   0.24277769  0.97741743  0.25820163
   0.26865041  0.51268894  0.25094105
   0.50078391  0.47905136  0.99391736
   0.49346964  0.25730377  0.76140117
   0.00464410  0.49831500  0.52593514
   0.50394476  0.72717474  0.73293375
   0.00511573  0.25307980  0.25517004
   0.74435119  0.74905507  0.00247968
   0.00807692  0.24495240  0.74690636
   0.75506207  0.26194014  0.50225705
   0.99949535  0.75540178  0.74939666
   0.25550021  0.49914558  0.75135137
   0.25108774  0.25062111  0.99468137
   0.49676152  0.24709424  0.24901767
   0.74831010  0.99439630  0.26260801
   0.74460644  0.24436291  0.99276644
   0.25038873  0.74805774  0.00385102
   0.24768447  0.24904956  0.50151712
   0.24815670  0.74786166  0.50074899
   0.24828175  0.25399189  0.24789607
   0.26236575  0.00071277  0.01077431
   0.99740772  0.24444495 -0.00010064
   0.75323233  0.24844937  0.25086792
   0.75982423  0.99516453  0.01216853
   0.48528148  0.99310804  0.22580855
   0.00333487  0.49187650  0.23927033
   0.50237592  0.76199844  0.00042676
   0.97799296  0.00205605  0.75296358
   0.74921720  0.24696127  0.74575289
   0.74417286  0.00672910  0.51412299
   0.50660218  0.24935381  0.50852642
   0.48866123  0.00603541  0.73563365
   0.00369004  0.00504894  0.23772319
   0.49774143  0.25643319  0.99737265
   0.25052938  0.74640246  0.25194102
   0.25509659  0.49980962  0.00656372
   0.99821067  0.75281830  0.00215564
   0.74971185  0.74419663  0.25069523
   0.74901833  0.49725878  0.00451344
   0.48971996  0.50545948  0.24441225
   0.25867786  0.24950381  0.74830207
   0.25411222  0.99863342  0.50157788
   0.00059108  0.25479560  0.49987772
   0.25878561  0.75244703  0.75269754
   0.24733434  0.49906073  0.49352578
   0.99874799  0.74487219  0.49933435
   0.99933962  0.50030815  0.74825352
   0.74234953  0.75550668  0.74650486
   0.76177619  0.49790697  0.49935314
   0.50511134  0.75976924  0.50945013
   0.50138118  0.49612426  0.75460272
   0.51281521  0.01797257  0.97886654
   0.00225770  0.51166148  0.98494142
   0.49955274  0.75407584  0.26783926
   0.23179017  0.00258341  0.75802988
   0.49363507  0.00275769  0.47376126
   0.72587993  0.99150448  0.76996248
   0.00043627  0.76887987  0.25506201
   0.72189853  0.50247681  0.25147610
   0.01309253  0.00093559  0.48444177
   0.50103587  0.50858927  0.50209794
   0.74210967  0.51372862  0.75836659
   0.75663913  0.72517979  0.49589323
HECN                                    
           1
     8.718732   -0.004400    0.016554
     0.001217    8.757873   -0.009982
     0.047906   -0.025161    8.754536
   V    Ta   Nb   N    C    W    Mo
   7   6   7  13  19   6   6
Direct configuration=     8
   0.02920234  0.98536986  0.98983624
   0.24261844  0.97736668  0.25823466
   0.26877903  0.51257076  0.25101437
   0.50074495  0.47896023  0.99397651
   0.49365161  0.25726585  0.76166515
   0.00469148  0.49838056  0.52605833
   0.50415541  0.72741415  0.73233147
   0.00508983  0.25294936  0.25518266
   0.74439581  0.74901874  0.00253222
   0.00815465  0.24497207  0.74686075
   0.75512774  0.26199249  0.50220707
   0.99951909  0.75531554  0.74937324
   0.25568990  0.49923897  0.75136154
   0.25122821  0.25058334  0.99461293
   0.49676752  0.24646392  0.24937721
   0.74829365  0.99445353  0.26264073
   0.74452375  0.24425051  0.99268666
   0.25026766  0.74804715  0.00399651
   0.24771418  0.24908900  0.50154219
   0.24813376  0.74784109  0.50065857
   0.24821236  0.25418302  0.24788329
   0.26217947  0.00071276  0.01090191
   0.99740744  0.24442053 -0.00012153
   0.75318416  0.24853331  0.25076919
   0.75973068  0.99513370  0.01218837
   0.48528076  0.99272839  0.22568089
   0.00309191  0.49192113  0.23935170
   0.50241858  0.76187074  0.00043751
   0.97810209  0.00199231  0.75259809
   0.74922385  0.24685067  0.74575512
   0.74401110  0.00673032  0.51420866
   0.50662062  0.24989533  0.50891149
   0.48870385  0.00610433  0.73552608
   0.00365796  0.00501696  0.23760959
   0.49776260  0.25636956  0.99765595
   0.25054994  0.74636754  0.25195466
   0.25514819  0.49977978  0.00658365
   0.99817715  0.75268854  0.00216687
   0.74969573  0.74430479  0.25070270
   0.74903051  0.49726147  0.00445159
   0.48982958  0.50513334  0.24453374
   0.25875630  0.24948047  0.74835153
   0.25388931  0.99864180  0.50169484
   0.00065879  0.25481665  0.49985507
   0.25884818  0.75248593  0.75272385
   0.24739126  0.49908544  0.49363018
   0.99870422  0.74489391  0.49929898
   0.99947422  0.50029037  0.74826503
   0.74249975  0.75544542  0.74654536
   0.76175202  0.49781124  0.49933182
   0.50504035  0.76022192  0.50921259
   0.50142649  0.49631056  0.75475110
   0.51279763  0.01796192  0.97884330
   0.00234096  0.51165578  0.98484023
   0.49951827  0.75357772  0.26802232
   0.23168476  0.00247861  0.75811502
   0.49341925  0.00352264  0.47345581
   0.72577540  0.99146201  0.76985773
   0.00065766  0.76895125  0.25504140
   0.72197309  0.50266627  0.25143517
   0.01289759  0.00092064  0.48424093
   0.50130384  0.50898811  0.50217079
   0.74202215  0.51363956  0.75840216
   0.75640133  0.72514924  0.49601639
HECN                                    
           1
     8.716626   -0.004511    0.016409
     0.001103    8.754865   -0.009284
     0.047753   -0.024457    8.753068
   V    Ta   Nb   N    C    W    Mo
   7   6   7  13  19   6   6
Direct configuration=     9
   0.02913465  0.98532313  0.98960917
   0.24252207  0.97733596  0.25825464
   0.26885686  0.51249924  0.25105874
   0.50072138  0.47890507  0.99401230
   0.49376173  0.25724288  0.76182488
   0.00472015  0.49842023  0.52613285
   0.50428287  0.72755908  0.73196706
   0.00507415  0.25287041  0.25519031
   0.74442281  0.74899676  0.00256402
   0.00820168  0.24498397  0.74683315
   0.75516748  0.26202418  0.50217683
   0.99953346  0.75526335  0.74935908
   0.25580468  0.49929550  0.75136768
   0.25131320  0.25056049  0.99457154
   0.49677115  0.24608242  0.24959479
   0.74828370  0.99448816  0.26266052
   0.74447371  0.24418249  0.99263841
   0.25019441  0.74804073  0.00408453
   0.24773215  0.24911287  0.50155735
   0.24811987  0.74782865  0.50060386
   0.24817038  0.25429870  0.24787554
   0.26206675  0.00071274  0.01097911
   0.99740728  0.24440574 -0.00013418
   0.75315501  0.24858412  0.25070945
   0.75967408  0.99511504  0.01220038
   0.48528032  0.99249864  0.22560368
   0.00294490  0.49194812  0.23940093
   0.50244440  0.76179345  0.00044402
   0.97816812  0.00195377  0.75237696
   0.74922787  0.24678372  0.74575648
   0.74391322  0.00673104  0.51426049
   0.50663179  0.25022303  0.50914442
   0.48872963  0.00614605  0.73546100
   0.00363856  0.00499761  0.23754086
   0.49777542  0.25633102  0.99782735
   0.25056238  0.74634640  0.25196292
   0.25517941  0.49976172  0.00659571
   0.99815686  0.75261001  0.00217367
   0.74968598  0.74437024  0.25070721
   0.74903787  0.49726311  0.00441416
   0.48989591  0.50493594  0.24460727
   0.25880376  0.24946635  0.74838146
   0.25375443  0.99864686  0.50176561
   0.00069976  0.25482939  0.49984137
   0.25888604  0.75250947  0.75273977
   0.24742571  0.49910038  0.49369334
   0.99867773  0.74490705  0.49927758
   0.99955567  0.50027961  0.74827200
   0.74259065  0.75540835  0.74656987
   0.76173739  0.49775330  0.49931893
   0.50499740  0.76049589  0.50906883
   0.50145391  0.49642330  0.75484087
   0.51278699  0.01795547  0.97882924
   0.00239134  0.51165235  0.98477901
   0.49949740  0.75327624  0.26813312
   0.23162098  0.00241517  0.75816654
   0.49328866  0.00398561  0.47327093
   0.72571214  0.99143632  0.76979436
   0.00079163  0.76899446  0.25502893
   0.72201821  0.50278093  0.25141039
   0.01277963  0.00091160  0.48411942
   0.50146600  0.50922949  0.50221484
   0.74196919  0.51358566  0.75842368
   0.75625744  0.72513073  0.49609090
HECN                                    
           1
     8.717630   -0.004649    0.016311
     0.000961    8.754025   -0.008198
     0.047658   -0.023367    8.754371
   V    Ta   Nb   N    C    W    Mo
   7   6   7  13  19   6   6
Direct configuration=    10
   0.02904916  0.98527653  0.98928365
   0.24242424  0.97732073  0.25827444
   0.26892034  0.51242970  0.25111700
   0.50071044  0.47887640  0.99400766
   0.49394082  0.25725065  0.76197019
   0.00476434  0.49850825  0.52620367
   0.50444616  0.72773321  0.73154519
   0.00505575  0.25281828  0.25518054
   0.74444801  0.74896726  0.00257868
   0.00822714  0.24496598  0.74682469
   0.75519901  0.26205479  0.50215416
   0.99954608  0.75524276  0.74935476
   0.25590307  0.49933440  0.75137091
   0.25143207  0.25054182  0.99455478
   0.49676054  0.24551176  0.24993981
   0.74826501  0.99454141  0.26267955
   0.74442354  0.24413364  0.99256994
   0.25012234  0.74801508  0.00417491
   0.24775370  0.24914554  0.50158180
   0.24810069  0.74780877  0.50056718
   0.24812999  0.25443477  0.24787645
   0.26197574  0.00071843  0.01103169
   0.99739349  0.24438166 -0.00015002
   0.75311794  0.24866706  0.25065022
   0.75957126  0.99509915  0.01219576
   0.48530724  0.99215694  0.22552985
   0.00277540  0.49191649  0.23942575
   0.50251097  0.76166533  0.00046295
   0.97825344  0.00190091  0.75210223
   0.74921335  0.24669655  0.74577277
   0.74375943  0.00671283  0.51428613
   0.50665267  0.25060716  0.50948082
   0.48871442  0.00619809  0.73542308
   0.00358602  0.00505775  0.23737787
   0.49776323  0.25627406  0.99806921
   0.25060321  0.74631154  0.25197178
   0.25523983  0.49973720  0.00660164
   0.99812679  0.75254852  0.00220805
   0.74967843  0.74445142  0.25073127
   0.74903408  0.49723530  0.00438166
   0.49001209  0.50464348  0.24469348
   0.25888401  0.24946118  0.74840837
   0.25360839  0.99866591  0.50184710
   0.00072814  0.25486874  0.49982509
   0.25895425  0.75254396  0.75275115
   0.24746536  0.49913351  0.49376700
   0.99862457  0.74491792  0.49924626
   0.99963479  0.50028092  0.74827287
   0.74267127  0.75540024  0.74658383
   0.76173333  0.49763659  0.49932694
   0.50497144  0.76090269  0.50893759
   0.50150734  0.49650908  0.75492247
   0.51265211  0.01789272  0.97886638
   0.00244616  0.51162361  0.98471409
   0.49947895  0.75289130  0.26821864
   0.23156656  0.00235830  0.75822221
   0.49314473  0.00464945  0.47303793
   0.72574893  0.99141000  0.76964589
   0.00095031  0.76894194  0.25504236
   0.72205445  0.50291619  0.25137170
   0.01263942  0.00089190  0.48404711
   0.50164020  0.50955573  0.50227084
   0.74191734  0.51349809  0.75845093
   0.75606687  0.72515818  0.49616723
HECN                                    
           1
     8.719180   -0.004864    0.016160
     0.000743    8.752728   -0.006521
     0.047512   -0.021686    8.756382
   V    Ta   Nb   N    C    W    Mo
   7   6   7  13  19   6   6
Direct configuration=    11
   0.02891723  0.98520468  0.98878133
   0.24227326  0.97729722  0.25830499
   0.26901830  0.51232235  0.25120692
   0.50069356  0.47883214  0.99400052
   0.49421719  0.25726262  0.76219444
   0.00483253  0.49864411  0.52631294
   0.50469814  0.72800205  0.73089418
   0.00502734  0.25273782  0.25516547
   0.74448689  0.74892173  0.00260132
   0.00826643  0.24493821  0.74681164
   0.75524767  0.26210204  0.50211916
   0.99956555  0.75521098  0.74934810
   0.25605489  0.49939445  0.75137589
   0.25161550  0.25051302  0.99452892
   0.49674416  0.24463090  0.25047232
   0.74823618  0.99462359  0.26270889
   0.74434611  0.24405825  0.99246431
   0.25001113  0.74797548  0.00431438
   0.24778694  0.24919596  0.50161953
   0.24807110  0.74777810  0.50051059
   0.24806768  0.25464479  0.24787783
   0.26183530  0.00072720  0.01111282
   0.99737222  0.24434449 -0.00017446
   0.75306075  0.24879508  0.25055880
   0.75941259  0.99507462  0.01218862
   0.48534878  0.99162955  0.22541600
   0.00251382  0.49186766  0.23946405
   0.50261369  0.76146756  0.00049220
   0.97838508  0.00181938  0.75167830
   0.74919094  0.24656199  0.74579793
   0.74352210  0.00668471  0.51432569
   0.50668491  0.25119998  0.50999984
   0.48869094  0.00627841  0.73536455
   0.00350494  0.00515061  0.23712633
   0.49774443  0.25618610  0.99844244
   0.25066623  0.74625772  0.25198544
   0.25533308  0.49969936  0.00661079
   0.99808037  0.75245360  0.00226111
   0.74966677  0.74457671  0.25076839
   0.74902823  0.49719239  0.00433150
   0.49019137  0.50419206  0.24482656
   0.25900784  0.24945321  0.74844991
   0.25338303  0.99869528  0.50197286
   0.00077193  0.25492947  0.49979996
   0.25905949  0.75259721  0.75276871
   0.24752657  0.49918464  0.49388066
   0.99854254  0.74493471  0.49919792
   0.99975688  0.50028294  0.74827420
   0.74279568  0.75538772  0.74660537
   0.76172705  0.49745645  0.49933933
   0.50493140  0.76153059  0.50873500
   0.50158979  0.49664148  0.75504839
   0.51244396  0.01779586  0.97892370
   0.00253076  0.51157928  0.98461393
   0.49945046  0.75229713  0.26835067
   0.23148258  0.00227050  0.75830813
   0.49292264  0.00567412  0.47267824
   0.72580570  0.99136940  0.76941680
   0.00119518  0.76886089  0.25506310
   0.72211037  0.50312496  0.25131197
   0.01242304  0.00086151  0.48393552
   0.50190904  0.51005926  0.50235718
   0.74183731  0.51336293  0.75849300
   0.75577280  0.72520054  0.49628500
HECN                                    
           1
     8.722279   -0.005292    0.015857
     0.000305    8.750134   -0.003166
     0.047221   -0.018323    8.760404
   V    Ta   Nb   N    C    W    Mo
   7   6   7  13  19   6   6
Direct configuration=    12
   0.02865339  0.98506113  0.98777696
   0.24197137  0.97725018  0.25836608
   0.26921419  0.51210759  0.25138675