       N       E                     dE             d eps       ncg     rms          rms(c)
DAV:   1     0.583689295763E+04    0.58369E+04   -0.19133E+05  8064   0.154E+03
DAV:   2     0.379932077805E+03   -0.54570E+04   -0.52963E+04  8064   0.573E+02
DAV:   3    -0.624420687071E+03   -0.10044E+04   -0.93458E+03 11928   0.198E+02
DAV:   4    -0.768969833416E+03   -0.14455E+03   -0.14014E+03 14928   0.925E+01
DAV:   5    -0.781550444080E+03   -0.12581E+02   -0.12365E+02 15480   0.246E+01    0.769E+01
RMM:   6    -0.883322950015E+03   -0.10177E+03   -0.26832E+03 11563   0.148E+02    0.112E+02
RMM:   7    -0.645770345917E+03    0.23755E+03   -0.32421E+02 13172   0.444E+01    0.459E+01
RMM:   8    -0.634219733903E+03    0.11551E+02   -0.52134E+01 13299   0.164E+01    0.245E+01
RMM:   9    -0.632783889886E+03    0.14358E+01   -0.17863E+01 13299   0.995E+00    0.238E+01
RMM:  10    -0.629681672871E+03    0.31022E+01   -0.89744E+00 13330   0.740E+00    0.106E+01
RMM:  11    -0.629988247512E+03   -0.30657E+00   -0.57157E+00 13242   0.554E+00    0.153E+01
RMM:  12    -0.629068571875E+03    0.91968E+00   -0.27063E+00 12919   0.461E+00    0.834E+00
RMM:  13    -0.629230083389E+03   -0.16151E+00   -0.28118E+00 13354   0.356E+00    0.869E+00
RMM:  14    -0.629091406804E+03    0.13868E+00   -0.11507E+00 12986   0.303E+00    0.614E+00
RMM:  15    -0.629033353555E+03    0.58053E-01   -0.86811E-01 13189   0.195E+00    0.468E+00
RMM:  16    -0.628975472918E+03    0.57881E-01   -0.48807E-01 13354   0.152E+00    0.310E+00
RMM:  17    -0.628933910359E+03    0.41563E-01   -0.85144E-01 13331   0.136E+00    0.155E+00
RMM:  18    -0.628982004307E+03   -0.48094E-01   -0.24750E-01 13270   0.139E+00    0.291E+00
RMM:  19    -0.628965895817E+03    0.16108E-01   -0.18552E-01 13347   0.686E-01    0.144E+00
RMM:  20    -0.628935641300E+03    0.30255E-01   -0.92603E-02 13292   0.581E-01    0.908E-01
RMM:  21    -0.628927119248E+03    0.85221E-02   -0.11067E-01 13309   0.556E-01    0.306E-01
RMM:  22    -0.628928891119E+03   -0.17719E-02   -0.37094E-02 12985   0.534E-01    0.112E-01
RMM:  23    -0.628929862793E+03   -0.97167E-03   -0.16347E-02 12885   0.193E-01    0.991E-02
RMM:  24    -0.628930181831E+03   -0.31904E-03   -0.68761E-03 12529   0.164E-01    0.787E-02
RMM:  25    -0.628930503671E+03   -0.32184E-03   -0.42421E-03 11700   0.924E-02    0.373E-02
RMM:  26    -0.628930662852E+03   -0.15918E-03   -0.22544E-03 11133   0.685E-02    0.190E-02
RMM:  27    -0.628930792457E+03   -0.12960E-03   -0.14795E-03 10757   0.542E-02    0.204E-02
RMM:  28    -0.628930880104E+03   -0.87646E-04   -0.10123E-03 10764   0.437E-02    0.982E-03
RMM:  29    -0.628930933290E+03   -0.53186E-04   -0.63588E-04 10594   0.359E-02    0.703E-03
RMM:  30    -0.628930972343E+03   -0.39053E-04   -0.44157E-04 10360   0.288E-02    0.460E-03
RMM:  31    -0.628930997322E+03   -0.24978E-04   -0.28423E-04  9831   0.247E-02    0.284E-03
RMM:  32    -0.628931013502E+03   -0.16181E-04   -0.18601E-04  9295   0.211E-02    0.170E-03
RMM:  33    -0.628931024215E+03   -0.10713E-04   -0.12292E-04  8855   0.186E-02    0.113E-03
RMM:  34    -0.628931030746E+03   -0.65307E-05   -0.79399E-05  8234   0.163E-02
   1 F= -.62893103E+03 E0= -.62885937E+03  d E =-.628931E+03
       N       E                     dE             d eps       ncg     rms          rms(c)
DAV:   1    -0.628936241519E+03   -0.52173E-02   -0.19684E-01 11976   0.229E+00    0.794E-01
RMM:   2    -0.629029106579E+03   -0.92865E-01   -0.11899E-01 10607   0.139E+00    0.362E+00
RMM:   3    -0.628937125783E+03    0.91981E-01   -0.41680E-02 10036   0.974E-01    0.100E+00
RMM:   4    -0.628933183270E+03    0.39425E-02   -0.75824E-03 11536   0.302E-01    0.544E-01
RMM:   5    -0.628931633604E+03    0.15497E-02   -0.24869E-03 12544   0.147E-01    0.243E-01
RMM:   6    -0.628932008700E+03   -0.37510E-03   -0.16276E-03 11342   0.144E-01    0.407E-01
RMM:   7    -0.628931164753E+03    0.84395E-03   -0.10280E-03 11574   0.116E-01    0.162E-01
RMM:   8    -0.628931297916E+03   -0.13316E-03   -0.65798E-04 11164   0.894E-02    0.228E-01
RMM:   9    -0.628931031173E+03    0.26674E-03   -0.28583E-04 10979   0.578E-02    0.567E-02
RMM:  10    -0.628931055553E+03   -0.24380E-04   -0.17599E-04 10668   0.349E-02    0.850E-02
RMM:  11    -0.628931021089E+03    0.34464E-04   -0.76254E-05  9704   0.240E-02    0.160E-02
RMM:  12    -0.628931022528E+03   -0.14390E-05   -0.54366E-05  8034   0.162E-02
   2 F= -.62893102E+03 E0= -.62885923E+03  d E =0.821761E-05
       N       E                     dE             d eps       ncg     rms          rms(c)
DAV:   1    -0.628932598732E+03   -0.15776E-02   -0.47143E-02 11688   0.113E+00    0.387E-01
RMM:   2    -0.628954528130E+03   -0.21929E-01   -0.29777E-02 10491   0.709E-01    0.176E+00
RMM:   3    -0.628932921808E+03    0.21606E-01   -0.98569E-03  9853   0.477E-01    0.521E-01
RMM:   4    -0.628931831569E+03    0.10902E-02   -0.18439E-03 10728   0.159E-01    0.254E-01
RMM:   5    -0.628931494956E+03    0.33661E-03   -0.59132E-04 11376   0.731E-02    0.129E-01
RMM:   6    -0.628931560557E+03   -0.65601E-04   -0.36061E-04  9639   0.752E-02    0.194E-01
RMM:   7    -0.628931378774E+03    0.18178E-03   -0.26492E-04 10492   0.553E-02    0.908E-02
RMM:   8    -0.628931397955E+03   -0.19180E-04   -0.13668E-04  8032   0.477E-02    0.109E-01
RMM:   9    -0.628931342313E+03    0.55642E-04   -0.59609E-05  6487   0.324E-02    0.384E-02
RMM:  10    -0.628931341318E+03    0.99518E-06   -0.26443E-05  5353   0.230E-02
   3 F= -.62893134E+03 E0= -.62885961E+03  d E =-.310572E-03
       N       E                     dE             d eps       ncg     rms          rms(c)
DAV:   1    -0.628931344878E+03   -0.25649E-05   -0.38812E-04 11832   0.107E-01    0.361E-02
RMM:   2    -0.628931559809E+03   -0.21493E-03   -0.25715E-04  7229   0.629E-02    0.172E-01
RMM:   3    -0.628931353620E+03    0.20619E-03   -0.91940E-05  6367   0.503E-02    0.497E-02
RMM:   4    -0.628931343007E+03    0.10612E-04   -0.14053E-05  4932   0.165E-02    0.214E-02
RMM:   5    -0.628931342474E+03    0.53324E-06   -0.58869E-06  4421   0.133E-02
   4 F= -.62893134E+03 E0= -.62885961E+03  d E =-.311729E-03
       N       E                     dE             d eps       ncg     rms          rms(c)
DAV:   1    -0.628931369664E+03   -0.26657E-04   -0.14628E-03 11640   0.200E-01    0.732E-02
RMM:   2    -0.628932161806E+03   -0.79214E-03   -0.10110E-03  9029   0.129E-01    0.340E-01
RMM:   3    -0.628931377343E+03    0.78446E-03   -0.36866E-04  7304   0.977E-02    0.894E-02
RMM:   4    -0.628931343320E+03    0.34023E-04   -0.53795E-05  5850   0.313E-02    0.501E-02
RMM:   5    -0.628931336828E+03    0.64925E-05   -0.19624E-05  4900   0.218E-02
   5 F= -.62893134E+03 E0= -.62885959E+03  d E =-.306082E-03
       N       E                     dE             d eps       ncg     rms          rms(c)
DAV:   1    -0.628929880794E+03    0.14625E-02   -0.66046E-02  8736   0.147E+00    0.108E-01
RMM:   2    -0.628932223893E+03   -0.23431E-02   -0.18012E-02 13318   0.355E-01    0.354E-01
RMM:   3    -0.628931574149E+03    0.64974E-03   -0.19140E-03 10031   0.141E-01    0.145E-01
RMM:   4    -0.628931584654E+03   -0.10504E-04   -0.44003E-04 10274   0.648E-02    0.146E-01
RMM:   5    -0.628931470077E+03    0.11458E-03   -0.14301E-04  9207   0.442E-02    0.573E-02
RMM:   6    -0.628931491993E+03   -0.21915E-04   -0.99614E-05  8771   0.304E-02    0.964E-02
RMM:   7    -0.628931450907E+03    0.41086E-04   -0.57183E-05  7568   0.273E-02    0.340E-02
RMM:   8    -0.628931476949E+03   -0.26042E-04   -0.52569E-05  6362   0.284E-02    0.796E-02
RMM:   9    -0.628931447142E+03    0.29807E-04   -0.30894E-05  5188   0.261E-02    0.266E-02
RMM:  10    -0.628931446125E+03    0.10167E-05   -0.18161E-05  5155   0.175E-02
   6 F= -.62893145E+03 E0= -.62885976E+03  d E =-.109297E-03
       N       E                     dE             d eps       ncg     rms          rms(c)
DAV:   1    -0.628931447250E+03   -0.10826E-06   -0.42652E-05  8664   0.347E-02    0.515E-03
RMM:   2    -0.628931452960E+03   -0.57097E-05   -0.88049E-06  4409   0.139E-02
   7 F= -.62893145E+03 E0= -.62885979E+03  d E =-.116132E-03
       N       E                     dE             d eps       ncg     rms          rms(c)
DAV:   1    -0.628931448722E+03   -0.14720E-05   -0.24210E-05  6480   0.352E-02    0.806E-03
RMM:   2    -0.628931468809E+03   -0.20087E-04   -0.14622E-05  4962   0.177E-02    0.653E-02
RMM:   3    -0.628931449999E+03    0.18810E-04   -0.80392E-06  4384   0.159E-02    0.104E-02
RMM:   4    -0.628931449543E+03    0.45521E-06   -0.31768E-06  3771   0.565E-03
   8 F= -.62893145E+03 E0= -.62885976E+03  d E =-.112715E-03
       N       E                     dE             d eps       ncg     rms          rms(c)
DAV:   1    -0.628930049649E+03    0.14004E-02   -0.57087E-02  9432   0.144E+00    0.119E-01
RMM:   2    -0.628933398316E+03   -0.33487E-02   -0.18295E-02 13063   0.358E-01    0.512E-01
RMM:   3    -0.628931696441E+03    0.17019E-02   -0.22681E-03  9376   0.165E-01    0.165E-01
RMM:   4    -0.628931656028E+03    0.40413E-04   -0.53868E-04 10561   0.658E-02    0.122E-01
RMM:   5    -0.628931589536E+03    0.66491E-04   -0.14759E-04  9456   0.348E-02    0.465E-02
RMM:   6    -0.628931591779E+03   -0.22427E-05   -0.54284E-05  6948   0.251E-02
   9 F= -.62893159E+03 E0= -.62885984E+03  d E =-.142236E-03
       N       E                     dE             d eps       ncg     rms          rms(c)
DAV:   1    -0.628930503955E+03    0.10856E-02   -0.43693E-02  9792   0.125E+00    0.113E-01
RMM:   2    -0.628933385949E+03   -0.28820E-02   -0.13992E-02 12741   0.318E-01    0.503E-01
RMM:   3    -0.628931738549E+03    0.16474E-02   -0.18817E-03  8975   0.151E-01    0.162E-01
RMM:   4    -0.628931669666E+03    0.68883E-04   -0.47383E-04 10272   0.600E-02    0.933E-02
RMM:   5    -0.628931629570E+03    0.40096E-04   -0.14092E-04  9518   0.301E-02    0.439E-02
RMM:   6    -0.628931628205E+03    0.13647E-05   -0.43831E-05  6041   0.241E-02
  10 F= -.62893163E+03 E0= -.62885991E+03  d E =-.178662E-03
       N       E                     dE             d eps       ncg     rms          rms(c)
DAV:   1    -0.628930657997E+03    0.97157E-03   -0.55145E-02  8208   0.128E+00    0.815E-02
RMM:   2    -0.628932681260E+03   -0.20233E-02   -0.12404E-02 13415   0.312E-01    0.418E-01
RMM:   3    -0.628931867992E+03    0.81327E-03   -0.14082E-03 10403   0.125E-01    0.126E-01
RMM:   4    -0.628931833248E+03    0.34744E-04   -0.38667E-04 10860   0.573E-02    0.869E-02
RMM:   5    -0.628931790598E+03    0.42651E-04   -0.11795E-04 10154   0.339E-02    0.306E-02
RMM:   6    -0.628931798124E+03   -0.75261E-05   -0.75800E-05  8630   0.220E-02
  11 F= -.62893180E+03 E0= -.62886010E+03  d E =-.169918E-03
       N       E                     dE             d eps       ncg     rms          rms(c)
DAV:   1    -0.628930670238E+03    0.11204E-02   -0.56857E-02  8208   0.130E+00    0.835E-02
RMM:   2    -0.628932449031E+03   -0.17788E-02   -0.12527E-02 13408   0.313E-01    0.310E-01
RMM:   3    -0.628931860761E+03    0.58827E-03   -0.13826E-03 10796   0.119E-01    0.110E-01
RMM:   4    -0.628931872994E+03   -0.12233E-04   -0.41010E-04 10993   0.555E-02    0.102E-01
RMM:   5    -0.628931826562E+03    0.46432E-04   -0.12592E-04 10213   0.333E-02    0.538E-02
RMM:   6    -0.628931824926E+03    0.16354E-05   -0.62967E-05  8054   0.247E-02
  12 F= -.62893182E+03 E0= -.62886015E+03  d E =-.196721E-03
       N       E                     dE             d eps       ncg     rms          rms(c)
DAV:   1    -0.628931712162E+03    0.11440E-03   -0.62898E-03  9552   0.429E-01    0.444E-02
RMM:   2    -0.628932284516E+03   -0.57235E-03   -0.16583E-03 11249   0.122E-01    0.304E-01
RMM:   3    -0.628931840965E+03    0.44355E-03   -0.25752E-04  7313   0.685E-02    0.586E-02
RMM:   4    -0.628931831517E+03    0.94481E-05   -0.52614E-05  5809   0.296E-02
  13 F= -.62893183E+03 E0= -.62886014E+03  d E =-.203312E-03
       N       E                     dE             d eps       ncg     rms          rms(c)
DAV:   1    -0.628931796495E+03    0.44470E-04   -0.14005E-03 10032   0.215E-01    0.189E-02
RMM:   2    -0.628931924172E+03   -0.12768E-03   -0.32121E-04  9781   0.539E-02    0.147E-01
RMM:   3    -0.628931821752E+03    0.10242E-03   -0.51064E-05  5678   0.354E-02    0.204E-02
RMM:   4    -0.628931821109E+03    0.64298E-06   -0.10306E-05  4712   0.143E-02
  14 F= -.62893182E+03 E0= -.62886014E+03  d E =-.192904E-03
       N       E                     dE             d eps       ncg     rms          rms(c)
DAV:   1    -0.628931813528E+03    0.82243E-05   -0.54076E-04  9888   0.129E-01    0.145E-02
RMM:   2    -0.628931873122E+03   -0.59594E-04   -0.12276E-04  6938   0.366E-02    0.992E-02
RMM:   3    -0.628931823049E+03    0.50073E-04   -0.25761E-05  5138   0.266E-02    0.209E-02
RMM:   4    -0.628931821320E+03    0.17291E-05   -0.60208E-06  4186   0.117E-02
  15 F= -.62893182E+03 E0= -.62886013E+03  d E =-.193114E-03
       N       E                     dE             d eps       ncg     rms          rms(c)
DAV:   1    -0.628931819560E+03    0.34891E-05   -0.13373E-04  9720   0.662E-02    0.125E-02
RMM:   2    -0.628931881872E+03   -0.62312E-04   -0.44174E-05  5581   0.264E-02    0.115E-01
RMM:   3    -0.628931821607E+03    0.60265E-04   -0.18997E-05  5026   0.262E-02    0.102E-02
RMM:   4    -0.628931820911E+03    0.69604E-06   -0.28680E-06  4019   0.652E-03
  16 F= -.62893182E+03 E0= -.62886013E+03  d E =-.192705E-03
       N       E                     dE             d eps       ncg     rms          rms(c)
DAV:   1    -0.628931820787E+03    0.81922E-06   -0.25996E-05  6840   0.322E-02    0.596E-03
RMM:   2    -0.628931829708E+03   -0.89201E-05   -0.11581E-05  4753   0.157E-02
  17 F= -.62893183E+03 E0= -.62886013E+03  d E =-.201502E-03
       N       E                     dE             d eps       ncg     rms          rms(c)
DAV:   1    -0.628931821067E+03   -0.27961E-06   -0.19844E-05  6024   0.382E-02    0.848E-03
RMM:   2    -0.628931844616E+03   -0.23549E-04   -0.14488E-05  4767   0.171E-02    0.677E-02
RMM:   3    -0.628931822114E+03    0.22502E-04   -0.86105E-06  4329   0.162E-02    0.123E-02
RMM:   4    -0.628931821099E+03    0.10148E-05   -0.14134E-06  3546   0.494E-03
  18 F= -.62893182E+03 E0= -.62886013E+03  d E =-.192894E-03
       N       E                     dE             d eps       ncg     rms          rms(c)
DAV:   1    -0.628931821187E+03    0.92653E-06   -0.19940E-06  5040   0.117E-02    0.386E-03
RMM:   2    -0.628931826646E+03   -0.54591E-05   -0.33592E-06  3810   0.836E-03
  19 F= -.62893183E+03 E0= -.62886016E+03  d E =-.198441E-03
       N       E                     dE             d eps       ncg     rms          rms(c)
DAV:   1    -0.628930273737E+03    0.15475E-02   -0.52474E-02  8304   0.144E+00    0.806E-02
RMM:   2    -0.628932301827E+03   -0.20281E-02   -0.16677E-02 13372   0.321E-01    0.253E-01
RMM:   3    -0.628931939231E+03    0.36260E-03   -0.17083E-03  9476   0.118E-01    0.936E-02
RMM:   4    -0.628931998136E+03   -0.58905E-04   -0.31263E-04 10230   0.534E-02    0.140E-01
RMM:   5    -0.628931908335E+03    0.89801E-04   -0.86879E-05  8458   0.336E-02    0.290E-02
RMM:   6    -0.628931913711E+03   -0.53758E-05   -0.56462E-05  7323   0.204E-02
  20 F= -.62893191E+03 E0= -.62886022E+03  d E =-.870649E-04
       N       E                     dE             d eps       ncg     rms          rms(c)
DAV:   1    -0.628931495947E+03    0.41239E-03   -0.14299E-02  8376   0.746E-01    0.484E-02
RMM:   2    -0.628932171517E+03   -0.67557E-03   -0.45438E-03 12895   0.173E-01    0.202E-01
RMM:   3    -0.628931944750E+03    0.22677E-03   -0.52190E-04  8894   0.690E-02    0.696E-02
RMM:   4    -0.628931937457E+03    0.72927E-05   -0.11398E-04  9368   0.310E-02    0.490E-02
RMM:   5    -0.628931929322E+03    0.81350E-05   -0.42629E-05  6643   0.200E-02
  21 F= -.62893193E+03 E0= -.62886023E+03  d E =-.102676E-03
       N       E                     dE             d eps       ncg     rms          rms(c)
DAV:   1    -0.628931368059E+03    0.56940E-03   -0.29833E-02  9480   0.961E-01    0.903E-02
RMM:   2    -0.628932725288E+03   -0.13572E-02   -0.81333E-03 13100   0.255E-01    0.317E-01
RMM:   3    -0.628932056559E+03    0.66873E-03   -0.10365E-03  9446   0.109E-01    0.106E-01
RMM:   4    -0.628932074804E+03   -0.18245E-04   -0.29231E-04 10080   0.527E-02    0.122E-01
RMM:   5    -0.628932002671E+03    0.72133E-04   -0.94766E-05  8986   0.335E-02    0.440E-02
RMM:   6    -0.628932013067E+03   -0.10397E-04   -0.58693E-05  7103   0.275E-02    0.695E-02
RMM:   7    -0.628931990824E+03    0.22244E-04   -0.41033E-05  6287   0.256E-02    0.300E-02
RMM:   8    -0.628932003098E+03   -0.12274E-04   -0.33225E-05  5422   0.248E-02    0.559E-02
RMM:   9    -0.628931986828E+03    0.16270E-04   -0.20451E-05  4954   0.224E-02    0.655E-03
RMM:  10    -0.628931989401E+03   -0.25726E-05   -0.13717E-05  4991   0.135E-02
  22 F= -.62893199E+03 E0= -.62886030E+03  d E =-.600787E-04
       N       E                     dE             d eps       ncg     rms          rms(c)
DAV:   1    -0.628931988887E+03   -0.20583E-05   -0.49006E-05  8952   0.401E-02    0.514E-03
RMM:   2    -0.628931995560E+03   -0.66730E-05   -0.10294E-05  4560   0.143E-02
  23 F= -.62893200E+03 E0= -.62886033E+03  d E =-.662373E-04
