<?xml version="1.0" encoding="ISO-8859-1"?>
<modeling>
 <generator>
  <i name="program" type="string">vasp </i>
  <i name="version" type="string">5.4.4.18Apr17-6-g9f103f2a35  </i>
  <i name="subversion" type="string">(build Oct 18 2021 20:38:43) complex            parallel </i>
  <i name="platform" type="string">LinuxIFC </i>
  <i name="date" type="string">2024 06 24 </i>
  <i name="time" type="string">10:44:48 </i>
 </generator>
 <incar>
  <i type="string" name="SYSTEM">HECN</i>
  <i type="int" name="ISTART">     0</i>
  <i type="string" name="PREC">normal</i>
  <i type="string" name="ALGO">Fast</i>
  <i type="int" name="ICHARG">     2</i>
  <i type="int" name="NELM">    60</i>
  <i type="int" name="IBRION">     2</i>
  <i name="EDIFF">      0.00001000</i>
  <i name="EDIFFG">     -0.01000000</i>
  <i type="int" name="NSW">   100</i>
  <i type="int" name="ISIF">     3</i>
  <i name="ENCUT">    400.00000000</i>
  <i name="POTIM">      0.50000000</i>
  <i type="logical" name="LREAL"> F  </i>
  <i type="int" name="ISMEAR">     0</i>
  <i name="SIGMA">      0.10000000</i>
  <i type="logical" name="LWAVE"> F  </i>
  <i type="logical" name="LCHARG"> F  </i>
  <v type="int" name="KPOINT_BSE">    -1     0     0     0</v>
  <i type="int" name="NELM">    60</i>
 </incar>
 <structure name="primitive_cell" >
  <crystal>
   <varray name="basis" >
    <v>       8.83268541       0.02262545      -0.02010684 </v>
    <v>       0.02893233       8.88234891       0.00898806 </v>
    <v>       0.01158061      -0.00639285       8.86582057 </v>
   </varray>
   <i name="volume">    695.56467405 </i>
   <varray name="rec_basis" >
    <v>       0.11321646      -0.00036863      -0.00014815 </v>
    <v>      -0.00028820       0.11258369       0.00008156 </v>
    <v>       0.00025706      -0.00011497       0.11279230 </v>
   </varray>
  </crystal>
  <varray name="positions" >
   <v>      -0.00083308      -0.00777065       0.00196828 </v>
   <v>      -0.00227152      -0.00164178       0.25276542 </v>
   <v>       0.00364530      -0.26104950       0.00200405 </v>
   <v>      -0.00094700       0.24838417      -0.00180153 </v>
   <v>      -0.02995515       0.00217569      -0.25297494 </v>
   <v>      -0.26097704       0.00305783       0.00324336 </v>
   <v>       0.26359749      -0.00009950      -0.00658968 </v>
   <v>      -0.00128801      -0.23539660      -0.25639589 </v>
   <v>       0.01704142      -0.24288340       0.25771987 </v>
   <v>      -0.27192911      -0.01821047      -0.22024547 </v>
   <v>      -0.00364132       0.23907614      -0.24607168 </v>
   <v>       0.25346822      -0.25188438      -0.00314280 </v>
   <v>      -0.25679858      -0.24875080       0.00890304 </v>
   <v>      -0.00439644       0.25007835       0.24341577 </v>
   <v>       0.26371346       0.00021006       0.24350358 </v>
   <v>      -0.25570497       0.24628627       0.00035877 </v>
   <v>       0.25814530       0.24304664      -0.00775515 </v>
   <v>      -0.26245437      -0.01471402       0.25935582 </v>
   <v>       0.28805572       0.00591134      -0.23270839 </v>
   <v>       0.24912120      -0.23683929      -0.24690105 </v>
   <v>      -0.25141109      -0.23984081      -0.25206399 </v>
   <v>      -0.24684893       0.24133129      -0.24642247 </v>
   <v>       0.25722789      -0.25185242       0.24990865 </v>
   <v>      -0.25427374       0.24287981       0.24748965 </v>
   <v>       0.25193947       0.24071558      -0.24988311 </v>
   <v>      -0.25807005      -0.25017914       0.25547319 </v>
   <v>       0.25431472       0.24752828       0.24787548 </v>
   <v>      -0.00143852      -0.48072912      -0.02126292 </v>
   <v>       0.02212419       0.00048362       0.48665668 </v>
   <v>      -0.49185292       0.01931155       0.00199599 </v>
   <v>      -0.48827762       0.01047015       0.23779106 </v>
   <v>      -0.24979293      -0.00296193       0.48603300 </v>
   <v>       0.49479769      -0.24106266       0.00828371 </v>
   <v>      -0.00354125      -0.49713451      -0.23833072 </v>
   <v>      -0.00055924      -0.24175598       0.49553434 </v>
   <v>       0.23856108      -0.49983684      -0.00251634 </v>
   <v>      -0.00595976       0.49979718       0.24426502 </v>
   <v>      -0.23507074       0.49564644       0.00463775 </v>
   <v>       0.25408906      -0.00082525      -0.48701281 </v>
   <v>      -0.49688463       0.24370671       0.00534007 </v>
   <v>       0.00393508       0.24447895       0.49896858 </v>
   <v>      -0.49366008       0.00138887      -0.27312670 </v>
   <v>      -0.24850930      -0.47840185      -0.24531868 </v>
   <v>       0.48040268      -0.27350771       0.26094166 </v>
   <v>       0.25048617      -0.24666578       0.49966311 </v>
   <v>       0.49845347      -0.24223273      -0.25430040 </v>
   <v>       0.24730658       0.49601393       0.24842593 </v>
   <v>      -0.25608974      -0.26115260       0.48937110 </v>
   <v>      -0.49405821       0.24976354       0.24867031 </v>
   <v>      -0.26230729      -0.48904562       0.26075132 </v>
   <v>      -0.25329112       0.23482299       0.49936279 </v>
   <v>       0.25188425       0.49960063      -0.25038910 </v>
   <v>      -0.49360406       0.24688482      -0.25342417 </v>
   <v>       0.25340104       0.24307978      -0.49323361 </v>
   <v>       0.47047529      -0.00874283      -0.48890260 </v>
   <v>      -0.00275404      -0.49986108      -0.49680149 </v>
   <v>      -0.49767081       0.49643904       0.00166675 </v>
   <v>       0.49674750      -0.23294611       0.48400255 </v>
   <v>       0.49943676       0.24375144       0.49113094 </v>
   <v>      -0.49447876      -0.49745781      -0.25554192 </v>
   <v>      -0.49901977       0.49953809       0.25553571 </v>
   <v>       0.25652509       0.49982569      -0.49943526 </v>
   <v>      -0.25500219       0.49766679      -0.49468632 </v>
   <v>      -0.49327235      -0.47791875       0.49422603 </v>
  </varray>
 </structure>
 <varray name="primitive_index" >
  <v type="int" >        1 </v>
  <v type="int" >       34 </v>
  <v type="int" >       38 </v>
  <v type="int" >       23 </v>
  <v type="int" >       29 </v>
  <v type="int" >       25 </v>
  <v type="int" >       22 </v>
  <v type="int" >       12 </v>
  <v type="int" >       59 </v>
  <v type="int" >       58 </v>
  <v type="int" >       10 </v>
  <v type="int" >       18 </v>
  <v type="int" >        9 </v>
  <v type="int" >        8 </v>
  <v type="int" >        2 </v>
  <v type="int" >       17 </v>
  <v type="int" >       14 </v>
  <v type="int" >       16 </v>
  <v type="int" >       56 </v>
  <v type="int" >       45 </v>
  <v type="int" >       49 </v>
  <v type="int" >       30 </v>
  <v type="int" >       36 </v>
  <v type="int" >       24 </v>
  <v type="int" >       42 </v>
  <v type="int" >       39 </v>
  <v type="int" >       21 </v>
  <v type="int" >       54 </v>
  <v type="int" >       61 </v>
  <v type="int" >       53 </v>
  <v type="int" >       26 </v>
  <v type="int" >       31 </v>
  <v type="int" >       28 </v>
  <v type="int" >       48 </v>
  <v type="int" >       47 </v>
  <v type="int" >       37 </v>
  <v type="int" >       27 </v>
  <v type="int" >       40 </v>
  <v type="int" >       43 </v>
  <v type="int" >       35 </v>
  <v type="int" >       44 </v>
  <v type="int" >       33 </v>
  <v type="int" >       63 </v>
  <v type="int" >       55 </v>
  <v type="int" >       20 </v>
  <v type="int" >        7 </v>
  <v type="int" >        3 </v>
  <v type="int" >       64 </v>
  <v type="int" >       15 </v>
  <v type="int" >       60 </v>
  <v type="int" >       11 </v>
  <v type="int" >       13 </v>
  <v type="int" >        5 </v>
  <v type="int" >       19 </v>
  <v type="int" >       57 </v>
  <v type="int" >        6 </v>
  <v type="int" >        4 </v>
  <v type="int" >       51 </v>
  <v type="int" >       32 </v>
  <v type="int" >       52 </v>
  <v type="int" >       41 </v>
  <v type="int" >       46 </v>
  <v type="int" >       50 </v>
  <v type="int" >       62 </v>
 </varray>
 <kpoints>
  <generation param="Gamma">
   <v type="int" name="divisions">       3        3        3 </v>
   <v name="usershift">      0.00000000       0.00000000       0.00000000 </v>
   <v name="genvec1">      0.33333333       0.00000000       0.00000000 </v>
   <v name="genvec2">     -0.00000000       0.33333333       0.00000000 </v>
   <v name="genvec3">      0.00000000       0.00000000       0.33333333 </v>
   <v name="shift">      0.00000000       0.00000000       0.00000000 </v>
  </generation>
  <varray name="kpointlist" >
   <v>       0.00000000       0.00000000       0.00000000 </v>
   <v>       0.33333333      -0.00000000       0.00000000 </v>
   <v>      -0.00000000       0.33333333       0.00000000 </v>
   <v>       0.33333333       0.33333333       0.00000000 </v>
   <v>      -0.33333333       0.33333333       0.00000000 </v>
   <v>      -0.00000000      -0.00000000       0.33333333 </v>
   <v>       0.33333333      -0.00000000       0.33333333 </v>
   <v>      -0.33333333       0.00000000       0.33333333 </v>
   <v>      -0.00000000       0.33333333       0.33333333 </v>
   <v>       0.33333333       0.33333333       0.33333333 </v>
   <v>      -0.33333333       0.33333333       0.33333333 </v>
   <v>      -0.00000000      -0.33333333       0.33333333 </v>
   <v>       0.33333333      -0.33333333       0.33333333 </v>
   <v>      -0.33333333      -0.33333333       0.33333333 </v>
  </varray>
  <varray name="weights" >
   <v>       0.03703704 </v>
   <v>       0.07407407 </v>
   <v>       0.07407407 </v>
   <v>       0.07407407 </v>
   <v>       0.07407407 </v>
   <v>       0.07407407 </v>
   <v>       0.07407407 </v>
   <v>       0.07407407 </v>
   <v>       0.07407407 </v>
   <v>       0.07407407 </v>
   <v>       0.07407407 </v>
   <v>       0.07407407 </v>
   <v>       0.07407407 </v>
   <v>       0.07407407 </v>
  </varray>
 </kpoints>
 <parameters>
  <separator name="general" >
   <i type="string" name="SYSTEM">HECN</i>
   <i type="logical" name="LCOMPAT"> F  </i>
  </separator>
  <separator name="electronic" >
   <i type="string" name="PREC">normal</i>
   <i name="ENMAX">    400.00000000</i>
   <i name="ENAUG">    644.87300000</i>
   <i name="EDIFF">      0.00001000</i>
   <i type="int" name="IALGO">    68</i>
   <i type="int" name="IWAVPR">    11</i>
   <i type="int" name="NBANDS">   288</i>
   <i name="NELECT">    477.00000000</i>
   <i type="int" name="TURBO">     0</i>
   <i type="int" name="IRESTART">     0</i>
   <i type="int" name="NREBOOT">     0</i>
   <i type="int" name="NMIN">     0</i>
   <i name="EREF">      0.00000000</i>
   <separator name="electronic smearing" >
    <i type="int" name="ISMEAR">     0</i>
    <i name="SIGMA">      0.10000000</i>
    <i name="KSPACING">      0.50000000</i>
    <i type="logical" name="KGAMMA"> T  </i>
   </separator>
   <separator name="electronic projectors" >
    <i type="logical" name="LREAL"> F  </i>
    <v name="ROPT">      0.00000000      0.00000000      0.00000000      0.00000000      0.00000000      0.00000000      0.00000000</v>
    <i type="int" name="LMAXPAW">  -100</i>
    <i type="int" name="LMAXMIX">     2</i>
    <i type="logical" name="NLSPLINE"> F  </i>
   </separator>
   <separator name="electronic startup" >
    <i type="int" name="ISTART">     0</i>
    <i type="int" name="ICHARG">     2</i>
    <i type="int" name="INIWAV">     1</i>
   </separator>
   <separator name="electronic spin" >
    <i type="int" name="ISPIN">     1</i>
    <i type="logical" name="LNONCOLLINEAR"> F  </i>
    <v name="MAGMOM">      1.00000000      1.00000000      1.00000000      1.00000000      1.00000000      1.00000000      1.00000000      1.00000000      1.00000000      1.00000000      1.00000000      1.00000000      1.00000000      1.00000000      1.00000000      1.00000000      1.00000000      1.00000000      1.00000000      1.00000000
      1.00000000      1.00000000      1.00000000      1.00000000      1.00000000      1.00000000      1.00000000      1.00000000      1.00000000      1.00000000      1.00000000      1.00000000      1.00000000      1.00000000      1.00000000      1.00000000      1.00000000      1.00000000      1.00000000      1.00000000
      1.00000000      1.00000000      1.00000000      1.00000000      1.00000000      1.00000000      1.00000000      1.00000000      1.00000000      1.00000000      1.00000000      1.00000000      1.00000000      1.00000000      1.00000000      1.00000000      1.00000000      1.00000000      1.00000000      1.00000000
      1.00000000      1.00000000      1.00000000      1.00000000</v>
    <i name="NUPDOWN">     -1.00000000</i>
    <i type="logical" name="LSORBIT"> F  </i>
    <v name="SAXIS">      0.00000000      0.00000000      1.00000000</v>
    <i type="logical" name="LSPIRAL"> F  </i>
    <v name="QSPIRAL">      0.00000000      0.00000000      0.00000000</v>
    <i type="logical" name="LZEROZ"> F  </i>
   </separator>
   <separator name="electronic exchange-correlation" >
    <i type="logical" name="LASPH"> F  </i>
    <i type="logical" name="LMETAGGA"> F  </i>
   </separator>
   <separator name="electronic convergence" >
    <i type="int" name="NELM">    60</i>
    <i type="int" name="NELMDL">    -5</i>
    <i type="int" name="NELMIN">     2</i>
    <i name="ENINI">    400.00000000</i>
    <separator name="electronic convergence detail" >
     <i type="logical" name="LDIAG"> T  </i>
     <i type="logical" name="LSUBROT"> F  </i>
     <i name="WEIMIN">      0.00100000</i>
     <i name="EBREAK">      0.00000001</i>
     <i name="DEPER">      0.30000000</i>
     <i type="int" name="NRMM">     4</i>
     <i name="TIME">      0.40000000</i>
    </separator>
   </separator>
   <separator name="electronic mixer" >
    <i name="AMIX">      0.40000000</i>
    <i name="BMIX">      1.00000000</i>
    <i name="AMIN">      0.10000000</i>
    <i name="AMIX_MAG">      1.60000000</i>
    <i name="BMIX_MAG">      1.00000000</i>
    <separator name="electronic mixer details" >
     <i type="int" name="IMIX">     4</i>
     <i type="logical" name="MIXFIRST"> F  </i>
     <i type="int" name="MAXMIX">   -45</i>
     <i name="WC">    100.00000000</i>
     <i type="int" name="INIMIX">     1</i>
     <i type="int" name="MIXPRE">     1</i>
     <i type="int" name="MREMOVE">     5</i>
    </separator>
   </separator>
   <separator name="electronic dipolcorrection" >
    <i type="logical" name="LDIPOL"> F  </i>
    <i type="logical" name="LMONO"> F  </i>
    <i type="int" name="IDIPOL">     0</i>
    <i name="EPSILON">      1.00000000</i>
    <v name="DIPOL">   -100.00000000   -100.00000000   -100.00000000</v>
    <i name="EFIELD">      0.00000000</i>
   </separator>
  </separator>
  <separator name="grids" >
   <i type="int" name="NGX">    48</i>
   <i type="int" name="NGY">    48</i>
   <i type="int" name="NGZ">    48</i>
   <i type="int" name="NGXF">    96</i>
   <i type="int" name="NGYF">    96</i>
   <i type="int" name="NGZF">    96</i>
   <i type="logical" name="ADDGRID"> F  </i>
  </separator>
  <separator name="ionic" >
   <i type="int" name="NSW">   100</i>
   <i type="int" name="IBRION">     2</i>
   <i type="int" name="MDALGO">     0</i>
   <i type="int" name="ISIF">     3</i>
   <i name="PSTRESS">      0.00000000</i>
   <i name="EDIFFG">     -0.01000000</i>
   <i type="int" name="NFREE">     1</i>
   <i name="POTIM">      0.50000000</i>
   <i name="SMASS">     -3.00000000</i>
   <i name="SCALEE">      1.00000000</i>
  </separator>
  <separator name="ionic md" >
   <i name="TEBEG">      0.00010000</i>
   <i name="TEEND">      0.00010000</i>
   <i type="int" name="NBLOCK">     1</i>
   <i type="int" name="KBLOCK">   100</i>
   <i type="int" name="NPACO">   256</i>
   <i name="APACO">     16.00000000</i>
  </separator>
  <separator name="symmetry" >
   <i type="int" name="ISYM">     2</i>
   <i name="SYMPREC">      0.00001000</i>
  </separator>
  <separator name="dos" >
   <i type="int" name="LORBIT">     0</i>
   <v name="RWIGS">     -1.00000000     -1.00000000     -1.00000000     -1.00000000     -1.00000000     -1.00000000     -1.00000000</v>
   <i type="int" name="NEDOS">   301</i>
   <i name="EMIN">     10.00000000</i>
   <i name="EMAX">    -10.00000000</i>
   <i name="EFERMI">      0.00000000</i>
  </separator>
  <separator name="writing" >
   <i type="int" name="NWRITE">     2</i>
   <i type="logical" name="LWAVE"> F  </i>
   <i type="logical" name="LDOWNSAMPLE"> F  </i>
   <i type="logical" name="LCHARG"> F  </i>
   <i type="logical" name="LPARD"> F  </i>
   <i type="logical" name="LVTOT"> F  </i>
   <i type="logical" name="LVHAR"> F  </i>
   <i type="logical" name="LELF"> F  </i>
   <i type="logical" name="LOPTICS"> F  </i>
   <v name="STM">      0.00000000      0.00000000      0.00000000      0.00000000      0.00000000      0.00000000      0.00000000</v>
  </separator>
  <separator name="performance" >
   <i type="int" name="NPAR">    24</i>
   <i type="int" name="NSIM">     4</i>
   <i type="int" name="NBLK">    -1</i>
   <i type="logical" name="LPLANE"> T  </i>
   <i type="logical" name="LSCALAPACK"> T  </i>
   <i type="logical" name="LSCAAWARE"> F  </i>
   <i type="logical" name="LSCALU"> F  </i>
   <i type="logical" name="LASYNC"> F  </i>
   <i type="logical" name="LORBITALREAL"> F  </i>
  </separator>
  <separator name="miscellaneous" >
   <i type="int" name="IDIOT">     3</i>
   <i type="int" name="ISPECIAL">     0</i>
   <i type="logical" name="LMUSIC"> F  </i>
   <v name="POMASS">     91.22400000    178.49000000     47.88000000     14.00100000     12.01100000     51.99600000     95.94000000</v>
   <v name="DARWINR">      0.00000000      0.00000000      0.00000000      0.00000000      0.00000000      0.00000000      0.00000000</v>
   <v name="DARWINV">      1.00000000      1.00000000      1.00000000      1.00000000      1.00000000      1.00000000      1.00000000</v>
   <i type="logical" name="LCORR"> T  </i>
  </separator>
  <i type="logical" name="GGA_COMPAT"> T  </i>
  <i type="logical" name="LBERRY"> F  </i>
  <i type="int" name="ICORELEVEL">     0</i>
  <i type="logical" name="LDAU"> F  </i>
  <i type="int" name="I_CONSTRAINED_M">     0</i>
  <separator name="electronic exchange-correlation" >
   <i type="string" name="GGA">--</i>
   <i type="int" name="VOSKOWN">     0</i>
   <i type="logical" name="LHFCALC"> F  </i>
   <i type="string" name="PRECFOCK"></i>
   <i type="logical" name="LSYMGRAD"> F  </i>
   <i type="logical" name="LHFONE"> F  </i>
   <i type="logical" name="LRHFCALC"> F  </i>
   <i type="logical" name="LTHOMAS"> F  </i>
   <i type="logical" name="LMODELHF"> F  </i>
   <i name="ENCUT4O">     -1.00000000</i>
   <i type="int" name="EXXOEP">     0</i>
   <i type="int" name="FOURORBIT">     0</i>
   <i name="AEXX">      0.00000000</i>
   <i name="HFALPHA">      0.00000000</i>
   <i name="MCALPHA">      0.00000000</i>
   <i name="ALDAX">      1.00000000</i>
   <i name="AGGAX">      1.00000000</i>
   <i name="ALDAC">      1.00000000</i>
   <i name="AGGAC">      1.00000000</i>
   <i type="int" name="NKREDX">     1</i>
   <i type="int" name="NKREDY">     1</i>
   <i type="int" name="NKREDZ">     1</i>
   <i type="logical" name="SHIFTRED"> F  </i>
   <i type="logical" name="ODDONLY"> F  </i>
   <i type="logical" name="EVENONLY"> F  </i>
   <i type="int" name="LMAXFOCK">     0</i>
   <i type="int" name="NMAXFOCKAE">     0</i>
   <i type="logical" name="LFOCKAEDFT"> F  </i>
   <i name="HFSCREEN">      0.00000000</i>
   <i name="HFSCREENC">      0.00000000</i>
   <i type="int" name="NBANDSGWLOW">     0</i>
  </separator>
  <separator name="vdW DFT" >
   <i type="logical" name="LUSE_VDW"> F  </i>
   <i name="Zab_VDW">     -0.84910000</i>
   <i name="PARAM1">      0.12340000</i>
   <i name="PARAM2">      1.00000000</i>
   <i name="PARAM3">      0.00000000</i>
  </separator>
  <separator name="model GW" >
   <i type="int" name="MODEL_GW">     0</i>
   <i name="MODEL_EPS0">      6.52091882</i>
   <i name="MODEL_ALPHA">      1.00000000</i>
  </separator>
  <separator name="linear response parameters" >
   <i type="logical" name="LEPSILON"> F  </i>
   <i type="logical" name="LRPA"> F  </i>
   <i type="logical" name="LNABLA"> F  </i>
   <i type="logical" name="LVEL"> F  </i>
   <i type="int" name="KINTER">     0</i>
   <i name="CSHIFT">      0.10000000</i>
   <i name="OMEGAMAX">     -1.00000000</i>
   <i name="DEG_THRESHOLD">      0.00200000</i>
   <i name="RTIME">     -0.10000000</i>
   <i name="WPLASMAI">      0.00000000</i>
   <v name="DFIELD">      0.00000000      0.00000000      0.00000000</v>
   <v name="WPLASMA">      0.00000000      0.00000000      0.00000000      0.00000000      0.00000000      0.00000000      0.00000000      0.00000000      0.00000000</v>
  </separator>
  <separator name="orbital magnetization" >
   <i type="logical" name="NUCIND"> F  </i>
   <v name="MAGPOS">      0.00000000      0.00000000      0.00000000</v>
   <i type="logical" name="LNICSALL"> T  </i>
   <i type="logical" name="ORBITALMAG"> F  </i>
   <i type="logical" name="LMAGBLOCH"> F  </i>
   <i type="logical" name="LCHIMAG"> F  </i>
   <i type="logical" name="LGAUGE"> T  </i>
   <i type="int" name="MAGATOM">     0</i>
   <v name="MAGDIPOL">      0.00000000      0.00000000      0.00000000</v>
   <v name="AVECCONST">      0.00000000      0.00000000      0.00000000</v>
  </separator>
  <separator name="response functions" >
   <i type="logical" name="LADDER"> F  </i>
   <i type="logical" name="LRPAFORCE"> F  </i>
   <i type="logical" name="LFXC"> F  </i>
   <i type="logical" name="LHARTREE"> T  </i>
   <i type="int" name="IBSE">     0</i>
   <v type="int" name="KPOINT">    -1     0     0     0</v>
   <i type="logical" name="LTCTE"> F  </i>
   <i type="logical" name="LTETE"> F  </i>
   <i type="logical" name="LTRIPLET"> F  </i>
   <i type="logical" name="LFXCEPS"> F  </i>
   <i type="logical" name="LFXHEG"> F  </i>
   <i type="int" name="NATURALO">     2</i>
   <i type="logical" name="L2ORDER"> F  </i>
   <i type="logical" name="LMP2LT"> F  </i>
   <i type="logical" name="LUSEW"> F  </i>
   <i name="ENCUTGW">     -2.00000000</i>
   <i name="ENCUTGWSOFT">     -2.00000000</i>
   <i name="ENCUTLF">     -1.00000000</i>
   <i type="int" name="LMAXMP2">    -1</i>
   <i name="SCISSOR">      0.00000000</i>
   <i type="int" name="NOMEGA">     0</i>
   <i type="int" name="NOMEGAR">     0</i>
   <i type="int" name="NBANDSGW">    -1</i>
   <i type="int" name="NBANDSO">    -1</i>
   <i type="int" name="NBANDSV">    -1</i>
   <i type="int" name="NELM">    60</i>
   <i type="int" name="NELMHF">     1</i>
   <i type="int" name="DIM">     3</i>
   <i type="int" name="ANTIRES">     0</i>
   <i name="OMEGAMAX">    -30.00000000</i>
   <i name="OMEGAMIN">    -30.00000000</i>
   <i name="OMEGATL">   -200.00000000</i>
   <i type="int" name="OMEGAGRID">   140</i>
   <i name="CSHIFT">     -0.10000000</i>
   <i type="logical" name="SELFENERGY"> F  </i>
   <i type="logical" name="LSPECTRAL"> F  </i>
   <i type="logical" name="LSPECTRALGW"> F  </i>
   <i type="logical" name="LSINGLES"> F  </i>
   <i type="logical" name="LFERMIGW"> F  </i>
   <i type="logical" name="ODDONLYGW"> F  </i>
   <i type="logical" name="EVENONLYGW"> F  </i>
   <i type="int" name="NKREDLFX">     1</i>
   <i type="int" name="NKREDLFY">     1</i>
   <i type="int" name="NKREDLFZ">     1</i>
   <i type="int" name="MAXMEM">  2800</i>
   <i type="int" name="TELESCOPE">     0</i>
   <i type="int" name="TAUPAR">     1</i>
   <i type="int" name="OMEGAPAR">    -1</i>
   <i name="LAMBDA">      1.00000000</i>
  </separator>
  <separator name="External order field" >
   <i name="OFIELD_KAPPA">      0.00000000</i>
   <v name="OFIELD_K">      0.00000000      0.00000000      0.00000000</v>
   <i name="OFIELD_Q6_NEAR">      0.00000000</i>
   <i name="OFIELD_Q6_FAR">      0.00000000</i>
   <i name="OFIELD_A">      0.00000000</i>
  </separator>
 </parameters>
 <atominfo>
  <atoms>      64 </atoms>
  <types>       7 </types>
  <array name="atoms" >
   <dimension dim="1">ion</dimension>
   <field type="string">element</field>
   <field type="int">atomtype</field>
   <set>
    <rc><c>Zr</c><c>   1</c></rc>
    <rc><c>Zr</c><c>   1</c></rc>
    <rc><c>Zr</c><c>   1</c></rc>
    <rc><c>Zr</c><c>   1</c></rc>
    <rc><c>Zr</c><c>   1</c></rc>
    <rc><c>Zr</c><c>   1</c></rc>
    <rc><c>Zr</c><c>   1</c></rc>
    <rc><c>Hf</c><c>   2</c></rc>
    <rc><c>Hf</c><c>   2</c></rc>
    <rc><c>Hf</c><c>   2</c></rc>
    <rc><c>Hf</c><c>   2</c></rc>
    <rc><c>Hf</c><c>   2</c></rc>
    <rc><c>Hf</c><c>   2</c></rc>
    <rc><c>Ti</c><c>   3</c></rc>
    <rc><c>Ti</c><c>   3</c></rc>
    <rc><c>Ti</c><c>   3</c></rc>
    <rc><c>Ti</c><c>   3</c></rc>
    <rc><c>Ti</c><c>   3</c></rc>
    <rc><c>Ti</c><c>   3</c></rc>
    <rc><c>Ti</c><c>   3</c></rc>
    <rc><c>N </c><c>   4</c></rc>
    <rc><c>N </c><c>   4</c></rc>
    <rc><c>N </c><c>   4</c></rc>
    <rc><c>N </c><c>   4</c></rc>
    <rc><c>N </c><c>   4</c></rc>
    <rc><c>N </c><c>   4</c></rc>
    <rc><c>N </c><c>   4</c></rc>
    <rc><c>N </c><c>   4</c></rc>
    <rc><c>N </c><c>   4</c></rc>
    <rc><c>N </c><c>   4</c></rc>
    <rc><c>N </c><c>   4</c></rc>
    <rc><c>N </c><c>   4</c></rc>
    <rc><c>N </c><c>   4</c></rc>
    <rc><c>C </c><c>   5</c></rc>
    <rc><c>C </c><c>   5</c></rc>
    <rc><c>C </c><c>   5</c></rc>
    <rc><c>C </c><c>   5</c></rc>
    <rc><c>C </c><c>   5</c></rc>
    <rc><c>C </c><c>   5</c></rc>
    <rc><c>C </c><c>   5</c></rc>
    <rc><c>C </c><c>   5</c></rc>
    <rc><c>C </c><c>   5</c></rc>
    <rc><c>C </c><c>   5</c></rc>
    <rc><c>C </c><c>   5</c></rc>
    <rc><c>C </c><c>   5</c></rc>
    <rc><c>C </c><c>   5</c></rc>
    <rc><c>C </c><c>   5</c></rc>
    <rc><c>C </c><c>   5</c></rc>
    <rc><c>C </c><c>   5</c></rc>
    <rc><c>C </c><c>   5</c></rc>
    <rc><c>C </c><c>   5</c></rc>
    <rc><c>C </c><c>   5</c></rc>
    <rc><c>Cr</c><c>   6</c></rc>
    <rc><c>Cr</c><c>   6</c></rc>
    <rc><c>Cr</c><c>   6</c></rc>
    <rc><c>Cr</c><c>   6</c></rc>
    <rc><c>Cr</c><c>   6</c></rc>
    <rc><c>Cr</c><c>   6</c></rc>
    <rc><c>Mo</c><c>   7</c></rc>
    <rc><c>Mo</c><c>   7</c></rc>
    <rc><c>Mo</c><c>   7</c></rc>
    <rc><c>Mo</c><c>   7</c></rc>
    <rc><c>Mo</c><c>   7</c></rc>
    <rc><c>Mo</c><c>   7</c></rc>
   </set>
  </array>
  <array name="atomtypes" >
   <dimension dim="1">type</dimension>
   <field type="int">atomspertype</field>
   <field type="string">element</field>
   <field>mass</field>
   <field>valence</field>
   <field type="string">pseudopotential</field>
   <set>
    <rc><c>   7</c><c>Zr</c><c>     91.22400000</c><c>     12.00000000</c><c> PAW_PBE Zr_sv 07Sep2000                </c></rc>
    <rc><c>   6</c><c>Hf</c><c>    178.49000000</c><c>     10.00000000</c><c> PAW_PBE Hf_pv 06Sep2000                </c></rc>
    <rc><c>   7</c><c>Ti</c><c>     47.88000000</c><c>     12.00000000</c><c> PAW_PBE Ti_sv 07Sep2000                </c></rc>
    <rc><c>  13</c><c>N </c><c>     14.00100000</c><c>      5.00000000</c><c> PAW_PBE N 08Apr2002                    </c></rc>
    <rc><c>  19</c><c>C </c><c>     12.01100000</c><c>      4.00000000</c><c> PAW_PBE C 08Apr2002                    </c></rc>
    <rc><c>   6</c><c>Cr</c><c>     51.99600000</c><c>     12.00000000</c><c> PAW_PBE Cr_pv 07Sep2000                </c></rc>
    <rc><c>   6</c><c>Mo</c><c>     95.94000000</c><c>      6.00000000</c><c> PAW_PBE Mo 08Apr2002                   </c></rc>
   </set>
  </array>
 </atominfo>
 <structure name="initialpos" >
  <crystal>
   <varray name="basis" >
    <v>       8.83268541       0.02262545      -0.02010684 </v>
    <v>       0.02893233       8.88234891       0.00898806 </v>
    <v>       0.01158061      -0.00639285       8.86582057 </v>
   </varray>
   <i name="volume">    695.56467405 </i>
   <varray name="rec_basis" >
    <v>       0.11321646      -0.00036863      -0.00014815 </v>
    <v>      -0.00028820       0.11258369       0.00008156 </v>
    <v>       0.00025706      -0.00011497       0.11279230 </v>
   </varray>
  </crystal>
  <varray name="positions" >
   <v>       0.99916692       0.99222935       0.00196828 </v>
   <v>       0.26371346       0.00021006       0.24350358 </v>
   <v>       0.24730658       0.49601393       0.24842593 </v>
   <v>       0.50232919       0.49643904       0.00166675 </v>
   <v>       0.50639594       0.24688482       0.74657583 </v>
   <v>       0.99724596       0.50013892       0.50319851 </v>
   <v>       0.49845347       0.75776727       0.74569960 </v>
   <v>       0.99560356       0.25007835       0.24341577 </v>
   <v>       0.74320142       0.75124920       0.00890304 </v>
   <v>       0.99635868       0.23907614       0.75392832 </v>
   <v>       0.74670888       0.23482299       0.49936279 </v>
   <v>       0.99871199       0.76460340       0.74360411 </v>
   <v>       0.25188425       0.49960063       0.74961090 </v>
   <v>       0.25814530       0.24304664       0.99224485 </v>
   <v>       0.50594179       0.24976354       0.24867031 </v>
   <v>       0.73754563       0.98528598       0.25935582 </v>
   <v>       0.74429503       0.24628627       0.00035877 </v>
   <v>       0.25346822       0.74811562       0.99685720 </v>
   <v>       0.25340104       0.24307978       0.50676639 </v>
   <v>       0.25048617       0.75333422       0.49966311 </v>
   <v>       0.25431472       0.24752828       0.24787548 </v>
   <v>       0.26359749       0.99990050       0.99341032 </v>
   <v>       0.99905300       0.24838417       0.99819847 </v>
   <v>       0.74572626       0.24287981       0.24748965 </v>
   <v>       0.73902296       0.00305783       0.00324336 </v>
   <v>       0.51172238       0.01047015       0.23779106 </v>
   <v>       0.99404024       0.49979718       0.24426502 </v>
   <v>       0.49479769       0.75893734       0.00828371 </v>
   <v>       0.97004485       0.00217569       0.74702506 </v>
   <v>       0.75315107       0.24133129       0.75357753 </v>
   <v>       0.75020707       0.99703807       0.48603300 </v>
   <v>       0.49943676       0.24375144       0.49113094 </v>
   <v>       0.50633992       0.00138887       0.72687330 </v>
   <v>       0.99772848       0.99835822       0.25276542 </v>
   <v>       0.50311537       0.24370671       0.00534007 </v>
   <v>       0.25722789       0.74814758       0.24990865 </v>
   <v>       0.23856108       0.50016316       0.99748366 </v>
   <v>       0.00364530       0.73895050       0.00200405 </v>
   <v>       0.74192995       0.74982086       0.25547319 </v>
   <v>       0.76492926       0.49564644       0.00463775 </v>
   <v>       0.50098023       0.49953809       0.25553571 </v>
   <v>       0.25193947       0.24071558       0.75011689 </v>
   <v>       0.25408906       0.99917475       0.51298719 </v>
   <v>       0.00393508       0.24447895       0.49896858 </v>
   <v>       0.24912120       0.76316071       0.75309895 </v>
   <v>       0.25652509       0.49982569       0.50056474 </v>
   <v>       0.99944076       0.75824402       0.49553434 </v>
   <v>       0.99645875       0.50286549       0.76166928 </v>
   <v>       0.74858891       0.76015919       0.74793601 </v>
   <v>       0.74499781       0.49766679       0.50531368 </v>
   <v>       0.49674750       0.76705389       0.48400255 </v>
   <v>       0.50552124       0.50254219       0.74445808 </v>
   <v>       0.50814708       0.01931155       0.00199599 </v>
   <v>       0.99856148       0.51927088       0.97873708 </v>
   <v>       0.48040268       0.72649229       0.26094166 </v>
   <v>       0.28805572       0.00591134       0.76729161 </v>
   <v>       0.47047529       0.99125717       0.51109740 </v>
   <v>       0.72807089       0.98178953       0.77975453 </v>
   <v>       0.01704142       0.75711660       0.25771987 </v>
   <v>       0.73769271       0.51095438       0.26075132 </v>
   <v>       0.02212419       0.00048362       0.48665668 </v>
   <v>       0.50672765       0.52208125       0.49422603 </v>
   <v>       0.75149070       0.52159815       0.75468132 </v>
   <v>       0.74391026       0.73884740       0.48937110 </v>
  </varray>
 </structure>
 <calculation>
  <scstep>
   <time name="dav">   18.08   18.13</time>
   <time name="total">   18.12   18.18</time>
   <energy>
    <i name="alphaZ">   3917.75928210 </i>
    <i name="ewald"> -35813.58551070 </i>
    <i name="hartreedc">  -8833.51818515 </i>
    <i name="XCdc">   1410.28679804 </i>
    <i name="pawpsdc">  27296.70540234 </i>
    <i name="pawaedc"> -26858.51824759 </i>
    <i name="eentropy">     -0.08779829 </i>
    <i name="bandstr">   2040.08243358 </i>
    <i name="atom">  42677.76878328 </i>
    <i name="e_fr_energy">   5836.89295763 </i>
    <i name="e_wo_entrp">   5836.98075592 </i>
    <i name="e_0_energy">   5836.93685677 </i>
   </energy>
  </scstep>
  <scstep>
   <time name="dav">   18.67   18.69</time>
   <time name="total">   18.67   18.69</time>
   <energy>
    <i name="e_fr_energy">    379.93207780 </i>
    <i name="e_wo_entrp">    380.04779753 </i>
    <i name="e_0_energy">    379.98993767 </i>
   </energy>
  </scstep>
  <scstep>
   <time name="dav">   25.33   25.34</time>
   <time name="total">   25.33   25.34</time>
   <energy>
    <i name="e_fr_energy">   -624.42068707 </i>
    <i name="e_wo_entrp">   -624.33528991 </i>
    <i name="e_0_energy">   -624.37798849 </i>
   </energy>
  </scstep>
  <scstep>
   <time name="dav">   31.06   31.13</time>
   <time name="total">   31.06   31.13</time>
   <energy>
    <i name="e_fr_energy">   -768.96983342 </i>
    <i name="e_wo_entrp">   -768.88871962 </i>
    <i name="e_0_energy">   -768.92927652 </i>
   </energy>
  </scstep>
  <scstep>
   <time name="dav">   31.49   31.54</time>
   <time name="total">   31.74   31.78</time>
   <energy>
    <i name="e_fr_energy">   -781.55044408 </i>
    <i name="e_wo_entrp">   -781.45601770 </i>
    <i name="e_0_energy">   -781.50323089 </i>
   </energy>
  </scstep>
  <scstep>
   <time name="diag">    1.58    1.58</time>
   <time name="diis">   17.54   17.55</time>
   <time name="orth">    0.36    0.36</time>
   <time name="total">   19.75   19.76</time>
   <energy>
    <i name="e_fr_energy">   -883.32295002 </i>
    <i name="e_wo_entrp">   -883.10425794 </i>
    <i name="e_0_energy">   -883.21360398 </i>
   </energy>
  </scstep>
  <scstep>
   <time name="diag">    1.58    1.58</time>
   <time name="diis">   19.65   19.70</time>
   <time name="orth">    0.36    0.36</time>
   <time name="total">   21.85   21.91</time>
   <energy>
    <i name="e_fr_energy">   -645.77034592 </i>
    <i name="e_wo_entrp">   -645.67352121 </i>
    <i name="e_0_energy">   -645.72193356 </i>
   </energy>
  </scstep>
  <scstep>
   <time name="diag">    1.57    1.57</time>
   <time name="diis">   19.81   19.89</time>
   <time name="orth">    0.38    0.38</time>
   <time name="total">   22.05   22.14</time>
   <energy>
    <i name="e_fr_energy">   -634.21973390 </i>
    <i name="e_wo_entrp">   -634.08489872 </i>
    <i name="e_0_energy">   -634.15231631 </i>
   </energy>
  </scstep>
  <scstep>
   <time name="diag">    1.57    1.57</time>
   <time name="diis">   20.04   20.09</time>
   <time name="orth">    0.36    0.36</time>
   <time name="total">   22.24   22.30</time>
   <energy>
    <i name="e_fr_energy">   -632.78388989 </i>
    <i name="e_wo_entrp">   -632.64427917 </i>
    <i name="e_0_energy">   -632.71408453 </i>
   </energy>
  </scstep>
  <scstep>
   <time name="diag">    1.59    1.60</time>
   <time name="diis">   20.07   20.09</time>
   <time name="orth">    0.36    0.36</time>
   <time name="total">   22.29   22.32</time>
   <energy>
    <i name="e_fr_energy">   -629.68167287 </i>
    <i name="e_wo_entrp">   -629.55737479 </i>
    <i name="e_0_energy">   -629.61952383 </i>
   </energy>
  </scstep>
  <scstep>
   <time name="diag">    1.56    1.56</time>
   <time name="diis">   19.83   19.89</time>
   <time name="orth">    0.35    0.35</time>
   <time name="total">   22.02   22.08</time>
   <energy>
    <i name="e_fr_energy">   -629.98824751 </i>
    <i name="e_wo_entrp">   -629.85651594 </i>
    <i name="e_0_energy">   -629.92238172 </i>
   </energy>
  </scstep>
  <scstep>
   <time name="diag">    1.58    1.58</time>
   <time name="diis">   19.71   19.77</time>
   <time name="orth">    0.35    0.35</time>
   <time name="total">   21.92   21.97</time>
   <energy>
    <i name="e_fr_energy">   -629.06857187 </i>
    <i name="e_wo_entrp">   -628.93647674 </i>
    <i name="e_0_energy">   -629.00252431 </i>
   </energy>
  </scstep>
  <scstep>
   <time name="diag">    1.58    1.58</time>
   <time name="diis">   20.01   20.04</time>
   <time name="orth">    0.36    0.36</time>
   <time name="total">   22.21   22.25</time>
   <energy>
    <i name="e_fr_energy">   -629.23008339 </i>
    <i name="e_wo_entrp">   -629.08926617 </i>
    <i name="e_0_energy">   -629.15967478 </i>
   </energy>
  </scstep>
  <scstep>
   <time name="diag">    1.57    1.57</time>
   <time name="diis">   19.94   20.04</time>
   <time name="orth">    0.39    0.39</time>
   <time name="total">   22.17   22.28</time>
   <energy>
    <i name="e_fr_energy">   -629.09140680 </i>
    <i name="e_wo_entrp">   -628.94503787 </i>
    <i name="e_0_energy">   -629.01822234 </i>
   </energy>
  </scstep>
  <scstep>
   <time name="diag">    1.58    1.58</time>
   <time name="diis">   19.79   19.82</time>
   <time name="orth">    0.35    0.35</time>
   <time name="total">   22.00   22.03</time>
   <energy>
    <i name="e_fr_energy">   -629.03335355 </i>
    <i name="e_wo_entrp">   -628.88762810 </i>
    <i name="e_0_energy">   -628.96049083 </i>
   </energy>
  </scstep>
  <scstep>
   <time name="diag">    1.56    1.56</time>
   <time name="diis">   20.49   20.50</time>
   <time name="orth">    0.36    0.37</time>
   <time name="total">   22.68   22.72</time>
   <energy>
    <i name="e_fr_energy">   -628.97547292 </i>
    <i name="e_wo_entrp">   -628.82906665 </i>
    <i name="e_0_energy">   -628.90226978 </i>
   </energy>
  </scstep>
  <scstep>
   <time name="diag">    1.63    1.65</time>
   <time name="diis">   20.07   20.08</time>
   <time name="orth">    0.35    0.36</time>
   <time name="total">   22.34   22.37</time>
   <energy>
    <i name="e_fr_energy">   -628.93391036 </i>
    <i name="e_wo_entrp">   -628.78976163 </i>
    <i name="e_0_energy">   -628.86183599 </i>
   </energy>
  </scstep>
  <scstep>
   <time name="diag">    1.57    1.57</time>
   <time name="diis">   20.07   20.11</time>
   <time name="orth">    0.35    0.35</time>
   <time name="total">   22.26   22.32</time>
   <energy>
    <i name="e_fr_energy">   -628.98200431 </i>
    <i name="e_wo_entrp">   -628.84387202 </i>
    <i name="e_0_energy">   -628.91293816 </i>
   </energy>
  </scstep>
  <scstep>
   <time name="diag">    1.59    1.59</time>
   <time name="diis">   20.21   20.26</time>
   <time name="orth">    0.36    0.36</time>
   <time name="total">   22.44   22.49</time>
   <energy>
    <i name="e_fr_energy">   -628.96589582 </i>
    <i name="e_wo_entrp">   -628.82396542 </i>
    <i name="e_0_energy">   -628.89493062 </i>
   </energy>
  </scstep>
  <scstep>
   <time name="diag">    1.57    1.57</time>
   <time name="diis">   20.56   20.57</time>
   <time name="orth">    0.37    0.38</time>
   <time name="total">   22.77   22.79</time>
   <energy>
    <i name="e_fr_energy">   -628.93564130 </i>
    <i name="e_wo_entrp">   -628.79371072 </i>
    <i name="e_0_energy">   -628.86467601 </i>
   </energy>
  </scstep>
  <scstep>
   <time name="diag">    1.57    1.57</time>
   <time name="diis">   20.32   20.33</time>
   <time name="orth">    0.36    0.36</time>
   <time name="total">   22.53   22.54</time>
   <energy>
    <i name="e_fr_energy">   -628.92711925 </i>
    <i name="e_wo_entrp">   -628.78425539 </i>
    <i name="e_0_energy">   -628.85568732 </i>
   </energy>
  </scstep>
  <scstep>
   <time name="diag">    1.57    1.57</time>
   <time name="diis">   19.58   19.62</time>
   <time name="orth">    0.35    0.35</time>
   <time name="total">   21.78   21.82</time>
   <energy>
    <i name="e_fr_energy">   -628.92889112 </i>
    <i name="e_wo_entrp">   -628.78563982 </i>
    <i name="e_0_energy">   -628.85726547 </i>
   </energy>
  </scstep>
  <scstep>
   <time name="diag">    1.60    1.61</time>
   <time name="diis">   19.49   19.55</time>
   <time name="orth">    0.35    0.35</time>
   <time name="total">   21.72   21.79</time>
   <energy>
    <i name="e_fr_energy">   -628.92986279 </i>
    <i name="e_wo_entrp">   -628.78655746 </i>
    <i name="e_0_energy">   -628.85821013 </i>
   </energy>
  </scstep>
  <scstep>
   <time name="diag">    1.57    1.57</time>
   <time name="diis">   19.02   19.06</time>
   <time name="orth">    0.35    0.35</time>
   <time name="total">   21.21   21.26</time>
   <energy>
    <i name="e_fr_energy">   -628.93018183 </i>
    <i name="e_wo_entrp">   -628.78684130 </i>
    <i name="e_0_energy">   -628.85851157 </i>
   </energy>
  </scstep>
  <scstep>
   <time name="diag">    1.57    1.57</time>
   <time name="diis">   17.75   17.82</time>
   <time name="orth">    0.36    0.36</time>
   <time name="total">   19.95   20.02</time>
   <energy>
    <i name="e_fr_energy">   -628.93050367 </i>
    <i name="e_wo_entrp">   -628.78723580 </i>
    <i name="e_0_energy">   -628.85886974 </i>
   </energy>
  </scstep>
  <scstep>
   <time name="diag">    1.57    1.57</time>
   <time name="diis">   17.13   17.17</time>
   <time name="orth">    0.35    0.35</time>
   <time name="total">   19.32   19.38</time>
   <energy>
    <i name="e_fr_energy">   -628.93066285 </i>
    <i name="e_wo_entrp">   -628.78733635 </i>
    <i name="e_0_energy">   -628.85899960 </i>
   </energy>
  </scstep>
  <scstep>
   <time name="diag">    1.56    1.56</time>
   <time name="diis">   16.58   16.58</time>
   <time name="orth">    0.35    0.35</time>
   <time name="total">   18.77   18.77</time>
   <energy>
    <i name="e_fr_energy">   -628.93079246 </i>
    <i name="e_wo_entrp">   -628.78744732 </i>
    <i name="e_0_energy">   -628.85911989 </i>
   </energy>
  </scstep>
  <scstep>
   <time name="diag">    1.57    1.57</time>
   <time name="diis">   16.62   16.64</time>
   <time name="orth">    0.35    0.35</time>
   <time name="total">   18.81   18.84</time>
   <energy>
    <i name="e_fr_energy">   -628.93088010 </i>
    <i name="e_wo_entrp">   -628.78754163 </i>
    <i name="e_0_energy">   -628.85921087 </i>
   </energy>
  </scstep>
  <scstep>
   <time name="diag">    1.61    1.62</time>
   <time name="diis">   16.63   16.67</time>
   <time name="orth">    0.35    0.35</time>
   <time name="total">   18.86   18.92</time>
   <energy>
    <i name="e_fr_energy">   -628.93093329 </i>
    <i name="e_wo_entrp">   -628.78759691 </i>
    <i name="e_0_energy">   -628.85926510 </i>
   </energy>
  </scstep>
  <scstep>
   <time name="diag">    1.56    1.56</time>
   <time name="diis">   16.23   16.25</time>
   <time name="orth">    0.35    0.35</time>
   <time name="total">   18.42   18.45</time>
   <energy>
    <i name="e_fr_energy">   -628.93097234 </i>
    <i name="e_wo_entrp">   -628.78764113 </i>
    <i name="e_0_energy">   -628.85930674 </i>
   </energy>
  </scstep>
  <scstep>
   <time name="diag">    1.56    1.56</time>
   <time name="diis">   15.46   15.54</time>
   <time name="orth">    0.36    0.36</time>
   <time name="total">   17.65   17.73</time>
   <energy>
    <i name="e_fr_energy">   -628.93099732 </i>
    <i name="e_wo_entrp">   -628.78766648 </i>
    <i name="e_0_energy">   -628.85933190 </i>
   </energy>
  </scstep>
  <scstep>
   <time name="diag">    1.55    1.55</time>
   <time name="diis">   14.82   14.85</time>
   <time name="orth">    0.38    0.38</time>
   <time name="total">   17.04   17.07</time>
   <energy>
    <i name="e_fr_energy">   -628.93101350 </i>
    <i name="e_wo_entrp">   -628.78768537 </i>
    <i name="e_0_energy">   -628.85934943 </i>
   </energy>
  </scstep>
  <scstep>
   <time name="diag">    1.56    1.56</time>
   <time name="diis">   14.18   14.18</time>
   <time name="orth">    0.35    0.35</time>
   <time name="total">   16.36   16.37</time>
   <energy>
    <i name="e_fr_energy">   -628.93102421 </i>
    <i name="e_wo_entrp">   -628.78769360 </i>
    <i name="e_0_energy">   -628.85935891 </i>
   </energy>
  </scstep>
  <scstep>
   <time name="diag">    1.55    1.56</time>
   <time name="diis">   13.75   13.76</time>
   <time name="orth">    0.36    0.36</time>
   <time name="total">   15.70   15.71</time>
   <energy>
    <i name="alphaZ">   3917.75928210 </i>
    <i name="ewald"> -35813.58551070 </i>
    <i name="hartreedc">  -8412.99099928 </i>
    <i name="XCdc">   1407.26194368 </i>
    <i name="pawpsdc">  29216.33320485 </i>
    <i name="pawaedc"> -28796.65815542 </i>
    <i name="eentropy">     -0.14332979 </i>
    <i name="bandstr">  -4824.67624946 </i>
    <i name="atom">  42677.76878328 </i>
    <i name="e_fr_energy">   -628.93103075 </i>
    <i name="e_wo_entrp">   -628.78770095 </i>
    <i name="e_0_energy">   -628.85936585 </i>
   </energy>
  </scstep>
  <structure>
   <crystal>
    <varray name="basis" >
     <v>       8.83268541       0.02262545      -0.02010684 </v>
     <v>       0.02893233       8.88234891       0.00898806 </v>
     <v>       0.01158061      -0.00639285       8.86582057 </v>
    </varray>
    <i name="volume">    695.56467405 </i>
    <varray name="rec_basis" >
     <v>       0.11321646      -0.00036863      -0.00014815 </v>
     <v>      -0.00028820       0.11258369       0.00008156 </v>
     <v>       0.00025706      -0.00011497       0.11279230 </v>
    </varray>
   </crystal>
   <varray name="positions" >
    <v>       0.99916692       0.99222935       0.00196828 </v>
    <v>       0.26371346       0.00021006       0.24350358 </v>
    <v>       0.24730658       0.49601393       0.24842593 </v>
    <v>       0.50232919       0.49643904       0.00166675 </v>
    <v>       0.50639594       0.24688482       0.74657583 </v>
    <v>       0.99724596       0.50013892       0.50319851 </v>
    <v>       0.49845347       0.75776727       0.74569960 </v>
    <v>       0.99560356       0.25007835       0.24341577 </v>
    <v>       0.74320142       0.75124920       0.00890304 </v>
    <v>       0.99635868       0.23907614       0.75392832 </v>
    <v>       0.74670888       0.23482299       0.49936279 </v>
    <v>       0.99871199       0.76460340       0.74360411 </v>
    <v>       0.25188425       0.49960063       0.74961090 </v>
    <v>       0.25814530       0.24304664       0.99224485 </v>
    <v>       0.50594179       0.24976354       0.24867031 </v>
    <v>       0.73754563       0.98528598       0.25935582 </v>
    <v>       0.74429503       0.24628627       0.00035877 </v>
    <v>       0.25346822       0.74811562       0.99685720 </v>
    <v>       0.25340104       0.24307978       0.50676639 </v>
    <v>       0.25048617       0.75333422       0.49966311 </v>
    <v>       0.25431472       0.24752828       0.24787548 </v>
    <v>       0.26359749       0.99990050       0.99341032 </v>
    <v>       0.99905300       0.24838417       0.99819847 </v>
    <v>       0.74572626       0.24287981       0.24748965 </v>
    <v>       0.73902296       0.00305783       0.00324336 </v>
    <v>       0.51172238       0.01047015       0.23779106 </v>
    <v>       0.99404024       0.49979718       0.24426502 </v>
    <v>       0.49479769       0.75893734       0.00828371 </v>
    <v>       0.97004485       0.00217569       0.74702506 </v>
    <v>       0.75315107       0.24133129       0.75357753 </v>
    <v>       0.75020707       0.99703807       0.48603300 </v>
    <v>       0.49943676       0.24375144       0.49113094 </v>
    <v>       0.50633992       0.00138887       0.72687330 </v>
    <v>       0.99772848       0.99835822       0.25276542 </v>
    <v>       0.50311537       0.24370671       0.00534007 </v>
    <v>       0.25722789       0.74814758       0.24990865 </v>
    <v>       0.23856108       0.50016316       0.99748366 </v>
    <v>       0.00364530       0.73895050       0.00200405 </v>
    <v>       0.74192995       0.74982086       0.25547319 </v>
    <v>       0.76492926       0.49564644       0.00463775 </v>
    <v>       0.50098023       0.49953809       0.25553571 </v>
    <v>       0.25193947       0.24071558       0.75011689 </v>
    <v>       0.25408906       0.99917475       0.51298719 </v>
    <v>       0.00393508       0.24447895       0.49896858 </v>
    <v>       0.24912120       0.76316071       0.75309895 </v>
    <v>       0.25652509       0.49982569       0.50056474 </v>
    <v>       0.99944076       0.75824402       0.49553434 </v>
    <v>       0.99645875       0.50286549       0.76166928 </v>
    <v>       0.74858891       0.76015919       0.74793601 </v>
    <v>       0.74499781       0.49766679       0.50531368 </v>
    <v>       0.49674750       0.76705389       0.48400255 </v>
    <v>       0.50552124       0.50254219       0.74445808 </v>
    <v>       0.50814708       0.01931155       0.00199599 </v>
    <v>       0.99856148       0.51927088       0.97873708 </v>
    <v>       0.48040268       0.72649229       0.26094166 </v>
    <v>       0.28805572       0.00591134       0.76729161 </v>
    <v>       0.47047529       0.99125717       0.51109740 </v>
    <v>       0.72807089       0.98178953       0.77975453 </v>
    <v>       0.01704142       0.75711660       0.25771987 </v>
    <v>       0.73769271       0.51095438       0.26075132 </v>
    <v>       0.02212419       0.00048362       0.48665668 </v>
    <v>       0.50672765       0.52208125       0.49422603 </v>
    <v>       0.75149070       0.52159815       0.75468132 </v>
    <v>       0.74391026       0.73884740       0.48937110 </v>
   </varray>
  </structure>
  <varray name="forces" >
   <v>      -0.00336666       0.01441911      -0.00949396 </v>
   <v>      -0.00054694       0.00337776      -0.00009877 </v>
   <v>       0.00097417      -0.00329137      -0.00126501 </v>
   <v>      -0.00363277      -0.00299580       0.00550481 </v>
   <v>      -0.00194627      -0.00852689      -0.00396172 </v>
   <v>      -0.00305807       0.00191226      -0.00426256 </v>
   <v>       0.00153815       0.00307324      -0.00364272 </v>
   <v>       0.00581446       0.00556127      -0.00599911 </v>
   <v>       0.00192883       0.01263181       0.00222812 </v>
   <v>       0.00893884      -0.01345668       0.02286100 </v>
   <v>      -0.00468198       0.01076748       0.00466594 </v>
   <v>       0.00284253      -0.00345740       0.00413640 </v>
   <v>      -0.00421641      -0.00343027       0.00428605 </v>
   <v>      -0.00322360      -0.00330050       0.00448203 </v>
   <v>      -0.00517889       0.00138088      -0.00249565 </v>
   <v>       0.00096891      -0.00305944      -0.00486205 </v>
   <v>       0.00642067      -0.00485210       0.00183479 </v>
   <v>       0.00371169       0.00132228      -0.00139428 </v>
   <v>       0.00659374      -0.00316495      -0.00460139 </v>
   <v>      -0.00285358      -0.00107420      -0.00025587 </v>
   <v>      -0.00306678       0.00010479      -0.00025138 </v>
   <v>       0.00148384      -0.00094831       0.00512052 </v>
   <v>       0.00001483       0.00125077      -0.00456757 </v>
   <v>      -0.00353563      -0.00156467       0.00084021 </v>
   <v>      -0.00053088      -0.00069326       0.00217577 </v>
   <v>       0.00221111      -0.00480052       0.00784535 </v>
   <v>      -0.00470126       0.00214777      -0.00117552 </v>
   <v>      -0.00817622       0.00396839       0.00237808 </v>
   <v>       0.00557072       0.00983167      -0.00113945 </v>
   <v>      -0.00393830      -0.01534401      -0.00200646 </v>
   <v>      -0.00132053      -0.00409721       0.01255721 </v>
   <v>      -0.00147647       0.00215335      -0.00235372 </v>
   <v>       0.00989725       0.00284545      -0.01835246 </v>
   <v>      -0.00282961       0.00282200       0.00842915 </v>
   <v>      -0.00029638       0.00296807       0.00806909 </v>
   <v>       0.00054325      -0.00035974      -0.00340997 </v>
   <v>      -0.00220047       0.00131402      -0.00440722 </v>
   <v>      -0.00237912      -0.00301842      -0.00124489 </v>
   <v>      -0.00207778       0.00561584       0.00166776 </v>
   <v>       0.00124133      -0.00180509       0.00016664 </v>
   <v>      -0.00070651       0.00316848      -0.00165641 </v>
   <v>       0.00108505      -0.00210624       0.00043616 </v>
   <v>      -0.00467788      -0.00000561      -0.00056618 </v>
   <v>      -0.00116078       0.00685194       0.00009899 </v>
   <v>       0.00477075       0.00542492       0.00213793 </v>
   <v>      -0.00604646      -0.00416279       0.00086431 </v>
   <v>      -0.00102161      -0.00123272      -0.00200696 </v>
   <v>       0.00944153      -0.00092177      -0.00188540 </v>
   <v>       0.00588742       0.00103588      -0.00375742 </v>
   <v>      -0.00571950      -0.00335177       0.00013567 </v>
   <v>      -0.00372352      -0.00662575      -0.00369249 </v>
   <v>       0.00400762      -0.00035731      -0.00384342 </v>
   <v>      -0.00151091       0.00068356       0.00109559 </v>
   <v>       0.00101513      -0.00037119       0.01131335 </v>
   <v>      -0.00505210      -0.00720117      -0.00733254 </v>
   <v>      -0.00261935       0.00214270      -0.00033768 </v>
   <v>       0.01505834      -0.01205083      -0.01749592 </v>
   <v>      -0.00970374       0.00717290      -0.00635839 </v>
   <v>      -0.00840581       0.00147080       0.00041670 </v>
   <v>       0.00712406       0.00186825      -0.00136614 </v>
   <v>       0.00699701      -0.00480273       0.00382494 </v>
   <v>      -0.00645265      -0.00023747      -0.00348315 </v>
   <v>       0.00427113       0.00828346       0.01030621 </v>
   <v>       0.00568304      -0.00090290       0.00514502 </v>
  </varray>
  <varray name="stress" >
   <v>       1.30061889      -0.15858527      -0.06615139 </v>
   <v>      -0.15858547       0.34743869       0.13595531 </v>
   <v>      -0.06615025       0.13595617       2.01442352 </v>
  </varray>
  <energy>
   <i name="e_fr_energy">   -628.93103075 </i>
   <i name="e_wo_entrp">   -628.85936585 </i>
   <i name="e_0_energy">     -0.14332979 </i>
  </energy>
  <time name="totalsc">  763.77  765.32</time>
 </calculation>
 <calculation>
  <scstep>
   <time name="dav">   25.59   25.68</time>
   <time name="total">   25.87   25.97</time>
   <energy>
    <i name="alphaZ">   3913.06774236 </i>
    <i name="ewald"> -35798.96093886 </i>
    <i name="hartreedc">  -8409.99738779 </i>
    <i name="XCdc">   1406.53400100 </i>
    <i name="pawpsdc">  29216.35182829 </i>
    <i name="pawaedc"> -28796.65248403 </i>
    <i name="eentropy">     -0.14300206 </i>
    <i name="bandstr">  -4836.90478372 </i>
    <i name="atom">  42677.76878328 </i>
    <i name="e_fr_energy">   -628.93624152 </i>
    <i name="e_wo_entrp">   -628.79323946 </i>
    <i name="e_0_energy">   -628.86474049 </i>
   </energy>
  </scstep>
  <scstep>
   <time name="diag">    1.56    1.56</time>
   <time name="diis">   16.40   16.41</time>
   <time name="orth">    0.36    0.36</time>
   <time name="total">   18.58   18.60</time>
   <energy>
    <i name="e_fr_energy">   -629.02910658 </i>
    <i name="e_wo_entrp">   -628.88238037 </i>
    <i name="e_0_energy">   -628.95574347 </i>
   </energy>
  </scstep>
  <scstep>
   <time name="diag">    1.56    1.56</time>
   <time name="diis">   15.46   15.47</time>
   <time name="orth">    0.35    0.35</time>
   <time name="total">   17.65   17.67</time>
   <energy>
    <i name="e_fr_energy">   -628.93712578 </i>
    <i name="e_wo_entrp">   -628.79558555 </i>
    <i name="e_0_energy">   -628.86635567 </i>
   </energy>
  </scstep>
  <scstep>
   <time name="diag">    1.56    1.56</time>
   <time name="diis">   17.79   17.88</time>
   <time name="orth">    0.37    0.37</time>
   <time name="total">   20.00   20.10</time>
   <energy>
    <i name="e_fr_energy">   -628.93318327 </i>
    <i name="e_wo_entrp">   -628.78893905 </i>
    <i name="e_0_energy">   -628.86106116 </i>
   </energy>
  </scstep>
  <scstep>
   <time name="diag">    1.61    1.64</time>
   <time name="diis">   19.00   19.07</time>
   <time name="orth">    0.35    0.36</time>
   <time name="total">   21.24   21.34</time>
   <energy>
    <i name="e_fr_energy">   -628.93163360 </i>
    <i name="e_wo_entrp">   -628.78812500 </i>
    <i name="e_0_energy">   -628.85987930 </i>
   </energy>
  </scstep>
  <scstep>
   <time name="diag">    1.56    1.57</time>
   <time name="diis">   17.83   17.90</time>
   <time name="orth">    0.35    0.35</time>
   <time name="total">   20.02   20.10</time>
   <energy>
    <i name="e_fr_energy">   -628.93200870 </i>
    <i name="e_wo_entrp">   -628.78821811 </i>
    <i name="e_0_energy">   -628.86011340 </i>
   </energy>
  </scstep>
  <scstep>
   <time name="diag">    1.57    1.57</time>
   <time name="diis">   17.91   17.96</time>
   <time name="orth">    0.35    0.35</time>
   <time name="total">   20.10   20.16</time>
   <energy>
    <i name="e_fr_energy">   -628.93116475 </i>
    <i name="e_wo_entrp">   -628.78776176 </i>
    <i name="e_0_energy">   -628.85946326 </i>
   </energy>
  </scstep>
  <scstep>
   <time name="diag">    1.57    1.57</time>
   <time name="diis">   18.04   18.55</time>
   <time name="orth">    0.87    0.87</time>
   <time name="total">   20.78   21.33</time>
   <energy>
    <i name="e_fr_energy">   -628.93129792 </i>
    <i name="e_wo_entrp">   -628.78744135 </i>
    <i name="e_0_energy">   -628.85936963 </i>
   </energy>
  </scstep>
  <scstep>
   <time name="diag">    1.57    1.57</time>
   <time name="diis">   17.20   17.23</time>
   <time name="orth">    0.35    0.35</time>
   <time name="total">   19.48   19.57</time>
   <energy>
    <i name="e_fr_energy">   -628.93103117 </i>
    <i name="e_wo_entrp">   -628.78748675 </i>
    <i name="e_0_energy">   -628.85925896 </i>
   </energy>
  </scstep>
  <scstep>
   <time name="diag">    1.56    1.58</time>
   <time name="diis">   16.50   16.54</time>
   <time name="orth">    0.35    0.35</time>
   <time name="total">   18.69   18.75</time>
   <energy>
    <i name="e_fr_energy">   -628.93105555 </i>
    <i name="e_wo_entrp">   -628.78744169 </i>
    <i name="e_0_energy">   -628.85924862 </i>
   </energy>
  </scstep>
  <scstep>
   <time name="diag">    1.57    1.57</time>
   <time name="diis">   15.53   15.56</time>
   <time name="orth">    0.35    0.35</time>
   <time name="total">   17.73   17.76</time>
   <energy>
    <i name="e_fr_energy">   -628.93102109 </i>
    <i name="e_wo_entrp">   -628.78742951 </i>
    <i name="e_0_energy">   -628.85922530 </i>
   </energy>
  </scstep>
  <scstep>
   <time name="diag">    1.56    1.56</time>
   <time name="diis">   13.04   13.08</time>
   <time name="orth">    0.35    0.35</time>
   <time name="total">   14.98   15.03</time>
   <energy>
    <i name="alphaZ">   3913.06774236 </i>
    <i name="ewald"> -35798.96093886 </i>
    <i name="hartreedc">  -8417.88122801 </i>
    <i name="XCdc">   1406.97334144 </i>
    <i name="pawpsdc">  29204.10513520 </i>
    <i name="pawaedc"> -28784.27771830 </i>
    <i name="eentropy">     -0.14358612 </i>
    <i name="bandstr">  -4829.58255352 </i>
    <i name="atom">  42677.76878328 </i>
    <i name="e_fr_energy">   -628.93102253 </i>
    <i name="e_wo_entrp">   -628.78743641 </i>
    <i name="e_0_energy">   -628.85922947 </i>
   </energy>
  </scstep>
  <structure>
   <crystal>
    <varray name="basis" >
     <v>       8.83644409       0.02216874      -0.02031030 </v>
     <v>       0.02848349       8.88335772       0.00938854 </v>
     <v>       0.01139395      -0.00599973       8.87166454 </v>
    </varray>
    <i name="volume">    696.39861548 </i>
    <varray name="rec_basis" >
     <v>       0.11316827      -0.00036271      -0.00014559 </v>
     <v>      -0.00028224       0.11257087       0.00007649 </v>
     <v>       0.00025938      -0.00011996       0.11271800 </v>
    </varray>
   </crystal>
   <varray name="positions" >
    <v>       0.99914834       0.99230767       0.00191650 </v>
    <v>       0.26371041       0.00022841       0.24350301 </v>
    <v>       0.24731197       0.49599604       0.24841908 </v>
    <v>       0.50230936       0.49642284       0.00169668 </v>
    <v>       0.50638549       0.24683852       0.74655429 </v>
    <v>       0.99722925       0.50014933       0.50317527 </v>
    <v>       0.49846185       0.75778393       0.74567978 </v>
    <v>       0.99563526       0.25010845       0.24338317 </v>
    <v>       0.74321172       0.75131779       0.00891512 </v>
    <v>       0.99640758       0.23900301       0.75405290 </v>
    <v>       0.74668308       0.23488156       0.49938806 </v>
    <v>       0.99872755       0.76458460       0.74362667 </v>
    <v>       0.25186125       0.49958207       0.74963419 </v>
    <v>       0.25812772       0.24302878       0.99226921 </v>
    <v>       0.50591350       0.24977111       0.24865665 </v>
    <v>       0.73755101       0.98526933       0.25932939 </v>
    <v>       0.74433017       0.24625984       0.00036886 </v>
    <v>       0.25348848       0.74812275       0.99684965 </v>
    <v>       0.25343714       0.24306248       0.50674145 </v>
    <v>       0.25047061       0.75332842       0.49966169 </v>
    <v>       0.25429797       0.24752889       0.24787407 </v>
    <v>       0.26360558       0.99989535       0.99343821 </v>
    <v>       0.99905309       0.24839095       0.99817361 </v>
    <v>       0.74570697       0.24287136       0.24749418 </v>
    <v>       0.73902006       0.00305408       0.00325520 </v>
    <v>       0.51173449       0.01044408       0.23783380 </v>
    <v>       0.99401453       0.49980891       0.24425856 </v>
    <v>       0.49475294       0.75895901       0.00829653 </v>
    <v>       0.97007511       0.00222901       0.74701887 </v>
    <v>       0.75312985       0.24124799       0.75356665 </v>
    <v>       0.75019984       0.99701588       0.48610134 </v>
    <v>       0.49942867       0.24376315       0.49111810 </v>
    <v>       0.50639406       0.00140412       0.72677354 </v>
    <v>       0.99771291       0.99837362       0.25281124 </v>
    <v>       0.50311364       0.24372287       0.00538396 </v>
    <v>       0.25723089       0.74814560       0.24989010 </v>
    <v>       0.23854907       0.50017031       0.99745964 </v>
    <v>       0.00363237       0.73893414       0.00199726 </v>
    <v>       0.74191849       0.74985139       0.25548221 </v>
    <v>       0.76493607       0.49563662       0.00463869 </v>
    <v>       0.50097633       0.49955530       0.25552667 </v>
    <v>       0.25194543       0.24070413       0.75011929 </v>
    <v>       0.25406351       0.99917478       0.51298406 </v>
    <v>       0.00392862       0.24451618       0.49896906 </v>
    <v>       0.24914714       0.76319012       0.75311061 </v>
    <v>       0.25649213       0.49980316       0.50056939 </v>
    <v>       0.99943522       0.75823734       0.49552341 </v>
    <v>       0.99651035       0.50286034       0.76165914 </v>
    <v>       0.74862108       0.76016472       0.74791563 </v>
    <v>       0.74496663       0.49764866       0.50531437 </v>
    <v>       0.49672731       0.76701794       0.48398245 </v>
    <v>       0.50554317       0.50254017       0.74443722 </v>
    <v>       0.50813880       0.01931529       0.00200193 </v>
    <v>       0.99856695       0.51926889       0.97879865 </v>
    <v>       0.48037526       0.72645322       0.26090174 </v>
    <v>       0.28804137       0.00592301       0.76728973 </v>
    <v>       0.47055787       0.99119144       0.51100245 </v>
    <v>       0.72801780       0.98182860       0.77971977 </v>
    <v>       0.01699548       0.75712471       0.25772203 </v>
    <v>       0.73773159       0.51096442       0.26074397 </v>
    <v>       0.02216247       0.00045746       0.48667761 </v>
    <v>       0.50669243       0.52208004       0.49420699 </v>
    <v>       0.75151381       0.52164312       0.75473740 </v>
    <v>       0.74394128       0.73884244       0.48939917 </v>
   </varray>
  </structure>
  <varray name="forces" >
   <v>      -0.00020987      -0.00377875       0.01024179 </v>
   <v>       0.00005989      -0.00141802      -0.00092219 </v>
   <v>      -0.00007508       0.00363072      -0.00093158 </v>
   <v>       0.00185430       0.00076186      -0.00146478 </v>
   <v>      -0.00029874      -0.00068318       0.00502031 </v>
   <v>      -0.00286228      -0.00145891       0.00584973 </v>
   <v>       0.00154259       0.00171337      -0.00468474 </v>
   <v>      -0.00656705      -0.00025384       0.00424882 </v>
   <v>      -0.00573649       0.00288212       0.00190303 </v>
   <v>      -0.00342361       0.00551802      -0.00910019 </v>
   <v>       0.00070180      -0.00149296      -0.00163045 </v>
   <v>       0.00500425       0.00309236      -0.00193619 </v>
   <v>       0.00037092      -0.00154121      -0.00056205 </v>
   <v>       0.00534875      -0.00268498      -0.00534568 </v>
   <v>       0.00401335       0.00102467      -0.00071511 </v>
   <v>      -0.00351188       0.00221121       0.01471314 </v>
   <v>      -0.00583702      -0.00270515       0.00059435 </v>
   <v>       0.00314133       0.00376368      -0.00290085 </v>
   <v>       0.00038609       0.00211280       0.00579000 </v>
   <v>      -0.00210984      -0.00099117      -0.00339464 </v>
   <v>      -0.00296474      -0.00055511      -0.00108748 </v>
   <v>      -0.00031618       0.00205820       0.00399833 </v>
   <v>      -0.00001633      -0.00115346       0.00339567 </v>
   <v>       0.00006478       0.00037371       0.00347430 </v>
   <v>      -0.00003584       0.00245674      -0.00382210 </v>
   <v>      -0.00112461      -0.00009429       0.00169314 </v>
   <v>       0.00088005       0.00041518       0.00453928 </v>
   <v>      -0.00022686       0.00039885      -0.00298345 </v>
   <v>       0.00750929      -0.00647908       0.00689325 </v>
   <v>       0.00066294      -0.01293889      -0.00120929 </v>
   <v>      -0.00206287       0.00255685      -0.00536107 </v>
   <v>       0.00202236       0.00087496       0.00043134 </v>
   <v>      -0.00265630      -0.00226276      -0.02475367 </v>
   <v>       0.00248099       0.00058478       0.00012208 </v>
   <v>       0.00128147      -0.00297416      -0.00053066 </v>
   <v>      -0.00504003      -0.00014263      -0.00093742 </v>
   <v>       0.00225242       0.00042350       0.00343596 </v>
   <v>      -0.00103826       0.00294147      -0.00089217 </v>
   <v>      -0.00111547       0.00071629       0.00317827 </v>
   <v>      -0.00101673       0.00155036      -0.00156537 </v>
   <v>       0.00294358       0.00196162       0.00220231 </v>
   <v>       0.00297019      -0.00411289       0.00130706 </v>
   <v>       0.00425193      -0.00189800      -0.00730168 </v>
   <v>       0.00029736      -0.00375722       0.00244890 </v>
   <v>       0.00248149       0.00321145       0.00200681 </v>
   <v>      -0.00236024      -0.00214123       0.00011309 </v>
   <v>       0.00090264       0.00057841       0.00227276 </v>
   <v>      -0.00135157       0.00055143       0.00421372 </v>
   <v>      -0.00070263      -0.00180016       0.00314836 </v>
   <v>      -0.00591871       0.00562609       0.00076674 </v>
   <v>      -0.00146709      -0.01062892      -0.00375749 </v>
   <v>       0.00350579       0.00061104      -0.00037206 </v>
   <v>      -0.00143469      -0.00100428       0.00637667 </v>
   <v>      -0.00523438       0.00437857      -0.01274118 </v>
   <v>      -0.00935137      -0.00248324       0.00263448 </v>
   <v>       0.01566435      -0.00035706       0.00481918 </v>
   <v>      -0.00508472      -0.01169960      -0.00103824 </v>
   <v>      -0.00524717       0.00407980       0.00492843 </v>
   <v>       0.00302751       0.00358546       0.00694046 </v>
   <v>      -0.00795649       0.00800713       0.00361818 </v>
   <v>       0.00538086       0.00307245      -0.01333555 </v>
   <v>       0.00154340      -0.00135511      -0.01210535 </v>
   <v>       0.00741320       0.00573106       0.01229780 </v>
   <v>       0.00439524       0.00139005      -0.01223502 </v>
  </varray>
  <varray name="stress" >
   <v>      -2.37232685       0.02139267       0.02427880 </v>
   <v>       0.02139128      -1.71679066      -0.02935722 </v>
   <v>       0.02427971      -0.02935592      -2.60790415 </v>
  </varray>
  <energy>
   <i name="e_fr_energy">   -628.93102253 </i>
   <i name="e_wo_entrp">   -628.85922947 </i>
   <i name="e_0_energy">     -0.14358612 </i>
  </energy>
  <time name="totalsc">  274.62  275.94</time>
 </calculation>
 <calculation>
  <scstep>
   <time name="dav">   25.07   25.15</time>
   <time name="total">   25.35   25.43</time>
   <energy>
    <i name="alphaZ">   3915.36509853 </i>
    <i name="ewald"> -35806.12504832 </i>
    <i name="hartreedc">  -8419.33384862 </i>
    <i name="XCdc">   1407.32929803 </i>
    <i name="pawpsdc">  29203.92290466 </i>
    <i name="pawaedc"> -28784.10449866 </i>
    <i name="eentropy">     -0.14371476 </i>
    <i name="bandstr">  -4823.61157287 </i>
    <i name="atom">  42677.76878328 </i>
    <i name="e_fr_energy">   -628.93259873 </i>
    <i name="e_wo_entrp">   -628.78888397 </i>
    <i name="e_0_energy">   -628.86074135 </i>
   </energy>
  </scstep>
  <scstep>
   <time name="diag">    1.56    1.56</time>
   <time name="diis">   16.06   16.07</time>
   <time name="orth">    0.35    0.35</time>
   <time name="total">   18.25   18.26</time>
   <energy>
    <i name="e_fr_energy">   -628.95452813 </i>
    <i name="e_wo_entrp">   -628.81440300 </i>
    <i name="e_0_energy">   -628.88446556 </i>
   </energy>
  </scstep>
  <scstep>
   <time name="diag">    1.59    1.60</time>
   <time name="diis">   15.62   15.66</time>
   <time name="orth">    0.36    0.36</time>
   <time name="total">   17.84   17.89</time>
   <energy>
    <i name="e_fr_energy">   -628.93292181 </i>
    <i name="e_wo_entrp">   -628.78858677 </i>
    <i name="e_0_energy">   -628.86075429 </i>
   </energy>
  </scstep>
  <scstep>
   <time name="diag">    1.57    1.57</time>
   <time name="diis">   16.69   16.75</time>
   <time name="orth">    0.35    0.35</time>
   <time name="total">   18.88   18.95</time>
   <energy>
    <i name="e_fr_energy">   -628.93183157 </i>
    <i name="e_wo_entrp">   -628.78867449 </i>
    <i name="e_0_energy">   -628.86025303 </i>
   </energy>
  </scstep>
  <scstep>
   <time name="diag">    1.57    1.57</time>
   <time name="diis">   17.82   17.84</time>
   <time name="orth">    0.36    0.36</time>
   <time name="total">   20.02   20.04</time>
   <energy>
    <i name="e_fr_energy">   -628.93149496 </i>
    <i name="e_wo_entrp">   -628.78800417 </i>
    <i name="e_0_energy">   -628.85974956 </i>
   </energy>
  </scstep>
  <scstep>
   <time name="diag">    1.57    1.57</time>
   <time name="diis">   15.55   15.59</time>
   <time name="orth">    0.35    0.35</time>
   <time name="total">   17.74   17.79</time>
   <energy>
    <i name="e_fr_energy">   -628.93156056 </i>
    <i name="e_wo_entrp">   -628.78818690 </i>
    <i name="e_0_energy">   -628.85987373 </i>
   </energy>
  </scstep>
  <scstep>
   <time name="diag">    1.57    1.57</time>
   <time name="diis">   15.91   15.96</time>
   <time name="orth">    0.35    0.35</time>
   <time name="total">   18.10   18.16</time>
   <energy>
    <i name="e_fr_energy">   -628.93137877 </i>
    <i name="e_wo_entrp">   -628.78780638 </i>
    <i name="e_0_energy">   -628.85959258 </i>
   </energy>
  </scstep>
  <scstep>
   <time name="diag">    1.57    1.57</time>
   <time name="diis">   12.53   12.54</time>
   <time name="orth">    0.35    0.35</time>
   <time name="total">   14.72   14.74</time>
   <energy>
    <i name="e_fr_energy">   -628.93139795 </i>
    <i name="e_wo_entrp">   -628.78805733 </i>
    <i name="e_0_energy">   -628.85972764 </i>
   </energy>
  </scstep>
  <scstep>
   <time name="diag">    1.58    1.58</time>
   <time name="diis">   10.33   10.34</time>
   <time name="orth">    0.35    0.35</time>
   <time name="total">   12.54   12.55</time>
   <energy>
    <i name="e_fr_energy">   -628.93134231 </i>
    <i name="e_wo_entrp">   -628.78784150 </i>
    <i name="e_0_energy">   -628.85959191 </i>
   </energy>
  </scstep>
  <scstep>
   <time name="diag">    1.58    1.61</time>
   <time name="diis">    8.77    8.82</time>
   <time name="orth">    0.35    0.35</time>
   <time name="total">   10.73   10.81</time>
   <energy>
    <i name="alphaZ">   3915.36509853 </i>
    <i name="ewald"> -35806.12504832 </i>
    <i name="hartreedc">  -8415.18989079 </i>
    <i name="XCdc">   1407.09858904 </i>
    <i name="pawpsdc">  29207.94937156 </i>
    <i name="pawaedc"> -28788.32166690 </i>
    <i name="eentropy">     -0.14345799 </i>
    <i name="bandstr">  -4827.33311972 </i>
    <i name="atom">  42677.76878328 </i>
    <i name="e_fr_energy">   -628.93134132 </i>
    <i name="e_wo_entrp">   -628.78788333 </i>
    <i name="e_0_energy">   -628.85961232 </i>
   </energy>
  </scstep>
  <structure>
   <crystal>
    <varray name="basis" >
     <v>       8.83460272       0.02239248      -0.02021063 </v>
     <v>       0.02870337       8.88286350       0.00919235 </v>
     <v>       0.01148540      -0.00619232       8.86880160 </v>
    </varray>
    <i name="volume">    695.99000080 </i>
    <varray name="rec_basis" >
     <v>       0.11319187      -0.00036561      -0.00014684 </v>
     <v>      -0.00028516       0.11257715       0.00007897 </v>
     <v>       0.00025824      -0.00011752       0.11275439 </v>
    </varray>
   </crystal>
   <varray name="positions" >
    <v>       0.99915743       0.99226931       0.00194185 </v>
    <v>       0.26371190       0.00021942       0.24350329 </v>
    <v>       0.24730933       0.49600480       0.24842244 </v>
    <v>       0.50231907       0.49643078       0.00168203 </v>
    <v>       0.50639061       0.24686120       0.74656483 </v>
    <v>       0.99723743       0.50014423       0.50318665 </v>
    <v>       0.49845775       0.75777577       0.74568948 </v>
    <v>       0.99561973       0.25009371       0.24339913 </v>
    <v>       0.74320667       0.75128419       0.00890921 </v>
    <v>       0.99638363       0.23903883       0.75399191 </v>
    <v>       0.74669571       0.23485287       0.49937569 </v>
    <v>       0.99871993       0.76459381       0.74361563 </v>
    <v>       0.25187252       0.49959116       0.74962279 </v>
    <v>       0.25813633       0.24303753       0.99225728 </v>
    <v>       0.50592735       0.24976740       0.24866334 </v>
    <v>       0.73754838       0.98527749       0.25934233 </v>
    <v>       0.74431296       0.24627278       0.00036392 </v>
    <v>       0.25347856       0.74811926       0.99685335 </v>
    <v>       0.25341946       0.24307096       0.50675366 </v>
    <v>       0.25047823       0.75333126       0.49966239 </v>
    <v>       0.25430618       0.24752859       0.24787476 </v>
    <v>       0.26360162       0.99989787       0.99342455 </v>
    <v>       0.99905304       0.24838763       0.99818578 </v>
    <v>       0.74571642       0.24287550       0.24749196 </v>
    <v>       0.73902148       0.00305592       0.00324941 </v>
    <v>       0.51172856       0.01045685       0.23781287 </v>
    <v>       0.99402712       0.49980316       0.24426172 </v>
    <v>       0.49477485       0.75894840       0.00829025 </v>
    <v>       0.97006030       0.00220289       0.74702190 </v>
    <v>       0.75314024       0.24128879       0.75357197 </v>
    <v>       0.75020338       0.99702675       0.48606788 </v>
    <v>       0.49943263       0.24375741       0.49112438 </v>
    <v>       0.50636755       0.00139665       0.72682238 </v>
    <v>       0.99772053       0.99836608       0.25278881 </v>
    <v>       0.50311449       0.24371495       0.00536247 </v>
    <v>       0.25722942       0.74814657       0.24989918 </v>
    <v>       0.23855495       0.50016680       0.99747140 </v>
    <v>       0.00363870       0.73894215       0.00200059 </v>
    <v>       0.74192410       0.74983644       0.25547779 </v>
    <v>       0.76493273       0.49564143       0.00463823 </v>
    <v>       0.50097824       0.49954687       0.25553110 </v>
    <v>       0.25194251       0.24070974       0.75011812 </v>
    <v>       0.25407602       0.99917477       0.51298559 </v>
    <v>       0.00393178       0.24449795       0.49896883 </v>
    <v>       0.24913444       0.76317571       0.75310490 </v>
    <v>       0.25650827       0.49981420       0.50056712 </v>
    <v>       0.99943793       0.75824061       0.49552876 </v>
    <v>       0.99648509       0.50286286       0.76166410 </v>
    <v>       0.74860533       0.76016201       0.74792561 </v>
    <v>       0.74498189       0.49765754       0.50531403 </v>
    <v>       0.49673720       0.76703555       0.48399229 </v>
    <v>       0.50553243       0.50254116       0.74444743 </v>
    <v>       0.50814286       0.01931346       0.00199902 </v>
    <v>       0.99856427       0.51926986       0.97876851 </v>
    <v>       0.48038869       0.72647236       0.26092128 </v>
    <v>       0.28804840       0.00591729       0.76729065 </v>
    <v>       0.47051743       0.99122364       0.51104893 </v>
    <v>       0.72804380       0.98180947       0.77973679 </v>
    <v>       0.01701797       0.75712074       0.25772097 </v>
    <v>       0.73771255       0.51095950       0.26074757 </v>
    <v>       0.02214372       0.00047027       0.48666736 </v>
    <v>       0.50670968       0.52208063       0.49421631 </v>
    <v>       0.75150249       0.52162109       0.75470995 </v>
    <v>       0.74392609       0.73884487       0.48938542 </v>
   </varray>
  </structure>
  <varray name="forces" >
   <v>      -0.00212086       0.00557787       0.00047602 </v>
   <v>      -0.00034818       0.00051918       0.00049806 </v>
   <v>       0.00091254       0.00007898      -0.00078158 </v>
   <v>      -0.00060494      -0.00040485       0.00198849 </v>
   <v>      -0.00155171      -0.00370360      -0.00122132 </v>
   <v>      -0.00366419       0.00036128       0.00059533 </v>
   <v>       0.00171219       0.00205573      -0.00550715 </v>
   <v>       0.00002830       0.00296062      -0.00160230 </v>
   <v>      -0.00212751       0.00814950       0.00240142 </v>
   <v>       0.00317383      -0.00518418       0.00887877 </v>
   <v>      -0.00327068       0.00587559       0.00178893 </v>
   <v>       0.00355518      -0.00043138       0.00095524 </v>
   <v>      -0.00202152      -0.00299216       0.00224363 </v>
   <v>       0.00004263      -0.00242705      -0.00020479 </v>
   <v>      -0.00066267       0.00146188      -0.00015877 </v>
   <v>      -0.00126185      -0.00090797       0.00542664 </v>
   <v>       0.00182442      -0.00326022       0.00120532 </v>
   <v>       0.00384451       0.00251922      -0.00183035 </v>
   <v>       0.00494549      -0.00098333       0.00036606 </v>
   <v>      -0.00144518      -0.00057470      -0.00197167 </v>
   <v>      -0.00292302      -0.00043559      -0.00062756 </v>
   <v>       0.00058724       0.00072262       0.00514052 </v>
   <v>      -0.00036448      -0.00010543      -0.00084586 </v>
   <v>      -0.00228273      -0.00038065       0.00163648 </v>
   <v>      -0.00038312       0.00052884      -0.00097208 </v>
   <v>       0.00052866      -0.00249472       0.00379284 </v>
   <v>      -0.00165625       0.00175635       0.00271212 </v>
   <v>      -0.00467820       0.00247731      -0.00106131 </v>
   <v>       0.00599526       0.00138243       0.00340775 </v>
   <v>      -0.00214418      -0.01416607      -0.00120604 </v>
   <v>      -0.00127476      -0.00129293       0.00261367 </v>
   <v>      -0.00029430       0.00135975      -0.00117051 </v>
   <v>       0.00301336       0.00022185      -0.02136194 </v>
[...]
      </set>
     </set>
    </set>
   </array>
  </eigenvalues>
  <separator name="orbital magnetization" >
   <v name="MAGDIPOLOUT">      0.00000000      0.00000000      0.00000000</v>
  </separator>
  <dos>
   <i name="efermi">      7.38265029 </i>
   <total>
    <array>
     <dimension dim="1">gridpoints</dimension>
     <dimension dim="2">spin</dimension>
     <field>energy</field>
     <field>total</field>
     <field>integrated</field>
     <set>
      <set comment="spin 1">
       <r>   -53.2205     0.0000     0.0000 </r>
       <r>   -53.0005     0.0000     0.0000 </r>
       <r>   -52.7805     0.0000     0.0000 </r>
       <r>   -52.5605     0.0000     0.0000 </r>
       <r>   -52.3404     0.0000     0.0000 </r>
       <r>   -52.1204     0.0000     0.0000 </r>
       <r>   -51.9004     0.0000     0.0000 </r>
       <r>   -51.6803     0.0000     0.0000 </r>
       <r>   -51.4603     0.0000     0.0000 </r>
       <r>   -51.2403     0.0000     0.0000 </r>
       <r>   -51.0203     0.0000     0.0000 </r>
       <r>   -50.8002     0.0000     0.0000 </r>
       <r>   -50.5802     0.0000     0.0000 </r>
       <r>   -50.3602     0.2481     0.0546 </r>
       <r>   -50.1401    15.6518     3.4984 </r>
       <r>   -49.9201    20.2982     7.9646 </r>
       <r>   -49.7001    25.6265    13.6032 </r>
       <r>   -49.4801     1.8033    13.9999 </r>
       <r>   -49.2600     0.0003    14.0000 </r>
       <r>   -49.0400     0.0000    14.0000 </r>
       <r>   -48.8200     0.0000    14.0000 </r>
       <r>   -48.5999     0.0000    14.0000 </r>
       <r>   -48.3799     0.0000    14.0000 </r>
       <r>   -48.1599     0.0000    14.0000 </r>
       <r>   -47.9399     0.0000    14.0000 </r>
       <r>   -47.7198     0.0000    14.0000 </r>
       <r>   -47.4998     0.0000    14.0000 </r>
       <r>   -47.2798     0.0000    14.0000 </r>
       <r>   -47.0597     0.0000    14.0000 </r>
       <r>   -46.8397     0.0000    14.0000 </r>
       <r>   -46.6197     0.0000    14.0000 </r>
       <r>   -46.3997     0.0000    14.0000 </r>
       <r>   -46.1796     0.0000    14.0000 </r>
       <r>   -45.9596     0.0000    14.0000 </r>
       <r>   -45.7396     0.0000    14.0000 </r>
       <r>   -45.5195     0.0000    14.0000 </r>
       <r>   -45.2995     0.0000    14.0000 </r>
       <r>   -45.0795     0.0000    14.0000 </r>
       <r>   -44.8595     0.0000    14.0000 </r>
       <r>   -44.6394     0.0000    14.0000 </r>
       <r>   -44.4194     0.0000    14.0000 </r>
       <r>   -44.1994     0.0000    14.0000 </r>
       <r>   -43.9793     0.0000    14.0000 </r>
       <r>   -43.7593     0.0000    14.0000 </r>
       <r>   -43.5393     0.0000    14.0000 </r>
       <r>   -43.3193     0.0000    14.0000 </r>
       <r>   -43.0992     0.0000    14.0000 </r>
       <r>   -42.8792     0.0000    14.0000 </r>
       <r>   -42.6592     0.0000    14.0000 </r>
       <r>   -42.4391     0.0000    14.0000 </r>
       <r>   -42.2191     0.0000    14.0000 </r>
       <r>   -41.9991     0.0000    14.0000 </r>
       <r>   -41.7791     0.0133    14.0029 </r>
       <r>   -41.5590     5.0496    15.1140 </r>
       <r>   -41.3390     9.7571    17.2608 </r>
       <r>   -41.1190    16.6520    20.9247 </r>
       <r>   -40.8989    31.1982    27.7892 </r>
       <r>   -40.6789     0.9578    28.0000 </r>
       <r>   -40.4589     0.0000    28.0000 </r>
       <r>   -40.2389     0.0000    28.0000 </r>
       <r>   -40.0188     0.0000    28.0000 </r>
       <r>   -39.7988     0.0000    28.0000 </r>
       <r>   -39.5788     0.0000    28.0000 </r>
       <r>   -39.3587     0.0000    28.0000 </r>
       <r>   -39.1387     0.0000    28.0000 </r>
       <r>   -38.9187     0.0000    28.0000 </r>
       <r>   -38.6987     0.0000    28.0000 </r>
       <r>   -38.4786     0.0000    28.0000 </r>
       <r>   -38.2586     0.0000    28.0000 </r>
       <r>   -38.0386     0.0000    28.0000 </r>
       <r>   -37.8186     0.0000    28.0000 </r>
       <r>   -37.5985     0.0000    28.0000 </r>
       <r>   -37.3785     0.0000    28.0000 </r>
       <r>   -37.1585     0.0000    28.0000 </r>
       <r>   -36.9384     0.0000    28.0000 </r>
       <r>   -36.7184     0.0000    28.0000 </r>
       <r>   -36.4984     0.0489    28.0107 </r>
       <r>   -36.2784    22.8137    33.0304 </r>
       <r>   -36.0583   111.9214    57.6563 </r>
       <r>   -35.8383    28.7791    63.9886 </r>
       <r>   -35.6183     0.0520    64.0000 </r>
       <r>   -35.3982     0.0000    64.0000 </r>
       <r>   -35.1782     0.0000    64.0000 </r>
       <r>   -34.9582     0.0000    64.0000 </r>
       <r>   -34.7382     0.0000    64.0000 </r>
       <r>   -34.5181     0.0000    64.0000 </r>
       <r>   -34.2981     0.0000    64.0000 </r>
       <r>   -34.0781     0.0000    64.0000 </r>
       <r>   -33.8580     0.0000    64.0000 </r>
       <r>   -33.6380     0.0000    64.0000 </r>
       <r>   -33.4180     0.0000    64.0000 </r>
       <r>   -33.1980     0.0000    64.0000 </r>
       <r>   -32.9779     0.0000    64.0000 </r>
       <r>   -32.7579     0.0000    64.0000 </r>
       <r>   -32.5379     0.0000    64.0000 </r>
       <r>   -32.3178     0.0000    64.0000 </r>
       <r>   -32.0978     0.0000    64.0000 </r>
       <r>   -31.8778     0.0000    64.0000 </r>
       <r>   -31.6578     0.0000    64.0000 </r>
       <r>   -31.4377     0.0000    64.0000 </r>
       <r>   -31.2177     0.0000    64.0000 </r>
       <r>   -30.9977     0.0000    64.0000 </r>
       <r>   -30.7776     0.0000    64.0000 </r>
       <r>   -30.5576     0.0000    64.0000 </r>
       <r>   -30.3376     0.0000    64.0000 </r>
       <r>   -30.1176     0.0000    64.0000 </r>
       <r>   -29.8975     0.0000    64.0000 </r>
       <r>   -29.6775     0.0000    64.0000 </r>
       <r>   -29.4575     0.0000    64.0000 </r>
       <r>   -29.2374     0.0000    64.0000 </r>
       <r>   -29.0174     0.0000    64.0000 </r>
       <r>   -28.7974     0.0000    64.0000 </r>
       <r>   -28.5774     0.0000    64.0000 </r>
       <r>   -28.3573     0.0000    64.0000 </r>
       <r>   -28.1373     0.0000    64.0000 </r>
       <r>   -27.9173     0.0000    64.0000 </r>
       <r>   -27.6972     0.0000    64.0000 </r>
       <r>   -27.4772     0.0000    64.0000 </r>
       <r>   -27.2572     0.0000    64.0000 </r>
       <r>   -27.0372     0.0000    64.0000 </r>
       <r>   -26.8171     0.1836    64.0404 </r>
       <r>   -26.5971    22.6325    69.0202 </r>
       <r>   -26.3771    54.6407    81.0427 </r>
       <r>   -26.1570    87.7861   100.3582 </r>
       <r>   -25.9370    25.5395   105.9776 </r>
       <r>   -25.7170     0.1020   106.0000 </r>
       <r>   -25.4970     0.0000   106.0000 </r>
       <r>   -25.2769     0.0000   106.0000 </r>
       <r>   -25.0569     0.0000   106.0000 </r>
       <r>   -24.8369     0.0000   106.0000 </r>
       <r>   -24.6168     0.0000   106.0000 </r>
       <r>   -24.3968     0.0000   106.0000 </r>
       <r>   -24.1768     0.0000   106.0000 </r>
       <r>   -23.9568     0.0000   106.0000 </r>
       <r>   -23.7367     0.0394   106.0087 </r>
       <r>   -23.5167     9.2019   108.0334 </r>
       <r>   -23.2967    36.1699   115.9918 </r>
       <r>   -23.0766    30.5098   122.7048 </r>
       <r>   -22.8566    39.6332   131.4252 </r>
       <r>   -22.6366    25.4444   137.0237 </r>
       <r>   -22.4166    22.1143   141.8895 </r>
       <r>   -22.1965     0.5022   142.0000 </r>
       <r>   -21.9765     0.0000   142.0000 </r>
       <r>   -21.7565     0.0000   142.0000 </r>
       <r>   -21.5364     0.0000   142.0000 </r>
       <r>   -21.3164     0.0000   142.0000 </r>
       <r>   -21.0964     0.0000   142.0000 </r>
       <r>   -20.8764     0.0000   142.0000 </r>
       <r>   -20.6563     0.0000   142.0000 </r>
       <r>   -20.4363     0.0000   142.0000 </r>
       <r>   -20.2163     0.0112   142.0025 </r>
       <r>   -19.9962     5.3472   143.1790 </r>
       <r>   -19.7762    23.9232   148.4428 </r>
       <r>   -19.5562    47.2102   158.8304 </r>
       <r>   -19.3362    78.0536   176.0044 </r>
       <r>   -19.1161    31.4279   182.9194 </r>
       <r>   -18.8961     4.9023   183.9981 </r>
       <r>   -18.6761     0.0088   184.0000 </r>
       <r>   -18.4560     0.0000   184.0000 </r>
       <r>   -18.2360     0.0000   184.0000 </r>
       <r>   -18.0160     0.0000   184.0000 </r>
       <r>   -17.7960     0.0000   184.0000 </r>
       <r>   -17.5759     0.0000   184.0000 </r>
       <r>   -17.3559     0.0000   184.0000 </r>
       <r>   -17.1359     0.0000   184.0000 </r>
       <r>   -16.9158     0.0000   184.0000 </r>
       <r>   -16.6958     0.0000   184.0000 </r>
       <r>   -16.4758     0.0000   184.0000 </r>
       <r>   -16.2558     0.0000   184.0000 </r>
       <r>   -16.0357     0.0000   184.0000 </r>
       <r>   -15.8157     0.0000   184.0000 </r>
       <r>   -15.5957     0.0000   184.0000 </r>
       <r>   -15.3756     0.0000   184.0000 </r>
       <r>   -15.1556     0.0000   184.0000 </r>
       <r>   -14.9356     0.0000   184.0000 </r>
       <r>   -14.7156     0.0000   184.0000 </r>
       <r>   -14.4955     0.0000   184.0000 </r>
       <r>   -14.2755     0.0000   184.0000 </r>
       <r>   -14.0555     0.0000   184.0000 </r>
       <r>   -13.8354     0.0000   184.0000 </r>
       <r>   -13.6154     0.0000   184.0000 </r>
       <r>   -13.3954     0.0000   184.0000 </r>
       <r>   -13.1754     0.0000   184.0000 </r>
       <r>   -12.9553     0.0000   184.0000 </r>
       <r>   -12.7353     0.0000   184.0000 </r>
       <r>   -12.5153     0.0000   184.0000 </r>
       <r>   -12.2952     0.0000   184.0000 </r>
       <r>   -12.0752     0.0000   184.0000 </r>
       <r>   -11.8552     0.0000   184.0000 </r>
       <r>   -11.6352     0.0000   184.0000 </r>
       <r>   -11.4151     0.0000   184.0000 </r>
       <r>   -11.1951     0.0000   184.0000 </r>
       <r>   -10.9751     0.0000   184.0000 </r>
       <r>   -10.7550     0.0000   184.0000 </r>
       <r>   -10.5350     0.0000   184.0000 </r>
       <r>   -10.3150     0.0000   184.0000 </r>
       <r>   -10.0950     0.0000   184.0000 </r>
       <r>    -9.8749     0.0000   184.0000 </r>
       <r>    -9.6549     0.0000   184.0000 </r>
       <r>    -9.4349     0.0000   184.0000 </r>
       <r>    -9.2148     0.0000   184.0000 </r>
       <r>    -8.9948     0.0000   184.0000 </r>
       <r>    -8.7748     0.0000   184.0000 </r>
       <r>    -8.5548     0.0851   184.0187 </r>
       <r>    -8.3347     5.1250   185.1464 </r>
       <r>    -8.1147     5.8571   186.4351 </r>
       <r>    -7.8947     7.6106   188.1096 </r>
       <r>    -7.6746    11.2068   190.5755 </r>
       <r>    -7.4546    12.1273   193.2438 </r>
       <r>    -7.2346    22.0545   198.0964 </r>
       <r>    -7.0146    31.5979   205.0489 </r>
       <r>    -6.7945    20.3111   209.5179 </r>
       <r>    -6.5745     2.1907   209.9999 </r>
       <r>    -6.3545     0.0004   210.0000 </r>
       <r>    -6.1344     0.0000   210.0000 </r>
       <r>    -5.9144     0.0000   210.0000 </r>
       <r>    -5.6944     0.0000   210.0000 </r>
       <r>    -5.4744     0.0000   210.0000 </r>
       <r>    -5.2543     0.0000   210.0000 </r>
       <r>    -5.0343     0.1976   210.0435 </r>
       <r>    -4.8143     3.7451   210.8675 </r>
       <r>    -4.5942     4.9975   211.9671 </r>
       <r>    -4.3742     6.7865   213.4603 </r>
       <r>    -4.1542    12.2192   216.1489 </r>
       <r>    -3.9342    15.9284   219.6536 </r>
       <r>    -3.7141    20.1544   224.0882 </r>
       <r>    -3.4941    23.6472   229.2912 </r>
       <r>    -3.2741    23.8555   234.5401 </r>
       <r>    -3.0540    23.7577   239.7675 </r>
       <r>    -2.8340    17.2478   243.5625 </r>
       <r>    -2.6140    10.9645   245.9750 </r>
       <r>    -2.3940     6.5162   247.4088 </r>
       <r>    -2.1739     2.5453   247.9688 </r>
       <r>    -1.9539     0.1418   248.0000 </r>
       <r>    -1.7339     0.0000   248.0000 </r>
       <r>    -1.5138     0.0000   248.0000 </r>
       <r>    -1.2938     0.0000   248.0000 </r>
       <r>    -1.0738     0.0000   248.0000 </r>
       <r>    -0.8538     0.0000   248.0000 </r>
       <r>    -0.6337     0.0000   248.0000 </r>
       <r>    -0.4137     0.0000   248.0000 </r>
       <r>    -0.1937     0.0003   248.0001 </r>
       <r>     0.0264     0.3616   248.0796 </r>
       <r>     0.2464     1.6292   248.4381 </r>
       <r>     0.4664     9.9088   250.6183 </r>
       <r>     0.6864    10.3593   252.8977 </r>
       <r>     0.9065    15.0479   256.2086 </r>
       <r>     1.1265    20.4869   260.7163 </r>
       <r>     1.3465    28.8645   267.0674 </r>
       <r>     1.5666    30.3385   273.7427 </r>
       <r>     1.7866    30.1505   280.3767 </r>
       <r>     2.0066    37.4922   288.6260 </r>
       <r>     2.2266    34.0327   296.1142 </r>
       <r>     2.4467    37.6035   304.3880 </r>
       <r>     2.6667    49.5806   315.2972 </r>
       <r>     2.8867    60.0659   328.5134 </r>
       <r>     3.1068    67.0195   343.2596 </r>
       <r>     3.3268    64.2278   357.3915 </r>
       <r>     3.5468    57.6463   370.0754 </r>
       <r>     3.7668    52.9532   381.7266 </r>
       <r>     3.9869    53.6003   393.5202 </r>
       <r>     4.2069    48.8251   404.2631 </r>
       <r>     4.4269    41.4194   413.3766 </r>
       <r>     4.6470    31.8168   420.3772 </r>
       <r>     4.8670    26.8804   426.2916 </r>
       <r>     5.0870    24.9632   431.7842 </r>
       <r>     5.3070    18.8685   435.9358 </r>
       <r>     5.5271    13.1718   438.8340 </r>
       <r>     5.7471     8.1053   440.6174 </r>
       <r>     5.9671    16.0043   444.1388 </r>
       <r>     6.1872    16.5279   447.7754 </r>
       <r>     6.4072    18.4045   451.8249 </r>
       <r>     6.6272    21.9006   456.6437 </r>
       <r>     6.8472    24.9974   462.1438 </r>
       <r>     7.0673    24.1630   467.4604 </r>
       <r>     7.2873    30.3553   474.1394 </r>
       <r>     7.5073    28.7029   480.4549 </r>
       <r>     7.7274    26.8124   486.3543 </r>
       <r>     7.9474    31.7960   493.3504 </r>
       <r>     8.1674    39.4261   502.0252 </r>
       <r>     8.3874    44.8223   511.8874 </r>
       <r>     8.6075    48.5826   522.5770 </r>
       <r>     8.8275    46.7474   532.8627 </r>
       <r>     9.0475    46.3016   543.0504 </r>
       <r>     9.2676    49.6884   553.9833 </r>
       <r>     9.4876    48.5818   564.6727 </r>
       <r>     9.7076    40.4018   573.5622 </r>
       <r>     9.9276    11.0121   575.9852 </r>
       <r>    10.1477     0.0673   576.0000 </r>
       <r>    10.3677     0.0000   576.0000 </r>
       <r>    10.5877     0.0000   576.0000 </r>
       <r>    10.8078     0.0000   576.0000 </r>
       <r>    11.0278     0.0000   576.0000 </r>
       <r>    11.2478     0.0000   576.0000 </r>
       <r>    11.4678     0.0000   576.0000 </r>
       <r>    11.6879     0.0000   576.0000 </r>
       <r>    11.9079     0.0000   576.0000 </r>
       <r>    12.1279     0.0000   576.0000 </r>
       <r>    12.3480     0.0000   576.0000 </r>
       <r>    12.5680     0.0000   576.0000 </r>
       <r>    12.7880     0.0000   576.0000 </r>
      </set>
     </set>
    </array>
   </total>
  </dos>
 </calculation>
 <structure name="finalpos" >
  <crystal>
   <varray name="basis" >
    <v>       8.83360292       0.02239393      -0.01936400 </v>
    <v>       0.02870920       8.88038181       0.00933324 </v>
    <v>       0.01233456      -0.00605294       8.86911090 </v>
   </varray>
   <i name="volume">    695.74112846 </i>
   <varray name="rec_basis" >
    <v>       0.11320467      -0.00036581      -0.00015769 </v>
    <v>      -0.00028530       0.11260861       0.00007725 </v>
    <v>       0.00024746      -0.00011930       0.11275045 </v>
   </varray>
  </crystal>
  <varray name="positions" >
   <v>       0.99910881       0.99235722       0.00207265 </v>
   <v>       0.26360614       0.00026330       0.24355737 </v>
   <v>       0.24719567       0.49599121       0.24836201 </v>
   <v>       0.50234473       0.49645935       0.00169689 </v>
   <v>       0.50646343       0.24682577       0.74664183 </v>
   <v>       0.99709573       0.50009987       0.50333393 </v>
   <v>       0.49857506       0.75774672       0.74548850 </v>
   <v>       0.99554324       0.25017950       0.24342417 </v>
   <v>       0.74306759       0.75155426       0.00893915 </v>
   <v>       0.99643008       0.23892800       0.75405977 </v>
   <v>       0.74661795       0.23502111       0.49945126 </v>
   <v>       0.99884837       0.76469962       0.74367813 </v>
   <v>       0.25193129       0.49957021       0.74965837 </v>
   <v>       0.25821551       0.24298111       0.99226149 </v>
   <v>       0.50589926       0.24985826       0.24870866 </v>
   <v>       0.73754150       0.98533602       0.25962383 </v>
   <v>       0.74425751       0.24604553       0.00037023 </v>
   <v>       0.25359134       0.74822825       0.99680667 </v>
   <v>       0.25352773       0.24316426       0.50676745 </v>
   <v>       0.25033604       0.75322966       0.49960224 </v>
   <v>       0.25425109       0.24755381       0.24786295 </v>
   <v>       0.26365277       0.99992791       0.99347517 </v>
   <v>       0.99902117       0.24843632       0.99822745 </v>
   <v>       0.74563671       0.24290381       0.24758741 </v>
   <v>       0.73900424       0.00316033       0.00327919 </v>
   <v>       0.51165184       0.01035549       0.23816220 </v>
   <v>       0.99394395       0.49988817       0.24437848 </v>
   <v>       0.49468352       0.75905973       0.00828857 </v>
   <v>       0.97056829       0.00220396       0.74720447 </v>
   <v>       0.75314974       0.24062124       0.75362162 </v>
   <v>       0.75007403       0.99706265       0.48622932 </v>
   <v>       0.49940811       0.24393589       0.49112797 </v>
   <v>       0.50643163       0.00135400       0.72572106 </v>
   <v>       0.99764819       0.99845135       0.25285347 </v>
   <v>       0.50311822       0.24368510       0.00544644 </v>
   <v>       0.25701251       0.74813443       0.24984538 </v>
   <v>       0.23860097       0.50020441       0.99744438 </v>
   <v>       0.00358456       0.73900310       0.00201163 </v>
   <v>       0.74182624       0.74996766       0.25549642 </v>
   <v>       0.76496333       0.49574020       0.00469485 </v>
   <v>       0.50088224       0.49952793       0.25540901 </v>
   <v>       0.25203904       0.24062776       0.75014605 </v>
   <v>       0.25411384       0.99911960       0.51281074 </v>
   <v>       0.00394357       0.24446597       0.49902377 </v>
   <v>       0.24928045       0.76323669       0.75310398 </v>
   <v>       0.25641784       0.49970221       0.50057350 </v>
   <v>       0.99947626       0.75824923       0.49560509 </v>
   <v>       0.99660458       0.50286362       0.76165794 </v>
   <v>       0.74868687       0.76014582       0.74798724 </v>
   <v>       0.74485367       0.49776052       0.50546096 </v>
   <v>       0.49666305       0.76657289       0.48377826 </v>
   <v>       0.50571754       0.50252601       0.74439823 </v>
   <v>       0.50804099       0.01920309       0.00221266 </v>
   <v>       0.99843916       0.51937741       0.97875020 </v>
   <v>       0.48009986       0.72641839       0.26076175 </v>
   <v>       0.28848826       0.00589673       0.76738255 </v>
   <v>       0.47069141       0.99069549       0.51027599 </v>
   <v>       0.72778013       0.98213487       0.77957613 </v>
   <v>       0.01684358       0.75710184       0.25775976 </v>
   <v>       0.73768004       0.51111611       0.26059363 </v>
   <v>       0.02222000       0.00049018       0.48664044 </v>
   <v>       0.50660831       0.52190909       0.49390146 </v>
   <v>       0.75174438       0.52180007       0.75538365 </v>
   <v>       0.74425723       0.73886944       0.48934409 </v>
  </varray>
 </structure>
</modeling>
