HECN                                    
           1
     8.832685    0.022625   -0.020107
     0.028932    8.882349    0.008988
     0.011581   -0.006393    8.865821
   Zr   Hf   Ti   N    C    Cr   Mo
   7   6   7  13  19   6   6
Direct configuration=     1
   0.99916692  0.99222935  0.00196828
   0.26371346  0.00021006  0.24350358
   0.24730658  0.49601393  0.24842593
   0.50232919  0.49643904  0.00166675
   0.50639594  0.24688482  0.74657583
   0.99724596  0.50013892  0.50319851
   0.49845347  0.75776727  0.74569960
   0.99560356  0.25007835  0.24341577
   0.74320142  0.75124920  0.00890304
   0.99635868  0.23907614  0.75392832
   0.74670888  0.23482299  0.49936279
   0.99871199  0.76460340  0.74360411
   0.25188425  0.49960063  0.74961090
   0.25814530  0.24304664  0.99224485
   0.50594179  0.24976354  0.24867031
   0.73754563  0.98528598  0.25935582
   0.74429503  0.24628627  0.00035877
   0.25346822  0.74811562  0.99685720
   0.25340104  0.24307978  0.50676639
   0.25048617  0.75333422  0.49966311
   0.25431472  0.24752828  0.24787548
   0.26359749  0.99990050  0.99341032
   0.99905300  0.24838417  0.99819847
   0.74572626  0.24287981  0.24748965
   0.73902296  0.00305783  0.00324336
   0.51172238  0.01047015  0.23779106
   0.99404024  0.49979718  0.24426502
   0.49479769  0.75893734  0.00828371
   0.97004485  0.00217569  0.74702506
   0.75315107  0.24133129  0.75357753
   0.75020707  0.99703807  0.48603300
   0.49943676  0.24375144  0.49113094
   0.50633992  0.00138887  0.72687330
   0.99772848  0.99835822  0.25276542
   0.50311537  0.24370671  0.00534007
   0.25722789  0.74814758  0.24990865
   0.23856108  0.50016316  0.99748366
   0.00364530  0.73895050  0.00200405
   0.74192995  0.74982086  0.25547319
   0.76492926  0.49564644  0.00463775
   0.50098023  0.49953809  0.25553571
   0.25193947  0.24071558  0.75011689
   0.25408906  0.99917475  0.51298719
   0.00393508  0.24447895  0.49896858
   0.24912120  0.76316071  0.75309895
   0.25652509  0.49982569  0.50056474
   0.99944076  0.75824402  0.49553434
   0.99645875  0.50286549  0.76166928
   0.74858891  0.76015919  0.74793601
   0.74499781  0.49766679  0.50531368
   0.49674750  0.76705389  0.48400255
   0.50552124  0.50254219  0.74445808
   0.50814708  0.01931155  0.00199599
   0.99856148  0.51927088  0.97873708
   0.48040268  0.72649229  0.26094166
   0.28805572  0.00591134  0.76729161
   0.47047529  0.99125717  0.51109740
   0.72807089  0.98178953  0.77975453
   0.01704142  0.75711660  0.25771987
   0.73769271  0.51095438  0.26075132
   0.02212419  0.00048362  0.48665668
   0.50672765  0.52208125  0.49422603
   0.75149070  0.52159815  0.75468132
   0.74391026  0.73884740  0.48937110
HECN                                    
           1
     8.836444    0.022169   -0.020310
     0.028483    8.883358    0.009389
     0.011394   -0.006000    8.871665
   Zr   Hf   Ti   N    C    Cr   Mo
   7   6   7  13  19   6   6
Direct configuration=     2
   0.99914834  0.99230767  0.00191650
   0.26371041  0.00022841  0.24350301
   0.24731197  0.49599604  0.24841908
   0.50230936  0.49642284  0.00169668
   0.50638549  0.24683852  0.74655429
   0.99722925  0.50014933  0.50317527
   0.49846185  0.75778393  0.74567978
   0.99563526  0.25010845  0.24338317
   0.74321172  0.75131779  0.00891512
   0.99640758  0.23900301  0.75405290
   0.74668308  0.23488156  0.49938806
   0.99872755  0.76458460  0.74362667
   0.25186125  0.49958207  0.74963419
   0.25812772  0.24302878  0.99226921
   0.50591350  0.24977111  0.24865665
   0.73755101  0.98526933  0.25932939
   0.74433017  0.24625984  0.00036886
   0.25348848  0.74812275  0.99684965
   0.25343714  0.24306248  0.50674145
   0.25047061  0.75332842  0.49966169
   0.25429797  0.24752889  0.24787407
   0.26360558  0.99989535  0.99343821
   0.99905309  0.24839095  0.99817361
   0.74570697  0.24287136  0.24749418
   0.73902006  0.00305408  0.00325520
   0.51173449  0.01044408  0.23783380
   0.99401453  0.49980891  0.24425856
   0.49475294  0.75895901  0.00829653
   0.97007511  0.00222901  0.74701887
   0.75312985  0.24124799  0.75356665
   0.75019984  0.99701588  0.48610134
   0.49942867  0.24376315  0.49111810
   0.50639406  0.00140412  0.72677354
   0.99771291  0.99837362  0.25281124
   0.50311364  0.24372287  0.00538396
   0.25723089  0.74814560  0.24989010
   0.23854907  0.50017031  0.99745964
   0.00363237  0.73893414  0.00199726
   0.74191849  0.74985139  0.25548221
   0.76493607  0.49563662  0.00463869
   0.50097633  0.49955530  0.25552667
   0.25194543  0.24070413  0.75011929
   0.25406351  0.99917478  0.51298406
   0.00392862  0.24451618  0.49896906
   0.24914714  0.76319012  0.75311061
   0.25649213  0.49980316  0.50056939
   0.99943522  0.75823734  0.49552341
   0.99651035  0.50286034  0.76165914
   0.74862108  0.76016472  0.74791563
   0.74496663  0.49764866  0.50531437
   0.49672731  0.76701794  0.48398245
   0.50554317  0.50254017  0.74443722
   0.50813880  0.01931529  0.00200193
   0.99856695  0.51926889  0.97879865
   0.48037526  0.72645322  0.26090174
   0.28804137  0.00592301  0.76728973
   0.47055787  0.99119144  0.51100245
   0.72801780  0.98182860  0.77971977
   0.01699548  0.75712471  0.25772203
   0.73773159  0.51096442  0.26074397
   0.02216247  0.00045746  0.48667761
   0.50669243  0.52208004  0.49420699
   0.75151381  0.52164312  0.75473740
   0.74394128  0.73884244  0.48939917
HECN                                    
           1
     8.834603    0.022392   -0.020211
     0.028703    8.882864    0.009192
     0.011485   -0.006192    8.868802
   Zr   Hf   Ti   N    C    Cr   Mo
   7   6   7  13  19   6   6
Direct configuration=     3
   0.99915743  0.99226931  0.00194185
   0.26371190  0.00021942  0.24350329
   0.24730933  0.49600480  0.24842244
   0.50231907  0.49643078  0.00168203
   0.50639061  0.24686120  0.74656483
   0.99723743  0.50014423  0.50318665
   0.49845775  0.75777577  0.74568948
   0.99561973  0.25009371  0.24339913
   0.74320667  0.75128419  0.00890921
   0.99638363  0.23903883  0.75399191
   0.74669571  0.23485287  0.49937569
   0.99871993  0.76459381  0.74361563
   0.25187252  0.49959116  0.74962279
   0.25813633  0.24303753  0.99225728
   0.50592735  0.24976740  0.24866334
   0.73754838  0.98527749  0.25934233
   0.74431296  0.24627278  0.00036392
   0.25347856  0.74811926  0.99685335
   0.25341946  0.24307096  0.50675366
   0.25047823  0.75333126  0.49966239
   0.25430618  0.24752859  0.24787476
   0.26360162  0.99989787  0.99342455
   0.99905304  0.24838763  0.99818578
   0.74571642  0.24287550  0.24749196
   0.73902148  0.00305592  0.00324941
   0.51172856  0.01045685  0.23781287
   0.99402712  0.49980316  0.24426172
   0.49477485  0.75894840  0.00829025
   0.97006030  0.00220289  0.74702190
   0.75314024  0.24128879  0.75357197
   0.75020338  0.99702675  0.48606788
   0.49943263  0.24375741  0.49112438
   0.50636755  0.00139665  0.72682238
   0.99772053  0.99836608  0.25278881
   0.50311449  0.24371495  0.00536247
   0.25722942  0.74814657  0.24989918
   0.23855495  0.50016680  0.99747140
   0.00363870  0.73894215  0.00200059
   0.74192410  0.74983644  0.25547779
   0.76493273  0.49564143  0.00463823
   0.50097824  0.49954687  0.25553110
   0.25194251  0.24070974  0.75011812
   0.25407602  0.99917477  0.51298559
   0.00393178  0.24449795  0.49896883
   0.24913444  0.76317571  0.75310490
   0.25650827  0.49981420  0.50056712
   0.99943793  0.75824061  0.49552876
   0.99648509  0.50286286  0.76166410
   0.74860533  0.76016201  0.74792561
   0.74498189  0.49765754  0.50531403
   0.49673720  0.76703555  0.48399229
   0.50553243  0.50254116  0.74444743
   0.50814286  0.01931346  0.00199902
   0.99856427  0.51926986  0.97876851
   0.48038869  0.72647236  0.26092128
   0.28804840  0.00591729  0.76729065
   0.47051743  0.99122364  0.51104893
   0.72804380  0.98180947  0.77973679
   0.01701797  0.75712074  0.25772097
   0.73771255  0.51095950  0.26074757
   0.02214372  0.00047027  0.48666736
   0.50670968  0.52208063  0.49421631
   0.75150249  0.52162109  0.75470995
   0.74392609  0.73884487  0.48938542
HECN                                    
           1
     8.834439    0.022412   -0.020202
     0.028723    8.882819    0.009175
     0.011494   -0.006209    8.868546
   Zr   Hf   Ti   N    C    Cr   Mo
   7   6   7  13  19   6   6
Direct configuration=     4
   0.99915825  0.99226589  0.00194411
   0.26371203  0.00021862  0.24350331
   0.24730910  0.49600558  0.24842273
   0.50231994  0.49643149  0.00168072
   0.50639107  0.24686322  0.74656577
   0.99723816  0.50014377  0.50318766
   0.49845738  0.75777504  0.74569035
   0.99561835  0.25009239  0.24340055
   0.74320622  0.75128120  0.00890868
   0.99638150  0.23904203  0.75398647
   0.74669684  0.23485032  0.49937459
   0.99871925  0.76459463  0.74361464
   0.25187352  0.49959197  0.74962178
   0.25813710  0.24303831  0.99225622
   0.50592859  0.24976707  0.24866393
   0.73754814  0.98527821  0.25934348
   0.74431143  0.24627394  0.00036347
   0.25347768  0.74811895  0.99685368
   0.25341789  0.24307171  0.50675475
   0.25047891  0.75333151  0.49966245
   0.25430691  0.24752857  0.24787482
   0.26360126  0.99989810  0.99342334
   0.99905304  0.24838733  0.99818687
   0.74571726  0.24287587  0.24749177
   0.73902161  0.00305608  0.00324889
   0.51172803  0.01045799  0.23781101
   0.99402824  0.49980265  0.24426200
   0.49477681  0.75894745  0.00828969
   0.97005897  0.00220056  0.74702217
   0.75314117  0.24129243  0.75357245
   0.75020370  0.99702772  0.48606490
   0.49943299  0.24375690  0.49112494
   0.50636519  0.00139598  0.72682674
   0.99772121  0.99836541  0.25278681
   0.50311456  0.24371425  0.00536056
   0.25722929  0.74814666  0.24989999
   0.23855547  0.50016649  0.99747245
   0.00363926  0.73894287  0.00200088
   0.74192460  0.74983510  0.25547740
   0.76493243  0.49564186  0.00463819
   0.50097841  0.49954612  0.25553149
   0.25194225  0.24071024  0.75011801
   0.25407713  0.99917477  0.51298573
   0.00393206  0.24449632  0.49896881
   0.24913331  0.76317443  0.75310439
   0.25650971  0.49981518  0.50056691
   0.99943817  0.75824090  0.49552924
   0.99648283  0.50286309  0.76166455
   0.74860392  0.76016177  0.74792650
   0.74498326  0.49765833  0.50531400
   0.49673808  0.76703712  0.48399316
   0.50553148  0.50254125  0.74444834
   0.50814322  0.01931329  0.00199876
   0.99856403  0.51926995  0.97876582
   0.48038988  0.72647407  0.26092303
   0.28804902  0.00591678  0.76729073
   0.47051383  0.99122650  0.51105307
   0.72804611  0.98180776  0.77973831
   0.01701998  0.75712038  0.25772088
   0.73771085  0.51095906  0.26074789
   0.02214205  0.00047142  0.48666645
   0.50671122  0.52208069  0.49421714
   0.75150148  0.52161913  0.75470750
   0.74392473  0.73884509  0.48938420
HECN                                    
           1
     8.834114    0.022452   -0.020184
     0.028762    8.882732    0.009140
     0.011510   -0.006243    8.868042
   Zr   Hf   Ti   N    C    Cr   Mo
   7   6   7  13  19   6   6
Direct configuration=     5
   0.99915985  0.99225913  0.00194858
   0.26371230  0.00021704  0.24350336
   0.24730863  0.49600713  0.24842333
   0.50232165  0.49643289  0.00167814
   0.50639197  0.24686722  0.74656763
   0.99723960  0.50014287  0.50318967
   0.49845666  0.75777360  0.74569206
   0.99561561  0.25008979  0.24340337
   0.74320533  0.75127528  0.00890764
   0.99637728  0.23904834  0.75397572
   0.74669906  0.23484526  0.49937241
   0.99871791  0.76459626  0.74361269
   0.25187550  0.49959357  0.74961977
   0.25813861  0.24303985  0.99225412
   0.50593103  0.24976642  0.24866511
   0.73754768  0.98527965  0.25934576
   0.74430840  0.24627622  0.00036260
   0.25347593  0.74811833  0.99685433
   0.25341477  0.24307321  0.50675690
   0.25048025  0.75333201  0.49966257
   0.25430835  0.24752851  0.24787495
   0.26360057  0.99989854  0.99342093
   0.99905303  0.24838675  0.99818902
   0.74571893  0.24287660  0.24749137
   0.73902186  0.00305640  0.00324787
   0.51172699  0.01046024  0.23780732
   0.99403046  0.49980164  0.24426256
   0.49478067  0.75894558  0.00828859
   0.97005636  0.00219596  0.74702271
   0.75314300  0.24129962  0.75357339
   0.75020432  0.99702963  0.48605900
   0.49943368  0.24375589  0.49112605
   0.50636051  0.00139467  0.72683535
   0.99772255  0.99836408  0.25278285
   0.50311471  0.24371285  0.00535677
   0.25722903  0.74814683  0.24990159
   0.23855651  0.50016587  0.99747452
   0.00364038  0.73894428  0.00200147
   0.74192559  0.74983247  0.25547662
   0.76493185  0.49564271  0.00463811
   0.50097874  0.49954463  0.25553227
   0.25194174  0.24071123  0.75011781
   0.25407934  0.99917476  0.51298600
   0.00393262  0.24449311  0.49896876
   0.24913107  0.76317189  0.75310338
   0.25651255  0.49981712  0.50056651
   0.99943865  0.75824148  0.49553018
   0.99647838  0.50286353  0.76166542
   0.74860115  0.76016129  0.74792826
   0.74498595  0.49765990  0.50531394
   0.49673982  0.76704022  0.48399490
   0.50552958  0.50254142  0.74445014
   0.50814393  0.01931297  0.00199825
   0.99856356  0.51927012  0.97876051
   0.48039225  0.72647744  0.26092647
   0.28805026  0.00591578  0.76729090
   0.47050670  0.99123218  0.51106127
   0.72805070  0.98180439  0.77974131
   0.01702394  0.75711968  0.25772069
   0.73770750  0.51095819  0.26074852
   0.02213875  0.00047367  0.48666464
   0.50671426  0.52208079  0.49421879
   0.75149949  0.52161524  0.75470266
   0.74392206  0.73884551  0.48938178
HECN                                    
           1
     8.833726    0.022099   -0.020373
     0.028410    8.881264    0.009458
     0.011321   -0.005926    8.868774
   Zr   Hf   Ti   N    C    Cr   Mo
   7   6   7  13  19   6   6
Direct configuration=     6
   0.99913949  0.99232035  0.00191910
   0.26370423  0.00023455  0.24350484
   0.24730803  0.49599515  0.24841261
   0.50230731  0.49642139  0.00170241
   0.50638792  0.24682691  0.74655606
   0.99722181  0.50014830  0.50318516
   0.49847420  0.75778879  0.74566722
   0.99563442  0.25011990  0.24337694
   0.74321255  0.75134620  0.00891913
   0.99641331  0.23899366  0.75407949
   0.74667597  0.23489834  0.49939522
   0.99873987  0.76457888  0.74363726
   0.25184865  0.49957361  0.74964653
   0.25812718  0.24302458  0.99227234
   0.50591049  0.24977784  0.24865697
   0.73755165  0.98527111  0.25934803
   0.74433906  0.24624735  0.00037251
   0.25349340  0.74812755  0.99684474
   0.25345082  0.24306055  0.50674171
   0.25045993  0.75332555  0.49965670
   0.25429157  0.24752657  0.24787099
   0.26361136  0.99989986  0.99345326
   0.99905147  0.24839371  0.99817443
   0.74569850  0.24286721  0.24749805
   0.73901329  0.00305959  0.00325257
   0.51173745  0.01043181  0.23784814
   0.99401012  0.49981107  0.24426454
   0.49473678  0.75896955  0.00829769
   0.97009746  0.00223164  0.74703379
   0.75312456  0.24119920  0.75356446
   0.75018995  0.99701565  0.48610544
   0.49942715  0.24376320  0.49111137
   0.50640164  0.00140547  0.72670177
   0.99771191  0.99837894  0.25282187
   0.50311540  0.24371952  0.00539961
   0.25722328  0.74814529  0.24988366
   0.23854390  0.50017085  0.99746019
   0.00362904  0.73892697  0.00199402
   0.74191112  0.74986060  0.25548652
   0.76494341  0.49563560  0.00463722
   0.50097865  0.49955949  0.25552514
   0.25195232  0.24069094  0.75012399
   0.25406695  0.99917245  0.51297084
   0.00392691  0.24451747  0.49897383
   0.24915873  0.76320550  0.75311962
   0.25647907  0.49979282  0.50057173
   0.99943769  0.75823822  0.49552798
   0.99652165  0.50286090  0.76166925
   0.74862958  0.76016976  0.74791470
   0.74494746  0.49765168  0.50531834
   0.49671837  0.76699265  0.48397648
   0.50555329  0.50254001  0.74443462
   0.50813702  0.01931124  0.00202106
   0.99856013  0.51927674  0.97878074
   0.48034898  0.72644353  0.26088624
   0.28805341  0.00592784  0.76729402
   0.47059638  0.99113897  0.51094476
   0.72797789  0.98186226  0.77970034
   0.01698568  0.75713520  0.25773384
   0.73772835  0.51098107  0.26074609
   0.02218513  0.00045676  0.48665671
   0.50668680  0.52207416  0.49417736
   0.75154226  0.52166769  0.75478956
   0.74395805  0.73883955  0.48938835
HECN                                    
           1
     8.833720    0.022094   -0.020376
     0.028405    8.881243    0.009463
     0.011318   -0.005921    8.868785
   Zr   Hf   Ti   N    C    Cr   Mo
   7   6   7  13  19   6   6
Direct configuration=     7
   0.99913920  0.99232124  0.00191867
   0.26370411  0.00023481  0.24350486
   0.24730802  0.49599497  0.24841245
   0.50230710  0.49642122  0.00170276
   0.50638786  0.24682632  0.74655589
   0.99722155  0.50014837  0.50318509
   0.49847445  0.75778902  0.74566685
   0.99563470  0.25012034  0.24337655
   0.74321265  0.75134724  0.00891930
   0.99641384  0.23899286  0.75408101
   0.74667563  0.23489912  0.49939555
   0.99874019  0.76457863  0.74363762
   0.25184826  0.49957332  0.74964693
   0.25812701  0.24302436  0.99227261
   0.50591019  0.24977801  0.24865685
   0.73755171  0.98527098  0.25934807
   0.74433950  0.24624693  0.00037266
   0.25349365  0.74812769  0.99684460
   0.25345134  0.24306037  0.50674149
   0.25045963  0.75332545  0.49965661
   0.25429132  0.24752654  0.24787094
   0.26361151  0.99989988  0.99345373
   0.99905145  0.24839381  0.99817422
   0.74569820  0.24286708  0.24749815
   0.73901317  0.00305963  0.00325264
   0.51173761  0.01043139  0.23784874
   0.99400982  0.49981121  0.24426457
   0.49473614  0.75896990  0.00829782
   0.97009807  0.00223216  0.74703396
   0.75312429  0.24119773  0.75356433
   0.75018974  0.99701544  0.48610612
   0.49942705  0.24376331  0.49111115
   0.50640224  0.00140563  0.72669981
   0.99771175  0.99837915  0.25282244
   0.50311541  0.24371962  0.00540023
   0.25722320  0.74814527  0.24988340
   0.23854371  0.50017093  0.99745998
   0.00362887  0.73892672  0.00199391
   0.74191090  0.74986102  0.25548666
   0.76494358  0.49563550  0.00463721
   0.50097865  0.49955971  0.25552503
   0.25195247  0.24069064  0.75012408
   0.25406676  0.99917242  0.51297062
   0.00392682  0.24451782  0.49897391
   0.24915914  0.76320599  0.75311986
   0.25647858  0.49979246  0.50057180
   0.99943768  0.75823817  0.49552794
   0.99652228  0.50286086  0.76166931
   0.74862999  0.76016989  0.74791450
   0.74494689  0.49765156  0.50531840
   0.49671806  0.76699195  0.48397621
   0.50555364  0.50253999  0.74443440
   0.50813692  0.01931121  0.00202139
   0.99856008  0.51927684  0.97878104
   0.48034835  0.72644303  0.26088565
   0.28805346  0.00592802  0.76729407
   0.47059770  0.99113761  0.51094306
   0.72797682  0.98186310  0.77969974
   0.01698512  0.75713543  0.25773403
   0.73772866  0.51098141  0.26074606
   0.02218581  0.00045651  0.48665659
   0.50668640  0.52207406  0.49417675
   0.75154288  0.52166845  0.75479083
   0.74395858  0.73883946  0.48938844
HECN                                    
           1
     8.833726    0.022099   -0.020373
     0.028409    8.881263    0.009458
     0.011320   -0.005926    8.868774
   Zr   Hf   Ti   N    C    Cr   Mo
   7   6   7  13  19   6   6
Direct configuration=     8
   0.99913948  0.99232039  0.00191908
   0.26370422  0.00023456  0.24350484
   0.24730803  0.49599514  0.24841260
   0.50230730  0.49642138  0.00170242
   0.50638792  0.24682688  0.74655605
   0.99722180  0.50014830  0.50318515
   0.49847421  0.75778880  0.74566720
   0.99563443  0.25011992  0.24337692
   0.74321255  0.75134624  0.00891914
   0.99641334  0.23899362  0.75407956
   0.74667595  0.23489838  0.49939523
   0.99873988  0.76457887  0.74363728
   0.25184863  0.49957359  0.74964655
   0.25812717  0.24302457  0.99227236
   0.50591048  0.24977785  0.24865697
   0.73755165  0.98527110  0.25934803
   0.74433908  0.24624733  0.00037252
   0.25349341  0.74812756  0.99684474
   0.25345084  0.24306055  0.50674170
   0.25045991  0.75332554  0.49965670
   0.25429156  0.24752656  0.24787099
   0.26361136  0.99989987  0.99345328
   0.99905147  0.24839372  0.99817442
   0.74569848  0.24286721  0.24749806
   0.73901329  0.00305959  0.00325258
   0.51173746  0.01043179  0.23784817
   0.99401011  0.49981108  0.24426455
   0.49473675  0.75896956  0.00829770
   0.97009749  0.00223166  0.74703380
   0.75312454  0.24119913  0.75356445
   0.75018994  0.99701564  0.48610547
   0.49942714  0.24376321  0.49111136
   0.50640166  0.00140548  0.72670168
   0.99771190  0.99837895  0.25282190
   0.50311540  0.24371952  0.00539964
   0.25722328  0.74814529  0.24988365
   0.23854389  0.50017086  0.99746018
   0.00362903  0.73892696  0.00199401
   0.74191111  0.74986062  0.25548652
   0.76494342  0.49563560  0.00463722
   0.50097865  0.49955950  0.25552513
   0.25195232  0.24069093  0.75012400
   0.25406694  0.99917245  0.51297083
   0.00392690  0.24451748  0.49897384
   0.24915875  0.76320552  0.75311963
   0.25647905  0.49979280  0.50057173
   0.99943769  0.75823822  0.49552797
   0.99652168  0.50286090  0.76166925
   0.74862959  0.76016977  0.74791469
   0.74494743  0.49765168  0.50531834
   0.49671836  0.76699262  0.48397647
   0.50555330  0.50254001  0.74443461
   0.50813701  0.01931124  0.00202107
   0.99856013  0.51927675  0.97878075
   0.48034895  0.72644350  0.26088621
   0.28805342  0.00592785  0.76729402
   0.47059645  0.99113891  0.51094469
   0.72797784  0.98186230  0.77970031
   0.01698566  0.75713521  0.25773385
   0.73772837  0.51098109  0.26074609
   0.02218516  0.00045675  0.48665670
   0.50668678  0.52207416  0.49417733
   0.75154229  0.52166772  0.75478962
   0.74395808  0.73883954  0.48938835
HECN                                    
           1
     8.834116    0.021976   -0.020356
     0.028287    8.881704    0.009589
     0.011340   -0.005796    8.869513
   Zr   Hf   Ti   N    C    Cr   Mo
   7   6   7  13  19   6   6
Direct configuration=     9
   0.99912809  0.99233817  0.00193492
   0.26369850  0.00023575  0.24351113
   0.24730192  0.49599803  0.24840765
   0.50230735  0.49642040  0.00170653
   0.50638385  0.24681472  0.74657276
   0.99719908  0.50014141  0.50320074
   0.49848935  0.75779408  0.74564104
   0.99562506  0.25013999  0.24338620
   0.74319181  0.75140203  0.00892570
   0.99642954  0.23898656  0.75409040
   0.74666865  0.23493697  0.49940942
   0.99877207  0.76458833  0.74364561
   0.25184775  0.49955492  0.74965238
   0.25813599  0.24300887  0.99227946
   0.50590415  0.24979116  0.24865221
   0.73755206  0.98528434  0.25938871
   0.74433609  0.24621539  0.00037986
   0.25351772  0.74815280  0.99683574
   0.25347636  0.24306827  0.50674269
   0.25044000  0.75331478  0.49964541
   0.25427436  0.24752768  0.24786672
   0.26361783  0.99990372  0.99348068
   0.99905286  0.24840796  0.99818086
   0.74568388  0.24286551  0.24750960
   0.73901094  0.00307592  0.00325451
   0.51173640  0.01040222  0.23789446
   0.99399167  0.49982813  0.24427243
   0.49470377  0.75899501  0.00830235
   0.97016029  0.00222814  0.74705410
   0.75311907  0.24108386  0.75356247
   0.75016691  0.99700296  0.48614405
   0.49941882  0.24377942  0.49110073
   0.50642405  0.00140280  0.72652351
   0.99770325  0.99839884  0.25283473
   0.50311842  0.24371607  0.00542573
   0.25719993  0.74814375  0.24986794
   0.23854240  0.50017262  0.99746392
   0.00361895  0.73893567  0.00199167
   0.74189670  0.74988653  0.25549297
   0.76494774  0.49563794  0.00463754
   0.50097454  0.49956410  0.25551656
   0.25196578  0.24066747  0.75013144
   0.25408773  0.99916008  0.51294145
   0.00393012  0.24452004  0.49898658
   0.24918275  0.76323617  0.75313191
   0.25645056  0.49976823  0.50057484
   0.99943928  0.75823599  0.49554256
   0.99654682  0.50285689  0.76166916
   0.74864800  0.76017447  0.74791396
   0.74491336  0.49765371  0.50533796
   0.49669647  0.76692178  0.48394531
   0.50558214  0.50253866  0.74442241
   0.50812247  0.01929069  0.00205441
   0.99853876  0.51928545  0.97878702
   0.48030057  0.72643011  0.26084569
   0.28810256  0.00592985  0.76730602
   0.47065670  0.99103756  0.51082152
   0.72792051  0.98193472  0.77967613
   0.01695288  0.75713920  0.25774670
   0.73773565  0.51100255  0.26073756
   0.02220455  0.00046439  0.48664500
   0.50665644  0.52204768  0.49412809
   0.75158759  0.52170039  0.75489156
   0.74401052  0.73885785  0.48937675
HECN                                    
           1
     8.834455    0.021870   -0.020341
     0.028180    8.882088    0.009703
     0.011356   -0.005684    8.870157
   Zr   Hf   Ti   N    C    Cr   Mo
   7   6   7  13  19   6   6
Direct configuration=    10
   0.99911817  0.99235366  0.00194872
   0.26369352  0.00023679  0.24351660
   0.24729660  0.49600055  0.24840334
   0.50230739  0.49641955  0.00171011
   0.50638031  0.24680413  0.74658731
   0.99717929  0.50013540  0.50321433
   0.49850255  0.75779868  0.74561825
   0.99561690  0.25015748  0.24339429
   0.74317375  0.75145063  0.00893142
   0.99644365  0.23898041  0.75409985
   0.74666229  0.23497058  0.49942177
   0.99880010  0.76459658  0.74365287
   0.25184698  0.49953866  0.74965746
   0.25814368  0.24299519  0.99228565
   0.50589863  0.24980276  0.24864808
   0.73755242  0.98529587  0.25942414
   0.74433349  0.24618756  0.00038625
   0.25353890  0.74817478  0.99682790
   0.25349859  0.24307499  0.50674355
   0.25042265  0.75330540  0.49963559
   0.25425937  0.24752865  0.24786300
   0.26362346  0.99990708  0.99350455
   0.99905408  0.24842037  0.99818646
   0.74567116  0.24286403  0.24751965
   0.73900890  0.00309015  0.00325619
   0.51173547  0.01037646  0.23793478
   0.99397561  0.49984298  0.24427930
   0.49467504  0.75901718  0.00830641
   0.97021499  0.00222507  0.74707179
   0.75311430  0.24098344  0.75356073
   0.75014684  0.99699192  0.48617766
   0.49941158  0.24379355  0.49109147
   0.50644355  0.00140048  0.72636829
   0.99769571  0.99841617  0.25284591
   0.50312105  0.24371305  0.00544846
   0.25717959  0.74814240  0.24985426
   0.23854111  0.50017415  0.99746717
   0.00361016  0.73894326  0.00198962
   0.74188415  0.74990910  0.25549859
   0.76495151  0.49563999  0.00463782
   0.50097095  0.49956811  0.25550910
   0.25197750  0.24064704  0.75013793
   0.25410584  0.99914930  0.51291586
   0.00393292  0.24452226  0.49899768
   0.24920366  0.76326287  0.75314262
   0.25642574  0.49974682  0.50057755
   0.99944066  0.75823404  0.49555526
   0.99656872  0.50285340  0.76166908
   0.74866403  0.76017857  0.74791332
   0.74488367  0.49765547  0.50535506
   0.49667741  0.76686006  0.48391816
   0.50560725  0.50253749  0.74441179
   0.50810979  0.01927279  0.00208346
   0.99852015  0.51929304  0.97879249
   0.48025843  0.72641844  0.26081040
   0.28814538  0.00593159  0.76731647
   0.47070919  0.99094927  0.51071422
   0.72787057  0.98199781  0.77965506
   0.01692432  0.75714267  0.25775790
   0.73774200  0.51102125  0.26073014
   0.02222143  0.00047104  0.48663481
   0.50663000  0.52202461  0.49408520
   0.75162705  0.52172885  0.75498036
   0.74405621  0.73887380  0.48936664
HECN                                    
           1
     8.833913    0.022054   -0.020026
     0.028363    8.882383    0.009626
     0.011671   -0.005761    8.869724
   Zr   Hf   Ti   N    C    Cr   Mo
   7   6   7  13  19   6   6
Direct configuration=    11
   0.99911901  0.99231953  0.00200369
   0.26367580  0.00023199  0.24353595
   0.24726690  0.49600888  0.24839583
   0.50232704  0.49643039  0.00169214
   0.50640274  0.24682637  0.74661614
   0.99715457  0.50012187  0.50325629
   0.49851849  0.75778117  0.74558657
   0.99558673  0.25015507  0.24342255
   0.74313847  0.75145479  0.00892356
   0.99641956  0.23899315  0.75402969
   0.74665317  0.23495798  0.49942499
   0.99881477  0.76464184  0.74365232
   0.25188567  0.49954317  0.74965406
   0.25817337  0.24299166  0.99227834
   0.50591080  0.24981978  0.24866292
   0.73754881  0.98531979  0.25950051
   0.74429334  0.24615880  0.00037953
   0.25354962  0.74819514  0.99682359
   0.25350003  0.24310164  0.50675679
   0.25040263  0.75329651  0.49962579
   0.25425341  0.24753544  0.24786030
   0.26362491  0.99991601  0.99350375
   0.99905209  0.24842665  0.99821398
   0.74567128  0.24287612  0.24753962
   0.73901313  0.00311770  0.00325905
   0.51171241  0.01035933  0.23798683
   0.99397139  0.49985845  0.24430310
   0.49468092  0.75902905  0.00830372
   0.97030796  0.00219882  0.74710698
   0.75312937  0.24087525  0.75357104
   0.75011993  0.99701296  0.48618517
   0.49941644  0.24383162  0.49109466
   0.50643191  0.00138298  0.72618288
   0.99769196  0.99843446  0.25282950
   0.50312403  0.24370070  0.00544051
   0.25712759  0.74814038  0.24984870
   0.23856042  0.50017669  0.99747803
   0.00360295  0.73897464  0.00199829
   0.74187441  0.74992399  0.25549504
   0.76494870  0.49567046  0.00464599
   0.50095472  0.49954709  0.25547968
   0.25199078  0.24063675  0.75014387
   0.25415357  0.99913074  0.51287090
   0.00394350  0.24449707  0.49900834
   0.24922303  0.76326346  0.75313739
   0.25641884  0.49973065  0.50057418
   0.99945301  0.75824107  0.49557530
   0.99656363  0.50285305  0.76166564
   0.74866464  0.76017245  0.74793321
   0.74487151  0.49769129  0.50539021
   0.49667190  0.76677146  0.48387922
   0.50563444  0.50253547  0.74441259
   0.50809499  0.01926152  0.00211671
   0.99850578  0.51931328  0.97875831
   0.48020524  0.72642887  0.26079947
   0.28824094  0.00591734  0.76732463
   0.47066352  0.99089161  0.51064226
   0.72785461  0.98203570  0.77964889
   0.01691108  0.75713509  0.25775976
   0.73771841  0.51104902  0.26070212
   0.02221205  0.00048902  0.48663146
   0.50662184  0.52199448  0.49404835
   0.75166107  0.52174625  0.75508342
   0.74411053  0.73887583  0.48934584
HECN                                    
           1
     8.833363    0.022241   -0.019706
     0.028549    8.882683    0.009548
     0.011991   -0.005840    8.869284
   Zr   Hf   Ti   N    C    Cr   Mo
   7   6   7  13  19   6   6
Direct configuration=    12
   0.99911987  0.99228487  0.00205951
   0.26365780  0.00022711  0.24355559
   0.24723674  0.49601734  0.24838820