       N       E                     dE             d eps       ncg     rms          rms(c)
DAV:   1     0.739841918086E+04    0.73984E+04   -0.20572E+05  8952   0.158E+03
DAV:   2     0.577512619331E+03   -0.68209E+04   -0.66281E+04  8736   0.667E+02
DAV:   3    -0.601684980868E+03   -0.11792E+04   -0.11074E+04 13512   0.248E+02
DAV:   4    -0.762183919571E+03   -0.16050E+03   -0.15586E+03 15528   0.108E+02
DAV:   5    -0.782451037775E+03   -0.20267E+02   -0.19871E+02 17376   0.354E+01    0.783E+01
RMM:   6    -0.776716183493E+03    0.57349E+01   -0.19114E+03 11312   0.125E+02    0.981E+01
RMM:   7    -0.663477932316E+03    0.11324E+03   -0.30269E+02 13244   0.498E+01    0.586E+01
RMM:   8    -0.633732947428E+03    0.29745E+02   -0.90400E+01 13765   0.254E+01    0.271E+01
RMM:   9    -0.624735587158E+03    0.89974E+01   -0.28169E+01 14108   0.137E+01    0.174E+01
RMM:  10    -0.624019939914E+03    0.71565E+00   -0.10876E+01 14085   0.859E+00    0.136E+01
RMM:  11    -0.623419176446E+03    0.60076E+00   -0.56131E+00 14246   0.529E+00    0.107E+01
RMM:  12    -0.623134030039E+03    0.28515E+00   -0.28320E+00 14412   0.444E+00    0.104E+01
RMM:  13    -0.623017639993E+03    0.11639E+00   -0.26875E+00 13856   0.419E+00    0.900E+00
RMM:  14    -0.622971468610E+03    0.46171E-01   -0.43149E+00 13718   0.510E+00    0.536E+00
RMM:  15    -0.623117930068E+03   -0.14646E+00   -0.17913E+00 13657   0.338E+00    0.644E+00
RMM:  16    -0.622872983865E+03    0.24495E+00   -0.68504E-01 12776   0.249E+00    0.387E+00
RMM:  17    -0.622736110214E+03    0.13687E+00   -0.60209E-01 13948   0.173E+00    0.265E+00
RMM:  18    -0.622740816653E+03   -0.47064E-02   -0.54344E-01 13944   0.178E+00    0.328E+00
RMM:  19    -0.622732129025E+03    0.86876E-02   -0.56601E-01 14290   0.139E+00    0.139E+00
RMM:  20    -0.622745871106E+03   -0.13742E-01   -0.24352E-01 13951   0.110E+00    0.144E+00
RMM:  21    -0.622738905907E+03    0.69652E-02   -0.10507E-01 13726   0.654E-01    0.123E+00
RMM:  22    -0.622729231466E+03    0.96744E-02   -0.72087E-02 13840   0.515E-01    0.948E-01
RMM:  23    -0.622720478615E+03    0.87529E-02   -0.12401E-01 13935   0.704E-01    0.299E-01
RMM:  24    -0.622722556783E+03   -0.20782E-02   -0.36582E-02 13203   0.535E-01    0.283E-01
RMM:  25    -0.622723274323E+03   -0.71754E-03   -0.20801E-02 13800   0.220E-01    0.142E-01
RMM:  26    -0.622723263092E+03    0.11231E-04   -0.83891E-03 12964   0.204E-01    0.100E-01
RMM:  27    -0.622723775571E+03   -0.51248E-03   -0.67393E-03 13423   0.125E-01    0.910E-02
RMM:  28    -0.622724081475E+03   -0.30590E-03   -0.39122E-03 13120   0.119E-01    0.784E-02
RMM:  29    -0.622724208399E+03   -0.12692E-03   -0.28772E-03 12399   0.768E-02    0.659E-02
RMM:  30    -0.622724257992E+03   -0.49592E-04   -0.15357E-03 12184   0.627E-02    0.364E-02
RMM:  31    -0.622724373878E+03   -0.11589E-03   -0.16160E-03 12627   0.629E-02    0.219E-02
RMM:  32    -0.622724425078E+03   -0.51200E-04   -0.61884E-04 11548   0.548E-02    0.268E-02
RMM:  33    -0.622724444367E+03   -0.19289E-04   -0.56595E-04 10437   0.354E-02    0.943E-03
RMM:  34    -0.622724462135E+03   -0.17768E-04   -0.27539E-04 10440   0.333E-02    0.374E-03
RMM:  35    -0.622724486382E+03   -0.24247E-04   -0.25805E-04  9158   0.241E-02    0.460E-03
RMM:  36    -0.622724496759E+03   -0.10377E-04   -0.13039E-04  8140   0.217E-02    0.353E-03
RMM:  37    -0.622724503823E+03   -0.70638E-05   -0.85970E-05  8158   0.181E-02
   1 F= -.62272450E+03 E0= -.62265013E+03  d E =-.622725E+03
       N       E                     dE             d eps       ncg     rms          rms(c)
DAV:   1    -0.622724040854E+03    0.45591E-03   -0.33966E-02 11280   0.949E-01    0.643E-02
RMM:   2    -0.622724730040E+03   -0.68919E-03   -0.62212E-03 14292   0.245E-01    0.159E-01
RMM:   3    -0.622724613366E+03    0.11667E-03   -0.69194E-04 11232   0.911E-02    0.697E-02
RMM:   4    -0.622724613324E+03    0.42302E-07   -0.21631E-04 11425   0.483E-02    0.599E-02
RMM:   5    -0.622724594252E+03    0.19072E-04   -0.75711E-05  9240   0.325E-02    0.516E-02
RMM:   6    -0.622724584900E+03    0.93512E-05   -0.44822E-05  7608   0.238E-02
   2 F= -.62272458E+03 E0= -.62265022E+03  d E =-.810778E-04
       N       E                     dE             d eps       ncg     rms          rms(c)
DAV:   1    -0.622724581954E+03    0.12298E-04   -0.21838E-03 11016   0.240E-01    0.554E-02
RMM:   2    -0.622725466721E+03   -0.88477E-03   -0.10481E-03  9985   0.117E-01    0.397E-01
RMM:   3    -0.622724621160E+03    0.84556E-03   -0.32375E-04  7950   0.841E-02    0.625E-02
RMM:   4    -0.622724596126E+03    0.25034E-04   -0.45249E-05  6410   0.293E-02    0.219E-02
RMM:   5    -0.622724595339E+03    0.78739E-06   -0.13236E-05  5275   0.188E-02
   3 F= -.62272460E+03 E0= -.62265022E+03  d E =-.915161E-04
       N       E                     dE             d eps       ncg     rms          rms(c)
DAV:   1    -0.622723819153E+03    0.77697E-03   -0.28847E-02 10944   0.114E+00    0.801E-02
RMM:   2    -0.622725048095E+03   -0.12289E-02   -0.93615E-03 14036   0.273E-01    0.236E-01
RMM:   3    -0.622724695401E+03    0.35269E-03   -0.10901E-03  9870   0.119E-01    0.118E-01
RMM:   4    -0.622724647021E+03    0.48379E-04   -0.25335E-04 10808   0.543E-02    0.741E-02
RMM:   5    -0.622724634045E+03    0.12977E-04   -0.78433E-05  7872   0.343E-02    0.528E-02
RMM:   6    -0.622724615462E+03    0.18583E-04   -0.32350E-05  6721   0.206E-02    0.219E-02
RMM:   7    -0.622724617908E+03   -0.24466E-05   -0.18147E-05  5550   0.196E-02
   4 F= -.62272462E+03 E0= -.62265026E+03  d E =-.225694E-04
       N       E                     dE             d eps       ncg     rms          rms(c)
DAV:   1    -0.622724614045E+03    0.14168E-05   -0.26806E-04 14136   0.101E-01    0.274E-02
RMM:   2    -0.622724779337E+03   -0.16529E-03   -0.22862E-04  8947   0.478E-02    0.156E-01
RMM:   3    -0.622724622450E+03    0.15689E-03   -0.67459E-05  6767   0.425E-02    0.390E-02
RMM:   4    -0.622724612467E+03    0.99830E-05   -0.13175E-05  5364   0.158E-02
   5 F= -.62272461E+03 E0= -.62265025E+03  d E =-.171281E-04
       N       E                     dE             d eps       ncg     rms          rms(c)
DAV:   1    -0.622724611462E+03    0.10988E-04   -0.11500E-04 11496   0.719E-02    0.135E-02
RMM:   2    -0.622724662978E+03   -0.51516E-04   -0.55165E-05  6294   0.295E-02    0.973E-02
RMM:   3    -0.622724613803E+03    0.49175E-04   -0.20826E-05  5613   0.266E-02    0.109E-02
RMM:   4    -0.622724613354E+03    0.44964E-06   -0.35753E-06  4602   0.770E-03
   6 F= -.62272461E+03 E0= -.62265025E+03  d E =-.180147E-04
       N       E                     dE             d eps       ncg     rms          rms(c)
DAV:   1    -0.622724611976E+03    0.18271E-05   -0.32847E-05  6864   0.452E-02    0.575E-03
RMM:   2    -0.622724619665E+03   -0.76890E-05   -0.15214E-05  5345   0.177E-02
   7 F= -.62272462E+03 E0= -.62265026E+03  d E =-.243263E-04
       N       E                     dE             d eps       ncg     rms          rms(c)
DAV:   1    -0.622724613870E+03   -0.18944E-05   -0.35851E-05  6024   0.383E-02    0.625E-03
RMM:   2    -0.622724622582E+03   -0.87119E-05   -0.61730E-06  4971   0.110E-02
   8 F= -.62272462E+03 E0= -.62265026E+03  d E =-.272436E-04
       N       E                     dE             d eps       ncg     rms          rms(c)
DAV:   1    -0.622724614137E+03   -0.26690E-06   -0.38357E-05  5664   0.328E-02    0.951E-03
RMM:   2    -0.622724637533E+03   -0.23396E-04   -0.14549E-05  5458   0.158E-02    0.657E-02
RMM:   3    -0.622724615392E+03    0.22141E-04   -0.98272E-06  5075   0.172E-02    0.152E-02
RMM:   4    -0.622724613778E+03    0.16144E-05   -0.13047E-06  4198   0.490E-03
   9 F= -.62272461E+03 E0= -.62265025E+03  d E =-.184393E-04
       N       E                     dE             d eps       ncg     rms          rms(c)
DAV:   1    -0.622724116546E+03    0.49885E-03   -0.24003E-02 10008   0.943E-01    0.526E-02
RMM:   2    -0.622724740023E+03   -0.62348E-03   -0.58021E-03 14345   0.212E-01    0.108E-01
RMM:   3    -0.622724685716E+03    0.54307E-04   -0.55511E-04  9575   0.893E-02    0.807E-02
RMM:   4    -0.622724670242E+03    0.15475E-04   -0.14611E-04  9869   0.407E-02    0.485E-02
RMM:   5    -0.622724664337E+03    0.59048E-05   -0.36142E-05  6189   0.263E-02
  10 F= -.62272466E+03 E0= -.62265029E+03  d E =-.505587E-04
       N       E                     dE             d eps       ncg     rms          rms(c)
DAV:   1    -0.622724582700E+03    0.87542E-04   -0.30267E-03  9912   0.338E-01    0.248E-02
RMM:   2    -0.622724697430E+03   -0.11473E-03   -0.83029E-04 11668   0.815E-02    0.865E-02
RMM:   3    -0.622724654323E+03    0.43107E-04   -0.78108E-05  6318   0.383E-02    0.352E-02
RMM:   4    -0.622724650253E+03    0.40703E-05   -0.20386E-05  5518   0.224E-02
  11 F= -.62272465E+03 E0= -.62265029E+03  d E =-.364745E-04
       N       E                     dE             d eps       ncg     rms          rms(c)
DAV:   1    -0.622724628578E+03    0.25745E-04   -0.12633E-03 10896   0.222E-01    0.232E-02
RMM:   2    -0.622724793792E+03   -0.16521E-03   -0.40562E-04  9756   0.651E-02    0.159E-01
RMM:   3    -0.622724653850E+03    0.13994E-03   -0.75690E-05  6597   0.406E-02    0.181E-02
RMM:   4    -0.622724653579E+03    0.27158E-06   -0.12716E-05  4949   0.162E-02
  12 F= -.62272465E+03 E0= -.62265029E+03  d E =-.398007E-04
       N       E                     dE             d eps       ncg     rms          rms(c)
DAV:   1    -0.622724645509E+03    0.83411E-05   -0.32230E-04 11352   0.113E-01    0.101E-02
RMM:   2    -0.622724663719E+03   -0.18210E-04   -0.71750E-05  6949   0.273E-02    0.438E-02
RMM:   3    -0.622724652083E+03    0.11637E-04   -0.12811E-05  4824   0.197E-02    0.159E-02
RMM:   4    -0.622724650943E+03    0.11401E-05   -0.45176E-06  4468   0.102E-02
  13 F= -.62272465E+03 E0= -.62265028E+03  d E =-.371648E-04
       N       E                     dE             d eps       ncg     rms          rms(c)
DAV:   1    -0.622724650839E+03    0.12437E-05   -0.99122E-05 10128   0.648E-02    0.797E-03
RMM:   2    -0.622724668346E+03   -0.17507E-04   -0.25051E-05  5732   0.199E-02    0.558E-02
RMM:   3    -0.622724652252E+03    0.16094E-04   -0.10092E-05  4777   0.190E-02    0.832E-03
RMM:   4    -0.622724652122E+03    0.12984E-06   -0.24459E-06  4346   0.593E-03
  14 F= -.62272465E+03 E0= -.62265028E+03  d E =-.383441E-04
