 vasp.5.4.4.18Apr17-6-g9f103f2a35 (build Oct 18 2021 20:38:43) complex          
  
 executed on             LinuxIFC date 2024.06.24  20:14:10
 running on   24 total cores
 distrk:  each k-point on   24 cores,    1 groups
 distr:  one band on NCORES_PER_BAND=   1 cores,   24 groups


--------------------------------------------------------------------------------------------------------


 INCAR:
 POTCAR:   PAW_PBE V_sv 07Sep2000                 
 POTCAR:   PAW_PBE Nb_sv 17Jan2003                
 POTCAR:   PAW_PBE Ti_sv 07Sep2000                
 POTCAR:   PAW_PBE N 08Apr2002                    
 POTCAR:   PAW_PBE C 08Apr2002                    
 POTCAR:   PAW_PBE Cr_pv 07Sep2000                
 POTCAR:   PAW_PBE Mo 08Apr2002                   

 ----------------------------------------------------------------------------- 
|                                                                             |
|           W    W    AA    RRRRR   N    N  II  N    N   GGGG   !!!           |
|           W    W   A  A   R    R  NN   N  II  NN   N  G    G  !!!           |
|           W    W  A    A  R    R  N N  N  II  N N  N  G       !!!           |
|           W WW W  AAAAAA  RRRRR   N  N N  II  N  N N  G  GGG   !            |
|           WW  WW  A    A  R   R   N   NN  II  N   NN  G    G                |
|           W    W  A    A  R    R  N    N  II  N    N   GGGG   !!!           |
|                                                                             |
|      For optimal performance we recommend to set                            |
|        NCORE= 4 - approx SQRT( number of cores)                             |
|      NCORE specifies how many cores store one orbital (NPAR=cpu/NCORE).     |
|      This setting can  greatly improve the performance of VASP for DFT.     |
|      The default,   NCORE=1            might be grossly inefficient         |
|      on modern multi-core architectures or massively parallel machines.     |
|      Do your own testing !!!!                                               |
|      Unfortunately you need to use the default for GW and RPA calculations. |
|      (for HF NCORE is supported but not extensively tested yet)             |
|                                                                             |
 ----------------------------------------------------------------------------- 

 POTCAR:   PAW_PBE V_sv 07Sep2000                 
   VRHFIN =V: p6 d4 s1                                                          
   LEXCH  = PE                                                                  
   EATOM  =  1951.3925 eV,  143.4233 Ry                                         
                                                                                
   TITEL  = PAW_PBE V_sv 07Sep2000                                              
   LULTRA =        F    use ultrasoft PP ?                                      
   IUNSCR =        1    unscreen: 0-lin 1-nonlin 2-no                           
   RPACOR =    2.000    partial core radius                                     
   POMASS =   50.941; ZVAL   =   13.000    mass and valenz                      
   RCORE  =    2.300    outmost cutoff radius                                   
   RWIGS  =    2.300; RWIGS  =    1.217    wigner-seitz radius (au A)           
   ENMAX  =  263.675; ENMIN  =  197.756 eV                                      
   RCLOC  =    1.779    cutoff for local pot                                    
   LCOR   =        T    correct aug charges                                     
   LPAW   =        T    paw PP                                                  
   EAUG   =  526.568                                                            
   DEXC   =     .000                                                            
   RMAX   =    2.839    core radius for proj-oper                               
   RAUG   =    1.300    factor for augmentation sphere                          
   RDEP   =    2.430    radius for radial grids                                 
   QCUT   =   -4.402; QGAM   =    8.804    optimization parameters              
                                                                                
   Description                                                                  
     l     E      TYP  RCUT    TYP  RCUT                                        
     0   .000     23  1.800                                                     
     0   .000     23  2.300                                                     
     0   .000     23  1.800                                                     
     0   .000     23  2.300                                                     
     1   .000     23  2.000                                                     
     1   .400     23  2.000                                                     
     2   .000     23  2.300                                                     
     2   .000     23  2.300                                                     
     3   .000      7   .000                                                     
  local pseudopotential read in
  partial core-charges read in
  atomic valenz-charges read in
  non local Contribution for L=           0  read in
    real space projection operators read in
  non local Contribution for L=           0  read in
    real space projection operators read in
  non local Contribution for L=           1  read in
    real space projection operators read in
  non local Contribution for L=           1  read in
    real space projection operators read in
  non local Contribution for L=           2  read in
    real space projection operators read in
  non local Contribution for L=           2  read in
    real space projection operators read in
    PAW grid and wavefunctions read in
 
   number of l-projection  operators is LMAX  =           6
   number of lm-projection operators is LMMAX =          18
 
 POTCAR:   PAW_PBE Nb_sv 17Jan2003                
   VRHFIN =Nb: 4p5s4d                                                           
   LEXCH  = PE                                                                  
   EATOM  =  1555.1913 eV,  114.3033 Ry                                         
                                                                                
   TITEL  = PAW_PBE Nb_sv 17Jan2003                                             
   LULTRA =        F    use ultrasoft PP ?                                      
   IUNSCR =        1    unscreen: 0-lin 1-nonlin 2-no                           
   RPACOR =    1.800    partial core radius                                     
   POMASS =   92.910; ZVAL   =   13.000    mass and valenz                      
   RCORE  =    2.200    outmost cutoff radius                                   
   RWIGS  =    2.400; RWIGS  =    1.270    wigner-seitz radius (au A)           
   ENMAX  =  293.235; ENMIN  =  219.927 eV                                      
   RCLOC  =    1.411    cutoff for local pot                                    
   LCOR   =        T    correct aug charges                                     
   LPAW   =        T    paw PP                                                  
   EAUG   =  455.659                                                            
   DEXC   =     .000                                                            
   RMAX   =    2.693    core radius for proj-oper                               
   RAUG   =    1.300    factor for augmentation sphere                          
   RDEP   =    2.299    radius for radial grids                                 
   QCUT   =   -4.642; QGAM   =    9.285    optimization parameters              
                                                                                
   Description                                                                  
     l     E      TYP  RCUT    TYP  RCUT                                        
     0   .000     23  2.200                                                     
     0   .000     23  2.200                                                     
     0   .000     23  2.200                                                     
     0   .000     23  2.200                                                     
     1   .000     23  2.200                                                     
     1  1.000     23  2.200                                                     
     2   .000     23  2.200                                                     
     2   .000     23  2.200                                                     
     3   .000      7   .000                                                     
  local pseudopotential read in
  partial core-charges read in
  atomic valenz-charges read in
  non local Contribution for L=           0  read in
    real space projection operators read in
  non local Contribution for L=           0  read in
    real space projection operators read in
  non local Contribution for L=           1  read in
    real space projection operators read in
  non local Contribution for L=           1  read in
    real space projection operators read in
  non local Contribution for L=           2  read in
    real space projection operators read in
  non local Contribution for L=           2  read in
    real space projection operators read in
    PAW grid and wavefunctions read in
 
   number of l-projection  operators is LMAX  =           6
   number of lm-projection operators is LMMAX =          18
 
 POTCAR:   PAW_PBE Ti_sv 07Sep2000                
   VRHFIN =Ti: 3p4s3d                                                           
   LEXCH  = PE                                                                  
   EATOM  =  1587.5048 eV,  116.6783 Ry                                         
                                                                                
   TITEL  = PAW_PBE Ti_sv 07Sep2000                                             
   LULTRA =        F    use ultrasoft PP ?                                      
   IUNSCR =        1    unscreen: 0-lin 1-nonlin 2-no                           
   RPACOR =    2.000    partial core radius                                     
   POMASS =   47.880; ZVAL   =   12.000    mass and valenz                      
   RCORE  =    2.300    outmost cutoff radius                                   
   RWIGS  =    2.300; RWIGS  =    1.217    wigner-seitz radius (au A)           
   ENMAX  =  274.574; ENMIN  =  205.930 eV                                      
   RCLOC  =    1.701    cutoff for local pot                                    
   LCOR   =        T    correct aug charges                                     
   LPAW   =        T    paw PP                                                  
   EAUG   =  482.848                                                            
   DEXC   =     .000                                                            
   RMAX   =    2.783    core radius for proj-oper                               
   RAUG   =    1.300    factor for augmentation sphere                          
   RDEP   =    2.381    radius for radial grids                                 
   QCUT   =   -4.492; QGAM   =    8.985    optimization parameters              
                                                                                
   Description                                                                  
     l     E      TYP  RCUT    TYP  RCUT                                        
     0   .000     23  1.800                                                     
     0   .000     23  2.300                                                     
     0   .000     23  1.800                                                     
     0   .000     23  2.300                                                     
     1   .000     23  2.300                                                     
     1  -.100     23  2.300                                                     
     2   .000     23  2.300                                                     
     2   .000     23  2.300                                                     
     3   .000      7   .000                                                     
  local pseudopotential read in
  partial core-charges read in
  atomic valenz-charges read in
  non local Contribution for L=           0  read in
    real space projection operators read in
  non local Contribution for L=           0  read in
    real space projection operators read in
  non local Contribution for L=           1  read in
    real space projection operators read in
  non local Contribution for L=           1  read in
    real space projection operators read in
  non local Contribution for L=           2  read in
    real space projection operators read in
  non local Contribution for L=           2  read in
    real space projection operators read in
    PAW grid and wavefunctions read in
 
   number of l-projection  operators is LMAX  =           6
   number of lm-projection operators is LMMAX =          18
 
 POTCAR:   PAW_PBE N 08Apr2002                    
   VRHFIN =N: s2p3                                                              
   LEXCH  = PE                                                                  
   EATOM  =   264.5486 eV,   19.4438 Ry                                         
                                                                                
   TITEL  = PAW_PBE N 08Apr2002                                                 
   LULTRA =        F    use ultrasoft PP ?                                      
   IUNSCR =        0    unscreen: 0-lin 1-nonlin 2-no                           
   RPACOR =     .000    partial core radius                                     
   POMASS =   14.001; ZVAL   =    5.000    mass and valenz                      
   RCORE  =    1.500    outmost cutoff radius                                   
   RWIGS  =    1.400; RWIGS  =     .741    wigner-seitz radius (au A)           
   ENMAX  =  400.000; ENMIN  =  300.000 eV                                      
   ICORE  =        2    local potential                                         
   LCOR   =        T    correct aug charges                                     
   LPAW   =        T    paw PP                                                  
   EAUG   =  627.112                                                            
   DEXC   =     .000                                                            
   RMAX   =    2.247    core radius for proj-oper                               
   RAUG   =    1.300    factor for augmentation sphere                          
   RDEP   =    1.514    radius for radial grids                                 
   QCUT   =   -5.562; QGAM   =   11.124    optimization parameters              
                                                                                
   Description                                                                  
     l     E      TYP  RCUT    TYP  RCUT                                        
     0   .000     23  1.200                                                     
     0   .000     23  1.200                                                     
     1   .000     23  1.500                                                     
     1   .700     23  1.500                                                     
     2   .000      7  1.500                                                     
  local pseudopotential read in
  atomic valenz-charges read in
  non local Contribution for L=           0  read in
    real space projection operators read in
  non local Contribution for L=           0  read in
    real space projection operators read in
  non local Contribution for L=           1  read in
    real space projection operators read in
  non local Contribution for L=           1  read in
    real space projection operators read in
    PAW grid and wavefunctions read in
 
   number of l-projection  operators is LMAX  =           4
   number of lm-projection operators is LMMAX =           8
 
 POTCAR:   PAW_PBE C 08Apr2002                    
   VRHFIN =C: s2p2                                                              
   LEXCH  = PE                                                                  
   EATOM  =   147.1560 eV,   10.8157 Ry                                         
                                                                                
   TITEL  = PAW_PBE C 08Apr2002                                                 
   LULTRA =        F    use ultrasoft PP ?                                      
   IUNSCR =        0    unscreen: 0-lin 1-nonlin 2-no                           
   RPACOR =     .000    partial core radius                                     
   POMASS =   12.011; ZVAL   =    4.000    mass and valenz                      
   RCORE  =    1.500    outmost cutoff radius                                   
   RWIGS  =    1.630; RWIGS  =     .863    wigner-seitz radius (au A)           
   ENMAX  =  400.000; ENMIN  =  300.000 eV                                      
   ICORE  =        2    local potential                                         
   LCOR   =        T    correct aug charges                                     
   LPAW   =        T    paw PP                                                  
   EAUG   =  644.873                                                            
   DEXC   =     .000                                                            
   RMAX   =    2.266    core radius for proj-oper                               
   RAUG   =    1.300    factor for augmentation sphere                          
   RDEP   =    1.501    radius for radial grids                                 
   RDEPT  =    1.300    core radius for aug-charge                              
   QCUT   =   -5.516; QGAM   =   11.032    optimization parameters              
                                                                                
   Description                                                                  
     l     E      TYP  RCUT    TYP  RCUT                                        
     0   .000     23  1.200                                                     
     0   .000     23  1.200                                                     
     1   .000     23  1.500                                                     
     1  2.500     23  1.500                                                     
     2   .000      7  1.500                                                     
  local pseudopotential read in
  atomic valenz-charges read in
  non local Contribution for L=           0  read in
    real space projection operators read in
  non local Contribution for L=           0  read in
    real space projection operators read in
  non local Contribution for L=           1  read in
    real space projection operators read in
  non local Contribution for L=           1  read in
    real space projection operators read in
    PAW grid and wavefunctions read in
 
   number of l-projection  operators is LMAX  =           4
   number of lm-projection operators is LMMAX =           8
 
 POTCAR:   PAW_PBE Cr_pv 07Sep2000                
   VRHFIN =Cr : p6d5s1                                                          
   LEXCH  = PE                                                                  
   EATOM  =  1647.5667 eV,  121.0927 Ry                                         
                                                                                
   TITEL  = PAW_PBE Cr_pv 07Sep2000                                             
   LULTRA =        F    use ultrasoft PP ?                                      
   IUNSCR =        1    unscreen: 0-lin 1-nonlin 2-no                           
   RPACOR =    2.080    partial core radius                                     
   POMASS =   51.996; ZVAL   =   12.000    mass and valenz                      
   RCORE  =    2.300    outmost cutoff radius                                   
   RWIGS  =    2.500; RWIGS  =    1.323    wigner-seitz radius (au A)           
   ENMAX  =  265.683; ENMIN  =  199.262 eV                                      
   RCLOC  =    1.721    cutoff for local pot                                    
   LCOR   =        T    correct aug charges                                     
   LPAW   =        T    paw PP                                                  
   EAUG   =  519.424                                                            
   DEXC   =    -.003                                                            
   RMAX   =    2.829    core radius for proj-oper                               
   RAUG   =    1.300    factor for augmentation sphere                          
   RDEP   =    2.447    radius for radial grids                                 
   QCUT   =   -4.419; QGAM   =    8.838    optimization parameters              
                                                                                
   Description                                                                  
     l     E      TYP  RCUT    TYP  RCUT                                        
     1   .000     23  2.000                                                     
     1   .100     23  2.000                                                     
     2   .000     23  2.300                                                     
     2   .000     23  2.300                                                     
     0   .000     23  2.300                                                     
     0   .000     23  2.300                                                     
     3   .000      7   .000                                                     
  local pseudopotential read in
  partial core-charges read in
  atomic valenz-charges read in
  non local Contribution for L=           1  read in
    real space projection operators read in
  non local Contribution for L=           1  read in
    real space projection operators read in
  non local Contribution for L=           2  read in
    real space projection operators read in
  non local Contribution for L=           2  read in
    real space projection operators read in
  non local Contribution for L=           0  read in
    real space projection operators read in
  non local Contribution for L=           0  read in
    real space projection operators read in
    PAW grid and wavefunctions read in
 
   number of l-projection  operators is LMAX  =           6
   number of lm-projection operators is LMMAX =          18
 
 POTCAR:   PAW_PBE Mo 08Apr2002                   
   VRHFIN =Mo: 4p5s4d                                                           
   LEXCH  = PE                                                                  
   EATOM  =   217.5180 eV,   15.9871 Ry                                         
                                                                                
   TITEL  = PAW_PBE Mo 08Apr2002                                                
   LULTRA =        F    use ultrasoft PP ?                                      
   IUNSCR =        1    unscreen: 0-lin 1-nonlin 2-no                           
   RPACOR =    2.200    partial core radius                                     
   POMASS =   95.940; ZVAL   =    6.000    mass and valenz                      
   RCORE  =    2.750    outmost cutoff radius                                   
   RWIGS  =    2.750; RWIGS  =    1.455    wigner-seitz radius (au A)           
   ENMAX  =  224.584; ENMIN  =  168.438 eV                                      
   RCLOC  =    2.111    cutoff for local pot                                    
   LCOR   =        T    correct aug charges                                     
   LPAW   =        T    paw PP                                                  
   EAUG   =  345.278                                                            
   DEXC   =    -.088                                                            
   RMAX   =    3.077    core radius for proj-oper                               
   RAUG   =    1.300    factor for augmentation sphere                          
   RDEP   =    2.815    radius for radial grids                                 
   QCUT   =   -4.063; QGAM   =    8.126    optimization parameters              
                                                                                
   Description                                                                  
     l     E      TYP  RCUT    TYP  RCUT                                        
     2   .000     23  2.500                                                     
     2   .000     23  2.500                                                     
     0   .000     23  2.600                                                     
     0  1.000     23  2.600                                                     
     1   .400     23  2.750                                                     
     1  2.000     23  2.750                                                     
     3   .000      7   .000                                                     
  local pseudopotential read in
  partial core-charges read in
  atomic valenz-charges read in
  non local Contribution for L=           2  read in
    real space projection operators read in
  non local Contribution for L=           2  read in
    real space projection operators read in
  non local Contribution for L=           0  read in
    real space projection operators read in
  non local Contribution for L=           0  read in
    real space projection operators read in
  non local Contribution for L=           1  read in
    real space projection operators read in
  non local Contribution for L=           1  read in
    real space projection operators read in
    PAW grid and wavefunctions read in
 
   number of l-projection  operators is LMAX  =           6
   number of lm-projection operators is LMMAX =          18
 

 ----------------------------------------------------------------------------- 
|                                                                             |
|  ADVICE TO THIS USER RUNNING 'VASP/VAMP'   (HEAR YOUR MASTER'S VOICE ...):  |
|                                                                             |
|      You have a (more or less) 'large supercell' and for larger cells       |
|      it might be more efficient to use real space projection operators      |
|      So try LREAL= Auto  in the INCAR   file.                               |
|      Mind: If you want to do a very accurate calculations keep the          |
|      reciprocal projection scheme          (i.e. LREAL=.FALSE.)             |
|                                                                             |
 ----------------------------------------------------------------------------- 

 PAW_PBE V_sv 07Sep2000                 :
 energy of atom  1       EATOM=-1951.3925
 kinetic energy error for atom=    0.0321 (will be added to EATOM!!)
 PAW_PBE Nb_sv 17Jan2003                :
 energy of atom  2       EATOM=-1555.1913
 kinetic energy error for atom=    0.0212 (will be added to EATOM!!)
 PAW_PBE Ti_sv 07Sep2000                :
 energy of atom  3       EATOM=-1587.5048
 kinetic energy error for atom=    0.0139 (will be added to EATOM!!)
 PAW_PBE N 08Apr2002                    :
 energy of atom  4       EATOM= -264.5486
 kinetic energy error for atom=    0.0736 (will be added to EATOM!!)
 PAW_PBE C 08Apr2002                    :
 energy of atom  5       EATOM= -147.1560
 kinetic energy error for atom=    0.0288 (will be added to EATOM!!)
 PAW_PBE Cr_pv 07Sep2000                :
 energy of atom  6       EATOM=-1647.5667
 kinetic energy error for atom=    0.0284 (will be added to EATOM!!)
 PAW_PBE Mo 08Apr2002                   :
 energy of atom  7       EATOM= -217.5180
 kinetic energy error for atom=    0.0025 (will be added to EATOM!!)
 
 
 POSCAR: 71-TiVNbCrMo                            
  positions in direct lattice
  velocities in cartesian coordinates
 exchange correlation table for  LEXCH =        8
   RHO(1)=    0.500       N(1)  =     2000
   RHO(2)=  100.500       N(2)  =     4000
 


--------------------------------------------------------------------------------------------------------


 ion  position               nearest neighbor table
   1  0.010  0.984  0.020-  34 1.95  38 2.01  22 2.08  25 2.21  23 2.23  29 2.27   2 2.78  59 2.79

   2  0.239  0.985  0.248-  36 2.00  34 2.07  43 2.14  22 2.15  26 2.21  21 2.27   1 2.78  59 2.80
                            61 2.81  18 2.91
   3  0.264  0.513  0.245-  41 1.93  36 2.04  37 2.07  46 2.13  27 2.22  21 2.25  55 2.76  62 2.96
                            59 3.01
   4  0.498  0.481  0.996-  35 1.97  52 2.10  41 2.12  37 2.14  40 2.22  28 2.34   5 2.91  60 2.93
                            13 2.96  63 2.96
   5  0.485  0.241  0.756-  42 1.95  35 2.07  33 2.07  52 2.21  32 2.21  30 2.22  56 2.79  53 2.80
                            57 2.85  14 2.91   4 2.91  58 2.96  13 2.97
   6  0.005  0.496  0.521-  48 1.99  44 2.06  46 2.07  50 2.11  47 2.15  13 2.92  10 2.95  12 2.98
                            63 2.99  64 3.01  59 3.21
   7  0.502  0.754  0.734-  51 2.07  49 2.07  45 2.08  33 2.10  52 2.20  28 2.22  57 2.74  58 2.75
                            62 2.92  64 2.94  63 2.95  56 2.97
   8  0.001  0.260  0.251-  27 2.05  23 2.15  44 2.15  21 2.15  24 2.20  34 2.21  61 2.96  60 3.13

   9  0.742  0.750  0.001-  28 2.07  39 2.13  25 2.16  40 2.18  49 2.21  38 2.26  58 2.76  63 2.94
                            54 2.98  60 2.98  53 3.06  59 3.11
  10  0.008  0.240  0.750-  29 2.04  42 2.12  44 2.15  23 2.16  48 2.23  30 2.25   6 2.95  56 2.96
                            61 3.05  11 3.05  54 3.11  63 3.23
  11  0.749  0.251  0.508-  50 2.11  30 2.11  31 2.13  32 2.15  44 2.18  24 2.24  10 3.05  61 3.08
                            62 3.08  63 3.09  60 3.12
  12  0.002  0.758  0.749-  29 2.08  47 2.16  38 2.17  45 2.20  48 2.20  49 2.20  54 2.81   6 2.98
                            63 3.03  56 3.04  64 3.07  61 3.11
  13  0.255  0.501  0.753-  52 2.12  48 2.17  37 2.18  42 2.21  45 2.21  46 2.24  54 2.87   6 2.92
                             4 2.96   5 2.97  62 3.03
  14  0.249  0.245  0.002-  22 2.09  23 2.12  21 2.12  35 2.14  42 2.16  37 2.19   5 2.91  53 2.93

  15  0.494  0.241  0.245-  26 2.05  21 2.07  24 2.13  35 2.14  32 2.20  41 2.23  53 2.84  60 2.99
                            62 3.16
  16  0.739  0.994  0.252-  26 2.07  39 2.09  31 2.09  24 2.13  25 2.15  34 2.20  53 2.96  55 3.03
                            64 3.04  61 3.07  59 3.07
  17  0.749  0.248  0.995-  30 2.08  25 2.09  40 2.13  35 2.14  23 2.15  24 2.18  53 2.81  58 2.89
                            63 3.05  60 3.09
  18  0.265  0.755  1.000-  28 2.00  22 2.10  36 2.14  45 2.16  37 2.18  38 2.20   2 2.91  54 2.98
                            59 3.08
  19  0.252  0.250  0.497-  32 2.09  44 2.11  43 2.14  21 2.14  46 2.15  42 2.18  57 2.88  61 2.94
                            56 2.98  62 3.07
  20  0.251  0.751  0.497-  47 2.12  51 2.12  43 2.13  46 2.14  36 2.14  45 2.16  57 2.86  55 2.86
                            62 2.96  59 2.99  61 2.99  56 3.01
  21  0.252  0.250  0.248-  15 2.07  14 2.12  19 2.14   8 2.15   3 2.25   2 2.27
  22  0.253  0.001  0.999-   1 2.08  14 2.09  18 2.10   2 2.15  53 2.19  56 2.22
  23  0.001  0.244  0.002-  14 2.12  17 2.15   8 2.15  10 2.16   1 2.23  54 2.40
  24  0.743  0.243  0.248-  15 2.13  16 2.13  17 2.18   8 2.20  60 2.23  11 2.24
  25  0.753  0.003  0.003-  58 1.91  17 2.09  53 2.09  16 2.15   9 2.16   1 2.21
  26  0.498  0.002  0.232-  53 2.03  15 2.05  16 2.07   2 2.21  55 2.33
  27  0.004  0.500  0.246-   8 2.05  59 2.18   3 2.22  54 2.33  60 2.37
  28  0.500  0.754  0.993-  18 2.00   9 2.07   7 2.22  53 2.29   4 2.34  55 2.42
  29  0.004  0.001  0.756-  10 2.04  12 2.08  56 2.19   1 2.27  61 2.34  58 2.45
  30  0.745  0.238  0.753-  17 2.08  11 2.11  58 2.17   5 2.22  10 2.25  63 2.34
  31  0.745  0.002  0.496-  16 2.09  11 2.13  61 2.27  64 2.28  57 2.34
  32  0.497  0.244  0.500-  19 2.09  57 2.13  11 2.15  15 2.20   5 2.21  62 2.27
  33  0.500  0.999  0.753-  58 1.89  57 1.93  56 2.05   5 2.07   7 2.10  53 2.11
  34  0.997  0.002  0.246-   1 1.95  61 2.05   2 2.07  59 2.13  16 2.20   8 2.21
  35  0.499  0.250  0.996-  53 1.95   4 1.97   5 2.07  17 2.14  14 2.14  15 2.14
  36  0.263  0.752  0.248-   2 2.00  55 2.04   3 2.04  18 2.14  20 2.14  59 2.19
  37  0.249  0.501  0.006-   3 2.07  54 2.10   4 2.14  13 2.18  18 2.18  14 2.19
  38  0.007  0.749  0.001-  54 1.95   1 2.01  59 2.14  12 2.17  18 2.20   9 2.26
  39  0.742  0.749  0.249-  55 2.08  16 2.09  60 2.11  64 2.13   9 2.13  59 2.26
  40  0.757  0.496  0.003-  60 2.11  17 2.13  63 2.13  54 2.14   9 2.18   4 2.22
  41  0.490  0.502  0.241-   3 1.93  55 2.00  60 2.02   4 2.12  62 2.20  15 2.23
  42  0.256  0.243  0.750-   5 1.95  56 2.06  10 2.12  14 2.16  19 2.18  13 2.21
  43  0.255  0.001  0.496-  57 1.89  61 2.08  56 2.11  20 2.13  19 2.14   2 2.14
  44  0.004  0.256  0.501-   6 2.06  19 2.11   8 2.15  61 2.15  10 2.15  11 2.18
  45  0.259  0.759  0.748-   7 2.08  56 2.09  20 2.16  18 2.16  12 2.20  13 2.21
  46  0.246  0.501  0.492-   6 2.07   3 2.13  20 2.14  19 2.15  62 2.16  13 2.24
  47  0.003  0.747  0.498-  20 2.12  59 2.14   6 2.15  12 2.16  64 2.17  61 2.22
  48  0.000  0.500  0.752-  54 1.94   6 1.99  63 2.17  13 2.17  12 2.20  10 2.23
  49  0.744  0.764  0.745-  58 1.94   7 2.07  64 2.15  63 2.16  12 2.20   9 2.21
  50  0.759  0.497  0.499-  64 2.05  11 2.11   6 2.11  60 2.19  62 2.22  63 2.22
  51  0.499  0.769  0.495-  55 1.93  57 2.00   7 2.07  20 2.12  64 2.16  62 2.21
  52  0.504  0.498  0.752-  63 2.08   4 2.10  13 2.12   7 2.20  62 2.20   5 2.21
  53  0.509  0.022  0.998-  35 1.95  26 2.03  25 2.09  33 2.11  22 2.19  28 2.29  58 2.58   5 2.80
                            17 2.81  15 2.84  14 2.93  16 2.96   9 3.06  56 3.07
  54  0.005  0.523  0.977-  48 1.94  38 1.95  37 2.10  40 2.14  27 2.33  23 2.40  12 2.81  13 2.87
                            63 2.92   9 2.98  18 2.98  59 3.07  10 3.11  60 3.32
  55  0.500  0.733  0.273-  51 1.93  41 2.00  36 2.04  39 2.08  26 2.33  28 2.42  62 2.70   3 2.76
                            60 2.77  20 2.86  64 2.87  16 3.03
  56  0.261  0.003  0.741-  33 2.05  42 2.06  45 2.09  43 2.11  29 2.19  22 2.22  57 2.56   5 2.79
                            10 2.96   7 2.97  19 2.98  20 3.01  12 3.04  53 3.07  61 3.08
  57  0.473  0.998  0.530-  43 1.89  33 1.93  51 2.00  32 2.13  31 2.34  56 2.56   7 2.74   5 2.85
                            20 2.86  19 2.88  58 3.03  64 3.27
  58  0.719  0.986  0.784-  33 1.89  25 1.91  49 1.94  30 2.17  29 2.45  53 2.58   7 2.75   9 2.76
                            17 2.89   5 2.96  57 3.03  64 3.28
  59  0.006  0.754  0.250-  34 2.13  47 2.14  38 2.14  27 2.18  36 2.19  39 2.26   1 2.79   2 2.80
                            61 2.95  20 2.99   3 3.01  64 3.04  16 3.07  54 3.07  18 3.08   9 3.11
  60  0.727  0.503  0.247-  41 2.02  39 2.11  40 2.11  50 2.19  24 2.23  27 2.37  55 2.77  62 2.89
                             4 2.93  64 2.94   9 2.98  15 2.99  17 3.09  11 3.12   8 3.13  59 3.21
  61  0.011  0.005  0.484-  34 2.05  43 2.08  44 2.15  47 2.22  31 2.27  29 2.34   2 2.81  19 2.94
                            59 2.95   8 2.96  20 2.99  10 3.05  16 3.07  11 3.08  56 3.08  12 3.11
  62  0.500  0.510  0.497-  46 2.16  52 2.20  41 2.20  51 2.21  50 2.22  32 2.27  55 2.70  64 2.87
                            60 2.89   7 2.92  20 2.96   3 2.96  13 3.03  19 3.07  63 3.08  11 3.08
  63  0.747  0.512  0.756-  52 2.08  40 2.13  49 2.16  48 2.17  50 2.22  30 2.34  54 2.92   9 2.94
                            64 2.95   7 2.95   4 2.96   6 2.99  12 3.03  17 3.05  62 3.08  11 3.09
  64  0.750  0.736  0.496-  50 2.05  39 2.13  49 2.15  51 2.16  47 2.17  31 2.28  55 2.87  62 2.87
                            60 2.94   7 2.94  63 2.95   6 3.01  16 3.04  59 3.04  12 3.07  61 3.21
 
  LATTYP: Found a triclinic cell.
 ALAT       =    12.1402747437
 B/A-ratio  =     0.7043753977
 C/A-ratio  =     1.5849284820
 COS(alpha) =     0.0010141616
 COS(beta)  =     0.6356774479
 COS(gamma) =     0.7056969720
  
  Lattice vectors:
  
 A1 = (  -0.0324637804,  -8.5517326204,  -8.6170230443)
 A2 = (   0.0034460099,  -8.5512960521,  -0.0155310396)
 A3 = (  -8.6088351437,   0.0082706886, -17.2081942655)


Analysis of symmetry for initial positions (statically):
=====================================================================
 Subroutine PRICEL returns:
 Original cell was already a primitive cell.
 

 Routine SETGRP: Setting up the symmetry group for a 
 triclinic supercell.


 Subroutine GETGRP returns: Found  1 space group operations
 (whereof  1 operations were pure point group operations)
 out of a pool of  2 trial point group operations.


The static configuration has the point symmetry C_1 .


Analysis of symmetry for dynamics (positions and initial velocities):
=====================================================================
 Subroutine PRICEL returns:
 Original cell was already a primitive cell.
 

 Routine SETGRP: Setting up the symmetry group for a 
 triclinic supercell.


 Subroutine GETGRP returns: Found  1 space group operations
 (whereof  1 operations were pure point group operations)
 out of a pool of  2 trial point group operations.


The dynamic configuration has the point symmetry C_1 .


 Subroutine INISYM returns: Found  1 space group operations
 (whereof  1 operations are pure point group operations),
 and found     1 'primitive' translations

 
 
 KPOINTS: HECN                                    

Automatic generation of k-mesh.
Space group operators:
 irot       det(A)        alpha          n_x          n_y          n_z        tau_x        tau_y        tau_z
    1     1.000000     0.000000     1.000000     0.000000     0.000000     0.000000     0.000000     0.000000
 
 Subroutine IBZKPT returns following result:
 ===========================================
 
 Found     14 irreducible k-points:
 
 Following reciprocal coordinates:
            Coordinates               Weight
  0.000000  0.000000  0.000000      1.000000
  0.333333  0.000000  0.000000      2.000000
  0.000000  0.333333  0.000000      2.000000
  0.333333  0.333333  0.000000      2.000000
 -0.333333  0.333333  0.000000      2.000000
  0.000000 -0.000000  0.333333      2.000000
  0.333333 -0.000000  0.333333      2.000000
 -0.333333  0.000000  0.333333      2.000000
 -0.000000  0.333333  0.333333      2.000000
  0.333333  0.333333  0.333333      2.000000
 -0.333333  0.333333  0.333333      2.000000
 -0.000000 -0.333333  0.333333      2.000000
  0.333333 -0.333333  0.333333      2.000000
 -0.333333 -0.333333  0.333333      2.000000
 
 Following cartesian coordinates:
            Coordinates               Weight
  0.000000  0.000000  0.000000      1.000000
  0.039046  0.000016 -0.000163      2.000000
  0.000042  0.038980 -0.000002      2.000000
  0.039088  0.038996 -0.000165      2.000000
 -0.039004  0.038964  0.000161      2.000000
 -0.000024 -0.000070  0.038753      2.000000
  0.039022 -0.000054  0.038590      2.000000
 -0.039069 -0.000086  0.038916      2.000000
  0.000018  0.038910  0.038751      2.000000
  0.039064  0.038926  0.038588      2.000000
 -0.039028  0.038894  0.038914      2.000000
 -0.000065 -0.039051  0.038755      2.000000
  0.038980 -0.039035  0.038592      2.000000
 -0.039111 -0.039067  0.038918      2.000000
 


--------------------------------------------------------------------------------------------------------




 Dimension of arrays:
   k-points           NKPTS =     14   k-points in BZ     NKDIM =     14   number of bands    NBANDS=    312
   number of dos      NEDOS =    301   number of ions     NIONS =     64
   non local maximal  LDIM  =      6   non local SUM 2l+1 LMDIM =     18
   total plane-waves  NPLWV =  74088
   max r-space proj   IRMAX =      1   max aug-charges    IRDMAX=   7774
   dimension x,y,z NGX =    42 NGY =   42 NGZ =   42
   dimension x,y,z NGXF=    84 NGYF=   84 NGZF=   84
   support grid    NGXF=    84 NGYF=   84 NGZF=   84
   ions per type =               7   6   7  13  19   6   6
   NGX,Y,Z   is equivalent  to a cutoff of   8.18,  8.17,  8.12 a.u.
   NGXF,Y,Z  is equivalent  to a cutoff of  16.36, 16.33, 16.24 a.u.

 SYSTEM =  HECN                                    
 POSCAR =  71-TiVNbCrMo                            

 Startparameter for this run:
   NWRITE =      2    write-flag & timer
   PREC   = normal    normal or accurate (medium, high low for compatibility)
   ISTART =      0    job   : 0-new  1-cont  2-samecut
   ICHARG =      2    charge: 1-file 2-atom 10-const
   ISPIN  =      1    spin polarized calculation?
   LNONCOLLINEAR =      F non collinear calculations
   LSORBIT =      F    spin-orbit coupling
   INIWAV =      1    electr: 0-lowe 1-rand  2-diag
   LASPH  =      F    aspherical Exc in radial PAW
   METAGGA=      F    non-selfconsistent MetaGGA calc.

 Electronic Relaxation 1
   ENCUT  =  400.0 eV  29.40 Ry    5.42 a.u.  13.92 13.95 14.03*2*pi/ulx,y,z
   ENINI  =  400.0     initial cutoff
   ENAUG  =  644.9 eV  augmentation charge cutoff
   NELM   =     60;   NELMIN=  2; NELMDL= -5     # of ELM steps 
   EDIFF  = 0.1E-04   stopping-criterion for ELM
   LREAL  =      F    real-space projection
   NLSPLINE    = F    spline interpolate recip. space projectors
   LCOMPAT=      F    compatible to vasp.4.4
   GGA_COMPAT  = T    GGA compatible to vasp.4.4-vasp.4.6
   LMAXPAW     = -100 max onsite density
   LMAXMIX     =    2 max onsite mixed and CHGCAR
   VOSKOWN=      0    Vosko Wilk Nusair interpolation
   ROPT   =    0.00000   0.00000   0.00000   0.00000
   ROPT   =    0.00000   0.00000   0.00000
 Ionic relaxation
   EDIFFG = -.1E-01   stopping-criterion for IOM
   NSW    =    100    number of steps for IOM
   NBLOCK =      1;   KBLOCK =    100    inner block; outer block 
   IBRION =      2    ionic relax: 0-MD 1-quasi-New 2-CG
   NFREE  =      1    steps in history (QN), initial steepest desc. (CG)
   ISIF   =      3    stress and relaxation
   IWAVPR =     11    prediction:  0-non 1-charg 2-wave 3-comb
   ISYM   =      2    0-nonsym 1-usesym 2-fastsym
   LCORR  =      T    Harris-Foulkes like correction to forces

   POTIM  = 0.5000    time-step for ionic-motion
   TEIN   =    0.0    initial temperature
   TEBEG  =    0.0;   TEEND  =   0.0 temperature during run
   SMASS  =  -3.00    Nose mass-parameter (am)
   estimated Nose-frequenzy (Omega)   =  0.10E-29 period in steps =****** mass=  -0.167E-26a.u.
   SCALEE = 1.0000    scale energy and forces
   NPACO  =    256;   APACO  = 16.0  distance and # of slots for P.C.
   PSTRESS=    0.0 pullay stress

  Mass of Ions in am
   POMASS =  50.94 92.91 47.88 14.00 12.01 52.00 95.94
  Ionic Valenz
   ZVAL   =  13.00 13.00 12.00  5.00  4.00 12.00  6.00
  Atomic Wigner-Seitz radii
   RWIGS  =  -1.00 -1.00 -1.00 -1.00 -1.00 -1.00 -1.00
  virtual crystal weights 
   VCA    =   1.00  1.00  1.00  1.00  1.00  1.00  1.00
   NELECT =     502.0000    total number of electrons
   NUPDOWN=      -1.0000    fix difference up-down

 DOS related values:
   EMIN   =  10.00;   EMAX   =-10.00  energy-range for DOS
   EFERMI =   0.00
   ISMEAR =     0;   SIGMA  =   0.10  broadening in eV -4-tet -1-fermi 0-gaus

 Electronic relaxation 2 (details)
   IALGO  =     68    algorithm
   LDIAG  =      T    sub-space diagonalisation (order eigenvalues)
   LSUBROT=      F    optimize rotation matrix (better conditioning)
   TURBO    =      0    0=normal 1=particle mesh
   IRESTART =      0    0=no restart 2=restart with 2 vectors
   NREBOOT  =      0    no. of reboots
   NMIN     =      0    reboot dimension
   EREF     =   0.00    reference energy to select bands
   IMIX   =      4    mixing-type and parameters
     AMIX     =   0.40;   BMIX     =  1.00
     AMIX_MAG =   1.60;   BMIX_MAG =  1.00
     AMIN     =   0.10
     WC   =   100.;   INIMIX=   1;  MIXPRE=   1;  MAXMIX= -45

 Intra band minimization:
   WEIMIN = 0.0010     energy-eigenvalue tresh-hold
   EBREAK =  0.80E-08  absolut break condition
   DEPER  =   0.30     relativ break condition  

   TIME   =   0.40     timestep for ELM

  volume/ion in A,a.u.               =       9.81        66.21
  Fermi-wavevector in a.u.,A,eV,Ry     =   1.519402  2.871253 31.410155  2.308581
  Thomas-Fermi vector in A             =   2.628392
 
 Write flags
   LWAVE        =      F    write WAVECAR
   LDOWNSAMPLE  =      F    k-point downsampling of WAVECAR
   LCHARG       =      F    write CHGCAR
   LVTOT        =      F    write LOCPOT, total local potential
   LVHAR        =      F    write LOCPOT, Hartree potential only
   LELF         =      F    write electronic localiz. function (ELF)
   LORBIT       =      0    0 simple, 1 ext, 2 COOP (PROOUT), +10 PAW based schemes


 Dipole corrections
   LMONO  =      F    monopole corrections only (constant potential shift)
   LDIPOL =      F    correct potential (dipole corrections)
   IDIPOL =      0    1-x, 2-y, 3-z, 4-all directions 
   EPSILON=  1.0000000 bulk dielectric constant

 Exchange correlation treatment:
   GGA     =    --    GGA type
   LEXCH   =     8    internal setting for exchange type
   VOSKOWN=      0    Vosko Wilk Nusair interpolation
   LHFCALC =     F    Hartree Fock is set to
   LHFONE  =     F    Hartree Fock one center treatment
   AEXX    =    0.0000 exact exchange contribution

 Linear response parameters
   LEPSILON=     F    determine dielectric tensor
   LRPA    =     F    only Hartree local field effects (RPA)
   LNABLA  =     F    use nabla operator in PAW spheres
   LVEL    =     F    velocity operator in full k-point grid
   LINTERFAST=   F  fast interpolation
   KINTER  =     0    interpolate to denser k-point grid
   CSHIFT  =0.1000    complex shift for real part using Kramers Kronig
   OMEGAMAX=  -1.0    maximum frequency
   DEG_THRESHOLD= 0.2000000E-02 threshold for treating states as degnerate
   RTIME   =   -0.100 relaxation time in fs
  (WPLASMAI=    0.000 imaginary part of plasma frequency in eV, 0.658/RTIME)
   DFIELD  = 0.0000000 0.0000000 0.0000000 field for delta impulse in time
 
 Orbital magnetization related:
   ORBITALMAG=     F  switch on orbital magnetization
   LCHIMAG   =     F  perturbation theory with respect to B field
   DQ        =  0.001000  dq finite difference perturbation B field
   LLRAUG    =     F  two centre corrections for induced B field



--------------------------------------------------------------------------------------------------------


 conjugate gradient relaxation of ions
 charge density and potential will be updated during run
 non-spin polarized calculation
 RMM-DIIS sequential band-by-band and
  variant of blocked Davidson during initial phase
 perform sub-space diagonalisation
    before iterative eigenvector-optimisation
 modified Broyden-mixing scheme, WC =      100.0
 initial mixing is a Kerker type mixing with AMIX =  0.4000 and BMIX =      1.0000
 Hartree-type preconditioning will be used
 using additional bands           61
 reciprocal scheme for non local part
 use partial core corrections
 calculate Harris-corrections to forces 
   (improved forces if not selfconsistent)
 use gradient corrections 
 use of overlap-Matrix (Vanderbilt PP)
 Gauss-broadening in eV      SIGMA  =   0.10


--------------------------------------------------------------------------------------------------------


  energy-cutoff  :      400.00
  volume of cell :      627.93
      direct lattice vectors                 reciprocal lattice vectors
     8.537015563 -0.009143825  0.005210256     0.117137304  0.000048092 -0.000489031
    -0.003446010  8.551296052  0.015531040     0.000125258  0.116941400 -0.000006458
     0.035909790  0.000436568  8.601492005    -0.000071181 -0.000211181  0.116259208

  length of vectors
     8.537022050  8.551310850  8.601566974     0.117138335  0.116941467  0.116259422


 
 k-points in units of 2pi/SCALE and weight: HECN                                    
   0.00000000  0.00000000  0.00000000       0.037
   0.03904577  0.00001603 -0.00016301       0.074
   0.00004175  0.03898047 -0.00000215       0.074
   0.03908752  0.03899650 -0.00016516       0.074
  -0.03900402  0.03896444  0.00016086       0.074
  -0.00002373 -0.00007039  0.03875307       0.074
   0.03902204 -0.00005436  0.03859006       0.074
  -0.03906949 -0.00008642  0.03891608       0.074
   0.00001803  0.03891007  0.03875092       0.074
   0.03906379  0.03892610  0.03858791       0.074
  -0.03902774  0.03889404  0.03891393       0.074
  -0.00006548 -0.03905086  0.03875522       0.074
   0.03898029 -0.03903483  0.03859221       0.074
  -0.03911125 -0.03906689  0.03891823       0.074
 
 k-points in reciprocal lattice and weights: HECN                                    
   0.00000000  0.00000000  0.00000000       0.037
   0.33333333  0.00000000  0.00000000       0.074
   0.00000000  0.33333333  0.00000000       0.074
   0.33333333  0.33333333  0.00000000       0.074
  -0.33333333  0.33333333  0.00000000       0.074
   0.00000000 -0.00000000  0.33333333       0.074
   0.33333333 -0.00000000  0.33333333       0.074
  -0.33333333  0.00000000  0.33333333       0.074
  -0.00000000  0.33333333  0.33333333       0.074
   0.33333333  0.33333333  0.33333333       0.074
  -0.33333333  0.33333333  0.33333333       0.074
  -0.00000000 -0.33333333  0.33333333       0.074
   0.33333333 -0.33333333  0.33333333       0.074
  -0.33333333 -0.33333333  0.33333333       0.074
 
 position of ions in fractional coordinates (direct lattice) 
   0.01031743  0.98396667  0.01963155
   0.23912072  0.98501077  0.24809273
   0.26381713  0.51305797  0.24532202
   0.49793327  0.48063214  0.99551761
   0.48486120  0.24050258  0.75649843
   0.00543646  0.49623364  0.52113574
   0.50245086  0.75416613  0.73421393
   0.00071965  0.26012741  0.25081241
   0.74236063  0.75033694  0.00139848
   0.00827615  0.23974273  0.75014615
   0.74903715  0.25073310  0.50823331
   0.00193150  0.75814265  0.74883475
   0.25479014  0.50123762  0.75293562
   0.24904584  0.24513725  0.00162288
   0.49414331  0.24116418  0.24488475
   0.73909967  0.99385661  0.25238740
   0.74937841  0.24750006  0.99475207
   0.26516512  0.75537548  0.99972820
   0.25187597  0.25033219  0.49725190
   0.25092415  0.75108554  0.49718546
   0.25240119  0.24992878  0.24849712
   0.25316667  0.00051200  0.99855307
   0.00084029  0.24371928  0.00153047
   0.74312403  0.24258908  0.24780291
   0.75332380  0.00289096  0.00264514
   0.49764274  0.00156416  0.23237666
   0.00416912  0.49964263  0.24624847
   0.49989520  0.75392947  0.99250298
   0.00436586  0.00086359  0.75600848
   0.74493544  0.23750477  0.75341895
   0.74517115  0.00235483  0.49563911
   0.49697741  0.24445943  0.50009257
   0.50034226  0.99901043  0.75318191
   0.99692226  0.00226571  0.24564044
   0.49928027  0.24981474  0.99629670
   0.26344539  0.75184943  0.24848299
   0.24852566  0.50107677  0.00577529
   0.00746892  0.74937605  0.00095195
   0.74199128  0.74935904  0.24914822
   0.75723467  0.49580554  0.00305259
   0.48977045  0.50173338  0.24140402
   0.25640955  0.24339125  0.75043714
   0.25491088  0.00050356  0.49616228
   0.00447816  0.25619558  0.50065903
   0.25919756  0.75914843  0.74824734
   0.24642548  0.50132756  0.49235140
   0.00316544  0.74656328  0.49811406
   0.00024472  0.50045241  0.75242999
   0.74389067  0.76392083  0.74457472
   0.75902784  0.49712826  0.49865137
   0.49888535  0.76884579  0.49459524
   0.50366762  0.49794654  0.75182622
   0.50892958  0.02192579  0.99753100
   0.00543667  0.52287811  0.97658494
   0.49977323  0.73254724  0.27340253
   0.26068834  0.00312590  0.74109576
   0.47341705  0.99831673  0.53039462
   0.71914662  0.98648783  0.78360313
   0.00646739  0.75397357  0.24996670
   0.72677044  0.50325364  0.24656098
   0.01112610  0.00539132  0.48403520
   0.49979939  0.51042012  0.49673903
   0.74674950  0.51155642  0.75628646
   0.74971396  0.73610786  0.49591555
 
 position of ions in cartesian coordinates  (Angst):
   0.08539424  8.41410454  0.18419642
   2.04689191  8.42104058  2.15051172
   2.25925240  4.38500543  2.11947823
   4.28495667  4.10590933  8.57299587
   4.16560453  2.05250556  6.51327668
   0.06341497  4.24361858  4.49028027
   4.31319739  6.44482408  6.32966615
   0.01425386  2.22452940  2.16140472
   6.33500883  6.40956594  0.02755040
   0.09676507  2.05036289  6.45614269
   6.41192837  2.13746580  4.37936160
   0.04076720  6.48341149  6.45288089
   2.20045791  4.28423023  6.48548198
   2.12532171  2.09396470  0.01906401
   4.22647185  2.05785486  2.11269434
   6.31534375  8.49211410  2.19019469
   6.43232356  2.11002835  8.56410036
   2.29701572  6.45745115  8.61226745
   2.16726264  2.13857862  4.28230849
   2.15740898  6.42067746  4.28950930
   2.16281514  2.13501556  2.14264272
   2.19714387  0.00249926  8.59037329
   0.00638864  2.08410870  0.01695393
   6.35212399  2.06776422  2.13911431
   6.43122206  0.01783439  0.02672202
   4.25672304  0.00892668  2.00140314
   0.04271277  4.27266141  2.12588597
   4.30065562  6.44293648  8.55132030
   0.06441651  0.00767498  6.50283704
   6.38576215  2.02449094  6.48809710
   6.37932793  0.01353947  4.26715491
   4.25981969  2.08611905  4.30792836
   4.29503366  8.53858772  6.49661077
   8.51955390  0.01036634  2.11810369
   4.29727935  2.13210938  8.57611932
   2.25536947  6.42698667  2.15037408
   2.12014812  4.28258582  0.05875322
   0.06121413  6.40806855  0.01986573
   6.34075570  6.40131515  2.15855070
   6.46292526  4.23285725  0.03790258
   4.18811777  4.28609772  2.08677905
   2.21508165  2.07929367  6.45999510
   2.19399350  0.00219182  4.26907183
   0.05532581  2.19098188  4.31041699
   2.23702694  6.48965955  6.44918440
   2.11969081  4.28496204  4.24402668
   0.04233795  6.38427215  4.29613554
   0.02738418  4.27984294  6.47979438
   6.37471126  6.52603622  6.42019385
   6.49602581  4.24436819  4.30082144
   4.27410333  6.57028217  4.26879731
   4.32510030  4.25381106  6.47718511
   4.38048534  0.18327582  8.58324715
   0.07968007  4.47166219  8.40823676
   4.27386534  6.25977785  2.36565088
   2.25210227  0.02467036  6.37593602
   4.05717488  8.53280461  4.58015657
   6.16410544  8.42951580  6.75922417
   0.06159026  6.44750121  2.16183023
   6.21157027  4.29693307  2.13239504
   0.11234671  0.04621236  4.16356663
   4.28287409  4.36040034  4.28322826
   6.40040739  4.36797242  6.51702771
   6.41559133  6.28803747  4.28095237
 


--------------------------------------------------------------------------------------------------------


 k-point  1 :   0.0000 0.0000 0.0000  plane waves:   11375
 k-point  2 :   0.3333 0.0000 0.0000  plane waves:   11397
 k-point  3 :   0.0000 0.3333 0.0000  plane waves:   11398
 k-point  4 :   0.3333 0.3333 0.0000  plane waves:   11399
 k-point  5 :  -0.3333 0.3333 0.0000  plane waves:   11407
 k-point  6 :   0.0000-0.0000 0.3333  plane waves:   11400
 k-point  7 :   0.3333-0.0000 0.3333  plane waves:   11407
 k-point  8 :  -0.3333 0.0000 0.3333  plane waves:   11399
 k-point  9 :  -0.0000 0.3333 0.3333  plane waves:   11404
 k-point 10 :   0.3333 0.3333 0.3333  plane waves:   11432
 k-point 11 :  -0.3333 0.3333 0.3333  plane waves:   11427
 k-point 12 :  -0.0000-0.3333 0.3333  plane waves:   11398
 k-point 13 :   0.3333-0.3333 0.3333  plane waves:   11435
 k-point 14 :  -0.3333-0.3333 0.3333  plane waves:   11415

 maximum and minimum number of plane-waves per node :     11435    11375

 maximum number of plane-waves:     11435
 maximum index in each direction: 
   IXMAX=   14   IYMAX=   14   IZMAX=   14
   IXMIN=  -14   IYMIN=  -14   IZMIN=  -14


 serial   3D FFT for wavefunctions
 parallel 3D FFT for charge:
    minimum data exchange during FFTs selected (reduces bandwidth)


 total amount of memory used by VASP MPI-rank0   247060. kBytes
=======================================================================

   base      :      30000. kBytes
   nonl-proj :     173276. kBytes
   fftplans  :       1252. kBytes
   grid      :       5755. kBytes
   one-center:        995. kBytes
   wavefun   :      35782. kBytes
 
     INWAV:  cpu time    0.0000: real time    0.0000
 Broyden mixing: mesh for mixing (old mesh)
   NGX = 27   NGY = 27   NGZ = 29
  (NGX  = 84   NGY  = 84   NGZ  = 84)
  gives a total of  21141 points

 initial charge density was supplied:
 charge density of overlapping atoms calculated
 number of electron     502.0000000 magnetization 
 keeping initial charge density in first step


--------------------------------------------------------------------------------------------------------


 Maximum index for augmentation-charges          456 (set IRDMAX)


--------------------------------------------------------------------------------------------------------


 First call to EWALD:  gamma=   0.207
 Maximum number of real-space cells 3x 3x 3
 Maximum number of reciprocal cells 3x 3x 3

    FEWALD:  cpu time    0.0036: real time    0.0039


--------------------------------------- Iteration      1(   1)  ---------------------------------------


    POTLOK:  cpu time    0.0215: real time    0.0239
    SETDIJ:  cpu time    0.0065: real time    0.0069
     EDDAV:  cpu time   16.9117: real time   16.9586
       DOS:  cpu time    0.0015: real time    0.0015
    --------------------------------------------
      LOOP:  cpu time   16.9413: real time   16.9909

 eigenvalue-minimisations  :  8952
 total energy-change (2. order) : 0.7398419E+04  (-0.2057224E+05)
 number of electron     502.0000000 magnetization 
 augmentation part      502.0000000 magnetization 

 Free energy of the ion-electron system (eV)
  ---------------------------------------------------
  alpha Z        PSCENC =      3781.08932073
  Ewald energy   TEWEN  =    -41815.68327742
  -Hartree energ DENC   =    -11442.53054246
  -exchange      EXHF   =         0.00000000
  -V(xc)+E(xc)   XCENC  =      1782.12517761
  PAW double counting   =     33962.32905666   -33719.68362942
  entropy T*S    EENTRO =        -0.08691394
  eigenvalues    EBANDS =      3323.96521736
  atomic energy  EATOM  =     51526.89477174
  Solvation  Ediel_sol  =         0.00000000
  ---------------------------------------------------
  free energy    TOTEN  =      7398.41918086 eV

  energy without entropy =     7398.50609480  energy(sigma->0) =     7398.46263783


--------------------------------------------------------------------------------------------------------




--------------------------------------- Iteration      1(   2)  ---------------------------------------


     EDDAV:  cpu time   17.5504: real time   17.5659
       DOS:  cpu time    0.0013: real time    0.0013
    --------------------------------------------
      LOOP:  cpu time   17.5517: real time   17.5672

 eigenvalue-minimisations  :  8736
 total energy-change (2. order) :-0.6820907E+04  (-0.6628081E+04)
 number of electron     502.0000000 magnetization 
 augmentation part      502.0000000 magnetization 

 Free energy of the ion-electron system (eV)
  ---------------------------------------------------
  alpha Z        PSCENC =      3781.08932073
  Ewald energy   TEWEN  =    -41815.68327742
  -Hartree energ DENC   =    -11442.53054246
  -exchange      EXHF   =         0.00000000
  -V(xc)+E(xc)   XCENC  =      1782.12517761
  PAW double counting   =     33962.32905666   -33719.68362942
  entropy T*S    EENTRO =        -0.13874694
  eigenvalues    EBANDS =     -3496.88951117
  atomic energy  EATOM  =     51526.89477174
  Solvation  Ediel_sol  =         0.00000000
  ---------------------------------------------------
  free energy    TOTEN  =       577.51261933 eV

  energy without entropy =      577.65136627  energy(sigma->0) =      577.58199280


--------------------------------------------------------------------------------------------------------




--------------------------------------- Iteration      1(   3)  ---------------------------------------


     EDDAV:  cpu time   24.9483: real time   24.9836
       DOS:  cpu time    0.0011: real time    0.0011
    --------------------------------------------
      LOOP:  cpu time   24.9494: real time   24.9847

 eigenvalue-minimisations  : 13512
 total energy-change (2. order) :-0.1179198E+04  (-0.1107414E+04)
 number of electron     502.0000000 magnetization 
 augmentation part      502.0000000 magnetization 

 Free energy of the ion-electron system (eV)
  ---------------------------------------------------
  alpha Z        PSCENC =      3781.08932073
  Ewald energy   TEWEN  =    -41815.68327742
  -Hartree energ DENC   =    -11442.53054246
  -exchange      EXHF   =         0.00000000
  -V(xc)+E(xc)   XCENC  =      1782.12517761
  PAW double counting   =     33962.32905666   -33719.68362942
  entropy T*S    EENTRO =        -0.12566467
  eigenvalues    EBANDS =     -4676.10019364
  atomic energy  EATOM  =     51526.89477174
  Solvation  Ediel_sol  =         0.00000000
  ---------------------------------------------------
  free energy    TOTEN  =      -601.68498087 eV

  energy without entropy =     -601.55931620  energy(sigma->0) =     -601.62214853


--------------------------------------------------------------------------------------------------------




--------------------------------------- Iteration      1(   4)  ---------------------------------------


     EDDAV:  cpu time   27.8160: real time   27.8964
       DOS:  cpu time    0.0013: real time    0.0013
    --------------------------------------------
      LOOP:  cpu time   27.8174: real time   27.8977

 eigenvalue-minimisations  : 15528
 total energy-change (2. order) :-0.1604989E+03  (-0.1558592E+03)
 number of electron     502.0000000 magnetization 
 augmentation part      502.0000000 magnetization 

 Free energy of the ion-electron system (eV)
  ---------------------------------------------------
  alpha Z        PSCENC =      3781.08932073
  Ewald energy   TEWEN  =    -41815.68327742
  -Hartree energ DENC   =    -11442.53054246
  -exchange      EXHF   =         0.00000000
  -V(xc)+E(xc)   XCENC  =      1782.12517761
  PAW double counting   =     33962.32905666   -33719.68362942
  entropy T*S    EENTRO =        -0.11367795
  eigenvalues    EBANDS =     -4836.61111906
  atomic energy  EATOM  =     51526.89477174
  Solvation  Ediel_sol  =         0.00000000
  ---------------------------------------------------
  free energy    TOTEN  =      -762.18391957 eV

  energy without entropy =     -762.07024162  energy(sigma->0) =     -762.12708059


--------------------------------------------------------------------------------------------------------




--------------------------------------- Iteration      1(   5)  ---------------------------------------


     EDDAV:  cpu time   30.8927: real time   30.9581
       DOS:  cpu time    0.0011: real time    0.0011
    CHARGE:  cpu time    0.1616: real time    0.1628
    MIXING:  cpu time    0.0012: real time    0.0012
    --------------------------------------------
      LOOP:  cpu time   31.0567: real time   31.1232

 eigenvalue-minimisations  : 17376
 total energy-change (2. order) :-0.2026712E+02  (-0.1987078E+02)
 number of electron     502.0000029 magnetization 
 augmentation part      100.3401305 magnetization 

 Broyden mixing:
  rms(total) = 0.78341E+01    rms(broyden)= 0.78325E+01
  rms(prec ) = 0.12222E+02
  weight for this iteration     100.00

 Free energy of the ion-electron system (eV)
  ---------------------------------------------------
  alpha Z        PSCENC =      3781.08932073
  Ewald energy   TEWEN  =    -41815.68327742
  -Hartree energ DENC   =    -11442.53054246
  -exchange      EXHF   =         0.00000000
  -V(xc)+E(xc)   XCENC  =      1782.12517761
  PAW double counting   =     33962.32905666   -33719.68362942
  entropy T*S    EENTRO =        -0.12157531
  eigenvalues    EBANDS =     -4856.87033991
  atomic energy  EATOM  =     51526.89477174
  Solvation  Ediel_sol  =         0.00000000
  ---------------------------------------------------
  free energy    TOTEN  =      -782.45103778 eV

  energy without entropy =     -782.32946247  energy(sigma->0) =     -782.39025012


--------------------------------------------------------------------------------------------------------




--------------------------------------- Iteration      1(   6)  ---------------------------------------


    POTLOK:  cpu time    0.0172: real time    0.0209
    SETDIJ:  cpu time    0.0063: real time    0.0063
    EDDIAG:  cpu time    1.4008: real time    1.4019
  RMM-DIIS:  cpu time   14.7227: real time   14.7529
    ORTHCH:  cpu time    0.3910: real time    0.3920
       DOS:  cpu time    0.0011: real time    0.0011
    CHARGE:  cpu time    0.1527: real time    0.1529
    MIXING:  cpu time    0.0014: real time    0.0038
    --------------------------------------------
      LOOP:  cpu time   16.6934: real time   16.7319

 eigenvalue-minimisations  : 11312
 total energy-change (2. order) : 0.5734854E+01  (-0.1911360E+03)
 number of electron     501.9999998 magnetization 
 augmentation part      137.2716032 magnetization 

 Broyden mixing:
  rms(total) = 0.98148E+01    rms(broyden)= 0.98131E+01
  rms(prec ) = 0.16441E+02
  weight for this iteration     100.00

 eigenvalues of (default mixing * dielectric matrix)
  average eigenvalue GAMMA=   0.4313
  0.4313

 Free energy of the ion-electron system (eV)
  ---------------------------------------------------
  alpha Z        PSCENC =      3781.08932073
  Ewald energy   TEWEN  =    -41815.68327742
  -Hartree energ DENC   =    -10441.65188871
  -exchange      EXHF   =         0.00000000
  -V(xc)+E(xc)   XCENC  =      1759.47269687
  PAW double counting   =     32467.04739905   -32250.17457533
  entropy T*S    EENTRO =        -0.14213750
  eigenvalues    EBANDS =     -5803.56849292
  atomic energy  EATOM  =     51526.89477174
  Solvation  Ediel_sol  =         0.00000000
  ---------------------------------------------------
  free energy    TOTEN  =      -776.71618349 eV

  energy without entropy =     -776.57404600  energy(sigma->0) =     -776.64511475


--------------------------------------------------------------------------------------------------------




--------------------------------------- Iteration      1(   7)  ---------------------------------------


    POTLOK:  cpu time    0.0173: real time    0.0202
    SETDIJ:  cpu time    0.0063: real time    0.0063
    EDDIAG:  cpu time    1.4060: real time    1.4081
  RMM-DIIS:  cpu time   16.5924: real time   16.6282
    ORTHCH:  cpu time    0.3918: real time    0.3924
       DOS:  cpu time    0.0011: real time    0.0011
    CHARGE:  cpu time    0.1564: real time    0.1566
    MIXING:  cpu time    0.0009: real time    0.0019
    --------------------------------------------
      LOOP:  cpu time   18.5723: real time   18.6150

 eigenvalue-minimisations  : 13244
 total energy-change (2. order) : 0.1132383E+03  (-0.3026889E+02)
 number of electron     502.0000065 magnetization 
 augmentation part      112.7916493 magnetization 

 Broyden mixing:
  rms(total) = 0.58649E+01    rms(broyden)= 0.58621E+01
  rms(prec ) = 0.10586E+02
  weight for this iteration     100.00

 eigenvalues of (default mixing * dielectric matrix)
  average eigenvalue GAMMA=   0.4640
  0.6699  0.2580

 Free energy of the ion-electron system (eV)
  ---------------------------------------------------
  alpha Z        PSCENC =      3781.08932073
  Ewald energy   TEWEN  =    -41815.68327742
  -Hartree energ DENC   =    -10888.07632674
  -exchange      EXHF   =         0.00000000
  -V(xc)+E(xc)   XCENC  =      1775.02309164
  PAW double counting   =     33629.81157374   -33469.42353807
  entropy T*S    EENTRO =        -0.16487438
  eigenvalues    EBANDS =     -5202.94867357
  atomic energy  EATOM  =     51526.89477174
  Solvation  Ediel_sol  =         0.00000000
  ---------------------------------------------------
  free energy    TOTEN  =      -663.47793232 eV

  energy without entropy =     -663.31305794  energy(sigma->0) =     -663.39549513


--------------------------------------------------------------------------------------------------------




--------------------------------------- Iteration      1(   8)  ---------------------------------------


    POTLOK:  cpu time    0.0200: real time    0.0203
    SETDIJ:  cpu time    0.0063: real time    0.0063
    EDDIAG:  cpu time    1.4053: real time    1.4078
  RMM-DIIS:  cpu time   17.2563: real time   17.2938
    ORTHCH:  cpu time    0.4040: real time    0.4046
       DOS:  cpu time    0.0011: real time    0.0011
    CHARGE:  cpu time    0.1559: real time    0.1561
    MIXING:  cpu time    0.0008: real time    0.0014
    --------------------------------------------
      LOOP:  cpu time   19.2496: real time   19.2912

 eigenvalue-minimisations  : 13765
 total energy-change (2. order) : 0.2974498E+02  (-0.9040031E+01)
 number of electron     502.0000063 magnetization 
 augmentation part      113.7359384 magnetization 

 Broyden mixing:
  rms(total) = 0.27069E+01    rms(broyden)= 0.27010E+01
  rms(prec ) = 0.46448E+01
  weight for this iteration     100.00

 eigenvalues of (default mixing * dielectric matrix)
  average eigenvalue GAMMA=   0.4604
  0.7624  0.3977  0.2212

 Free energy of the ion-electron system (eV)
  ---------------------------------------------------
  alpha Z        PSCENC =      3781.08932073
  Ewald energy   TEWEN  =    -41815.68327742
  -Hartree energ DENC   =    -10885.04191364
  -exchange      EXHF   =         0.00000000
  -V(xc)+E(xc)   XCENC  =      1774.59280563
  PAW double counting   =     34019.05217760   -33857.04029005
  entropy T*S    EENTRO =        -0.14585597
  eigenvalues    EBANDS =     -5177.45068606
  atomic energy  EATOM  =     51526.89477174
  Solvation  Ediel_sol  =         0.00000000
  ---------------------------------------------------
  free energy    TOTEN  =      -633.73294743 eV

  energy without entropy =     -633.58709146  energy(sigma->0) =     -633.66001945


--------------------------------------------------------------------------------------------------------




--------------------------------------- Iteration      1(   9)  ---------------------------------------


    POTLOK:  cpu time    0.0166: real time    0.0196
    SETDIJ:  cpu time    0.0063: real time    0.0063
    EDDIAG:  cpu time    1.4126: real time    1.4155
  RMM-DIIS:  cpu time   17.6504: real time   17.6810
    ORTHCH:  cpu time    0.3921: real time    0.3922
       DOS:  cpu time    0.0011: real time    0.0011
    CHARGE:  cpu time    0.1571: real time    0.1571
    MIXING:  cpu time    0.0008: real time    0.0008
    --------------------------------------------
      LOOP:  cpu time   19.6369: real time   19.6735

 eigenvalue-minimisations  : 14108
 total energy-change (2. order) : 0.8997360E+01  (-0.2816898E+01)
 number of electron     502.0000067 magnetization 
 augmentation part      113.7139106 magnetization 

 Broyden mixing:
  rms(total) = 0.17383E+01    rms(broyden)= 0.17366E+01
  rms(prec ) = 0.27851E+01
  weight for this iteration     100.00

 eigenvalues of (default mixing * dielectric matrix)
  average eigenvalue GAMMA=   0.3953
  0.7220  0.3651  0.2703  0.2238

 Free energy of the ion-electron system (eV)
  ---------------------------------------------------
  alpha Z        PSCENC =      3781.08932073
  Ewald energy   TEWEN  =    -41815.68327742
  -Hartree energ DENC   =    -10796.76528177
  -exchange      EXHF   =         0.00000000
  -V(xc)+E(xc)   XCENC  =      1770.67960642
  PAW double counting   =     34155.24508097   -33991.81172583
  entropy T*S    EENTRO =        -0.15453573
  eigenvalues    EBANDS =     -5254.22954627
  atomic energy  EATOM  =     51526.89477174
  Solvation  Ediel_sol  =         0.00000000
  ---------------------------------------------------
  free energy    TOTEN  =      -624.73558716 eV

  energy without entropy =     -624.58105143  energy(sigma->0) =     -624.65831929


--------------------------------------------------------------------------------------------------------




--------------------------------------- Iteration      1(  10)  ---------------------------------------


    POTLOK:  cpu time    0.0172: real time    0.0206
    SETDIJ:  cpu time    0.0064: real time    0.0064
    EDDIAG:  cpu time    1.4080: real time    1.4086
  RMM-DIIS:  cpu time   18.0083: real time   18.0473
    ORTHCH:  cpu time    0.3902: real time    0.3903
       DOS:  cpu time    0.0011: real time    0.0011
    CHARGE:  cpu time    0.1568: real time    0.1568
    MIXING:  cpu time    0.0008: real time    0.0008
    --------------------------------------------
      LOOP:  cpu time   19.9888: real time   20.0319

 eigenvalue-minimisations  : 14085
 total energy-change (2. order) : 0.7156472E+00  (-0.1087590E+01)
 number of electron     502.0000067 magnetization 
 augmentation part      113.8976617 magnetization 

 Broyden mixing:
  rms(total) = 0.13572E+01    rms(broyden)= 0.13556E+01
  rms(prec ) = 0.21121E+01
  weight for this iteration     100.00

 eigenvalues of (default mixing * dielectric matrix)
  average eigenvalue GAMMA=   0.4535
  0.7320  0.7320  0.4472  0.2224  0.1341

 Free energy of the ion-electron system (eV)
  ---------------------------------------------------
  alpha Z        PSCENC =      3781.08932073
  Ewald energy   TEWEN  =    -41815.68327742
  -Hartree energ DENC   =    -10788.03435522
  -exchange      EXHF   =         0.00000000
  -V(xc)+E(xc)   XCENC  =      1769.93544103
  PAW double counting   =     34236.99787294   -34070.34735768
  entropy T*S    EENTRO =        -0.14560174
  eigenvalues    EBANDS =     -5264.72675430
  atomic energy  EATOM  =     51526.89477174
  Solvation  Ediel_sol  =         0.00000000
  ---------------------------------------------------
  free energy    TOTEN  =      -624.01993991 eV

  energy without entropy =     -623.87433817  energy(sigma->0) =     -623.94713904


--------------------------------------------------------------------------------------------------------




--------------------------------------- Iteration      1(  11)  ---------------------------------------


    POTLOK:  cpu time    0.0196: real time    0.0199
    SETDIJ:  cpu time    0.0063: real time    0.0063
    EDDIAG:  cpu time    1.3993: real time    1.3998
  RMM-DIIS:  cpu time   17.8440: real time   17.8881
    ORTHCH:  cpu time    0.3993: real time    0.3997
       DOS:  cpu time    0.0010: real time    0.0010
    CHARGE:  cpu time    0.1556: real time    0.1556
    MIXING:  cpu time    0.0008: real time    0.0008
    --------------------------------------------
      LOOP:  cpu time   19.8260: real time   19.8712

 eigenvalue-minimisations  : 14246
 total energy-change (2. order) : 0.6007635E+00  (-0.5613050E+00)
 number of electron     502.0000069 magnetization 
 augmentation part      113.9602165 magnetization 

 Broyden mixing:
  rms(total) = 0.10721E+01    rms(broyden)= 0.10711E+01
  rms(prec ) = 0.15985E+01
  weight for this iteration     100.00

 eigenvalues of (default mixing * dielectric matrix)
  average eigenvalue GAMMA=   0.4808
  0.9353  0.9353  0.4368  0.2284  0.2284  0.1206

 Free energy of the ion-electron system (eV)
  ---------------------------------------------------
  alpha Z        PSCENC =      3781.08932073
  Ewald energy   TEWEN  =    -41815.68327742
  -Hartree energ DENC   =    -10782.00635843
  -exchange      EXHF   =         0.00000000
  -V(xc)+E(xc)   XCENC  =      1769.10880948
  PAW double counting   =     34394.37920264   -34221.90894580
  entropy T*S    EENTRO =        -0.14687232
  eigenvalues    EBANDS =     -5275.14582708
  atomic energy  EATOM  =     51526.89477174
  Solvation  Ediel_sol  =         0.00000000
  ---------------------------------------------------
  free energy    TOTEN  =      -623.41917645 eV

  energy without entropy =     -623.27230412  energy(sigma->0) =     -623.34574028


--------------------------------------------------------------------------------------------------------




--------------------------------------- Iteration      1(  12)  ---------------------------------------


    POTLOK:  cpu time    0.0201: real time    0.0204
    SETDIJ:  cpu time    0.0063: real time    0.0063
    EDDIAG:  cpu time    1.4131: real time    1.4138
  RMM-DIIS:  cpu time   18.1651: real time   18.2407
    ORTHCH:  cpu time    0.3922: real time    0.3927
       DOS:  cpu time    0.0011: real time    0.0011
    CHARGE:  cpu time    0.1555: real time    0.1557
    MIXING:  cpu time    0.0010: real time    0.0010
    --------------------------------------------
      LOOP:  cpu time   20.1544: real time   20.2317

 eigenvalue-minimisations  : 14412
 total energy-change (2. order) : 0.2851464E+00  (-0.2831962E+00)
 number of electron     502.0000069 magnetization 
 augmentation part      113.8020601 magnetization 

 Broyden mixing:
  rms(total) = 0.10374E+01    rms(broyden)= 0.10363E+01
  rms(prec ) = 0.16123E+01
  weight for this iteration     100.00

 eigenvalues of (default mixing * dielectric matrix)
  average eigenvalue GAMMA=   0.5102
  1.1121  1.1121  0.4230  0.4230  0.2286  0.1574  0.1153

 Free energy of the ion-electron system (eV)
  ---------------------------------------------------
  alpha Z        PSCENC =      3781.08932073
  Ewald energy   TEWEN  =    -41815.68327742
  -Hartree energ DENC   =    -10777.73351284
  -exchange      EXHF   =         0.00000000
  -V(xc)+E(xc)   XCENC  =      1768.46396066
  PAW double counting   =     34542.81038731   -34364.85293365
  entropy T*S    EENTRO =        -0.14661491
  eigenvalues    EBANDS =     -5283.97613168
  atomic energy  EATOM  =     51526.89477174
  Solvation  Ediel_sol  =         0.00000000
  ---------------------------------------------------
  free energy    TOTEN  =      -623.13403004 eV

  energy without entropy =     -622.98741513  energy(sigma->0) =     -623.06072259


--------------------------------------------------------------------------------------------------------




--------------------------------------- Iteration      1(  13)  ---------------------------------------


    POTLOK:  cpu time    0.0174: real time    0.0203
    SETDIJ:  cpu time    0.0063: real time    0.0063
    EDDIAG:  cpu time    1.4052: real time    1.4079
  RMM-DIIS:  cpu time   17.3112: real time   17.3425
    ORTHCH:  cpu time    0.3894: real time    0.3901
       DOS:  cpu time    0.0010: real time    0.0010
    CHARGE:  cpu time    0.1551: real time    0.1553
    MIXING:  cpu time    0.0009: real time    0.0010
    --------------------------------------------
      LOOP:  cpu time   19.2867: real time   19.3245

 eigenvalue-minimisations  : 13856
 total energy-change (2. order) : 0.1163900E+00  (-0.2687488E+00)
 number of electron     502.0000068 magnetization 
 augmentation part      113.7980194 magnetization 

 Broyden mixing:
  rms(total) = 0.89954E+00    rms(broyden)= 0.89847E+00
  rms(prec ) = 0.14304E+01
  weight for this iteration     100.00

 eigenvalues of (default mixing * dielectric matrix)
  average eigenvalue GAMMA=   0.5866
  1.4332  1.4332  0.6670  0.4406  0.2608  0.2157  0.1333  0.1092

 Free energy of the ion-electron system (eV)
  ---------------------------------------------------
  alpha Z        PSCENC =      3781.08932073
  Ewald energy   TEWEN  =    -41815.68327742
  -Hartree energ DENC   =    -10774.21219525
  -exchange      EXHF   =         0.00000000
  -V(xc)+E(xc)   XCENC  =      1767.79585049
  PAW double counting   =     34729.93441166   -34544.37833852
  entropy T*S    EENTRO =        -0.15122510
  eigenvalues    EBANDS =     -5294.30695833
  atomic energy  EATOM  =     51526.89477174
  Solvation  Ediel_sol  =         0.00000000
  ---------------------------------------------------
  free energy    TOTEN  =      -623.01763999 eV

  energy without entropy =     -622.86641489  energy(sigma->0) =     -622.94202744


[...]
  0.006   0.059   0.002   0.005   0.000   0.048   0.117  -0.019  -0.002   0.027   0.769  -0.016   0.059   0.011  -0.013  -0.700
 -0.001  -0.015  -0.000  -0.001   0.001  -0.002  -0.005   0.015   0.013  -0.009  -0.016   0.823   0.002  -0.005  -0.000   0.004
 -0.007  -0.068   0.003   0.000  -0.000   0.074   0.000   0.033   0.018  -0.023   0.059   0.002   0.706  -0.003   0.014  -0.037
 -0.001  -0.015   0.002   0.000  -0.005   0.000   0.002  -0.003  -0.234   0.005   0.011  -0.005  -0.003   0.290   0.002  -0.009
 -0.008  -0.029   0.006  -0.005   0.000  -0.003   0.001   0.002   0.005  -0.346  -0.013  -0.000   0.014   0.002   0.335   0.021
 -0.014  -0.078  -0.007  -0.020   0.002  -0.046  -0.135   0.023   0.011  -0.014  -0.700   0.004  -0.037  -0.009   0.021   0.878
  0.001   0.013   0.000   0.003   0.004   0.001   0.006  -0.007  -0.005  -0.001   0.004  -0.237   0.010  -0.001  -0.001  -0.014
  0.014   0.078  -0.011  -0.001  -0.002  -0.083  -0.003  -0.035  -0.003   0.016  -0.037   0.010  -0.633   0.006  -0.021   0.018


------------------------ aborting loop because EDIFF is reached ----------------------------------------


    CHARGE:  cpu time    0.1538: real time    0.1541
    FORLOC:  cpu time    0.0091: real time    0.0091
    FORNL :  cpu time   12.3601: real time   12.3999
    STRESS:  cpu time   22.9513: real time   22.9998
    FORCOR:  cpu time    0.0208: real time    0.0208
    FORHAR:  cpu time    0.0120: real time    0.0120
    MIXING:  cpu time    0.0007: real time    0.0007
    OFIELD:  cpu time    0.0000: real time    0.0000

  FORCE on cell =-STRESS in cart. coord.  units (eV):
  Direction    XX          YY          ZZ          XY          YZ          ZX
  --------------------------------------------------------------------------------------
  Alpha Z  3781.22569  3781.22569  3781.22569
  Ewald  -14013.17354-13841.49861-13962.26985   167.07839   223.99489    46.59945
  Hartree  3459.44088  3671.14665  3658.81923   186.31084   162.21303     7.51228
  E(xc)   -2435.65821 -2434.96135 -2436.58642    -0.15554     0.21118     0.15616
  Local    1772.77477  1378.21935  1503.89435  -351.73577  -388.98435   -55.28912
  n-local -1521.29139 -1533.57574 -1521.79213    -0.14148    -1.34869    -0.21663
  augment  1158.25556  1164.34460  1162.59043    -1.04174     1.48959     1.16607
  Kinetic  7798.42088  7815.07973  7814.13624    -0.30635     2.42305     0.07423
  Fock        0.00000     0.00000     0.00000     0.00000     0.00000     0.00000
  -------------------------------------------------------------------------------------
  Total      -0.00536    -0.01967     0.01754     0.00833    -0.00130     0.00243
  in kB      -0.01368    -0.05020     0.04476     0.02127    -0.00332     0.00621
  external pressure =       -0.01 kB  Pullay stress =        0.00 kB


 VOLUME and BASIS-vectors are now :
 -----------------------------------------------------------------------------
  energy-cutoff  :      400.00
  volume of cell :      627.91
      direct lattice vectors                 reciprocal lattice vectors
     8.537141234 -0.009284872  0.005261612     0.117135586  0.000050051 -0.000489743
    -0.003587809  8.550893615  0.015757350     0.000127196  0.116946912 -0.000009555
     0.035962327  0.000663689  8.601460880    -0.000071886 -0.000214270  0.116259638

  length of vectors
     8.537147905  8.550908886  8.601536083     0.117136621  0.116946982  0.116259858


 FORCES acting on ions
    electron-ion (+dipol)            ewald-force                    non-local-force                 convergence-correction
 -----------------------------------------------------------------------------------------------
   0.127E+03 0.835E+02 -.450E+02   -.126E+03 -.839E+02 0.449E+02   -.967E+00 0.471E+00 0.145E+00   -.944E-03 0.301E-02 -.528E-02
   0.116E+03 0.715E+02 -.185E+03   -.115E+03 -.728E+02 0.185E+03   -.168E+01 0.136E+01 -.367E+00   -.662E-02 0.370E-02 -.154E-02
   0.120E+03 -.428E+02 -.135E+03   -.121E+03 0.439E+02 0.134E+03   0.838E+00 -.107E+01 0.640E+00   -.652E-03 -.414E-02 0.212E-02
   -.218E+03 -.145E+03 -.203E+02   0.217E+03 0.144E+03 0.198E+02   0.116E+01 0.572E+00 0.456E+00   0.465E-03 -.354E-02 -.427E-02
   -.170E+03 -.312E+03 0.183E+03   0.169E+03 0.313E+03 -.182E+03   0.795E+00 -.128E+01 -.955E+00   0.615E-03 0.237E-03 0.192E-02
   0.263E+03 -.170E+03 0.154E+03   -.261E+03 0.170E+03 -.154E+03   -.168E+01 -.266E+00 0.819E-01   0.480E-04 -.212E-02 0.120E-02
   -.179E+03 0.334E+03 0.160E+03   0.177E+03 -.334E+03 -.160E+03   0.164E+01 0.779E+00 -.406E+00   0.110E-02 0.467E-04 0.301E-02
   0.175E+03 -.788E+02 -.129E+03   -.175E+03 0.796E+02 0.128E+03   -.335E+00 -.860E+00 0.479E+00   -.822E-03 -.419E-02 0.216E-02
   -.138E+03 0.266E+03 -.132E+03   0.137E+03 -.266E+03 0.132E+03   0.116E+01 -.689E-01 -.634E-01   0.112E-02 0.520E-02 -.599E-02
   0.165E+03 -.626E+02 0.127E+03   -.165E+03 0.615E+02 -.127E+03   -.196E+00 0.110E+01 -.483E+00   -.541E-04 -.596E-02 -.187E-02
   -.558E+02 -.162E+03 0.603E+02   0.552E+02 0.161E+03 -.596E+02   0.605E+00 0.682E+00 -.671E+00   0.311E-02 0.159E-03 0.311E-02
   0.192E+03 0.431E+02 0.223E+03   -.192E+03 -.421E+02 -.223E+03   -.234E+00 -.977E+00 -.325E-01   -.172E-03 0.712E-02 -.251E-02
   -.223E+02 -.559E+02 0.136E+03   0.225E+02 0.559E+02 -.136E+03   -.220E+00 -.552E-02 -.234E+00   0.269E-02 -.234E-02 -.332E-02
   0.969E+02 -.116E+03 -.312E+02   -.966E+02 0.117E+03 0.311E+02   -.220E+00 -.296E+00 0.891E-01   0.419E-03 -.372E-02 -.427E-02
   -.142E+03 -.180E+03 -.184E+03   0.141E+03 0.179E+03 0.184E+03   0.735E+00 0.109E+01 0.345E+00   0.634E-03 0.261E-02 -.133E-02
   -.173E+03 0.164E+03 -.242E+03   0.172E+03 -.164E+03 0.243E+03   0.148E+01 0.232E+00 -.852E+00   0.554E-02 0.306E-02 -.157E-02
   -.120E+03 -.255E+03 -.598E+02   0.120E+03 0.255E+03 0.593E+02   0.239E-01 -.521E+00 0.430E+00   -.629E-03 -.375E-02 -.329E-02
   0.927E+02 0.108E+03 -.516E+02   -.911E+02 -.108E+03 0.514E+02   -.164E+01 0.935E-01 0.203E+00   -.106E-02 0.415E-02 -.548E-02
   0.661E+02 -.898E+02 0.425E+02   -.657E+02 0.904E+02 -.425E+02   -.342E+00 -.582E+00 0.221E-01   -.310E-02 0.767E-03 0.391E-02
   0.153E+03 0.859E+02 0.576E+02   -.153E+03 -.864E+02 -.575E+02   0.108E-02 0.526E+00 -.120E+00   -.487E-02 -.652E-03 0.577E-02
   0.290E+02 -.277E+02 -.505E+02   -.278E+02 0.276E+02 0.508E+02   -.119E+01 0.610E-01 -.299E+00   -.445E-03 -.221E-03 0.854E-04
   0.113E+02 0.248E+02 0.262E+01   -.106E+02 -.251E+02 -.355E+01   -.671E+00 0.211E+00 0.942E+00   -.330E-02 0.828E-03 -.356E-02
   0.539E+02 -.709E+02 -.120E+02   -.545E+02 0.719E+02 0.120E+02   0.614E+00 -.910E+00 0.834E-02   -.301E-03 -.461E-02 -.941E-03
   -.358E+02 -.118E+03 -.614E+02   0.349E+02 0.116E+03 0.602E+02   0.967E+00 0.155E+01 0.113E+01   0.583E-03 -.450E-03 -.203E-03
   -.840E+02 0.248E+02 -.769E+02   0.867E+02 -.234E+02 0.794E+02   -.271E+01 -.143E+01 -.248E+01   0.299E-02 0.745E-03 -.436E-02
   -.228E+02 0.708E+02 -.103E+03   0.221E+02 -.731E+02 0.105E+03   0.666E+00 0.225E+01 -.184E+01   0.766E-03 0.279E-02 -.678E-03
   0.141E+03 -.126E+03 -.315E+02   -.141E+03 0.126E+03 0.317E+02   -.318E+00 -.171E+00 -.203E+00   -.478E-03 -.120E-02 0.366E-02
   -.436E+02 0.605E+02 -.473E+02   0.418E+02 -.604E+02 0.486E+02   0.175E+01 -.994E-01 -.128E+01   0.145E-03 -.816E-03 -.370E-02
   0.772E+02 0.291E+02 0.127E+03   -.796E+02 -.291E+02 -.125E+03   0.241E+01 0.204E-01 -.120E+01   0.360E-03 0.350E-03 0.764E-03
   -.516E+02 -.118E+03 0.689E+02   0.508E+02 0.117E+03 -.683E+02   0.766E+00 0.995E+00 -.605E+00   -.166E-03 -.286E-02 0.468E-03
   -.111E+03 0.118E+03 -.126E+02   0.109E+03 -.119E+03 0.145E+02   0.198E+01 0.810E+00 -.190E+01   0.361E-02 0.995E-03 0.224E-02
   -.719E+02 -.138E+03 0.426E+02   0.713E+02 0.137E+03 -.435E+02   0.590E+00 0.991E+00 0.899E+00   0.585E-04 0.267E-02 0.154E-02
   -.227E+02 0.329E+02 0.226E+02   0.222E+02 -.334E+02 -.214E+02   0.539E+00 0.477E+00 -.127E+01   0.134E-02 0.106E-02 0.266E-02
   0.702E+02 0.659E+02 -.136E+03   -.710E+02 -.649E+02 0.134E+03   0.853E+00 -.100E+01 0.116E+01   -.402E-03 0.836E-03 -.940E-03
   -.343E+02 -.553E+02 -.337E+02   0.343E+02 0.560E+02 0.341E+02   0.147E-01 -.681E+00 -.355E+00   0.207E-03 0.154E-02 -.155E-02
   0.822E+02 0.230E+02 -.277E+02   -.813E+02 -.226E+02 0.276E+02   -.928E+00 -.429E+00 0.154E+00   -.215E-02 0.332E-03 -.110E-03
   0.358E+02 -.145E+02 -.853E+01   -.358E+02 0.144E+02 0.932E+01   0.206E-01 0.375E-01 -.783E+00   0.276E-02 -.103E-02 -.103E-02
   0.420E+02 0.394E+02 -.792E+02   -.414E+02 -.392E+02 0.790E+02   -.657E+00 -.222E+00 0.206E+00   -.183E-03 0.486E-02 -.881E-03
   -.103E+03 0.893E+02 -.104E+03   0.102E+03 -.879E+02 0.103E+03   0.506E+00 -.139E+01 0.885E+00   0.208E-02 0.665E-03 -.623E-04
   -.259E+02 -.201E+02 -.294E+02   0.264E+02 0.191E+02 0.299E+02   -.508E+00 0.937E+00 -.557E+00   -.268E-02 -.122E-02 -.822E-03
   -.133E+03 0.160E+02 -.906E+02   0.131E+03 -.166E+02 0.893E+02   0.159E+01 0.544E+00 0.133E+01   0.758E-03 -.270E-02 -.606E-03
   0.563E+02 -.495E+02 0.353E+02   -.559E+02 0.496E+02 -.353E+02   -.332E+00 -.161E+00 0.192E-01   0.200E-03 -.207E-02 0.717E-05
   0.129E+03 0.148E+02 0.380E+02   -.128E+03 -.149E+02 -.389E+02   -.727E+00 0.170E+00 0.910E+00   -.363E-02 0.884E-03 0.274E-02
   0.507E+02 0.529E+02 0.176E+02   -.498E+02 -.517E+02 -.175E+02   -.856E+00 -.124E+01 -.326E-01   -.160E-04 0.159E-03 0.853E-03
   0.429E+02 0.403E+02 0.261E+02   -.425E+02 -.404E+02 -.261E+02   -.379E+00 0.933E-01 -.634E-01   -.256E-03 0.215E-02 -.479E-04
   -.519E+02 -.144E+02 0.479E+01   0.506E+02 0.146E+02 -.557E+01   0.129E+01 -.186E+00 0.776E+00   -.125E-02 -.889E-03 0.145E-02
   0.119E+03 -.468E+02 0.808E+02   -.118E+03 0.457E+02 -.804E+02   -.145E+01 0.109E+01 -.402E+00   -.145E-04 -.778E-04 0.132E-02
   0.107E+03 -.712E+01 0.253E+02   -.107E+03 0.689E+01 -.258E+02   -.405E+00 0.232E+00 0.443E+00   -.126E-03 -.763E-03 -.419E-02
   -.654E+02 0.118E+03 0.123E+03   0.652E+02 -.117E+03 -.123E+03   0.178E+00 -.124E+01 0.247E+00   0.158E-04 0.287E-02 0.408E-03
   0.565E+02 -.858E+02 0.248E+02   -.551E+02 0.849E+02 -.250E+02   -.142E+01 0.979E+00 0.297E+00   0.114E-02 -.832E-03 0.103E-02
   -.120E+03 0.985E+02 0.183E+02   0.119E+03 -.966E+02 -.187E+02   0.987E+00 -.184E+01 0.358E+00   0.221E-03 -.219E-02 0.332E-02
   -.108E+03 -.214E+02 0.110E+03   0.108E+03 0.213E+02 -.109E+03   0.485E+00 0.630E-01 -.997E+00   -.401E-04 -.790E-03 0.428E-03
   0.245E+01 0.113E+03 -.126E+03   -.355E+01 -.112E+03 0.128E+03   0.110E+01 -.764E+00 -.236E+01   0.206E-02 0.333E-02 -.734E-02
   0.193E+03 0.108E+02 -.143E+03   -.192E+03 -.934E+01 0.143E+03   -.100E+01 -.148E+01 0.212E+00   -.748E-03 -.841E-03 -.261E-02
   -.241E+03 0.839E+02 -.990E+02   0.239E+03 -.833E+02 0.996E+02   0.146E+01 -.586E+00 -.590E+00   0.848E-03 -.296E-02 0.634E-04
   0.244E+03 0.726E+02 0.773E+02   -.244E+03 -.733E+02 -.778E+02   0.407E+00 0.724E+00 0.432E+00   -.505E-02 0.170E-02 0.261E-02
   -.219E+03 0.513E+02 0.270E+03   0.217E+03 -.525E+02 -.269E+03   0.124E+01 0.122E+01 -.223E+00   -.203E-02 0.266E-02 0.737E-02
   -.315E+03 0.593E+02 0.312E+03   0.315E+03 -.602E+02 -.311E+03   0.412E+00 0.869E+00 -.879E+00   0.500E-02 0.135E-02 0.406E-03
   0.121E+03 0.616E+02 -.104E+03   -.121E+03 -.617E+02 0.104E+03   -.638E+00 0.876E-01 0.250E-02   -.399E-03 0.176E-02 0.876E-03
   -.803E+02 -.508E+02 -.932E+02   0.794E+02 0.516E+02 0.923E+02   0.887E+00 -.831E+00 0.877E+00   0.279E-03 -.187E-02 0.702E-03
   0.109E+03 0.816E+02 -.498E+01   -.108E+03 -.815E+02 0.399E+01   -.910E+00 -.735E-01 0.989E+00   -.327E-03 0.824E-03 0.229E-02
   -.127E+03 -.423E+01 -.632E+01   0.126E+03 0.494E+01 0.655E+01   0.917E+00 -.709E+00 -.234E+00   0.699E-04 -.173E-02 0.222E-02
   0.811E+00 -.200E+02 0.938E+02   -.141E+01 0.208E+02 -.931E+02   0.603E+00 -.870E+00 -.733E+00   -.102E-02 -.784E-03 -.116E-02
   -.693E+02 0.501E+02 0.415E+02   0.693E+02 -.503E+02 -.413E+02   -.172E-01 0.110E+00 -.165E+00   0.208E-02 -.185E-04 0.246E-02
 -----------------------------------------------------------------------------------------------
   -.905E+01 0.824E+00 0.844E+01   -.128E-12 0.576E-12 -.213E-12   0.905E+01 -.817E+00 -.845E+01   -.618E-03 0.407E-02 -.103E-01
 
 
 POSITION                                       TOTAL-FORCE (eV/Angst)
 -----------------------------------------------------------------------------------
      0.08546      8.41370      0.18386         0.000418     -0.000325     -0.000539
      2.04657      8.42121      2.15137        -0.000509     -0.000180     -0.000171
      2.25840      4.38491      2.11961        -0.002192      0.000029     -0.000215
      4.28483      4.10629      8.57336         0.000028     -0.001302     -0.000343
      4.16646      2.05287      6.51325        -0.000761      0.000306      0.000668
      0.06367      4.24348      4.48972         0.000316     -0.000816      0.000111
      4.31345      6.44443      6.32995         0.000303      0.000724     -0.000761
      0.01413      2.22322      2.16162         0.000318     -0.000028      0.000102
      6.33531      6.40926      0.02766        -0.000871     -0.001385     -0.000345
      0.09633      2.05092      6.45622         0.000363     -0.000653     -0.000477
      6.41208      2.13726      4.37875         0.000533      0.000634      0.000241
      0.04045      6.48345      6.45297         0.000561     -0.001292      0.000535
      2.20034      4.28394      6.48523         0.000828      0.000810      0.000769
      2.12548      2.09359      0.01883        -0.000013     -0.000442      0.000064
      4.22628      2.05778      2.11291         0.000502     -0.000794     -0.000108
      6.31516      8.49116      2.19011        -0.001819      0.001677      0.000381
      6.43213      2.11027      8.56474        -0.000035      0.000395      0.000086
      2.29691      6.45755      8.61229         0.000193      0.000931      0.000380
      2.16753      2.13819      4.28264        -0.000186     -0.000102      0.000218
      2.15741      6.42074      4.28974         0.000635     -0.000457     -0.001088
      2.16293      2.13455      2.14276        -0.001492     -0.000389     -0.000375
      2.19728      0.00280      8.59007         0.000203      0.000264      0.000436
      0.00621      2.08479      0.01705         0.000741      0.000871     -0.000077
      6.35180      2.06735      2.13918         0.000507     -0.000334      0.000829
      6.43137      0.01799      0.02706        -0.000482     -0.001273     -0.001404
      4.25634      0.00850      2.00182        -0.000026      0.000458      0.000190
      0.04261      4.27230      2.12560         0.000249     -0.001542     -0.001614
      4.30055      6.44239      8.55228         0.002074     -0.000918      0.001456
      0.06392      0.00792      6.50313        -0.001432      0.001049      0.000155
      6.38561      2.02483      6.48832         0.000352      0.000037     -0.000529
      6.37830      0.01331      4.26836        -0.000596      0.001328      0.001697
      4.25975      2.08642      4.30795         0.001177      0.001139     -0.000219
      4.29438      8.53790      6.49717         0.002008     -0.001269      0.000552
      8.51916      0.00997      2.11849         0.000090     -0.001370      0.002044
      4.29722      2.13231      8.57630         0.000275      0.000083      0.000060
      2.25503      6.42672      2.15054        -0.002013      0.000530     -0.000378
      2.12059      4.28239      0.05894         0.000005     -0.000181     -0.001919
      0.06146      6.40802      0.02002        -0.000227     -0.001415      0.000020
      6.34084      6.40124      2.15896        -0.000082     -0.001681     -0.000723
      6.46281      4.23236      0.03811         0.001680      0.002476     -0.000189
      4.18878      4.28560      2.08668         0.006086      0.000573      0.001369
      2.21517      2.07919      6.45993         0.000296      0.000590     -0.000515
      2.19448      0.00219      4.26924        -0.000178     -0.000194      0.000596
      0.05557      2.19120      4.31058        -0.000674     -0.001218     -0.000425
      2.23715      6.48958      6.44929        -0.000770     -0.000959     -0.000416
      2.11965      4.28482      4.24392         0.001509     -0.000087     -0.000033
      0.04226      6.38384      4.29627         0.000074      0.001138     -0.000290
      0.02758      4.27984      6.47954         0.000989      0.000867      0.001727
      6.37476      6.52590      6.42041         0.000213     -0.000175      0.001240
      6.49626      4.24463      4.30112        -0.000970      0.000201      0.000452
      4.27393      6.57025      4.26858        -0.000165     -0.002665     -0.002409
      4.32524      4.25358      6.47718         0.000540      0.000415     -0.001880
      4.38074      0.18355      8.58322         0.000284      0.000696      0.000224
      0.08081      4.47131      8.40913        -0.001129      0.003183     -0.003685
      4.27314      6.25950      2.36451         0.001523     -0.002673      0.001744
      2.25325      0.02508      6.37517        -0.002874     -0.000757      0.001102
      4.05793      8.53178      4.57976        -0.003144      0.001731      0.002624
      6.16435      8.42925      6.75947        -0.000750      0.000365      0.001617
      0.06149      6.44740      2.16183         0.001603     -0.000209     -0.000727
      6.21143      4.29662      2.13282        -0.004395      0.000823     -0.000487
      0.11172      0.04643      4.16403        -0.000857      0.001181     -0.000666
      4.28306      4.36061      4.28276         0.001017      0.002355     -0.001999
      6.40082      4.36739      6.51713         0.000316     -0.000359      0.001103
      6.41562      6.28811      4.28152        -0.000167     -0.000416      0.000211
 -----------------------------------------------------------------------------------
    total drift:                               -0.004629      0.011493     -0.021274


--------------------------------------------------------------------------------------------------------



  FREE ENERGIE OF THE ION-ELECTRON SYSTEM (eV)
  ---------------------------------------------------
  free  energy   TOTEN  =      -622.72465212 eV

  energy  without entropy=     -622.57591769  energy(sigma->0) =     -622.65028490
 
 d Force = 0.1468549E-05[-0.425E-06, 0.336E-05]  d Energy = 0.1179294E-05 0.289E-06
 d Force =-0.4405485E-02[-0.441E-02,-0.440E-02]  d Ewald  =-0.6768221E-01 0.633E-01


--------------------------------------------------------------------------------------------------------


    POTLOK:  cpu time    0.0248: real time    0.0248


--------------------------------------------------------------------------------------------------------




--------------------------------------------------------------------------------------------------------


  
 reached required accuracy - stopping structural energy minimisation
     LOOP+:  cpu time   82.3347: real time   82.6022
    4ORBIT:  cpu time    0.0000: real time    0.0000

 total amount of memory used by VASP MPI-rank0   247060. kBytes
=======================================================================

   base      :      30000. kBytes
   nonl-proj :     173276. kBytes
   fftplans  :       1252. kBytes
   grid      :       5755. kBytes
   one-center:        995. kBytes
   wavefun   :      35782. kBytes
 
  
  
 General timing and accounting informations for this job:
 ========================================================
  
                  Total CPU time used (sec):     2005.093
                            User time (sec):     1994.304
                          System time (sec):       10.789
                         Elapsed time (sec):     2009.857
  
                   Maximum memory used (kb):      329956.
                   Average memory used (kb):           0.
  
                          Minor page faults:       370307
                          Major page faults:            0
                 Voluntary context switches:         3155
