<?xml version="1.0" encoding="ISO-8859-1"?>
<modeling>
 <generator>
  <i name="program" type="string">vasp </i>
  <i name="version" type="string">5.4.4.18Apr17-6-g9f103f2a35  </i>
  <i name="subversion" type="string">(build Oct 18 2021 20:38:43) complex            parallel </i>
  <i name="platform" type="string">LinuxIFC </i>
  <i name="date" type="string">2024 06 24 </i>
  <i name="time" type="string">20:14:10 </i>
 </generator>
 <incar>
  <i type="string" name="SYSTEM">HECN</i>
  <i type="int" name="ISTART">     0</i>
  <i type="string" name="PREC">normal</i>
  <i type="string" name="ALGO">Fast</i>
  <i type="int" name="ICHARG">     2</i>
  <i type="int" name="NELM">    60</i>
  <i type="int" name="IBRION">     2</i>
  <i name="EDIFF">      0.00001000</i>
  <i name="EDIFFG">     -0.01000000</i>
  <i type="int" name="NSW">   100</i>
  <i type="int" name="ISIF">     3</i>
  <i name="ENCUT">    400.00000000</i>
  <i name="POTIM">      0.50000000</i>
  <i type="logical" name="LREAL"> F  </i>
  <i type="int" name="ISMEAR">     0</i>
  <i name="SIGMA">      0.10000000</i>
  <i type="logical" name="LWAVE"> F  </i>
  <i type="logical" name="LCHARG"> F  </i>
  <v type="int" name="KPOINT_BSE">    -1     0     0     0</v>
  <i type="int" name="NELM">    60</i>
 </incar>
 <structure name="primitive_cell" >
  <crystal>
   <varray name="basis" >
    <v>       8.53701556      -0.00914383       0.00521026 </v>
    <v>      -0.00344601       8.55129605       0.01553104 </v>
    <v>       0.03590979       0.00043657       8.60149200 </v>
   </varray>
   <i name="volume">    627.92889451 </i>
   <varray name="rec_basis" >
    <v>       0.11713730       0.00004809      -0.00048903 </v>
    <v>       0.00012526       0.11694140      -0.00000646 </v>
    <v>      -0.00007118      -0.00021118       0.11625921 </v>
   </varray>
  </crystal>
  <varray name="positions" >
   <v>       0.01031743      -0.01603333       0.01963155 </v>
   <v>      -0.00307774       0.00226571       0.24564044 </v>
   <v>       0.00746892      -0.25062395       0.00095195 </v>
   <v>       0.25316667       0.00051200      -0.00144693 </v>
   <v>      -0.24667620       0.00289096       0.00264514 </v>
   <v>       0.00084029       0.24371928       0.00153047 </v>
   <v>       0.00436586       0.00086359      -0.24399152 </v>
   <v>       0.23912072      -0.01498923       0.24809273 </v>
   <v>       0.00646739      -0.24602643       0.24996670 </v>
   <v>       0.26516512      -0.24462452      -0.00027180 </v>
   <v>       0.24904584       0.24513725       0.00162288 </v>
   <v>       0.00193150      -0.24185735      -0.25116525 </v>
   <v>      -0.25763937      -0.24966306       0.00139848 </v>
   <v>      -0.26090033      -0.00614339       0.25238740 </v>
   <v>       0.00071965       0.26012741       0.25081241 </v>
   <v>      -0.25062159       0.24750006      -0.00524793 </v>
   <v>       0.00827615       0.23974273      -0.24985385 </v>
   <v>       0.26068834       0.00312590      -0.25890424 </v>
   <v>      -0.28085338      -0.01351217      -0.21639687 </v>
   <v>       0.26344539      -0.24815057       0.24848299 </v>
   <v>      -0.25800872      -0.25064096       0.24914822 </v>
   <v>       0.25240119       0.24992878       0.24849712 </v>
   <v>       0.25919756      -0.24085157      -0.25175266 </v>
   <v>      -0.25687597       0.24258908       0.24780291 </v>
   <v>      -0.25610933      -0.23607917      -0.25542528 </v>
   <v>       0.25640955       0.24339125      -0.24956286 </v>
   <v>      -0.25506456       0.23750477      -0.24658105 </v>
   <v>       0.00543667      -0.47712189      -0.02341506 </v>
   <v>       0.01112610       0.00539132       0.48403520 </v>
   <v>      -0.49107042       0.02192579      -0.00246900 </v>
   <v>       0.49764274       0.00156416       0.23237666 </v>
   <v>       0.00416912       0.49964263       0.24624847 </v>
   <v>       0.00316544      -0.25343672       0.49811406 </v>
   <v>       0.24852566      -0.49892323       0.00577529 </v>
   <v>       0.25491088       0.00050356       0.49616228 </v>
   <v>       0.49989520      -0.24607053      -0.00749702 </v>
   <v>      -0.25482885       0.00235483       0.49563911 </v>
   <v>      -0.24276533       0.49580554       0.00305259 </v>
   <v>       0.00024472      -0.49954759      -0.24757001 </v>
   <v>       0.00447816       0.25619558      -0.49934097 </v>
   <v>       0.49928027       0.24981474      -0.00370330 </v>
   <v>      -0.49965774      -0.00098957      -0.24681809 </v>
   <v>       0.26381713      -0.48694203       0.24532202 </v>
   <v>       0.25092415      -0.24891446       0.49718546 </v>
   <v>       0.49414331       0.24116418       0.24488475 </v>
   <v>      -0.25028604      -0.26389214       0.49591555 </v>
   <v>       0.48486120       0.24050258      -0.24350157 </v>
   <v>       0.25187597       0.25033219       0.49725190 </v>
   <v>      -0.27322956      -0.49674636       0.24656098 </v>
   <v>      -0.25325050      -0.48844358      -0.24371354 </v>
   <v>       0.25479014      -0.49876238      -0.24706438 </v>
   <v>       0.49977323      -0.26745276       0.27340253 </v>
   <v>      -0.49754914      -0.24583387      -0.26578607 </v>
   <v>      -0.25096285       0.25073310      -0.49176669 </v>
   <v>       0.47341705      -0.00168327      -0.46960538 </v>
   <v>       0.49793327       0.48063214      -0.00448239 </v>
   <v>       0.00543646       0.49623364      -0.47886426 </v>
   <v>       0.48977045      -0.49826662       0.24140402 </v>
   <v>       0.49888535      -0.23115421       0.49459524 </v>
   <v>       0.24642548      -0.49867244       0.49235140 </v>
   <v>      -0.24097216       0.49712826       0.49865137 </v>
   <v>       0.49697741       0.24445943      -0.49990743 </v>
   <v>      -0.49633238       0.49794654      -0.24817378 </v>
   <v>       0.49979939      -0.48957988       0.49673903 </v>
  </varray>
 </structure>
 <varray name="primitive_index" >
  <v type="int" >        1 </v>
  <v type="int" >       34 </v>
  <v type="int" >       38 </v>
  <v type="int" >       22 </v>
  <v type="int" >       25 </v>
  <v type="int" >       23 </v>
  <v type="int" >       29 </v>
  <v type="int" >        2 </v>
  <v type="int" >       59 </v>
  <v type="int" >       18 </v>
  <v type="int" >       14 </v>
  <v type="int" >       12 </v>
  <v type="int" >        9 </v>
  <v type="int" >       16 </v>
  <v type="int" >        8 </v>
  <v type="int" >       17 </v>
  <v type="int" >       10 </v>
  <v type="int" >       56 </v>
  <v type="int" >       58 </v>
  <v type="int" >       36 </v>
  <v type="int" >       39 </v>
  <v type="int" >       21 </v>
  <v type="int" >       45 </v>
  <v type="int" >       24 </v>
  <v type="int" >       49 </v>
  <v type="int" >       42 </v>
  <v type="int" >       30 </v>
  <v type="int" >       54 </v>
  <v type="int" >       61 </v>
  <v type="int" >       53 </v>
  <v type="int" >       26 </v>
  <v type="int" >       27 </v>
  <v type="int" >       47 </v>
  <v type="int" >       37 </v>
  <v type="int" >       43 </v>
  <v type="int" >       28 </v>
  <v type="int" >       31 </v>
  <v type="int" >       40 </v>
  <v type="int" >       48 </v>
  <v type="int" >       44 </v>
  <v type="int" >       35 </v>
  <v type="int" >       33 </v>
  <v type="int" >        3 </v>
  <v type="int" >       20 </v>
  <v type="int" >       15 </v>
  <v type="int" >       64 </v>
  <v type="int" >        5 </v>
  <v type="int" >       19 </v>
  <v type="int" >       60 </v>
  <v type="int" >       63 </v>
  <v type="int" >       13 </v>
  <v type="int" >       55 </v>
  <v type="int" >        7 </v>
  <v type="int" >       11 </v>
  <v type="int" >       57 </v>
  <v type="int" >        4 </v>
  <v type="int" >        6 </v>
  <v type="int" >       41 </v>
  <v type="int" >       51 </v>
  <v type="int" >       46 </v>
  <v type="int" >       50 </v>
  <v type="int" >       32 </v>
  <v type="int" >       52 </v>
  <v type="int" >       62 </v>
 </varray>
 <kpoints>
  <generation param="Gamma">
   <v type="int" name="divisions">       3        3        3 </v>
   <v name="usershift">      0.00000000       0.00000000       0.00000000 </v>
   <v name="genvec1">      0.33333333      -0.00000000       0.00000000 </v>
   <v name="genvec2">      0.00000000       0.33333333      -0.00000000 </v>
   <v name="genvec3">      0.00000000       0.00000000       0.33333333 </v>
   <v name="shift">      0.00000000       0.00000000       0.00000000 </v>
  </generation>
  <varray name="kpointlist" >
   <v>       0.00000000       0.00000000       0.00000000 </v>
   <v>       0.33333333       0.00000000       0.00000000 </v>
   <v>       0.00000000       0.33333333       0.00000000 </v>
   <v>       0.33333333       0.33333333       0.00000000 </v>
   <v>      -0.33333333       0.33333333       0.00000000 </v>
   <v>       0.00000000      -0.00000000       0.33333333 </v>
   <v>       0.33333333      -0.00000000       0.33333333 </v>
   <v>      -0.33333333       0.00000000       0.33333333 </v>
   <v>      -0.00000000       0.33333333       0.33333333 </v>
   <v>       0.33333333       0.33333333       0.33333333 </v>
   <v>      -0.33333333       0.33333333       0.33333333 </v>
   <v>      -0.00000000      -0.33333333       0.33333333 </v>
   <v>       0.33333333      -0.33333333       0.33333333 </v>
   <v>      -0.33333333      -0.33333333       0.33333333 </v>
  </varray>
  <varray name="weights" >
   <v>       0.03703704 </v>
   <v>       0.07407407 </v>
   <v>       0.07407407 </v>
   <v>       0.07407407 </v>
   <v>       0.07407407 </v>
   <v>       0.07407407 </v>
   <v>       0.07407407 </v>
   <v>       0.07407407 </v>
   <v>       0.07407407 </v>
   <v>       0.07407407 </v>
   <v>       0.07407407 </v>
   <v>       0.07407407 </v>
   <v>       0.07407407 </v>
   <v>       0.07407407 </v>
  </varray>
 </kpoints>
 <parameters>
  <separator name="general" >
   <i type="string" name="SYSTEM">HECN</i>
   <i type="logical" name="LCOMPAT"> F  </i>
  </separator>
  <separator name="electronic" >
   <i type="string" name="PREC">normal</i>
   <i name="ENMAX">    400.00000000</i>
   <i name="ENAUG">    644.87300000</i>
   <i name="EDIFF">      0.00001000</i>
   <i type="int" name="IALGO">    68</i>
   <i type="int" name="IWAVPR">    11</i>
   <i type="int" name="NBANDS">   312</i>
   <i name="NELECT">    502.00000000</i>
   <i type="int" name="TURBO">     0</i>
   <i type="int" name="IRESTART">     0</i>
   <i type="int" name="NREBOOT">     0</i>
   <i type="int" name="NMIN">     0</i>
   <i name="EREF">      0.00000000</i>
   <separator name="electronic smearing" >
    <i type="int" name="ISMEAR">     0</i>
    <i name="SIGMA">      0.10000000</i>
    <i name="KSPACING">      0.50000000</i>
    <i type="logical" name="KGAMMA"> T  </i>
   </separator>
   <separator name="electronic projectors" >
    <i type="logical" name="LREAL"> F  </i>
    <v name="ROPT">      0.00000000      0.00000000      0.00000000      0.00000000      0.00000000      0.00000000      0.00000000</v>
    <i type="int" name="LMAXPAW">  -100</i>
    <i type="int" name="LMAXMIX">     2</i>
    <i type="logical" name="NLSPLINE"> F  </i>
   </separator>
   <separator name="electronic startup" >
    <i type="int" name="ISTART">     0</i>
    <i type="int" name="ICHARG">     2</i>
    <i type="int" name="INIWAV">     1</i>
   </separator>
   <separator name="electronic spin" >
    <i type="int" name="ISPIN">     1</i>
    <i type="logical" name="LNONCOLLINEAR"> F  </i>
    <v name="MAGMOM">      1.00000000      1.00000000      1.00000000      1.00000000      1.00000000      1.00000000      1.00000000      1.00000000      1.00000000      1.00000000      1.00000000      1.00000000      1.00000000      1.00000000      1.00000000      1.00000000      1.00000000      1.00000000      1.00000000      1.00000000
      1.00000000      1.00000000      1.00000000      1.00000000      1.00000000      1.00000000      1.00000000      1.00000000      1.00000000      1.00000000      1.00000000      1.00000000      1.00000000      1.00000000      1.00000000      1.00000000      1.00000000      1.00000000      1.00000000      1.00000000
      1.00000000      1.00000000      1.00000000      1.00000000      1.00000000      1.00000000      1.00000000      1.00000000      1.00000000      1.00000000      1.00000000      1.00000000      1.00000000      1.00000000      1.00000000      1.00000000      1.00000000      1.00000000      1.00000000      1.00000000
      1.00000000      1.00000000      1.00000000      1.00000000</v>
    <i name="NUPDOWN">     -1.00000000</i>
    <i type="logical" name="LSORBIT"> F  </i>
    <v name="SAXIS">      0.00000000      0.00000000      1.00000000</v>
    <i type="logical" name="LSPIRAL"> F  </i>
    <v name="QSPIRAL">      0.00000000      0.00000000      0.00000000</v>
    <i type="logical" name="LZEROZ"> F  </i>
   </separator>
   <separator name="electronic exchange-correlation" >
    <i type="logical" name="LASPH"> F  </i>
    <i type="logical" name="LMETAGGA"> F  </i>
   </separator>
   <separator name="electronic convergence" >
    <i type="int" name="NELM">    60</i>
    <i type="int" name="NELMDL">    -5</i>
    <i type="int" name="NELMIN">     2</i>
    <i name="ENINI">    400.00000000</i>
    <separator name="electronic convergence detail" >
     <i type="logical" name="LDIAG"> T  </i>
     <i type="logical" name="LSUBROT"> F  </i>
     <i name="WEIMIN">      0.00100000</i>
     <i name="EBREAK">      0.00000001</i>
     <i name="DEPER">      0.30000000</i>
     <i type="int" name="NRMM">     4</i>
     <i name="TIME">      0.40000000</i>
    </separator>
   </separator>
   <separator name="electronic mixer" >
    <i name="AMIX">      0.40000000</i>
    <i name="BMIX">      1.00000000</i>
    <i name="AMIN">      0.10000000</i>
    <i name="AMIX_MAG">      1.60000000</i>
    <i name="BMIX_MAG">      1.00000000</i>
    <separator name="electronic mixer details" >
     <i type="int" name="IMIX">     4</i>
     <i type="logical" name="MIXFIRST"> F  </i>
     <i type="int" name="MAXMIX">   -45</i>
     <i name="WC">    100.00000000</i>
     <i type="int" name="INIMIX">     1</i>
     <i type="int" name="MIXPRE">     1</i>
     <i type="int" name="MREMOVE">     5</i>
    </separator>
   </separator>
   <separator name="electronic dipolcorrection" >
    <i type="logical" name="LDIPOL"> F  </i>
    <i type="logical" name="LMONO"> F  </i>
    <i type="int" name="IDIPOL">     0</i>
    <i name="EPSILON">      1.00000000</i>
    <v name="DIPOL">   -100.00000000   -100.00000000   -100.00000000</v>
    <i name="EFIELD">      0.00000000</i>
   </separator>
  </separator>
  <separator name="grids" >
   <i type="int" name="NGX">    42</i>
   <i type="int" name="NGY">    42</i>
   <i type="int" name="NGZ">    42</i>
   <i type="int" name="NGXF">    84</i>
   <i type="int" name="NGYF">    84</i>
   <i type="int" name="NGZF">    84</i>
   <i type="logical" name="ADDGRID"> F  </i>
  </separator>
  <separator name="ionic" >
   <i type="int" name="NSW">   100</i>
   <i type="int" name="IBRION">     2</i>
   <i type="int" name="MDALGO">     0</i>
   <i type="int" name="ISIF">     3</i>
   <i name="PSTRESS">      0.00000000</i>
   <i name="EDIFFG">     -0.01000000</i>
   <i type="int" name="NFREE">     1</i>
   <i name="POTIM">      0.50000000</i>
   <i name="SMASS">     -3.00000000</i>
   <i name="SCALEE">      1.00000000</i>
  </separator>
  <separator name="ionic md" >
   <i name="TEBEG">      0.00010000</i>
   <i name="TEEND">      0.00010000</i>
   <i type="int" name="NBLOCK">     1</i>
   <i type="int" name="KBLOCK">   100</i>
   <i type="int" name="NPACO">   256</i>
   <i name="APACO">     16.00000000</i>
  </separator>
  <separator name="symmetry" >
   <i type="int" name="ISYM">     2</i>
   <i name="SYMPREC">      0.00001000</i>
  </separator>
  <separator name="dos" >
   <i type="int" name="LORBIT">     0</i>
   <v name="RWIGS">     -1.00000000     -1.00000000     -1.00000000     -1.00000000     -1.00000000     -1.00000000     -1.00000000</v>
   <i type="int" name="NEDOS">   301</i>
   <i name="EMIN">     10.00000000</i>
   <i name="EMAX">    -10.00000000</i>
   <i name="EFERMI">      0.00000000</i>
  </separator>
  <separator name="writing" >
   <i type="int" name="NWRITE">     2</i>
   <i type="logical" name="LWAVE"> F  </i>
   <i type="logical" name="LDOWNSAMPLE"> F  </i>
   <i type="logical" name="LCHARG"> F  </i>
   <i type="logical" name="LPARD"> F  </i>
   <i type="logical" name="LVTOT"> F  </i>
   <i type="logical" name="LVHAR"> F  </i>
   <i type="logical" name="LELF"> F  </i>
   <i type="logical" name="LOPTICS"> F  </i>
   <v name="STM">      0.00000000      0.00000000      0.00000000      0.00000000      0.00000000      0.00000000      0.00000000</v>
  </separator>
  <separator name="performance" >
   <i type="int" name="NPAR">    24</i>
   <i type="int" name="NSIM">     4</i>
   <i type="int" name="NBLK">    -1</i>
   <i type="logical" name="LPLANE"> T  </i>
   <i type="logical" name="LSCALAPACK"> T  </i>
   <i type="logical" name="LSCAAWARE"> F  </i>
   <i type="logical" name="LSCALU"> F  </i>
   <i type="logical" name="LASYNC"> F  </i>
   <i type="logical" name="LORBITALREAL"> F  </i>
  </separator>
  <separator name="miscellaneous" >
   <i type="int" name="IDIOT">     3</i>
   <i type="int" name="ISPECIAL">     0</i>
   <i type="logical" name="LMUSIC"> F  </i>
   <v name="POMASS">     50.94100000     92.91000000     47.88000000     14.00100000     12.01100000     51.99600000     95.94000000</v>
   <v name="DARWINR">      0.00000000      0.00000000      0.00000000      0.00000000      0.00000000      0.00000000      0.00000000</v>
   <v name="DARWINV">      1.00000000      1.00000000      1.00000000      1.00000000      1.00000000      1.00000000      1.00000000</v>
   <i type="logical" name="LCORR"> T  </i>
  </separator>
  <i type="logical" name="GGA_COMPAT"> T  </i>
  <i type="logical" name="LBERRY"> F  </i>
  <i type="int" name="ICORELEVEL">     0</i>
  <i type="logical" name="LDAU"> F  </i>
  <i type="int" name="I_CONSTRAINED_M">     0</i>
  <separator name="electronic exchange-correlation" >
   <i type="string" name="GGA">--</i>
   <i type="int" name="VOSKOWN">     0</i>
   <i type="logical" name="LHFCALC"> F  </i>
   <i type="string" name="PRECFOCK"></i>
   <i type="logical" name="LSYMGRAD"> F  </i>
   <i type="logical" name="LHFONE"> F  </i>
   <i type="logical" name="LRHFCALC"> F  </i>
   <i type="logical" name="LTHOMAS"> F  </i>
   <i type="logical" name="LMODELHF"> F  </i>
   <i name="ENCUT4O">     -1.00000000</i>
   <i type="int" name="EXXOEP">     0</i>
   <i type="int" name="FOURORBIT">     0</i>
   <i name="AEXX">      0.00000000</i>
   <i name="HFALPHA">      0.00000000</i>
   <i name="MCALPHA">      0.00000000</i>
   <i name="ALDAX">      1.00000000</i>
   <i name="AGGAX">      1.00000000</i>
   <i name="ALDAC">      1.00000000</i>
   <i name="AGGAC">      1.00000000</i>
   <i type="int" name="NKREDX">     1</i>
   <i type="int" name="NKREDY">     1</i>
   <i type="int" name="NKREDZ">     1</i>
   <i type="logical" name="SHIFTRED"> F  </i>
   <i type="logical" name="ODDONLY"> F  </i>
   <i type="logical" name="EVENONLY"> F  </i>
   <i type="int" name="LMAXFOCK">     0</i>
   <i type="int" name="NMAXFOCKAE">     0</i>
   <i type="logical" name="LFOCKAEDFT"> F  </i>
   <i name="HFSCREEN">      0.00000000</i>
   <i name="HFSCREENC">      0.00000000</i>
   <i type="int" name="NBANDSGWLOW">     0</i>
  </separator>
  <separator name="vdW DFT" >
   <i type="logical" name="LUSE_VDW"> F  </i>
   <i name="Zab_VDW">     -0.84910000</i>
   <i name="PARAM1">      0.12340000</i>
   <i name="PARAM2">      1.00000000</i>
   <i name="PARAM3">      0.00000000</i>
  </separator>
  <separator name="model GW" >
   <i type="int" name="MODEL_GW">     0</i>
   <i name="MODEL_EPS0">      5.88683339</i>
   <i name="MODEL_ALPHA">      1.00000000</i>
  </separator>
  <separator name="linear response parameters" >
   <i type="logical" name="LEPSILON"> F  </i>
   <i type="logical" name="LRPA"> F  </i>
   <i type="logical" name="LNABLA"> F  </i>
   <i type="logical" name="LVEL"> F  </i>
   <i type="int" name="KINTER">     0</i>
   <i name="CSHIFT">      0.10000000</i>
   <i name="OMEGAMAX">     -1.00000000</i>
   <i name="DEG_THRESHOLD">      0.00200000</i>
   <i name="RTIME">     -0.10000000</i>
   <i name="WPLASMAI">      0.00000000</i>
   <v name="DFIELD">      0.00000000      0.00000000      0.00000000</v>
   <v name="WPLASMA">      0.00000000      0.00000000      0.00000000      0.00000000      0.00000000      0.00000000      0.00000000      0.00000000      0.00000000</v>
  </separator>
  <separator name="orbital magnetization" >
   <i type="logical" name="NUCIND"> F  </i>
   <v name="MAGPOS">      0.00000000      0.00000000      0.00000000</v>
   <i type="logical" name="LNICSALL"> T  </i>
   <i type="logical" name="ORBITALMAG"> F  </i>
   <i type="logical" name="LMAGBLOCH"> F  </i>
   <i type="logical" name="LCHIMAG"> F  </i>
   <i type="logical" name="LGAUGE"> T  </i>
   <i type="int" name="MAGATOM">     0</i>
   <v name="MAGDIPOL">      0.00000000      0.00000000      0.00000000</v>
   <v name="AVECCONST">      0.00000000      0.00000000      0.00000000</v>
  </separator>
  <separator name="response functions" >
   <i type="logical" name="LADDER"> F  </i>
   <i type="logical" name="LRPAFORCE"> F  </i>
   <i type="logical" name="LFXC"> F  </i>
   <i type="logical" name="LHARTREE"> T  </i>
   <i type="int" name="IBSE">     0</i>
   <v type="int" name="KPOINT">    -1     0     0     0</v>
   <i type="logical" name="LTCTE"> F  </i>
   <i type="logical" name="LTETE"> F  </i>
   <i type="logical" name="LTRIPLET"> F  </i>
   <i type="logical" name="LFXCEPS"> F  </i>
   <i type="logical" name="LFXHEG"> F  </i>
   <i type="int" name="NATURALO">     2</i>
   <i type="logical" name="L2ORDER"> F  </i>
   <i type="logical" name="LMP2LT"> F  </i>
   <i type="logical" name="LUSEW"> F  </i>
   <i name="ENCUTGW">     -2.00000000</i>
   <i name="ENCUTGWSOFT">     -2.00000000</i>
   <i name="ENCUTLF">     -1.00000000</i>
   <i type="int" name="LMAXMP2">    -1</i>
   <i name="SCISSOR">      0.00000000</i>
   <i type="int" name="NOMEGA">     0</i>
   <i type="int" name="NOMEGAR">     0</i>
   <i type="int" name="NBANDSGW">    -1</i>
   <i type="int" name="NBANDSO">    -1</i>
   <i type="int" name="NBANDSV">    -1</i>
   <i type="int" name="NELM">    60</i>
   <i type="int" name="NELMHF">     1</i>
   <i type="int" name="DIM">     3</i>
   <i type="int" name="ANTIRES">     0</i>
   <i name="OMEGAMAX">    -30.00000000</i>
   <i name="OMEGAMIN">    -30.00000000</i>
   <i name="OMEGATL">   -200.00000000</i>
   <i type="int" name="OMEGAGRID">   140</i>
   <i name="CSHIFT">     -0.10000000</i>
   <i type="logical" name="SELFENERGY"> F  </i>
   <i type="logical" name="LSPECTRAL"> F  </i>
   <i type="logical" name="LSPECTRALGW"> F  </i>
   <i type="logical" name="LSINGLES"> F  </i>
   <i type="logical" name="LFERMIGW"> F  </i>
   <i type="logical" name="ODDONLYGW"> F  </i>
   <i type="logical" name="EVENONLYGW"> F  </i>
   <i type="int" name="NKREDLFX">     1</i>
   <i type="int" name="NKREDLFY">     1</i>
   <i type="int" name="NKREDLFZ">     1</i>
   <i type="int" name="MAXMEM">  2800</i>
   <i type="int" name="TELESCOPE">     0</i>
   <i type="int" name="TAUPAR">     1</i>
   <i type="int" name="OMEGAPAR">    -1</i>
   <i name="LAMBDA">      1.00000000</i>
  </separator>
  <separator name="External order field" >
   <i name="OFIELD_KAPPA">      0.00000000</i>
   <v name="OFIELD_K">      0.00000000      0.00000000      0.00000000</v>
   <i name="OFIELD_Q6_NEAR">      0.00000000</i>
   <i name="OFIELD_Q6_FAR">      0.00000000</i>
   <i name="OFIELD_A">      0.00000000</i>
  </separator>
 </parameters>
 <atominfo>
  <atoms>      64 </atoms>
  <types>       7 </types>
  <array name="atoms" >
   <dimension dim="1">ion</dimension>
   <field type="string">element</field>
   <field type="int">atomtype</field>
   <set>
    <rc><c>V </c><c>   1</c></rc>
    <rc><c>V </c><c>   1</c></rc>
    <rc><c>V </c><c>   1</c></rc>
    <rc><c>V </c><c>   1</c></rc>
    <rc><c>V </c><c>   1</c></rc>
    <rc><c>V </c><c>   1</c></rc>
    <rc><c>V </c><c>   1</c></rc>
    <rc><c>Nb</c><c>   2</c></rc>
    <rc><c>Nb</c><c>   2</c></rc>
    <rc><c>Nb</c><c>   2</c></rc>
    <rc><c>Nb</c><c>   2</c></rc>
    <rc><c>Nb</c><c>   2</c></rc>
    <rc><c>Nb</c><c>   2</c></rc>
    <rc><c>Ti</c><c>   3</c></rc>
    <rc><c>Ti</c><c>   3</c></rc>
    <rc><c>Ti</c><c>   3</c></rc>
    <rc><c>Ti</c><c>   3</c></rc>
    <rc><c>Ti</c><c>   3</c></rc>
    <rc><c>Ti</c><c>   3</c></rc>
    <rc><c>Ti</c><c>   3</c></rc>
    <rc><c>N </c><c>   4</c></rc>
    <rc><c>N </c><c>   4</c></rc>
    <rc><c>N </c><c>   4</c></rc>
    <rc><c>N </c><c>   4</c></rc>
    <rc><c>N </c><c>   4</c></rc>
    <rc><c>N </c><c>   4</c></rc>
    <rc><c>N </c><c>   4</c></rc>
    <rc><c>N </c><c>   4</c></rc>
    <rc><c>N </c><c>   4</c></rc>
    <rc><c>N </c><c>   4</c></rc>
    <rc><c>N </c><c>   4</c></rc>
    <rc><c>N </c><c>   4</c></rc>
    <rc><c>N </c><c>   4</c></rc>
    <rc><c>C </c><c>   5</c></rc>
    <rc><c>C </c><c>   5</c></rc>
    <rc><c>C </c><c>   5</c></rc>
    <rc><c>C </c><c>   5</c></rc>
    <rc><c>C </c><c>   5</c></rc>
    <rc><c>C </c><c>   5</c></rc>
    <rc><c>C </c><c>   5</c></rc>
    <rc><c>C </c><c>   5</c></rc>
    <rc><c>C </c><c>   5</c></rc>
    <rc><c>C </c><c>   5</c></rc>
    <rc><c>C </c><c>   5</c></rc>
    <rc><c>C </c><c>   5</c></rc>
    <rc><c>C </c><c>   5</c></rc>
    <rc><c>C </c><c>   5</c></rc>
    <rc><c>C </c><c>   5</c></rc>
    <rc><c>C </c><c>   5</c></rc>
    <rc><c>C </c><c>   5</c></rc>
    <rc><c>C </c><c>   5</c></rc>
    <rc><c>C </c><c>   5</c></rc>
    <rc><c>Cr</c><c>   6</c></rc>
    <rc><c>Cr</c><c>   6</c></rc>
    <rc><c>Cr</c><c>   6</c></rc>
    <rc><c>Cr</c><c>   6</c></rc>
    <rc><c>Cr</c><c>   6</c></rc>
    <rc><c>Cr</c><c>   6</c></rc>
    <rc><c>Mo</c><c>   7</c></rc>
    <rc><c>Mo</c><c>   7</c></rc>
    <rc><c>Mo</c><c>   7</c></rc>
    <rc><c>Mo</c><c>   7</c></rc>
    <rc><c>Mo</c><c>   7</c></rc>
    <rc><c>Mo</c><c>   7</c></rc>
   </set>
  </array>
  <array name="atomtypes" >
   <dimension dim="1">type</dimension>
   <field type="int">atomspertype</field>
   <field type="string">element</field>
   <field>mass</field>
   <field>valence</field>
   <field type="string">pseudopotential</field>
   <set>
    <rc><c>   7</c><c>V </c><c>     50.94100000</c><c>     13.00000000</c><c> PAW_PBE V_sv 07Sep2000                 </c></rc>
    <rc><c>   6</c><c>Nb</c><c>     92.91000000</c><c>     13.00000000</c><c> PAW_PBE Nb_sv 17Jan2003                </c></rc>
    <rc><c>   7</c><c>Ti</c><c>     47.88000000</c><c>     12.00000000</c><c> PAW_PBE Ti_sv 07Sep2000                </c></rc>
    <rc><c>  13</c><c>N </c><c>     14.00100000</c><c>      5.00000000</c><c> PAW_PBE N 08Apr2002                    </c></rc>
    <rc><c>  19</c><c>C </c><c>     12.01100000</c><c>      4.00000000</c><c> PAW_PBE C 08Apr2002                    </c></rc>
    <rc><c>   6</c><c>Cr</c><c>     51.99600000</c><c>     12.00000000</c><c> PAW_PBE Cr_pv 07Sep2000                </c></rc>
    <rc><c>   6</c><c>Mo</c><c>     95.94000000</c><c>      6.00000000</c><c> PAW_PBE Mo 08Apr2002                   </c></rc>
   </set>
  </array>
 </atominfo>
 <structure name="initialpos" >
  <crystal>
   <varray name="basis" >
    <v>       8.53701556      -0.00914383       0.00521026 </v>
    <v>      -0.00344601       8.55129605       0.01553104 </v>
    <v>       0.03590979       0.00043657       8.60149200 </v>
   </varray>
   <i name="volume">    627.92889451 </i>
   <varray name="rec_basis" >
    <v>       0.11713730       0.00004809      -0.00048903 </v>
    <v>       0.00012526       0.11694140      -0.00000646 </v>
    <v>      -0.00007118      -0.00021118       0.11625921 </v>
   </varray>
  </crystal>
  <varray name="positions" >
   <v>       0.01031743       0.98396667       0.01963155 </v>
   <v>       0.23912072       0.98501077       0.24809273 </v>
   <v>       0.26381713       0.51305797       0.24532202 </v>
   <v>       0.49793327       0.48063214       0.99551761 </v>
   <v>       0.48486120       0.24050258       0.75649843 </v>
   <v>       0.00543646       0.49623364       0.52113574 </v>
   <v>       0.50245086       0.75416613       0.73421393 </v>
   <v>       0.00071965       0.26012741       0.25081241 </v>
   <v>       0.74236063       0.75033694       0.00139848 </v>
   <v>       0.00827615       0.23974273       0.75014615 </v>
   <v>       0.74903715       0.25073310       0.50823331 </v>
   <v>       0.00193150       0.75814265       0.74883475 </v>
   <v>       0.25479014       0.50123762       0.75293562 </v>
   <v>       0.24904584       0.24513725       0.00162288 </v>
   <v>       0.49414331       0.24116418       0.24488475 </v>
   <v>       0.73909967       0.99385661       0.25238740 </v>
   <v>       0.74937841       0.24750006       0.99475207 </v>
   <v>       0.26516512       0.75537548       0.99972820 </v>
   <v>       0.25187597       0.25033219       0.49725190 </v>
   <v>       0.25092415       0.75108554       0.49718546 </v>
   <v>       0.25240119       0.24992878       0.24849712 </v>
   <v>       0.25316667       0.00051200       0.99855307 </v>
   <v>       0.00084029       0.24371928       0.00153047 </v>
   <v>       0.74312403       0.24258908       0.24780291 </v>
   <v>       0.75332380       0.00289096       0.00264514 </v>
   <v>       0.49764274       0.00156416       0.23237666 </v>
   <v>       0.00416912       0.49964263       0.24624847 </v>
   <v>       0.49989520       0.75392947       0.99250298 </v>
   <v>       0.00436586       0.00086359       0.75600848 </v>
   <v>       0.74493544       0.23750477       0.75341895 </v>
   <v>       0.74517115       0.00235483       0.49563911 </v>
   <v>       0.49697741       0.24445943       0.50009257 </v>
   <v>       0.50034226       0.99901043       0.75318191 </v>
   <v>       0.99692226       0.00226571       0.24564044 </v>
   <v>       0.49928027       0.24981474       0.99629670 </v>
   <v>       0.26344539       0.75184943       0.24848299 </v>
   <v>       0.24852566       0.50107677       0.00577529 </v>
   <v>       0.00746892       0.74937605       0.00095195 </v>
   <v>       0.74199128       0.74935904       0.24914822 </v>
   <v>       0.75723467       0.49580554       0.00305259 </v>
   <v>       0.48977045       0.50173338       0.24140402 </v>
   <v>       0.25640955       0.24339125       0.75043714 </v>
   <v>       0.25491088       0.00050356       0.49616228 </v>
   <v>       0.00447816       0.25619558       0.50065903 </v>
   <v>       0.25919756       0.75914843       0.74824734 </v>
   <v>       0.24642548       0.50132756       0.49235140 </v>
   <v>       0.00316544       0.74656328       0.49811406 </v>
   <v>       0.00024472       0.50045241       0.75242999 </v>
   <v>       0.74389067       0.76392083       0.74457472 </v>
   <v>       0.75902784       0.49712826       0.49865137 </v>
   <v>       0.49888535       0.76884579       0.49459524 </v>
   <v>       0.50366762       0.49794654       0.75182622 </v>
   <v>       0.50892958       0.02192579       0.99753100 </v>
   <v>       0.00543667       0.52287811       0.97658494 </v>
   <v>       0.49977323       0.73254724       0.27340253 </v>
   <v>       0.26068834       0.00312590       0.74109576 </v>
   <v>       0.47341705       0.99831673       0.53039462 </v>
   <v>       0.71914662       0.98648783       0.78360313 </v>
   <v>       0.00646739       0.75397357       0.24996670 </v>
   <v>       0.72677044       0.50325364       0.24656098 </v>
   <v>       0.01112610       0.00539132       0.48403520 </v>
   <v>       0.49979939       0.51042012       0.49673903 </v>
   <v>       0.74674950       0.51155642       0.75628646 </v>
   <v>       0.74971396       0.73610786       0.49591555 </v>
  </varray>
 </structure>
 <calculation>
  <scstep>
   <time name="dav">   16.91   16.96</time>
   <time name="total">   16.94   16.99</time>
   <energy>
    <i name="alphaZ">   3781.08932073 </i>
    <i name="ewald"> -41815.68327742 </i>
    <i name="hartreedc"> -11442.53054246 </i>
    <i name="XCdc">   1782.12517761 </i>
    <i name="pawpsdc">  33962.32905666 </i>
    <i name="pawaedc"> -33719.68362942 </i>
    <i name="eentropy">     -0.08691394 </i>
    <i name="bandstr">   3323.96521736 </i>
    <i name="atom">  51526.89477174 </i>
    <i name="e_fr_energy">   7398.41918086 </i>
    <i name="e_wo_entrp">   7398.50609480 </i>
    <i name="e_0_energy">   7398.46263783 </i>
   </energy>
  </scstep>
  <scstep>
   <time name="dav">   17.55   17.57</time>
   <time name="total">   17.55   17.57</time>
   <energy>
    <i name="e_fr_energy">    577.51261933 </i>
    <i name="e_wo_entrp">    577.65136627 </i>
    <i name="e_0_energy">    577.58199280 </i>
   </energy>
  </scstep>
  <scstep>
   <time name="dav">   24.95   24.98</time>
   <time name="total">   24.95   24.98</time>
   <energy>
    <i name="e_fr_energy">   -601.68498087 </i>
    <i name="e_wo_entrp">   -601.55931620 </i>
    <i name="e_0_energy">   -601.62214853 </i>
   </energy>
  </scstep>
  <scstep>
   <time name="dav">   27.82   27.90</time>
   <time name="total">   27.82   27.90</time>
   <energy>
    <i name="e_fr_energy">   -762.18391957 </i>
    <i name="e_wo_entrp">   -762.07024162 </i>
    <i name="e_0_energy">   -762.12708059 </i>
   </energy>
  </scstep>
  <scstep>
   <time name="dav">   30.89   30.96</time>
   <time name="total">   31.06   31.12</time>
   <energy>
    <i name="e_fr_energy">   -782.45103778 </i>
    <i name="e_wo_entrp">   -782.32946247 </i>
    <i name="e_0_energy">   -782.39025012 </i>
   </energy>
  </scstep>
  <scstep>
   <time name="diag">    1.40    1.40</time>
   <time name="diis">   14.72   14.75</time>
   <time name="orth">    0.39    0.39</time>
   <time name="total">   16.69   16.73</time>
   <energy>
    <i name="e_fr_energy">   -776.71618349 </i>
    <i name="e_wo_entrp">   -776.57404600 </i>
    <i name="e_0_energy">   -776.64511475 </i>
   </energy>
  </scstep>
  <scstep>
   <time name="diag">    1.41    1.41</time>
   <time name="diis">   16.59   16.63</time>
   <time name="orth">    0.39    0.39</time>
   <time name="total">   18.57   18.62</time>
   <energy>
    <i name="e_fr_energy">   -663.47793232 </i>
    <i name="e_wo_entrp">   -663.31305794 </i>
    <i name="e_0_energy">   -663.39549513 </i>
   </energy>
  </scstep>
  <scstep>
   <time name="diag">    1.41    1.41</time>
   <time name="diis">   17.26   17.29</time>
   <time name="orth">    0.40    0.40</time>
   <time name="total">   19.25   19.29</time>
   <energy>
    <i name="e_fr_energy">   -633.73294743 </i>
    <i name="e_wo_entrp">   -633.58709146 </i>
    <i name="e_0_energy">   -633.66001945 </i>
   </energy>
  </scstep>
  <scstep>
   <time name="diag">    1.41    1.42</time>
   <time name="diis">   17.65   17.68</time>
   <time name="orth">    0.39    0.39</time>
   <time name="total">   19.64   19.67</time>
   <energy>
    <i name="e_fr_energy">   -624.73558716 </i>
    <i name="e_wo_entrp">   -624.58105143 </i>
    <i name="e_0_energy">   -624.65831929 </i>
   </energy>
  </scstep>
  <scstep>
   <time name="diag">    1.41    1.41</time>
   <time name="diis">   18.01   18.05</time>
   <time name="orth">    0.39    0.39</time>
   <time name="total">   19.99   20.03</time>
   <energy>
    <i name="e_fr_energy">   -624.01993991 </i>
    <i name="e_wo_entrp">   -623.87433817 </i>
    <i name="e_0_energy">   -623.94713904 </i>
   </energy>
  </scstep>
  <scstep>
   <time name="diag">    1.40    1.40</time>
   <time name="diis">   17.84   17.89</time>
   <time name="orth">    0.40    0.40</time>
   <time name="total">   19.83   19.87</time>
   <energy>
    <i name="e_fr_energy">   -623.41917645 </i>
    <i name="e_wo_entrp">   -623.27230412 </i>
    <i name="e_0_energy">   -623.34574028 </i>
   </energy>
  </scstep>
  <scstep>
   <time name="diag">    1.41    1.41</time>
   <time name="diis">   18.17   18.24</time>
   <time name="orth">    0.39    0.39</time>
   <time name="total">   20.15   20.23</time>
   <energy>
    <i name="e_fr_energy">   -623.13403004 </i>
    <i name="e_wo_entrp">   -622.98741513 </i>
    <i name="e_0_energy">   -623.06072259 </i>
   </energy>
  </scstep>
  <scstep>
   <time name="diag">    1.41    1.41</time>
   <time name="diis">   17.31   17.34</time>
   <time name="orth">    0.39    0.39</time>
   <time name="total">   19.29   19.32</time>
   <energy>
    <i name="e_fr_energy">   -623.01763999 </i>
    <i name="e_wo_entrp">   -622.86641489 </i>
    <i name="e_0_energy">   -622.94202744 </i>
   </energy>
  </scstep>
  <scstep>
   <time name="diag">    1.41    1.41</time>
   <time name="diis">   17.22   17.27</time>
   <time name="orth">    0.39    0.39</time>
   <time name="total">   19.21   19.26</time>
   <energy>
    <i name="e_fr_energy">   -622.97146861 </i>
    <i name="e_wo_entrp">   -622.82647492 </i>
    <i name="e_0_energy">   -622.89897176 </i>
   </energy>
  </scstep>
  <scstep>
   <time name="diag">    1.42    1.42</time>
   <time name="diis">   17.34   17.38</time>
   <time name="orth">    0.39    0.39</time>
   <time name="total">   19.33   19.38</time>
   <energy>
    <i name="e_fr_energy">   -623.11793007 </i>
    <i name="e_wo_entrp">   -622.96469657 </i>
    <i name="e_0_energy">   -623.04131332 </i>
   </energy>
  </scstep>
  <scstep>
   <time name="diag">    1.41    1.41</time>
   <time name="diis">   16.67   16.70</time>
   <time name="orth">    0.39    0.39</time>
   <time name="total">   18.66   18.69</time>
   <energy>
    <i name="e_fr_energy">   -622.87298387 </i>
    <i name="e_wo_entrp">   -622.72497674 </i>
    <i name="e_0_energy">   -622.79898030 </i>
   </energy>
  </scstep>
  <scstep>
   <time name="diag">    1.40    1.40</time>
   <time name="diis">   17.44   17.46</time>
   <time name="orth">    0.39    0.39</time>
   <time name="total">   19.42   19.44</time>
   <energy>
    <i name="e_fr_energy">   -622.73611021 </i>
    <i name="e_wo_entrp">   -622.58715509 </i>
    <i name="e_0_energy">   -622.66163265 </i>
   </energy>
  </scstep>
  <scstep>
   <time name="diag">    1.47    1.48</time>
   <time name="diis">   17.78   17.83</time>
   <time name="orth">    0.39    0.39</time>
   <time name="total">   19.82   19.88</time>
   <energy>
    <i name="e_fr_energy">   -622.74081665 </i>
    <i name="e_wo_entrp">   -622.59189243 </i>
    <i name="e_0_energy">   -622.66635454 </i>
   </energy>
  </scstep>
  <scstep>
   <time name="diag">    1.43    1.44</time>
   <time name="diis">   18.00   18.02</time>
   <time name="orth">    0.39    0.39</time>
   <time name="total">   20.01   20.03</time>
   <energy>
    <i name="e_fr_energy">   -622.73212902 </i>
    <i name="e_wo_entrp">   -622.58231685 </i>
    <i name="e_0_energy">   -622.65722294 </i>
   </energy>
  </scstep>
  <scstep>
   <time name="diag">    1.40    1.40</time>
   <time name="diis">   17.89   17.93</time>
   <time name="orth">    0.39    0.39</time>
   <time name="total">   19.87   19.90</time>
   <energy>
    <i name="e_fr_energy">   -622.74587111 </i>
    <i name="e_wo_entrp">   -622.59736388 </i>
    <i name="e_0_energy">   -622.67161749 </i>
   </energy>
  </scstep>
  <scstep>
   <time name="diag">    1.40    1.40</time>
   <time name="diis">   17.37   17.38</time>
   <time name="orth">    0.39    0.39</time>
   <time name="total">   19.35   19.36</time>
   <energy>
    <i name="e_fr_energy">   -622.73890591 </i>
    <i name="e_wo_entrp">   -622.58981593 </i>
    <i name="e_0_energy">   -622.66436092 </i>
   </energy>
  </scstep>
  <scstep>
   <time name="diag">    1.41    1.41</time>
   <time name="diis">   17.64   17.67</time>
   <time name="orth">    0.39    0.39</time>
   <time name="total">   19.62   19.65</time>
   <energy>
    <i name="e_fr_energy">   -622.72923147 </i>
    <i name="e_wo_entrp">   -622.58052683 </i>
    <i name="e_0_energy">   -622.65487915 </i>
   </energy>
  </scstep>
  <scstep>
   <time name="diag">    1.40    1.40</time>
   <time name="diis">   17.42   17.50</time>
   <time name="orth">    0.39    0.39</time>
   <time name="total">   19.40   19.48</time>
   <energy>
    <i name="e_fr_energy">   -622.72047861 </i>
    <i name="e_wo_entrp">   -622.57225873 </i>
    <i name="e_0_energy">   -622.64636867 </i>
   </energy>
  </scstep>
  <scstep>
   <time name="diag">    1.42    1.43</time>
   <time name="diis">   16.89   16.91</time>
   <time name="orth">    0.39    0.39</time>
   <time name="total">   18.89   18.91</time>
   <energy>
    <i name="e_fr_energy">   -622.72255678 </i>
    <i name="e_wo_entrp">   -622.57408804 </i>
    <i name="e_0_energy">   -622.64832241 </i>
   </energy>
  </scstep>
  <scstep>
   <time name="diag">    1.40    1.40</time>
   <time name="diis">   17.53   17.55</time>
   <time name="orth">    0.39    0.39</time>
   <time name="total">   19.50   19.53</time>
   <energy>
    <i name="e_fr_energy">   -622.72327432 </i>
    <i name="e_wo_entrp">   -622.57467943 </i>
    <i name="e_0_energy">   -622.64897688 </i>
   </energy>
  </scstep>
  <scstep>
   <time name="diag">    1.41    1.41</time>
   <time name="diis">   16.28   16.31</time>
   <time name="orth">    0.39    0.39</time>
   <time name="total">   18.26   18.29</time>
   <energy>
    <i name="e_fr_energy">   -622.72326309 </i>
    <i name="e_wo_entrp">   -622.57456434 </i>
    <i name="e_0_energy">   -622.64891372 </i>
   </energy>
  </scstep>
  <scstep>
   <time name="diag">    1.40    1.41</time>
   <time name="diis">   17.20   17.24</time>
   <time name="orth">    0.39    0.39</time>
   <time name="total">   19.17   19.22</time>
   <energy>
    <i name="e_fr_energy">   -622.72377557 </i>
    <i name="e_wo_entrp">   -622.57510485 </i>
    <i name="e_0_energy">   -622.64944021 </i>
   </energy>
  </scstep>
  <scstep>
   <time name="diag">    1.40    1.40</time>
   <time name="diis">   16.62   16.64</time>
   <time name="orth">    0.39    0.39</time>
   <time name="total">   18.60   18.63</time>
   <energy>
    <i name="e_fr_energy">   -622.72408147 </i>
    <i name="e_wo_entrp">   -622.57530192 </i>
    <i name="e_0_energy">   -622.64969170 </i>
   </energy>
  </scstep>
  <scstep>
   <time name="diag">    1.43    1.43</time>
   <time name="diis">   16.11   16.13</time>
   <time name="orth">    0.39    0.39</time>
   <time name="total">   18.12   18.15</time>
   <energy>
    <i name="e_fr_energy">   -622.72420840 </i>
    <i name="e_wo_entrp">   -622.57547265 </i>
    <i name="e_0_energy">   -622.64984053 </i>
   </energy>
  </scstep>
  <scstep>
   <time name="diag">    1.40    1.40</time>
   <time name="diis">   15.85   15.90</time>
   <time name="orth">    0.39    0.39</time>
   <time name="total">   17.83   17.88</time>
   <energy>
    <i name="e_fr_energy">   -622.72425799 </i>
    <i name="e_wo_entrp">   -622.57550275 </i>
    <i name="e_0_energy">   -622.64988037 </i>
   </energy>
  </scstep>
  <scstep>
   <time name="diag">    1.40    1.40</time>
   <time name="diis">   16.13   16.15</time>
   <time name="orth">    0.39    0.39</time>
   <time name="total">   18.12   18.14</time>
   <energy>
    <i name="e_fr_energy">   -622.72437388 </i>
    <i name="e_wo_entrp">   -622.57565081 </i>
    <i name="e_0_energy">   -622.65001234 </i>
   </energy>
  </scstep>
  <scstep>
   <time name="diag">    1.41    1.41</time>
   <time name="diis">   14.76   14.78</time>
   <time name="orth">    0.39    0.39</time>
   <time name="total">   16.75   16.77</time>
   <energy>
    <i name="e_fr_energy">   -622.72442508 </i>
    <i name="e_wo_entrp">   -622.57570074 </i>
    <i name="e_0_energy">   -622.65006291 </i>
   </energy>
  </scstep>
  <scstep>
   <time name="diag">    1.40    1.41</time>
   <time name="diis">   13.56   13.58</time>
   <time name="orth">    0.39    0.39</time>
   <time name="total">   15.54   15.56</time>
   <energy>
    <i name="e_fr_energy">   -622.72444437 </i>
    <i name="e_wo_entrp">   -622.57570353 </i>
    <i name="e_0_energy">   -622.65007395 </i>
   </energy>
  </scstep>
  <scstep>
   <time name="diag">    1.41    1.41</time>
   <time name="diis">   13.56   13.57</time>
   <time name="orth">    0.39    0.39</time>
   <time name="total">   15.55   15.56</time>
   <energy>
    <i name="e_fr_energy">   -622.72446214 </i>
    <i name="e_wo_entrp">   -622.57571391 </i>
    <i name="e_0_energy">   -622.65008802 </i>
   </energy>
  </scstep>
  <scstep>
   <time name="diag">    1.42    1.42</time>
   <time name="diis">   12.03   12.04</time>
   <time name="orth">    0.39    0.39</time>
   <time name="total">   14.03   14.03</time>
   <energy>
    <i name="e_fr_energy">   -622.72448638 </i>
    <i name="e_wo_entrp">   -622.57573733 </i>
    <i name="e_0_energy">   -622.65011185 </i>
   </energy>
  </scstep>
  <scstep>
   <time name="diag">    1.41    1.41</time>
   <time name="diis">   10.89   10.89</time>
   <time name="orth">    0.39    0.39</time>
   <time name="total">   12.87   12.88</time>
   <energy>
    <i name="e_fr_energy">   -622.72449676 </i>
    <i name="e_wo_entrp">   -622.57574856 </i>
    <i name="e_0_energy">   -622.65012266 </i>
   </energy>
  </scstep>
  <scstep>
   <time name="diag">    1.41    1.41</time>
   <time name="diis">   10.70   10.72</time>
   <time name="orth">    0.39    0.39</time>
   <time name="total">   12.52   12.54</time>
   <energy>
    <i name="alphaZ">   3781.08932073 </i>
    <i name="ewald"> -41815.68327742 </i>
    <i name="hartreedc"> -10790.00730369 </i>
    <i name="XCdc">   1768.23901409 </i>
    <i name="pawpsdc">  35447.25529681 </i>
    <i name="pawaedc"> -35226.18940585 </i>
    <i name="eentropy">     -0.14874719 </i>
    <i name="bandstr">  -5314.17417306 </i>
    <i name="atom">  51526.89477174 </i>
    <i name="e_fr_energy">   -622.72450382 </i>
    <i name="e_wo_entrp">   -622.57575663 </i>
    <i name="e_0_energy">   -622.65013023 </i>
   </energy>
  </scstep>
  <structure>
   <crystal>
    <varray name="basis" >
     <v>       8.53701556      -0.00914383       0.00521026 </v>
     <v>      -0.00344601       8.55129605       0.01553104 </v>
     <v>       0.03590979       0.00043657       8.60149200 </v>
    </varray>
    <i name="volume">    627.92889451 </i>
    <varray name="rec_basis" >
     <v>       0.11713730       0.00004809      -0.00048903 </v>
     <v>       0.00012526       0.11694140      -0.00000646 </v>
     <v>      -0.00007118      -0.00021118       0.11625921 </v>
    </varray>
   </crystal>
   <varray name="positions" >
    <v>       0.01031743       0.98396667       0.01963155 </v>
    <v>       0.23912072       0.98501077       0.24809273 </v>
    <v>       0.26381713       0.51305797       0.24532202 </v>
    <v>       0.49793327       0.48063214       0.99551761 </v>
    <v>       0.48486120       0.24050258       0.75649843 </v>
    <v>       0.00543646       0.49623364       0.52113574 </v>
    <v>       0.50245086       0.75416613       0.73421393 </v>
    <v>       0.00071965       0.26012741       0.25081241 </v>
    <v>       0.74236063       0.75033694       0.00139848 </v>
    <v>       0.00827615       0.23974273       0.75014615 </v>
    <v>       0.74903715       0.25073310       0.50823331 </v>
    <v>       0.00193150       0.75814265       0.74883475 </v>
    <v>       0.25479014       0.50123762       0.75293562 </v>
    <v>       0.24904584       0.24513725       0.00162288 </v>
    <v>       0.49414331       0.24116418       0.24488475 </v>
    <v>       0.73909967       0.99385661       0.25238740 </v>
    <v>       0.74937841       0.24750006       0.99475207 </v>
    <v>       0.26516512       0.75537548       0.99972820 </v>
    <v>       0.25187597       0.25033219       0.49725190 </v>
    <v>       0.25092415       0.75108554       0.49718546 </v>
    <v>       0.25240119       0.24992878       0.24849712 </v>
    <v>       0.25316667       0.00051200       0.99855307 </v>
    <v>       0.00084029       0.24371928       0.00153047 </v>
    <v>       0.74312403       0.24258908       0.24780291 </v>
    <v>       0.75332380       0.00289096       0.00264514 </v>
    <v>       0.49764274       0.00156416       0.23237666 </v>
    <v>       0.00416912       0.49964263       0.24624847 </v>
    <v>       0.49989520       0.75392947       0.99250298 </v>
    <v>       0.00436586       0.00086359       0.75600848 </v>
    <v>       0.74493544       0.23750477       0.75341895 </v>
    <v>       0.74517115       0.00235483       0.49563911 </v>
    <v>       0.49697741       0.24445943       0.50009257 </v>
    <v>       0.50034226       0.99901043       0.75318191 </v>
    <v>       0.99692226       0.00226571       0.24564044 </v>
    <v>       0.49928027       0.24981474       0.99629670 </v>
    <v>       0.26344539       0.75184943       0.24848299 </v>
    <v>       0.24852566       0.50107677       0.00577529 </v>
    <v>       0.00746892       0.74937605       0.00095195 </v>
    <v>       0.74199128       0.74935904       0.24914822 </v>
    <v>       0.75723467       0.49580554       0.00305259 </v>
    <v>       0.48977045       0.50173338       0.24140402 </v>
    <v>       0.25640955       0.24339125       0.75043714 </v>
    <v>       0.25491088       0.00050356       0.49616228 </v>
    <v>       0.00447816       0.25619558       0.50065903 </v>
    <v>       0.25919756       0.75914843       0.74824734 </v>
    <v>       0.24642548       0.50132756       0.49235140 </v>
    <v>       0.00316544       0.74656328       0.49811406 </v>
    <v>       0.00024472       0.50045241       0.75242999 </v>
    <v>       0.74389067       0.76392083       0.74457472 </v>
    <v>       0.75902784       0.49712826       0.49865137 </v>
    <v>       0.49888535       0.76884579       0.49459524 </v>
    <v>       0.50366762       0.49794654       0.75182622 </v>
    <v>       0.50892958       0.02192579       0.99753100 </v>
    <v>       0.00543667       0.52287811       0.97658494 </v>
    <v>       0.49977323       0.73254724       0.27340253 </v>
    <v>       0.26068834       0.00312590       0.74109576 </v>
    <v>       0.47341705       0.99831673       0.53039462 </v>
    <v>       0.71914662       0.98648783       0.78360313 </v>
    <v>       0.00646739       0.75397357       0.24996670 </v>
    <v>       0.72677044       0.50325364       0.24656098 </v>
    <v>       0.01112610       0.00539132       0.48403520 </v>
    <v>       0.49979939       0.51042012       0.49673903 </v>
    <v>       0.74674950       0.51155642       0.75628646 </v>
    <v>       0.74971396       0.73610786       0.49591555 </v>
   </varray>
  </structure>
  <varray name="forces" >
   <v>       0.00105073      -0.00252281      -0.00876638 </v>
   <v>      -0.00064685       0.00334881       0.00327864 </v>
   <v>      -0.01601337       0.00346877      -0.00012749 </v>
   <v>       0.00118390       0.00230951       0.00375015 </v>
   <v>       0.00633782       0.00170579      -0.00146503 </v>
   <v>       0.00214994       0.00040921      -0.00287530 </v>
   <v>       0.00157250      -0.00210425       0.00124123 </v>
   <v>      -0.00112371      -0.00799079       0.00112375 </v>
   <v>       0.00275290       0.00167737      -0.00104388 </v>
   <v>      -0.00196210       0.00338557       0.00100621 </v>
   <v>       0.00095830      -0.00129386      -0.00403677 </v>
   <v>      -0.00169291       0.00320179      -0.00146594 </v>
   <v>      -0.00257797      -0.00131124      -0.00345382 </v>
   <v>       0.00099090      -0.00124854      -0.00229781 </v>
   <v>      -0.00080834       0.00161693       0.00092923 </v>
   <v>       0.00028856      -0.00585571      -0.00288509 </v>
   <v>      -0.00146061       0.00141676       0.00323692 </v>
   <v>      -0.00099086       0.00083368      -0.00133853 </v>
   <v>       0.00252197      -0.00216260       0.00160402 </v>
   <v>       0.00056032       0.00246853       0.00142344 </v>
   <v>       0.00171391      -0.00232887       0.00043645 </v>
   <v>       0.00044477       0.00049276      -0.00258880 </v>
   <v>      -0.00154224       0.00480130       0.00038305 </v>
   <v>      -0.00287060      -0.00263715      -0.00071843 </v>
   <v>       0.00069846       0.00236159       0.00150410 </v>
   <v>      -0.00298673      -0.00334378       0.00307817 </v>
   <v>      -0.00355186      -0.00163364      -0.00179249 </v>
   <v>      -0.00295253      -0.00215410       0.00442427 </v>
   <v>      -0.00217747      -0.00115433       0.00059754 </v>
   <v>      -0.00198548       0.00149145       0.00154702 </v>
   <v>      -0.00865113      -0.00298297       0.00914068 </v>
   <v>      -0.00228895       0.00193187       0.00016720 </v>
   <v>      -0.00717390      -0.00164490       0.00248539 </v>
   <v>      -0.00400169      -0.00069435       0.00981011 </v>
   <v>      -0.00144149       0.00072042       0.00041158 </v>
   <v>      -0.00025714      -0.00130612      -0.00025384 </v>
   <v>       0.00255490       0.00058564       0.00227234 </v>
   <v>       0.00286338       0.00328005       0.00157502 </v>
   <v>       0.00154434       0.00640885       0.00269068 </v>
   <v>      -0.00103281      -0.00378649      -0.00034419 </v>
   <v>       0.03263066      -0.00125134      -0.00117497 </v>
   <v>      -0.00024860      -0.00166033      -0.00067969 </v>
   <v>       0.01088590      -0.00130640       0.00287657 </v>
   <v>       0.00186938       0.00251472       0.00058073 </v>
   <v>       0.00203698       0.00175098      -0.00033111 </v>
   <v>      -0.00140238      -0.00063442      -0.00159451 </v>
   <v>      -0.00087603      -0.00241202       0.00046033 </v>
   <v>       0.00142092      -0.00164041      -0.00481651 </v>
   <v>       0.00001307       0.00306606      -0.00026009 </v>
   <v>       0.00129353       0.00779660       0.00289359 </v>
   <v>      -0.00190976       0.00464212      -0.00002442 </v>
   <v>       0.00056078      -0.00139981       0.00055358 </v>
   <v>       0.00064157       0.00127853      -0.00055061 </v>
   <v>       0.00592937      -0.00209068       0.00574489 </v>
   <v>      -0.00532899      -0.00235207      -0.00851109 </v>
   <v>       0.00595123       0.00077460      -0.00293101 </v>
   <v>       0.00117958      -0.00310133      -0.00593894 </v>
   <v>       0.00450548      -0.00074731      -0.00033573 </v>
   <v>      -0.00050821       0.00187866      -0.00253570 </v>
   <v>      -0.01964363      -0.00244664       0.00086940 </v>
   <v>      -0.00815283       0.00023601      -0.00136341 </v>
   <v>       0.00425076       0.00159148      -0.00680970 </v>
   <v>       0.00341688      -0.00240104      -0.00175623 </v>
   <v>       0.00148747      -0.00184609       0.00297122 </v>
  </varray>
  <varray name="stress" >
   <v>       0.12699135      -0.05913481      -0.00074612 </v>
   <v>      -0.05913421      -0.29257796       0.03598484 </v>
   <v>      -0.00074389       0.03598471       0.24568005 </v>
  </varray>
  <energy>
   <i name="e_fr_energy">   -622.72450382 </i>
   <i name="e_wo_entrp">   -622.65013023 </i>
   <i name="e_0_energy">     -0.14874719 </i>
  </energy>
  <time name="totalsc">  740.72  742.17</time>
 </calculation>
 <calculation>
  <scstep>
   <time name="dav">   21.31   21.37</time>
   <time name="total">   21.50   21.56</time>
   <energy>
    <i name="alphaZ">   3780.99988267 </i>
    <i name="ewald"> -41815.77871199 </i>
    <i name="hartreedc"> -10789.55221345 </i>
    <i name="XCdc">   1768.21852654 </i>
    <i name="pawpsdc">  35447.31074660 </i>
    <i name="pawaedc"> -35226.23101826 </i>
    <i name="eentropy">     -0.14873140 </i>
    <i name="bandstr">  -5314.43729332 </i>
    <i name="atom">  51526.89477174 </i>
    <i name="e_fr_energy">   -622.72404085 </i>
    <i name="e_wo_entrp">   -622.57530946 </i>
    <i name="e_0_energy">   -622.64967516 </i>
   </energy>
  </scstep>
  <scstep>
   <time name="diag">    1.40    1.41</time>
   <time name="diis">   18.06   18.16</time>
   <time name="orth">    0.39    0.39</time>
   <time name="total">   20.03   20.14</time>
   <energy>
    <i name="e_fr_energy">   -622.72473004 </i>
    <i name="e_wo_entrp">   -622.57596984 </i>
    <i name="e_0_energy">   -622.65034994 </i>
   </energy>
  </scstep>
  <scstep>
   <time name="diag">    1.41    1.41</time>
   <time name="diis">   14.45   14.47</time>
   <time name="orth">    0.39    0.39</time>
   <time name="total">   16.43   16.46</time>
   <energy>
    <i name="e_fr_energy">   -622.72461337 </i>
    <i name="e_wo_entrp">   -622.57587178 </i>
    <i name="e_0_energy">   -622.65024257 </i>
   </energy>
  </scstep>
  <scstep>
   <time name="diag">    1.41    1.41</time>
   <time name="diis">   15.29   15.30</time>
   <time name="orth">    0.39    0.39</time>
   <time name="total">   17.27   17.29</time>
   <energy>
    <i name="e_fr_energy">   -622.72461332 </i>
    <i name="e_wo_entrp">   -622.57589526 </i>
    <i name="e_0_energy">   -622.65025429 </i>
   </energy>
  </scstep>
  <scstep>
   <time name="diag">    1.40    1.40</time>
   <time name="diis">   12.20   12.22</time>
   <time name="orth">    0.42    0.42</time>
   <time name="total">   14.21   14.23</time>
   <energy>
    <i name="e_fr_energy">   -622.72459425 </i>
    <i name="e_wo_entrp">   -622.57584228 </i>
    <i name="e_0_energy">   -622.65021827 </i>
   </energy>
  </scstep>
  <scstep>
   <time name="diag">    1.45    1.45</time>
   <time name="diis">   10.30   10.31</time>
   <time name="orth">    0.39    0.39</time>
   <time name="total">   12.16   12.18</time>
   <energy>
    <i name="alphaZ">   3780.99988267 </i>
    <i name="ewald"> -41815.77871199 </i>
    <i name="hartreedc"> -10789.72302527 </i>
    <i name="XCdc">   1768.22706696 </i>
    <i name="pawpsdc">  35446.99126938 </i>
    <i name="pawaedc"> -35225.88678157 </i>
    <i name="eentropy">     -0.14872527 </i>
    <i name="bandstr">  -5314.30033158 </i>
    <i name="atom">  51526.89477174 </i>
    <i name="e_fr_energy">   -622.72458490 </i>
    <i name="e_wo_entrp">   -622.57585964 </i>
    <i name="e_0_energy">   -622.65022227 </i>
   </energy>
  </scstep>
  <structure>
   <crystal>
    <varray name="basis" >
     <v>       8.53733600      -0.00929212       0.00520866 </v>
     <v>      -0.00359553       8.55055714       0.01562308 </v>
     <v>       0.03590924       0.00052734       8.60211630 </v>
    </varray>
    <i name="volume">    627.94374792 </i>
    <varray name="rec_basis" >
     <v>       0.11713291       0.00005015      -0.00048897 </v>
     <v>       0.00012730       0.11695151      -0.00000770 </v>
     <v>      -0.00007116      -0.00021244       0.11625077 </v>
    </varray>
   </crystal>
   <varray name="positions" >
    <v>       0.01032357       0.98395245       0.01958241 </v>
    <v>       0.23911699       0.98502966       0.24811108 </v>
    <v>       0.26372665       0.51307745       0.24532132 </v>
    <v>       0.49793988       0.48064518       0.99553862 </v>
    <v>       0.48489705       0.24051224       0.75649017 </v>
    <v>       0.00544868       0.49623596       0.52111960 </v>
    <v>       0.50245971       0.75415427       0.73422091 </v>
    <v>       0.00071325       0.26008232       0.25081880 </v>
    <v>       0.74237622       0.75034642       0.00139260 </v>
    <v>       0.00826505       0.23976182       0.75015177 </v>
    <v>       0.74904266       0.25072581       0.50821068 </v>
    <v>       0.00192198       0.75816070       0.74882650 </v>
    <v>       0.25477565       0.50123021       0.75291627 </v>
    <v>       0.24905149       0.24513022       0.00161000 </v>
    <v>       0.49413873       0.24117330       0.24488995 </v>
    <v>       0.73910136       0.99382358       0.25237127 </v>
    <v>       0.74937008       0.24750804       0.99477021 </v>
    <v>       0.26515955       0.75538017       0.99972069 </v>
    <v>       0.25189018       0.25032000       0.49726091 </v>
    <v>       0.25092729       0.75109947       0.49719342 </v>
    <v>       0.25241086       0.24991565       0.24849959 </v>
    <v>       0.25316925       0.00051478       0.99853855 </v>
    <v>       0.00083157       0.24374636       0.00153258 </v>
    <v>       0.74310782       0.24257418       0.24779892 </v>
    <v>       0.75332772       0.00290429       0.00265355 </v>
    <v>       0.49762578       0.00154528       0.23239397 </v>
    <v>       0.00414908       0.49963339       0.24623845 </v>
    <v>       0.49987841       0.75391730       0.99252782 </v>
    <v>       0.00435353       0.00085707       0.75601185 </v>
    <v>       0.74492419       0.23751317       0.75342762 </v>
    <v>       0.74512204       0.00233794       0.49569043 </v>
    <v>       0.49696448       0.24447032       0.50009350 </v>
    <v>       0.50030166       0.99900111       0.75319589 </v>
    <v>       0.99689941       0.00226177       0.24569548 </v>
    <v>       0.49927211       0.24981879       0.99629900 </v>
    <v>       0.26344394       0.75184206       0.24848158 </v>
    <v>       0.24854005       0.50108008       0.00578802 </v>
    <v>       0.00748507       0.74939457       0.00096074 </v>
    <v>       0.74199996       0.74939521       0.24916324 </v>
    <v>       0.75722884       0.49578417       0.00305070 </v>
    <v>       0.48995487       0.50172652       0.24139733 </v>
    <v>       0.25640816       0.24338188       0.75043334 </v>
    <v>       0.25497233       0.00049625       0.49617839 </v>
    <v>       0.00448871       0.25620978       0.50066226 </v>
    <v>       0.25920908       0.75915832       0.74824546 </v>
    <v>       0.24641759       0.50132397       0.49234246 </v>
    <v>       0.00316048       0.74654967       0.49811667 </v>
    <v>       0.00025286       0.50044316       0.75240299 </v>
    <v>       0.74389076       0.76393813       0.74457323 </v>
    <v>       0.75903510       0.49717225       0.49866752 </v>
    <v>       0.49887457       0.76887197       0.49459506 </v>
    <v>       0.50367077       0.49793865       0.75182934 </v>
    <v>       0.50893322       0.02193300       0.99752790 </v>
    <v>       0.00547004       0.52286635       0.97661717 </v>
    <v>       0.49974331       0.73253394       0.27335484 </v>
    <v>       0.26072205       0.00313031       0.74107929 </v>
    <v>       0.47342385       0.99829924       0.53036133 </v>
    <v>       0.71917208       0.98648364       0.78360124 </v>
    <v>       0.00646458       0.75398417       0.24995246 </v>
    <v>       0.72665940       0.50323972       0.24656595 </v>
    <v>       0.01108006       0.00539260       0.48402758 </v>
    <v>       0.49982358       0.51042913       0.49670081 </v>
    <v>       0.74676885       0.51154290       0.75627662 </v>
    <v>       0.74972229       0.73609745       0.49593223 </v>
   </varray>
  </structure>
  <varray name="forces" >
   <v>       0.00042130       0.00281882       0.00486846 </v>
   <v>      -0.00046969       0.00105888       0.00361014 </v>
   <v>       0.01296861      -0.00293654      -0.00047985 </v>
   <v>      -0.00225823       0.00162045      -0.00205384 </v>
   <v>       0.00050079       0.00116723       0.00002163 </v>
   <v>       0.00091848      -0.00105946      -0.00252732 </v>
   <v>      -0.00017304       0.00137449      -0.00143247 </v>
   <v>       0.00097140      -0.00354404       0.00011997 </v>
   <v>      -0.00080325      -0.00045456       0.00073448 </v>
   <v>      -0.00162160       0.00158831      -0.00142361 </v>
   <v>      -0.00124668       0.00007698      -0.00188386 </v>
   <v>      -0.00084787      -0.00202904       0.00083753 </v>
   <v>       0.00183951      -0.00125006       0.00099262 </v>
   <v>       0.00006972      -0.00131199      -0.00019984 </v>
   <v>      -0.00107030      -0.00334056      -0.00029338 </v>
   <v>      -0.00240035       0.00116704      -0.00082182 </v>
   <v>      -0.00181392       0.00002662       0.00203683 </v>
   <v>       0.00103576       0.00013048       0.00098866 </v>
   <v>       0.00040348      -0.00134170       0.00010330 </v>
   <v>       0.00001461       0.00003281      -0.00191054 </v>
   <v>      -0.00034584      -0.00263382      -0.00032093 </v>
   <v>       0.00019825       0.00062409      -0.00201809 </v>
   <v>       0.00014099       0.00427581      -0.00058335 </v>
   <v>      -0.00158521      -0.00166363       0.00007395 </v>
   <v>       0.00051251       0.00038749      -0.00016937 </v>
   <v>      -0.00203262      -0.00097653       0.00109662 </v>
   <v>       0.00335180      -0.00093423      -0.00350804 </v>
   <v>       0.00146725      -0.00285712       0.00397841 </v>
   <v>      -0.00381866       0.00088584       0.00241736 </v>
   <v>      -0.00085937       0.00153696       0.00007368 </v>
   <v>      -0.00374489      -0.00020054       0.00471759 </v>
   <v>       0.00156048       0.00224038      -0.00083750 </v>
   <v>      -0.00162353      -0.00393314       0.00203410 </v>
   <v>      -0.00247464      -0.00205875      -0.00532210 </v>
   <v>       0.00032043      -0.00046185       0.00040017 </v>
   <v>      -0.00213473       0.00054873      -0.00046079 </v>
   <v>       0.00137181       0.00014938      -0.00091061 </v>
   <v>       0.00121315      -0.00035461      -0.00186742 </v>
   <v>      -0.00049504      -0.00223898      -0.00021159 </v>
   <v>      -0.00052295      -0.00017868       0.00084364 </v>
   <v>      -0.02692127      -0.00150730      -0.00232700 </v>
   <v>       0.00079272       0.00019525      -0.00130641 </v>
   <v>      -0.00347521       0.00018008      -0.00171934 </v>
   <v>       0.00128634       0.00023407       0.00033644 </v>
   <v>      -0.00010911      -0.00056022      -0.00085809 </v>
   <v>       0.00065364       0.00037579      -0.00133040 </v>
   <v>       0.00062902      -0.00092001      -0.00125889 </v>
   <v>       0.00129336       0.00080186      -0.00039911 </v>
   <v>       0.00099027      -0.00207387       0.00032391 </v>
   <v>       0.00071868      -0.00304171      -0.00129551 </v>
   <v>       0.00062968       0.00104956      -0.00439072 </v>
   <v>       0.00133684      -0.00043859      -0.00290917 </v>
   <v>       0.00015185       0.00053603       0.00212195 </v>
   <v>      -0.00061186       0.00164122      -0.00296302 </v>
   <v>       0.00407247       0.00604124       0.00138840 </v>
   <v>       0.00220231       0.00074598      -0.00326650 </v>
   <v>       0.00276720      -0.00063842       0.00661742 </v>
   <v>      -0.00501763       0.00380387       0.00146126 </v>
   <v>       0.00058282      -0.00072914       0.00139589 </v>
   <v>       0.02131214       0.00194995       0.00211819 </v>
   <v>       0.00221114       0.00027170       0.00620480 </v>
   <v>      -0.00175638       0.00117797       0.00051428 </v>
   <v>       0.00029912      -0.00224799       0.00061343 </v>
   <v>      -0.00097604       0.00720172       0.00021534 </v>
  </varray>
  <varray name="stress" >
   <v>       0.22797938      -0.02077007       0.01780062 </v>
   <v>      -0.02077021      -0.19626065       0.03357593 </v>
   <v>       0.01779872       0.03357537       0.25367407 </v>
  </varray>
  <energy>
   <i name="e_fr_energy">   -622.72458490 </i>
   <i name="e_wo_entrp">   -622.65022227 </i>
   <i name="e_0_energy">     -0.14872527 </i>
  </energy>
  <time name="totalsc">  139.87  140.30</time>
 </calculation>
 <calculation>
  <scstep>
   <time name="dav">   20.91   20.99</time>
   <time name="total">   21.10   21.18</time>
   <energy>
    <i name="alphaZ">   3781.02129808 </i>
    <i name="ewald"> -41815.75618329 </i>
    <i name="hartreedc"> -10789.84003314 </i>
    <i name="XCdc">   1768.23267060 </i>
    <i name="pawpsdc">  35446.88621831 </i>
    <i name="pawaedc"> -35225.77108892 </i>
    <i name="eentropy">     -0.14875967 </i>
    <i name="bandstr">  -5314.24347568 </i>
    <i name="atom">  51526.89477174 </i>
    <i name="e_fr_energy">   -622.72458195 </i>
    <i name="e_wo_entrp">   -622.57582228 </i>
    <i name="e_0_energy">   -622.65020212 </i>
   </energy>
  </scstep>
  <scstep>
   <time name="diag">    1.41    1.41</time>
   <time name="diis">   13.19   13.22</time>
   <time name="orth">    0.39    0.39</time>
   <time name="total">   15.17   15.21</time>
   <energy>
    <i name="e_fr_energy">   -622.72546672 </i>
    <i name="e_wo_entrp">   -622.57686152 </i>
    <i name="e_0_energy">   -622.65116412 </i>
   </energy>
  </scstep>
  <scstep>
   <time name="diag">    1.40    1.40</time>
   <time name="diis">   10.56   10.57</time>
   <time name="orth">    0.39    0.39</time>
   <time name="total">   12.53   12.54</time>
   <energy>
    <i name="e_fr_energy">   -622.72462116 </i>
    <i name="e_wo_entrp">   -622.57588327 </i>
    <i name="e_0_energy">   -622.65025221 </i>
   </energy>
  </scstep>
  <scstep>
   <time name="diag">    1.41    1.41</time>
   <time name="diis">    8.45    8.47</time>
   <time name="orth">    0.39    0.39</time>
   <time name="total">   10.45   10.46</time>
   <energy>
    <i name="e_fr_energy">   -622.72459613 </i>
    <i name="e_wo_entrp">   -622.57586632 </i>
    <i name="e_0_energy">   -622.65023123 </i>
   </energy>
  </scstep>
  <scstep>
   <time name="diag">    1.41    1.41</time>
   <time name="diis">    7.39    7.41</time>
   <time name="orth">    0.39    0.39</time>
   <time name="total">    9.22    9.24</time>
   <energy>
    <i name="alphaZ">   3781.02129808 </i>
    <i name="ewald"> -41815.75618329 </i>
    <i name="hartreedc"> -10789.82708893 </i>
    <i name="XCdc">   1768.23191744 </i>
    <i name="pawpsdc">  35446.89014550 </i>
    <i name="pawaedc"> -35225.76518787 </i>
    <i name="eentropy">     -0.14874924 </i>
    <i name="bandstr">  -5314.26551879 </i>
    <i name="atom">  51526.89477174 </i>
    <i name="e_fr_energy">   -622.72459534 </i>
    <i name="e_wo_entrp">   -622.57584610 </i>
    <i name="e_0_energy">   -622.65022072 </i>
   </energy>
  </scstep>
  <structure>
   <crystal>
    <varray name="basis" >
     <v>       8.53725926      -0.00925660       0.00520904 </v>
     <v>      -0.00355972       8.55073411       0.01560103 </v>
     <v>       0.03590937       0.00050560       8.60196678 </v>
    </varray>
    <i name="volume">    627.94019130 </i>
    <varray name="rec_basis" >
     <v>       0.11713396       0.00004966      -0.00048898 </v>
     <v>       0.00012681       0.11694909      -0.00000740 </v>
     <v>      -0.00007116      -0.00021214       0.11625279 </v>
    </varray>
   </crystal>
   <varray name="positions" >
    <v>       0.01032210       0.98395585       0.01959418 </v>
    <v>       0.23911789       0.98502514       0.24810669 </v>
    <v>       0.26374832       0.51307278       0.24532149 </v>
    <v>       0.49793830       0.48064205       0.99553359 </v>
    <v>       0.48488847       0.24050993       0.75649215 </v>
    <v>       0.00544575       0.49623541       0.52112347 </v>
    <v>       0.50245759       0.75415711       0.73421924 </v>
    <v>       0.00071478       0.26009312       0.25081727 </v>
    <v>       0.74237249       0.75034415       0.00139401 </v>
    <v>       0.00826771       0.23975725       0.75015042 </v>
    <v>       0.74904134       0.25072756       0.50821610 </v>
    <v>       0.00192426       0.75815638       0.74882847 </v>
    <v>       0.25477912       0.50123198       0.75292090 </v>
    <v>       0.24905013       0.24513190       0.00161308 </v>
    <v>       0.49413982       0.24117111       0.24488870 </v>
    <v>       0.73910095       0.99383149       0.25237513 </v>
    <v>       0.74937207       0.24750613       0.99476587 </v>
    <v>       0.26516088       0.75537905       0.99972248 </v>
    <v>       0.25188678       0.25032292       0.49725875 </v>
    <v>       0.25092654       0.75109613       0.49719151 </v>
    <v>       0.25240855       0.24991880       0.24849900 </v>
    <v>       0.25316863       0.00051411       0.99854203 </v>
    <v>       0.00083366       0.24373987       0.00153207 </v>
    <v>       0.74311170       0.24257775       0.24779988 </v>
    <v>       0.75332678       0.00290110       0.00265153 </v>
    <v>       0.49762985       0.00154980       0.23238983 </v>
    <v>       0.00415388       0.49963560       0.24624085 </v>
    <v>       0.49988243       0.75392022       0.99252187 </v>
    <v>       0.00435649       0.00085863       0.75601104 </v>
    <v>       0.74492689       0.23751116       0.75342555 </v>
    <v>       0.74513381       0.00234199       0.49567814 </v>
    <v>       0.49696757       0.24446771       0.50009328 </v>
    <v>       0.50031138       0.99900334       0.75319254 </v>
    <v>       0.99690488       0.00226271       0.24568230 </v>
    <v>       0.49927407       0.24981782       0.99629845 </v>
    <v>       0.26344428       0.75184383       0.24848192 </v>
    <v>       0.24853660       0.50107929       0.00578497 </v>
    <v>       0.00748121       0.74939013       0.00095864 </v>
    <v>       0.74199788       0.74938654       0.24915964 </v>
    <v>       0.75723023       0.49578929       0.00305115 </v>
    <v>       0.48991071       0.50172816       0.24139894 </v>
    <v>       0.25640849       0.24338412       0.75043425 </v>
    <v>       0.25495761       0.00049800       0.49617453 </v>
    <v>       0.00448619       0.25620638       0.50066149 </v>
    <v>       0.25920632       0.75915595       0.74824591 </v>
    <v>       0.24641948       0.50132483       0.49234460 </v>
    <v>       0.00316167       0.74655293       0.49811605 </v>
    <v>       0.00025091       0.50044538       0.75240946 </v>
    <v>       0.74389074       0.76393398       0.74457359 </v>
    <v>       0.75903336       0.49716171       0.49866365 </v>
    <v>       0.49887715       0.76886570       0.49459511 </v>
    <v>       0.50367002       0.49794054       0.75182859 </v>
    <v>       0.50893235       0.02193128       0.99752864 </v>
    <v>       0.00546205       0.52286917       0.97660945 </v>
    <v>       0.49975048       0.73253713       0.27336626 </v>
    <v>       0.26071397       0.00312925       0.74108323 </v>
    <v>       0.47342222       0.99830343       0.53036931 </v>
    <v>       0.71916599       0.98648464       0.78360169 </v>
    <v>       0.00646526       0.75398163       0.24995587 </v>
    <v>       0.72668600       0.50324306       0.24656476 </v>
    <v>       0.01109109       0.00539230       0.48402941 </v>
    <v>       0.49981779       0.51042697       0.49670996 </v>
    <v>       0.74676422       0.51154614       0.75627898 </v>
    <v>       0.74972030       0.73609994       0.49592823 </v>
   </varray>
  </structure>
  <varray name="forces" >
   <v>       0.00145944       0.00080156      -0.00102483 </v>
   <v>      -0.00206522       0.00340353       0.00447414 </v>
   <v>       0.00088471      -0.00035389       0.00015000 </v>
   <v>      -0.00190142       0.00337435       0.00084445 </v>
   <v>       0.00398292       0.00260311      -0.00000772 </v>
   <v>       0.00161906      -0.00010576      -0.00402602 </v>
   <v>       0.00167021      -0.00136073       0.00014867 </v>
   <v>      -0.00077187      -0.00881953       0.00140359 </v>
   <v>       0.00222098       0.00148878      -0.00016927 </v>
   <v>      -0.00344134       0.00393541       0.00014963 </v>
   <v>       0.00014438      -0.00075435      -0.00500215 </v>
   <v>      -0.00206841       0.00206018      -0.00124396 </v>
   <v>      -0.00046306      -0.00175325      -0.00318726 </v>
   <v>       0.00123208      -0.00181245      -0.00192337 </v>
   <v>      -0.00206976      -0.00018352       0.00090056 </v>
   <v>      -0.00120245      -0.00256138      -0.00176403 </v>
   <v>      -0.00223025       0.00133144       0.00402194 </v>
   <v>      -0.00001824       0.00161060      -0.00051767 </v>
   <v>       0.00147434      -0.00250989       0.00191092 </v>
   <v>      -0.00004898       0.00188067       0.00037218 </v>
   <v>       0.00063001      -0.00264353       0.00047212 </v>
   <v>       0.00004964       0.00076524      -0.00131602 </v>
   <v>      -0.00088676       0.00489867       0.00031587 </v>
   <v>      -0.00255340      -0.00122187       0.00002618 </v>
   <v>       0.00008536       0.00191017       0.00278006 </v>
   <v>      -0.00263291      -0.00223356       0.00212010 </v>
   <v>       0.00098532      -0.00084380      -0.00207500 </v>
   <v>      -0.00036167      -0.00274798       0.00520165 </v>
   <v>      -0.00337582       0.00060267       0.00270612 </v>
   <v>      -0.00136697       0.00318032       0.00094633 </v>
   <v>      -0.00661378      -0.00117853       0.00598288 </v>
   <v>      -0.00042604       0.00212020      -0.00056798 </v>
   <v>      -0.00404857      -0.00237783       0.00177631 </v>
   <v>      -0.00299539      -0.00226486      -0.00151487 </v>
   <v>      -0.00065896       0.00064920       0.00113364 </v>
   <v>      -0.00189713       0.00055639       0.00013072 </v>
   <v>       0.00343952       0.00022196      -0.00007769 </v>
   <v>       0.00178236       0.00197860      -0.00069112 </v>
   <v>       0.00025598       0.00001544       0.00090930 </v>
   <v>      -0.00159176      -0.00074108       0.00095987 </v>
   <v>      -0.01191517      -0.00203413      -0.00180734 </v>
   <v>       0.00057267      -0.00063740      -0.00054703 </v>
   <v>      -0.00024005       0.00004789       0.00044267 </v>
   <v>       0.00151950       0.00125480       0.00100742 </v>
   <v>       0.00068210       0.00035672      -0.00025399 </v>
   <v>      -0.00008806       0.00007491      -0.00093578 </v>
   <v>       0.00029966      -0.00158963      -0.00014700 </v>
   <v>       0.00130828       0.00046725      -0.00265047 </v>
   <v>       0.00028996      -0.00041613       0.00020313 </v>
   <v>       0.00135250       0.00071743      -0.00002141 </v>
   <v>      -0.00048941       0.00129849      -0.00247020 </v>
   <v>       0.00066296      -0.00054136      -0.00094703 </v>
   <v>       0.00087831       0.00145468       0.00015178 </v>
   <v>       0.01000308      -0.00436008       0.00763837 </v>
   <v>      -0.00480546       0.00143384      -0.01044021 </v>
   <v>       0.00841896       0.00259226      -0.00610010 </v>
   <v>       0.00619709      -0.00661586      -0.00575584 </v>
   <v>       0.00278188      -0.00097641       0.00073960 </v>
   <v>      -0.00033654       0.00052776       0.00001149 </v>
   <v>       0.00853898       0.00037093       0.00249715 </v>
   <v>      -0.00208470       0.00057267       0.00440704 </v>
   <v>      -0.00066171       0.00170960      -0.00188955 </v>
   <v>       0.00134070      -0.00305021       0.00010387 </v>
   <v>      -0.00045168       0.00442125       0.00203521 </v>
  </varray>
  <varray name="stress" >
   <v>      -0.18793243      -0.00058544       0.00389584 </v>
   <v>      -0.00058628       0.08042893       0.01720973 </v>
   <v>       0.00389532       0.01720856      -0.30245790 </v>
  </varray>
  <energy>
   <i name="e_fr_energy">   -622.72459534 </i>
   <i name="e_wo_entrp">   -622.65022072 </i>
   <i name="e_0_energy">     -0.14874924 </i>
  </energy>
  <time name="totalsc">  106.96  107.22</time>
 </calculation>
 <calculation>
  <scstep>
   <time name="dav">   20.82   20.86</time>
   <time name="total">   21.03   21.07</time>
   <energy>
    <i name="alphaZ">   3781.42247064 </i>
    <i name="ewald"> -41817.47206856 </i>
    <i name="hartreedc"> -10790.03581905 </i>
    <i name="XCdc">   1768.30242187 </i>
    <i name="pawpsdc">  35446.90814545 </i>
    <i name="pawaedc"> -35225.78067883 </i>
    <i name="eentropy">     -0.14866844 </i>
    <i name="bandstr">  -5312.81439398 </i>
    <i name="atom">  51526.89477174 </i>
    <i name="e_fr_energy">   -622.72381915 </i>
[...]
      </set>
     </set>
    </set>
   </array>
  </eigenvalues>
  <separator name="orbital magnetization" >
   <v name="MAGDIPOLOUT">      0.00000000      0.00000000      0.00000000</v>
  </separator>
  <dos>
   <i name="efermi">      9.30905041 </i>
   <total>
    <array>
     <dimension dim="1">gridpoints</dimension>
     <dimension dim="2">spin</dimension>
     <field>energy</field>
     <field>total</field>
     <field>integrated</field>
     <set>
      <set comment="spin 1">
       <r>   -59.0812     0.0000     0.0000 </r>
       <r>   -58.8345     0.0000     0.0000 </r>
       <r>   -58.5878     0.0000     0.0000 </r>
       <r>   -58.3410     0.0000     0.0000 </r>
       <r>   -58.0943     0.0000     0.0000 </r>
       <r>   -57.8475     0.0000     0.0000 </r>
       <r>   -57.6008     0.0000     0.0000 </r>
       <r>   -57.3540     0.0000     0.0000 </r>
       <r>   -57.1073     0.0000     0.0000 </r>
       <r>   -56.8605     0.0000     0.0000 </r>
       <r>   -56.6138     0.0000     0.0000 </r>
       <r>   -56.3670     0.0000     0.0000 </r>
       <r>   -56.1203     0.0000     0.0000 </r>
       <r>   -55.8736     0.1100     0.0271 </r>
       <r>   -55.6268    18.5381     4.6013 </r>
       <r>   -55.3801    37.6636    13.8947 </r>
       <r>   -55.1333     0.4270    14.0000 </r>
       <r>   -54.8866     0.0000    14.0000 </r>
       <r>   -54.6398     0.0000    14.0000 </r>
       <r>   -54.3931     0.0000    14.0000 </r>
       <r>   -54.1463     0.0000    14.0000 </r>
       <r>   -53.8996     0.0000    14.0000 </r>
       <r>   -53.6528     0.0000    14.0000 </r>
       <r>   -53.4061     0.0000    14.0000 </r>
       <r>   -53.1594     0.0000    14.0000 </r>
       <r>   -52.9126     0.0000    14.0000 </r>
       <r>   -52.6659     0.0000    14.0000 </r>
       <r>   -52.4191     0.0000    14.0000 </r>
       <r>   -52.1724     0.0000    14.0000 </r>
       <r>   -51.9256     0.0000    14.0000 </r>
       <r>   -51.6789     0.0000    14.0000 </r>
       <r>   -51.4321     0.0000    14.0000 </r>
       <r>   -51.1854     0.0000    14.0000 </r>
       <r>   -50.9387     0.0000    14.0000 </r>
       <r>   -50.6919     0.0000    14.0000 </r>
       <r>   -50.4452     0.0000    14.0000 </r>
       <r>   -50.1984     0.0000    14.0000 </r>
       <r>   -49.9517     0.0000    14.0000 </r>
       <r>   -49.7049     0.0000    14.0000 </r>
       <r>   -49.4582     0.0000    14.0000 </r>
       <r>   -49.2114     0.0000    14.0000 </r>
       <r>   -48.9647     0.0000    14.0000 </r>
       <r>   -48.7179     0.0001    14.0000 </r>
       <r>   -48.4712     2.6598    14.6563 </r>
       <r>   -48.2245    19.4623    19.4585 </r>
       <r>   -47.9777    16.5615    23.5450 </r>
       <r>   -47.7310    11.3658    26.3495 </r>
       <r>   -47.4842     6.6473    27.9896 </r>
       <r>   -47.2375     0.0420    28.0000 </r>
       <r>   -46.9907     0.0854    28.0211 </r>
       <r>   -46.7440    13.0569    31.2428 </r>
       <r>   -46.4972    11.1356    33.9904 </r>
       <r>   -46.2505    16.1008    37.9632 </r>
       <r>   -46.0037     7.8942    39.9111 </r>
       <r>   -45.7570     0.3603    40.0000 </r>
       <r>   -45.5103     0.0000    40.0000 </r>
       <r>   -45.2635     0.0000    40.0000 </r>
       <r>   -45.0168     0.0000    40.0000 </r>
       <r>   -44.7700     0.0000    40.0000 </r>
       <r>   -44.5233     0.0000    40.0000 </r>
       <r>   -44.2765     0.0000    40.0000 </r>
       <r>   -44.0298     0.0000    40.0000 </r>
       <r>   -43.7830     0.0000    40.0000 </r>
       <r>   -43.5363     0.0000    40.0000 </r>
       <r>   -43.2895     0.0000    40.0000 </r>
       <r>   -43.0428     0.0000    40.0000 </r>
       <r>   -42.7961     0.0000    40.0000 </r>
       <r>   -42.5493     0.0000    40.0000 </r>
       <r>   -42.3026     0.0000    40.0000 </r>
       <r>   -42.0558     0.0000    40.0000 </r>
       <r>   -41.8091     0.0000    40.0000 </r>
       <r>   -41.5623     0.0000    40.0000 </r>
       <r>   -41.3156     0.0000    40.0000 </r>
       <r>   -41.0688     0.0000    40.0000 </r>
       <r>   -40.8221     0.0000    40.0000 </r>
       <r>   -40.5754     0.0000    40.0000 </r>
       <r>   -40.3286     0.0000    40.0000 </r>
       <r>   -40.0819     0.0000    40.0000 </r>
       <r>   -39.8351     0.0000    40.0000 </r>
       <r>   -39.5884     0.0000    40.0000 </r>
       <r>   -39.3416     0.0000    40.0000 </r>
       <r>   -39.0949     0.0000    40.0000 </r>
       <r>   -38.8481     0.0000    40.0000 </r>
       <r>   -38.6014     0.0000    40.0000 </r>
       <r>   -38.3546     0.0000    40.0000 </r>
       <r>   -38.1079     0.0000    40.0000 </r>
       <r>   -37.8612     0.0000    40.0000 </r>
       <r>   -37.6144     0.0000    40.0000 </r>
       <r>   -37.3677     0.0000    40.0000 </r>
       <r>   -37.1209     0.0000    40.0000 </r>
       <r>   -36.8742     0.0000    40.0000 </r>
       <r>   -36.6274     0.0000    40.0000 </r>
       <r>   -36.3807     0.0000    40.0000 </r>
       <r>   -36.1339     0.0000    40.0000 </r>
       <r>   -35.8872     0.0000    40.0000 </r>
       <r>   -35.6404     0.0000    40.0000 </r>
       <r>   -35.3937     0.0000    40.0000 </r>
       <r>   -35.1470     0.0000    40.0000 </r>
       <r>   -34.9002     0.0000    40.0000 </r>
       <r>   -34.6535     1.8350    40.4528 </r>
       <r>   -34.4067    47.3965    52.1476 </r>
       <r>   -34.1600    89.4039    74.2076 </r>
       <r>   -33.9132     7.2617    75.9994 </r>
       <r>   -33.6665     0.0024    76.0000 </r>
       <r>   -33.4197     0.0000    76.0000 </r>
       <r>   -33.1730     0.0000    76.0000 </r>
       <r>   -32.9262     0.0000    76.0000 </r>
       <r>   -32.6795     0.0000    76.0000 </r>
       <r>   -32.4328     0.0000    76.0000 </r>
       <r>   -32.1860     0.0000    76.0000 </r>
       <r>   -31.9393     0.0000    76.0000 </r>
       <r>   -31.6925     0.0000    76.0000 </r>
       <r>   -31.4458     0.0000    76.0000 </r>
       <r>   -31.1990     0.0000    76.0000 </r>
       <r>   -30.9523     0.0000    76.0000 </r>
       <r>   -30.7055     0.0000    76.0000 </r>
       <r>   -30.4588     0.0000    76.0000 </r>
       <r>   -30.2120     0.0000    76.0000 </r>
       <r>   -29.9653     0.0077    76.0019 </r>
       <r>   -29.7186    14.7502    79.6414 </r>
       <r>   -29.4718   117.9492   108.7449 </r>
       <r>   -29.2251    37.4046   117.9743 </r>
       <r>   -28.9783     0.1043   118.0000 </r>
       <r>   -28.7316     0.0000   118.0000 </r>
       <r>   -28.4848     0.0000   118.0000 </r>
       <r>   -28.2381     0.0000   118.0000 </r>
       <r>   -27.9913     0.0000   118.0000 </r>
       <r>   -27.7446     0.0000   118.0000 </r>
       <r>   -27.4979     0.0000   118.0000 </r>
       <r>   -27.2511     0.0000   118.0000 </r>
       <r>   -27.0044     0.0000   118.0000 </r>
       <r>   -26.7576     0.0000   118.0000 </r>
       <r>   -26.5109     0.0000   118.0000 </r>
       <r>   -26.2641     0.0000   118.0000 </r>
       <r>   -26.0174     0.0000   118.0000 </r>
       <r>   -25.7706     0.0000   118.0000 </r>
       <r>   -25.5239     0.0000   118.0000 </r>
       <r>   -25.2771     0.0000   118.0000 </r>
       <r>   -25.0304     0.4220   118.1041 </r>
       <r>   -24.7837    29.0122   125.2628 </r>
       <r>   -24.5369    50.6047   137.7493 </r>
       <r>   -24.2902    56.2097   151.6187 </r>
       <r>   -24.0434    27.8930   158.5012 </r>
       <r>   -23.7967     6.0737   159.9999 </r>
       <r>   -23.5499     0.0005   160.0000 </r>
       <r>   -23.3032     0.0332   160.0082 </r>
       <r>   -23.0564    15.6204   163.8625 </r>
       <r>   -22.8097    37.1478   173.0285 </r>
       <r>   -22.5629    53.6286   186.2611 </r>
       <r>   -22.3162    23.2107   191.9882 </r>
       <r>   -22.0695    16.2156   195.9893 </r>
       <r>   -21.8227     0.0432   196.0000 </r>
       <r>   -21.5760     0.0000   196.0000 </r>
       <r>   -21.3292     0.0000   196.0000 </r>
       <r>   -21.0825     0.0000   196.0000 </r>
       <r>   -20.8357     0.0000   196.0000 </r>
       <r>   -20.5890     0.0000   196.0000 </r>
       <r>   -20.3422     0.0000   196.0000 </r>
       <r>   -20.0955     0.0000   196.0000 </r>
       <r>   -19.8487     0.0000   196.0000 </r>
       <r>   -19.6020     0.0000   196.0000 </r>
       <r>   -19.3553     0.0000   196.0000 </r>
       <r>   -19.1085     0.0000   196.0000 </r>
       <r>   -18.8618     0.0000   196.0000 </r>
       <r>   -18.6150     0.0000   196.0000 </r>
       <r>   -18.3683     0.0000   196.0000 </r>
       <r>   -18.1215     0.0000   196.0000 </r>
       <r>   -17.8748     0.0000   196.0000 </r>
       <r>   -17.6280     0.0000   196.0000 </r>
       <r>   -17.3813     0.0000   196.0000 </r>
       <r>   -17.1345     0.0000   196.0000 </r>
       <r>   -16.8878     0.0000   196.0000 </r>
       <r>   -16.6411     0.0000   196.0000 </r>
       <r>   -16.3943     0.0000   196.0000 </r>
       <r>   -16.1476     0.0000   196.0000 </r>
       <r>   -15.9008     0.0000   196.0000 </r>
       <r>   -15.6541     0.0000   196.0000 </r>
       <r>   -15.4073     0.0000   196.0000 </r>
       <r>   -15.1606     0.0000   196.0000 </r>
       <r>   -14.9138     0.0000   196.0000 </r>
       <r>   -14.6671     0.0000   196.0000 </r>
       <r>   -14.4204     0.0000   196.0000 </r>
       <r>   -14.1736     0.0000   196.0000 </r>
       <r>   -13.9269     0.0000   196.0000 </r>
       <r>   -13.6801     0.0000   196.0000 </r>
       <r>   -13.4334     0.0000   196.0000 </r>
       <r>   -13.1866     0.0000   196.0000 </r>
       <r>   -12.9399     0.0000   196.0000 </r>
       <r>   -12.6931     0.0000   196.0000 </r>
       <r>   -12.4464     0.0000   196.0000 </r>
       <r>   -12.1996     0.0000   196.0000 </r>
       <r>   -11.9529     0.0000   196.0000 </r>
       <r>   -11.7062     0.0000   196.0000 </r>
       <r>   -11.4594     0.0000   196.0000 </r>
       <r>   -11.2127     0.0000   196.0000 </r>
       <r>   -10.9659     0.0000   196.0000 </r>
       <r>   -10.7192     0.0000   196.0000 </r>
       <r>   -10.4724     0.0000   196.0000 </r>
       <r>   -10.2257     0.0000   196.0000 </r>
       <r>    -9.9789     0.0000   196.0000 </r>
       <r>    -9.7322     0.0000   196.0000 </r>
       <r>    -9.4854     0.0000   196.0000 </r>
       <r>    -9.2387     0.0000   196.0000 </r>
       <r>    -8.9920     0.0000   196.0000 </r>
       <r>    -8.7452     0.0000   196.0000 </r>
       <r>    -8.4985     0.0000   196.0000 </r>
       <r>    -8.2517     0.0000   196.0000 </r>
       <r>    -8.0050     0.0000   196.0000 </r>
       <r>    -7.7582     0.0000   196.0000 </r>
       <r>    -7.5115     0.0000   196.0000 </r>
       <r>    -7.2647     0.3111   196.0768 </r>
       <r>    -7.0180     6.9649   197.7953 </r>
       <r>    -6.7712     1.8306   198.2470 </r>
       <r>    -6.5245     7.3379   200.0576 </r>
       <r>    -6.2778     8.8595   202.2436 </r>
       <r>    -6.0310    13.8365   205.6577 </r>
       <r>    -5.7843    22.5518   211.2223 </r>
       <r>    -5.5375    22.7636   216.8391 </r>
       <r>    -5.2908    15.6728   220.7063 </r>
       <r>    -5.0440     5.2360   221.9983 </r>
       <r>    -4.7973     0.0071   222.0000 </r>
       <r>    -4.5505     0.0000   222.0000 </r>
       <r>    -4.3038     0.0000   222.0000 </r>
       <r>    -4.0570     0.0000   222.0000 </r>
       <r>    -3.8103     0.0059   222.0015 </r>
       <r>    -3.5636     1.7166   222.4250 </r>
       <r>    -3.3168     5.8691   223.8732 </r>
       <r>    -3.0701     6.2560   225.4168 </r>
       <r>    -2.8233    11.1905   228.1780 </r>
       <r>    -2.5766    18.4137   232.7215 </r>
       <r>    -2.3298    23.6581   238.5590 </r>
       <r>    -2.0831    22.8310   244.1925 </r>
       <r>    -1.8363    24.0425   250.1249 </r>
       <r>    -1.5896    20.9177   255.2862 </r>
       <r>    -1.3429    12.7904   258.4422 </r>
       <r>    -1.0961     6.0969   259.9466 </r>
       <r>    -0.8494     0.2166   260.0000 </r>
       <r>    -0.6026     0.0000   260.0000 </r>
       <r>    -0.3559     0.0000   260.0000 </r>
       <r>    -0.1091     0.0000   260.0000 </r>
       <r>     0.1376     0.0000   260.0000 </r>
       <r>     0.3844     0.0000   260.0000 </r>
       <r>     0.6311     0.0000   260.0000 </r>
       <r>     0.8779     0.0000   260.0000 </r>
       <r>     1.1246     0.0325   260.0080 </r>
       <r>     1.3713     0.6896   260.1782 </r>
       <r>     1.6181     3.9080   261.1425 </r>
       <r>     1.8648     9.4246   263.4679 </r>
       <r>     2.1116    11.2252   266.2377 </r>
       <r>     2.3583    20.7161   271.3493 </r>
       <r>     2.6051    24.9130   277.4965 </r>
       <r>     2.8518    31.2142   285.1984 </r>
       <r>     3.0986    31.3473   292.9332 </r>
       <r>     3.3453    33.8429   301.2838 </r>
       <r>     3.5921    33.4030   309.5258 </r>
       <r>     3.8388    42.7746   320.0802 </r>
       <r>     4.0855    52.2897   332.9825 </r>
       <r>     4.3323    58.7159   347.4704 </r>
       <r>     4.5790    62.9398   363.0005 </r>
       <r>     4.8258    63.0301   378.5529 </r>
       <r>     5.0725    61.0857   393.6255 </r>
       <r>     5.3193    55.4893   407.3172 </r>
       <r>     5.5660    42.5610   417.8189 </r>
       <r>     5.8128    33.6024   426.1101 </r>
       <r>     6.0595    32.7784   434.1981 </r>
       <r>     6.3063    27.2700   440.9268 </r>
       <r>     6.5530    20.0696   445.8789 </r>
       <r>     6.7997    15.1169   449.6089 </r>
       <r>     7.0465     7.7755   451.5275 </r>
       <r>     7.2932    10.0891   454.0169 </r>
       <r>     7.5400    15.4205   457.8218 </r>
       <r>     7.7867    22.5465   463.3851 </r>
       <r>     8.0335    21.2872   468.6376 </r>
       <r>     8.2802    19.0935   473.3488 </r>
       <r>     8.5270    21.9524   478.7655 </r>
       <r>     8.7737    29.5885   486.0663 </r>
       <r>     9.0205    30.5860   493.6133 </r>
       <r>     9.2672    28.9898   500.7664 </r>
       <r>     9.5139    33.0446   508.9200 </r>
       <r>     9.7607    45.3779   520.1167 </r>
       <r>    10.0074    56.6735   534.1007 </r>
       <r>    10.2542    60.5616   549.0440 </r>
       <r>    10.5009    61.2669   564.1613 </r>
       <r>    10.7477    58.0245   578.4785 </r>
       <r>    10.9944    60.5952   593.4301 </r>
       <r>    11.2412    60.2143   608.2877 </r>
       <r>    11.4879    52.9269   621.3472 </r>
       <r>    11.7346    10.7257   623.9937 </r>
       <r>    11.9814     0.0256   624.0000 </r>
       <r>    12.2281     0.0000   624.0000 </r>
       <r>    12.4749     0.0000   624.0000 </r>
       <r>    12.7216     0.0000   624.0000 </r>
       <r>    12.9684     0.0000   624.0000 </r>
       <r>    13.2151     0.0000   624.0000 </r>
       <r>    13.4619     0.0000   624.0000 </r>
       <r>    13.7086     0.0000   624.0000 </r>
       <r>    13.9554     0.0000   624.0000 </r>
       <r>    14.2021     0.0000   624.0000 </r>
       <r>    14.4488     0.0000   624.0000 </r>
       <r>    14.6956     0.0000   624.0000 </r>
       <r>    14.9423     0.0000   624.0000 </r>
      </set>
     </set>
    </array>
   </total>
  </dos>
 </calculation>
 <structure name="finalpos" >
  <crystal>
   <varray name="basis" >
    <v>       8.53714123      -0.00928487       0.00526161 </v>
    <v>      -0.00358781       8.55089361       0.01575735 </v>
    <v>       0.03596233       0.00066369       8.60146088 </v>
   </varray>
   <i name="volume">    627.90624900 </i>
   <varray name="rec_basis" >
    <v>       0.11713559       0.00005005      -0.00048974 </v>
    <v>       0.00012720       0.11694691      -0.00000956 </v>
    <v>      -0.00007189      -0.00021427       0.11625964 </v>
   </varray>
  </crystal>
  <varray name="positions" >
   <v>       0.01034096       0.98396580       0.01956663 </v>
   <v>       0.23909387       0.98507384       0.24816562 </v>
   <v>       0.26372090       0.51306831       0.24532261 </v>
   <v>       0.49791303       0.48068098       0.99554772 </v>
   <v>       0.48495406       0.24054457       0.75648816 </v>
   <v>       0.00547125       0.49622711       0.52105980 </v>
   <v>       0.50248127       0.75414420       0.73422677 </v>
   <v>       0.00070770       0.25997984       0.25083146 </v>
   <v>       0.74239738       0.75034901       0.00138707 </v>
   <v>       0.00822398       0.23979936       0.75015187 </v>
   <v>       0.74904539       0.25072028       0.50815298 </v>
   <v>       0.00190269       0.75816341       0.74882797 </v>
   <v>       0.25477692       0.50121178       0.75289494 </v>
   <v>       0.24906461       0.24510860       0.00158725 </v>
   <v>       0.49411620       0.24116887       0.24490116 </v>
   <v>       0.73908184       0.99379766       0.25234821 </v>
   <v>       0.74934191       0.24752640       0.99481929 </v>
   <v>       0.26515545       0.75540049       0.99971272 </v>
   <v>       0.25190473       0.25028905       0.49728431 </v>
   <v>       0.25092985       0.75111941       0.49719273 </v>
   <v>       0.25241293       0.24988365       0.24850321 </v>
   <v>       0.25317295       0.00052521       0.99851960 </v>
   <v>       0.00082387       0.24381019       0.00153556 </v>
   <v>       0.74307775       0.24255720       0.24780038 </v>
   <v>       0.75332948       0.00292147       0.00267990 </v>
   <v>       0.49758903       0.00151615       0.23242291 </v>
   <v>       0.00416347       0.49961756       0.24620270 </v>
   <v>       0.49988199       0.75388283       0.99259597 </v>
   <v>       0.00430322       0.00087218       0.75604530 </v>
   <v>       0.74490547       0.23754738       0.75343725 </v>
   <v>       0.74503673       0.00232665       0.49577701 </v>
   <v>       0.49696308       0.24450056       0.50008771 </v>
   <v>       0.50027006       0.99896526       0.75322070 </v>
   <v>       0.99685945       0.00222945       0.24568054 </v>
   <v>       0.49926377       0.24983127       0.99631118 </v>
   <v>       0.26341275       0.75185097       0.24848144 </v>
   <v>       0.24858171       0.50108203       0.00578227 </v>
   <v>       0.00750980       0.74940584       0.00094961 </v>
   <v>       0.74200154       0.74939108       0.24917283 </v>
   <v>       0.75721803       0.49578317       0.00305973 </v>
   <v>       0.48984720       0.50170112       0.24137695 </v>
   <v>       0.25641505       0.24337524       0.75042390 </v>
   <v>       0.25496084       0.00049399       0.49618195 </v>
   <v>       0.00450810       0.25621959       0.50067288 </v>
   <v>       0.25921645       0.75915970       0.74824053 </v>
   <v>       0.24642218       0.50132529       0.49232660 </v>
   <v>       0.00316541       0.74653519       0.49811132 </v>
   <v>       0.00027100       0.50045589       0.75238992 </v>
   <v>       0.74389374       0.76393278       0.74457841 </v>
   <v>       0.75904880       0.49718190       0.49866961 </v>
   <v>       0.49886782       0.76887383       0.49454848 </v>
   <v>       0.50368019       0.49793166       0.75181184 </v>
   <v>       0.50894570       0.02194023       0.99752768 </v>
   <v>       0.00557094       0.52283551       0.97667809 </v>
   <v>       0.49969189       0.73255048       0.27324898 </v>
   <v>       0.26081453       0.00315851       0.74100760 </v>
   <v>       0.47351240       0.99823725       0.53032169 </v>
   <v>       0.71917568       0.98649411       0.78360415 </v>
   <v>       0.00646648       0.75399059       0.24994792 </v>
   <v>       0.72675005       0.50324565       0.24659393 </v>
   <v>       0.01104927       0.00540455       0.48409100 </v>
   <v>       0.49981989       0.51046324       0.49666939 </v>
   <v>       0.74679047       0.51150438       0.75628284 </v>
   <v>       0.74971521       0.73614999       0.49595939 </v>
  </varray>
 </structure>
</modeling>
