  64  64   0   0
  0.1129557E+02  0.8932500E-09  0.9055600E-09  0.8937200E-09  0.5000000E-15
  1.000000000000000E-004
  CAR 
 HECN                                    
     15.05505879    -60.00353073  301      8.48436935      1.00000000
    -60.004  0.0000E+00  0.0000E+00
    -59.753  0.0000E+00  0.0000E+00
    -59.503  0.0000E+00  0.0000E+00
    -59.253  0.0000E+00  0.0000E+00
    -59.003  0.0000E+00  0.0000E+00
    -58.753  0.0000E+00  0.0000E+00
    -58.502  0.0000E+00  0.0000E+00
    -58.252  0.0000E+00  0.0000E+00
    -58.002  0.0000E+00  0.0000E+00
    -57.752  0.0000E+00  0.0000E+00
    -57.502  0.0000E+00  0.0000E+00
    -57.251  0.0000E+00  0.0000E+00
    -57.001  0.2811E-09  0.7032E-10
    -56.751  0.9727E-03  0.2434E-03
    -56.501  0.9167E-01  0.2318E-01
    -56.251  0.3572E+00  0.1126E+00
    -56.000  0.1093E+00  0.1399E+00
    -55.750  0.4555E-03  0.1400E+00
    -55.500  0.5070E-10  0.1400E+00
    -55.250  0.0000E+00  0.1400E+00
    -55.000  0.0000E+00  0.1400E+00
    -54.749  0.0000E+00  0.1400E+00
    -54.499  0.0000E+00  0.1400E+00
    -54.249  0.0000E+00  0.1400E+00
    -53.999  0.0000E+00  0.1400E+00
    -53.749  0.0000E+00  0.1400E+00
    -53.498  0.0000E+00  0.1400E+00
    -53.248  0.0000E+00  0.1400E+00
    -52.998  0.0000E+00  0.1400E+00
    -52.748  0.0000E+00  0.1400E+00
    -52.498  0.0000E+00  0.1400E+00
    -52.247  0.0000E+00  0.1400E+00
    -51.997  0.0000E+00  0.1400E+00
    -51.747  0.0000E+00  0.1400E+00
    -51.497  0.0000E+00  0.1400E+00
    -51.247  0.0000E+00  0.1400E+00
    -50.996  0.0000E+00  0.1400E+00
    -50.746  0.0000E+00  0.1400E+00
    -50.496  0.0000E+00  0.1400E+00
    -50.246  0.0000E+00  0.1400E+00
    -49.996  0.0000E+00  0.1400E+00
    -49.746  0.0000E+00  0.1400E+00
    -49.495  0.0000E+00  0.1400E+00
    -49.245  0.0000E+00  0.1400E+00
    -48.995  0.0000E+00  0.1400E+00
    -48.745  0.0000E+00  0.1400E+00
    -48.495  0.0000E+00  0.1400E+00
    -48.244  0.0000E+00  0.1400E+00
    -47.994  0.3658E-10  0.1400E+00
    -47.744  0.4505E-03  0.1401E+00
    -47.494  0.1182E+00  0.1697E+00
    -47.244  0.1454E+00  0.2061E+00
    -46.993  0.1903E+00  0.2537E+00
    -46.743  0.2535E-01  0.2600E+00
    -46.493  0.2274E-05  0.2600E+00
    -46.243  0.1562E-14  0.2600E+00
    -45.993  0.0000E+00  0.2600E+00
    -45.742  0.0000E+00  0.2600E+00
    -45.492  0.0000E+00  0.2600E+00
    -45.242  0.0000E+00  0.2600E+00
    -44.992  0.0000E+00  0.2600E+00
    -44.742  0.0000E+00  0.2600E+00
    -44.491  0.0000E+00  0.2600E+00
    -44.241  0.0000E+00  0.2600E+00
    -43.991  0.0000E+00  0.2600E+00
    -43.741  0.0000E+00  0.2600E+00
    -43.491  0.0000E+00  0.2600E+00
    -43.240  0.0000E+00  0.2600E+00
    -42.990  0.0000E+00  0.2600E+00
    -42.740  0.0000E+00  0.2600E+00
    -42.490  0.0000E+00  0.2600E+00
    -42.240  0.0000E+00  0.2600E+00
    -41.989  0.0000E+00  0.2600E+00
    -41.739  0.0000E+00  0.2600E+00
    -41.489  0.0000E+00  0.2600E+00
    -41.239  0.7400E-14  0.2600E+00
    -40.989  0.5639E-05  0.2600E+00
    -40.738  0.4551E-01  0.2714E+00
    -40.488  0.1301E+00  0.3039E+00
    -40.238  0.7454E-01  0.3226E+00
    -39.988  0.1849E+00  0.3689E+00
    -39.738  0.4505E-01  0.3801E+00
    -39.488  0.6802E-01  0.3972E+00
    -39.237  0.1138E-01  0.4000E+00
    -38.987  0.1623E-06  0.4000E+00
    -38.737  0.0000E+00  0.4000E+00
    -38.487  0.0000E+00  0.4000E+00
    -38.237  0.0000E+00  0.4000E+00
    -37.986  0.0000E+00  0.4000E+00
    -37.736  0.0000E+00  0.4000E+00
    -37.486  0.0000E+00  0.4000E+00
    -37.236  0.0000E+00  0.4000E+00
    -36.986  0.0000E+00  0.4000E+00
    -36.735  0.0000E+00  0.4000E+00
    -36.485  0.0000E+00  0.4000E+00
    -36.235  0.0000E+00  0.4000E+00
    -35.985  0.0000E+00  0.4000E+00
    -35.735  0.1569E-08  0.4000E+00
    -35.484  0.2213E-02  0.4006E+00
    -35.234  0.2008E+00  0.4508E+00
    -34.984  0.9091E+00  0.6782E+00
    -34.734  0.3255E+00  0.7597E+00
    -34.484  0.1309E-02  0.7600E+00
    -34.233  0.3773E-09  0.7600E+00
    -33.983  0.0000E+00  0.7600E+00
    -33.733  0.0000E+00  0.7600E+00
    -33.483  0.0000E+00  0.7600E+00
    -33.233  0.0000E+00  0.7600E+00
    -32.982  0.0000E+00  0.7600E+00
    -32.732  0.0000E+00  0.7600E+00
    -32.482  0.0000E+00  0.7600E+00
    -32.232  0.0000E+00  0.7600E+00
    -31.982  0.0000E+00  0.7600E+00
    -31.731  0.0000E+00  0.7600E+00
    -31.481  0.0000E+00  0.7600E+00
    -31.231  0.0000E+00  0.7600E+00
    -30.981  0.2315E-07  0.7600E+00
    -30.731  0.6140E-02  0.7615E+00
    -30.480  0.2423E+00  0.8222E+00
    -30.230  0.9812E+00  0.1068E+01
    -29.980  0.4361E+00  0.1177E+01
    -29.730  0.1303E-01  0.1180E+01
    -29.480  0.5636E-07  0.1180E+01
    -29.230  0.0000E+00  0.1180E+01
    -28.979  0.0000E+00  0.1180E+01
    -28.729  0.0000E+00  0.1180E+01
    -28.479  0.0000E+00  0.1180E+01
    -28.229  0.0000E+00  0.1180E+01
    -27.979  0.0000E+00  0.1180E+01
    -27.728  0.0000E+00  0.1180E+01
    -27.478  0.8217E-18  0.1180E+01
    -27.228  0.5607E-07  0.1180E+01
    -26.978  0.1274E-01  0.1183E+01
    -26.728  0.5737E+00  0.1327E+01
    -26.477  0.7613E+00  0.1517E+01
    -26.227  0.9107E-01  0.1540E+01
    -25.977  0.9870E-05  0.1540E+01
    -25.727  0.1420E-13  0.1540E+01
    -25.477  0.0000E+00  0.1540E+01
    -25.226  0.0000E+00  0.1540E+01
    -24.976  0.0000E+00  0.1540E+01
    -24.726  0.0000E+00  0.1540E+01
    -24.476  0.0000E+00  0.1540E+01
    -24.226  0.6343E-08  0.1540E+01
    -23.975  0.3654E-02  0.1541E+01
    -23.725  0.1907E+00  0.1589E+01
    -23.475  0.4746E+00  0.1707E+01
    -23.225  0.5287E+00  0.1840E+01
    -22.975  0.2369E+00  0.1899E+01
    -22.724  0.4371E-02  0.1900E+01
    -22.474  0.4057E-08  0.1900E+01
    -22.224  0.0000E+00  0.1900E+01
    -21.974  0.0000E+00  0.1900E+01
    -21.724  0.0000E+00  0.1900E+01
    -21.473  0.0000E+00  0.1900E+01
    -21.223  0.0000E+00  0.1900E+01
    -20.973  0.0000E+00  0.1900E+01
    -20.723  0.0000E+00  0.1900E+01
    -20.473  0.0000E+00  0.1900E+01
    -20.222  0.0000E+00  0.1900E+01
    -19.972  0.0000E+00  0.1900E+01
    -19.722  0.2149E-09  0.1900E+01
    -19.472  0.8636E-03  0.1900E+01
    -19.222  0.7857E-01  0.1920E+01
    -18.972  0.2629E+00  0.1986E+01
    -18.721  0.2764E+00  0.2055E+01
    -18.471  0.3586E+00  0.2145E+01
    -18.221  0.4553E+00  0.2258E+01
    -17.971  0.1762E+00  0.2303E+01
    -17.721  0.6988E-01  0.2320E+01
    -17.470  0.6470E-05  0.2320E+01
    -17.220  0.5679E-14  0.2320E+01
    -16.970  0.0000E+00  0.2320E+01
    -16.720  0.0000E+00  0.2320E+01
    -16.470  0.0000E+00  0.2320E+01
    -16.219  0.0000E+00  0.2320E+01
    -15.969  0.0000E+00  0.2320E+01
    -15.719  0.0000E+00  0.2320E+01
    -15.469  0.0000E+00  0.2320E+01
    -15.219  0.0000E+00  0.2320E+01
    -14.968  0.0000E+00  0.2320E+01
    -14.718  0.0000E+00  0.2320E+01
    -14.468  0.0000E+00  0.2320E+01
    -14.218  0.0000E+00  0.2320E+01
    -13.968  0.0000E+00  0.2320E+01
    -13.717  0.0000E+00  0.2320E+01
    -13.467  0.0000E+00  0.2320E+01
    -13.217  0.0000E+00  0.2320E+01
    -12.967  0.0000E+00  0.2320E+01
    -12.717  0.0000E+00  0.2320E+01
    -12.466  0.0000E+00  0.2320E+01
    -12.216  0.0000E+00  0.2320E+01
    -11.966  0.0000E+00  0.2320E+01
    -11.716  0.0000E+00  0.2320E+01
    -11.466  0.0000E+00  0.2320E+01
    -11.215  0.0000E+00  0.2320E+01
    -10.965  0.0000E+00  0.2320E+01
    -10.715  0.0000E+00  0.2320E+01
    -10.465  0.0000E+00  0.2320E+01
    -10.215  0.0000E+00  0.2320E+01
     -9.964  0.0000E+00  0.2320E+01
     -9.714  0.0000E+00  0.2320E+01
     -9.464  0.0000E+00  0.2320E+01
     -9.214  0.0000E+00  0.2320E+01
     -8.964  0.0000E+00  0.2320E+01
     -8.713  0.0000E+00  0.2320E+01
     -8.463  0.0000E+00  0.2320E+01
     -8.213  0.0000E+00  0.2320E+01
     -7.963  0.1472E-09  0.2320E+01
     -7.713  0.1590E-03  0.2320E+01
     -7.463  0.2753E-01  0.2327E+01
     -7.212  0.6671E-01  0.2344E+01
     -6.962  0.1144E+00  0.2372E+01
     -6.712  0.1088E+00  0.2399E+01
     -6.462  0.1850E+00  0.2446E+01
     -6.212  0.2829E+00  0.2517E+01
     -5.961  0.2227E+00  0.2572E+01
     -5.711  0.3096E-01  0.2580E+01
     -5.461  0.3472E-05  0.2580E+01
     -5.211  0.3611E-14  0.2580E+01
     -4.961  0.0000E+00  0.2580E+01
     -4.710  0.2917E-08  0.2580E+01
     -4.460  0.6157E-03  0.2580E+01
     -4.210  0.3550E-01  0.2589E+01
     -3.960  0.4318E-01  0.2600E+01
     -3.710  0.3291E-01  0.2608E+01
     -3.459  0.9454E-01  0.2632E+01
     -3.209  0.1529E+00  0.2670E+01
     -2.959  0.2176E+00  0.2724E+01
     -2.709  0.2315E+00  0.2782E+01
     -2.459  0.2355E+00  0.2841E+01
     -2.208  0.2117E+00  0.2894E+01
     -1.958  0.1531E+00  0.2933E+01
     -1.708  0.8814E-01  0.2955E+01
     -1.458  0.2137E-01  0.2960E+01
     -1.208  0.2756E-03  0.2960E+01
     -0.957  0.1464E-08  0.2960E+01
     -0.707  0.0000E+00  0.2960E+01
     -0.457  0.0000E+00  0.2960E+01
     -0.207  0.0000E+00  0.2960E+01
      0.043  0.6574E-18  0.2960E+01
      0.294  0.7601E-08  0.2960E+01
      0.544  0.6506E-03  0.2960E+01
      0.794  0.7801E-02  0.2962E+01
      1.044  0.4468E-01  0.2973E+01
      1.294  0.8688E-01  0.2995E+01
      1.545  0.1159E+00  0.3024E+01
      1.795  0.1849E+00  0.3070E+01
      2.045  0.2668E+00  0.3137E+01
      2.295  0.2916E+00  0.3210E+01
      2.545  0.2819E+00  0.3281E+01
      2.795  0.3231E+00  0.3361E+01
      3.046  0.3575E+00  0.3451E+01
      3.296  0.4331E+00  0.3559E+01
      3.546  0.4922E+00  0.3682E+01
      3.796  0.5910E+00  0.3830E+01
      4.046  0.6592E+00  0.3995E+01
      4.297  0.6734E+00  0.4164E+01
      4.547  0.6230E+00  0.4319E+01
      4.797  0.5181E+00  0.4449E+01
      5.047  0.4283E+00  0.4556E+01
      5.297  0.3724E+00  0.4649E+01
      5.548  0.3206E+00  0.4730E+01
      5.798  0.2582E+00  0.4794E+01
      6.048  0.1732E+00  0.4838E+01
      6.298  0.1283E+00  0.4870E+01
      6.548  0.5758E-01  0.4884E+01
      6.799  0.1237E+00  0.4915E+01
      7.049  0.2042E+00  0.4966E+01
      7.299  0.1930E+00  0.5014E+01
      7.549  0.2135E+00  0.5068E+01
      7.799  0.2280E+00  0.5125E+01
      8.050  0.2693E+00  0.5192E+01
      8.300  0.2920E+00  0.5265E+01
      8.550  0.3052E+00  0.5342E+01
      8.800  0.3565E+00  0.5431E+01
      9.050  0.4458E+00  0.5542E+01
      9.301  0.5045E+00  0.5669E+01
      9.551  0.5342E+00  0.5802E+01
      9.801  0.5147E+00  0.5931E+01
     10.051  0.4620E+00  0.6047E+01
     10.301  0.4549E+00  0.6160E+01
     10.552  0.4536E+00  0.6274E+01
     10.802  0.4944E+00  0.6398E+01
     11.052  0.4269E+00  0.6504E+01
     11.302  0.3849E+00  0.6601E+01
     11.552  0.3870E+00  0.6698E+01
     11.803  0.8945E-01  0.6720E+01
     12.053  0.2947E-03  0.6720E+01
     12.303  0.5426E-10  0.6720E+01
     12.553  0.0000E+00  0.6720E+01
     12.803  0.0000E+00  0.6720E+01
     13.053  0.0000E+00  0.6720E+01
     13.304  0.0000E+00  0.6720E+01
     13.554  0.0000E+00  0.6720E+01
     13.804  0.0000E+00  0.6720E+01
     14.054  0.0000E+00  0.6720E+01
     14.304  0.0000E+00  0.6720E+01
     14.555  0.0000E+00  0.6720E+01
     14.805  0.0000E+00  0.6720E+01
     15.055  0.0000E+00  0.6720E+01
