<?xml version="1.0" encoding="ISO-8859-1"?>
<modeling>
 <generator>
  <i name="program" type="string">vasp </i>
  <i name="version" type="string">5.4.4.18Apr17-6-g9f103f2a35  </i>
  <i name="subversion" type="string">(build Oct 18 2021 20:38:43) complex            parallel </i>
  <i name="platform" type="string">LinuxIFC </i>
  <i name="date" type="string">2024 06 15 </i>
  <i name="time" type="string">16:27:17 </i>
 </generator>
 <incar>
  <i type="string" name="SYSTEM">HECN</i>
  <i type="int" name="ISTART">     0</i>
  <i type="string" name="PREC">normal</i>
  <i type="string" name="ALGO">Fast</i>
  <i type="int" name="ICHARG">     2</i>
  <i type="int" name="NELM">    60</i>
  <i type="int" name="IBRION">     2</i>
  <i name="EDIFF">      0.00001000</i>
  <i name="EDIFFG">     -0.01000000</i>
  <i type="int" name="NSW">   100</i>
  <i type="int" name="ISIF">     3</i>
  <i name="ENCUT">    400.00000000</i>
  <i name="POTIM">      0.50000000</i>
  <i type="logical" name="LREAL"> F  </i>
  <i type="int" name="ISMEAR">     0</i>
  <i name="SIGMA">      0.10000000</i>
  <i type="logical" name="LWAVE"> F  </i>
  <i type="logical" name="LCHARG"> F  </i>
  <v type="int" name="KPOINT_BSE">    -1     0     0     0</v>
  <i type="int" name="NELM">    60</i>
 </incar>
 <structure name="primitive_cell" >
  <crystal>
   <varray name="basis" >
    <v>       8.93249989       0.00000000       0.00000000 </v>
    <v>       0.00575300       9.05559834       0.00000000 </v>
    <v>       0.03210180      -0.01574346       8.93712807 </v>
   </varray>
   <i name="volume">    722.91652451 </i>
   <varray name="rec_basis" >
    <v>       0.11195074      -0.00007112      -0.00040225 </v>
    <v>       0.00000000       0.11042893       0.00019453 </v>
    <v>       0.00000000       0.00000000       0.11189277 </v>
   </varray>
  </crystal>
  <varray name="positions" >
   <v>      -0.00311999      -0.00795003      -0.00075998 </v>
   <v>      -0.25232999      -0.00252000       0.01202000 </v>
   <v>      -0.00162995      -0.25686004       0.00460000 </v>
   <v>      -0.00280000      -0.00228008       0.25899999 </v>
   <v>       0.00281000       0.25024000       0.00130000 </v>
   <v>      -0.01103011       0.00202000      -0.26291001 </v>
   <v>       0.26146999      -0.00015998      -0.00704004 </v>
   <v>      -0.00135002      -0.22426001       0.26102000 </v>
   <v>      -0.25720997      -0.02130006      -0.23549005 </v>
   <v>       0.23780002       0.01082000      -0.25392002 </v>
   <v>      -0.24282000      -0.25897003       0.01100000 </v>
   <v>       0.24762001      -0.25026001      -0.00025994 </v>
   <v>      -0.00485996      -0.25507996      -0.25488003 </v>
   <v>      -0.24281000       0.25603001      -0.00408003 </v>
   <v>       0.25398003      -0.00285005       0.24912000 </v>
   <v>       0.24788999       0.24839000      -0.00342003 </v>
   <v>      -0.00562996       0.23617001       0.26379999 </v>
   <v>      -0.25120996      -0.01212001       0.26967001 </v>
   <v>       0.00201000       0.25541000      -0.26105999 </v>
   <v>       0.24177002      -0.24659003      -0.24981998 </v>
   <v>      -0.24963995      -0.25112000      -0.25243996 </v>
   <v>      -0.24255004       0.24437997      -0.25103001 </v>
   <v>       0.25133999      -0.25041998       0.24910999 </v>
   <v>      -0.24367000      -0.26108997       0.25767000 </v>
   <v>      -0.24686002       0.24616999       0.25492002 </v>
   <v>       0.24982001       0.24942998       0.24825000 </v>
   <v>       0.24900999       0.25315000      -0.25146000 </v>
   <v>      -0.48411003       0.01358000      -0.01924992 </v>
   <v>      -0.00158006      -0.49023002      -0.01386996 </v>
   <v>       0.02362000      -0.00216999       0.49557002 </v>
   <v>      -0.49480995      -0.23869001       0.00855000 </v>
   <v>      -0.49285006      -0.00023001       0.24673000 </v>
   <v>      -0.24160996      -0.49684002       0.00288000 </v>
   <v>      -0.00999997      -0.23784997       0.49746000 </v>
   <v>      -0.00948001       0.48088003       0.24100999 </v>
   <v>       0.24446000      -0.00176004      -0.49712002 </v>
   <v>      -0.26367999       0.00417000      -0.48937000 </v>
   <v>       0.24328000      -0.49927003      -0.00489006 </v>
   <v>      -0.49572003       0.24673000       0.00262000 </v>
   <v>      -0.00796004      -0.49944001      -0.24861998 </v>
   <v>      -0.00195991       0.24229999      -0.49871997 </v>
   <v>      -0.49991002       0.00061000      -0.26528002 </v>
   <v>      -0.26123997      -0.47171998      -0.26185001 </v>
   <v>       0.49950005      -0.24518001      -0.25182996 </v>
   <v>       0.24457999      -0.24951001       0.49983999 </v>
   <v>      -0.24599997      -0.27062001       0.49116997 </v>
   <v>      -0.49520997       0.24631001      -0.25289998 </v>
   <v>       0.24803003      -0.49835000       0.24955001 </v>
   <v>      -0.26448999      -0.48531996       0.26666001 </v>
   <v>      -0.49167000       0.25676999       0.25376001 </v>
   <v>      -0.49620997      -0.26073003       0.25905001 </v>
   <v>      -0.24692999       0.26163001      -0.49466998 </v>
   <v>       0.25272001       0.24823001      -0.49984997 </v>
   <v>       0.25679999       0.49462002      -0.25454998 </v>
   <v>       0.47957999      -0.01691999       0.49717999 </v>
   <v>      -0.49498994       0.49745998      -0.00165997 </v>
   <v>      -0.00572008      -0.49550001       0.49779000 </v>
   <v>      -0.49436004       0.23264998       0.49544997 </v>
   <v>      -0.49424994      -0.25041998       0.49720000 </v>
   <v>      -0.49299998      -0.49666998       0.25878999 </v>
   <v>      -0.49498997      -0.49782002      -0.26087997 </v>
   <v>      -0.25963999      -0.49803000      -0.49932997 </v>
   <v>       0.25841001      -0.49937998      -0.49870999 </v>
   <v>      -0.49461000      -0.47166995       0.49917999 </v>
  </varray>
 </structure>
 <varray name="primitive_index" >
  <v type="int" >        1 </v>
  <v type="int" >       25 </v>
  <v type="int" >       38 </v>
  <v type="int" >       34 </v>
  <v type="int" >       23 </v>
  <v type="int" >       29 </v>
  <v type="int" >       22 </v>
  <v type="int" >       59 </v>
  <v type="int" >       58 </v>
  <v type="int" >       56 </v>
  <v type="int" >        9 </v>
  <v type="int" >       18 </v>
  <v type="int" >       12 </v>
  <v type="int" >       17 </v>
  <v type="int" >        2 </v>
  <v type="int" >       14 </v>
  <v type="int" >        8 </v>
  <v type="int" >       16 </v>
  <v type="int" >       10 </v>
  <v type="int" >       45 </v>
  <v type="int" >       49 </v>
  <v type="int" >       30 </v>
  <v type="int" >       36 </v>
  <v type="int" >       39 </v>
  <v type="int" >       24 </v>
  <v type="int" >       21 </v>
  <v type="int" >       42 </v>
  <v type="int" >       53 </v>
  <v type="int" >       54 </v>
  <v type="int" >       61 </v>
  <v type="int" >       28 </v>
  <v type="int" >       26 </v>
  <v type="int" >       40 </v>
  <v type="int" >       47 </v>
  <v type="int" >       27 </v>
  <v type="int" >       43 </v>
  <v type="int" >       31 </v>
  <v type="int" >       37 </v>
  <v type="int" >       35 </v>
  <v type="int" >       48 </v>
  <v type="int" >       44 </v>
  <v type="int" >       33 </v>
  <v type="int" >       63 </v>
  <v type="int" >        7 </v>
  <v type="int" >       20 </v>
  <v type="int" >       64 </v>
  <v type="int" >        5 </v>
  <v type="int" >        3 </v>
  <v type="int" >       60 </v>
  <v type="int" >       15 </v>
  <v type="int" >       55 </v>
  <v type="int" >       11 </v>
  <v type="int" >       19 </v>
  <v type="int" >       13 </v>
  <v type="int" >       57 </v>
  <v type="int" >        4 </v>
  <v type="int" >        6 </v>
  <v type="int" >       32 </v>
  <v type="int" >       51 </v>
  <v type="int" >       41 </v>
  <v type="int" >       52 </v>
  <v type="int" >       50 </v>
  <v type="int" >       46 </v>
  <v type="int" >       62 </v>
 </varray>
 <kpoints>
  <generation param="Gamma">
   <v type="int" name="divisions">       3        3        3 </v>
   <v name="usershift">      0.00000000       0.00000000       0.00000000 </v>
   <v name="genvec1">      0.33333333      -0.00000000      -0.00000000 </v>
   <v name="genvec2">      0.00000000       0.33333333       0.00000000 </v>
   <v name="genvec3">      0.00000000       0.00000000       0.33333333 </v>
   <v name="shift">      0.00000000       0.00000000       0.00000000 </v>
  </generation>
  <varray name="kpointlist" >
   <v>       0.00000000       0.00000000       0.00000000 </v>
   <v>       0.33333333       0.00000000       0.00000000 </v>
   <v>       0.00000000       0.33333333       0.00000000 </v>
   <v>       0.33333333       0.33333333       0.00000000 </v>
   <v>      -0.33333333       0.33333333       0.00000000 </v>
   <v>       0.00000000       0.00000000       0.33333333 </v>
   <v>       0.33333333       0.00000000       0.33333333 </v>
   <v>      -0.33333333       0.00000000       0.33333333 </v>
   <v>       0.00000000       0.33333333       0.33333333 </v>
   <v>       0.33333333       0.33333333       0.33333333 </v>
   <v>      -0.33333333       0.33333333       0.33333333 </v>
   <v>       0.00000000      -0.33333333       0.33333333 </v>
   <v>       0.33333333      -0.33333333       0.33333333 </v>
   <v>      -0.33333333      -0.33333333       0.33333333 </v>
  </varray>
  <varray name="weights" >
   <v>       0.03703704 </v>
   <v>       0.07407407 </v>
   <v>       0.07407407 </v>
   <v>       0.07407407 </v>
   <v>       0.07407407 </v>
   <v>       0.07407407 </v>
   <v>       0.07407407 </v>
   <v>       0.07407407 </v>
   <v>       0.07407407 </v>
   <v>       0.07407407 </v>
   <v>       0.07407407 </v>
   <v>       0.07407407 </v>
   <v>       0.07407407 </v>
   <v>       0.07407407 </v>
  </varray>
 </kpoints>
 <parameters>
  <separator name="general" >
   <i type="string" name="SYSTEM">HECN</i>
   <i type="logical" name="LCOMPAT"> F  </i>
  </separator>
  <separator name="electronic" >
   <i type="string" name="PREC">normal</i>
   <i name="ENMAX">    400.00000000</i>
   <i name="ENAUG">    644.87300000</i>
   <i name="EDIFF">      0.00001000</i>
   <i type="int" name="IALGO">    68</i>
   <i type="int" name="IWAVPR">    11</i>
   <i type="int" name="NBANDS">   336</i>
   <i name="NELECT">    532.00000000</i>
   <i type="int" name="TURBO">     0</i>
   <i type="int" name="IRESTART">     0</i>
   <i type="int" name="NREBOOT">     0</i>
   <i type="int" name="NMIN">     0</i>
   <i name="EREF">      0.00000000</i>
   <separator name="electronic smearing" >
    <i type="int" name="ISMEAR">     0</i>
    <i name="SIGMA">      0.10000000</i>
    <i name="KSPACING">      0.50000000</i>
    <i type="logical" name="KGAMMA"> T  </i>
   </separator>
   <separator name="electronic projectors" >
    <i type="logical" name="LREAL"> F  </i>
    <v name="ROPT">      0.00000000      0.00000000      0.00000000      0.00000000      0.00000000      0.00000000      0.00000000</v>
    <i type="int" name="LMAXPAW">  -100</i>
    <i type="int" name="LMAXMIX">     2</i>
    <i type="logical" name="NLSPLINE"> F  </i>
   </separator>
   <separator name="electronic startup" >
    <i type="int" name="ISTART">     0</i>
    <i type="int" name="ICHARG">     2</i>
    <i type="int" name="INIWAV">     1</i>
   </separator>
   <separator name="electronic spin" >
    <i type="int" name="ISPIN">     1</i>
    <i type="logical" name="LNONCOLLINEAR"> F  </i>
    <v name="MAGMOM">      1.00000000      1.00000000      1.00000000      1.00000000      1.00000000      1.00000000      1.00000000      1.00000000      1.00000000      1.00000000      1.00000000      1.00000000      1.00000000      1.00000000      1.00000000      1.00000000      1.00000000      1.00000000      1.00000000      1.00000000
      1.00000000      1.00000000      1.00000000      1.00000000      1.00000000      1.00000000      1.00000000      1.00000000      1.00000000      1.00000000      1.00000000      1.00000000      1.00000000      1.00000000      1.00000000      1.00000000      1.00000000      1.00000000      1.00000000      1.00000000
      1.00000000      1.00000000      1.00000000      1.00000000      1.00000000      1.00000000      1.00000000      1.00000000      1.00000000      1.00000000      1.00000000      1.00000000      1.00000000      1.00000000      1.00000000      1.00000000      1.00000000      1.00000000      1.00000000      1.00000000
      1.00000000      1.00000000      1.00000000      1.00000000</v>
    <i name="NUPDOWN">     -1.00000000</i>
    <i type="logical" name="LSORBIT"> F  </i>
    <v name="SAXIS">      0.00000000      0.00000000      1.00000000</v>
    <i type="logical" name="LSPIRAL"> F  </i>
    <v name="QSPIRAL">      0.00000000      0.00000000      0.00000000</v>
    <i type="logical" name="LZEROZ"> F  </i>
   </separator>
   <separator name="electronic exchange-correlation" >
    <i type="logical" name="LASPH"> F  </i>
    <i type="logical" name="LMETAGGA"> F  </i>
   </separator>
   <separator name="electronic convergence" >
    <i type="int" name="NELM">    60</i>
    <i type="int" name="NELMDL">    -5</i>
    <i type="int" name="NELMIN">     2</i>
    <i name="ENINI">    400.00000000</i>
    <separator name="electronic convergence detail" >
     <i type="logical" name="LDIAG"> T  </i>
     <i type="logical" name="LSUBROT"> F  </i>
     <i name="WEIMIN">      0.00100000</i>
     <i name="EBREAK">      0.00000001</i>
     <i name="DEPER">      0.30000000</i>
     <i type="int" name="NRMM">     4</i>
     <i name="TIME">      0.40000000</i>
    </separator>
   </separator>
   <separator name="electronic mixer" >
    <i name="AMIX">      0.40000000</i>
    <i name="BMIX">      1.00000000</i>
    <i name="AMIN">      0.10000000</i>
    <i name="AMIX_MAG">      1.60000000</i>
    <i name="BMIX_MAG">      1.00000000</i>
    <separator name="electronic mixer details" >
     <i type="int" name="IMIX">     4</i>
     <i type="logical" name="MIXFIRST"> F  </i>
     <i type="int" name="MAXMIX">   -45</i>
     <i name="WC">    100.00000000</i>
     <i type="int" name="INIMIX">     1</i>
     <i type="int" name="MIXPRE">     1</i>
     <i type="int" name="MREMOVE">     5</i>
    </separator>
   </separator>
   <separator name="electronic dipolcorrection" >
    <i type="logical" name="LDIPOL"> F  </i>
    <i type="logical" name="LMONO"> F  </i>
    <i type="int" name="IDIPOL">     0</i>
    <i name="EPSILON">      1.00000000</i>
    <v name="DIPOL">   -100.00000000   -100.00000000   -100.00000000</v>
    <i name="EFIELD">      0.00000000</i>
   </separator>
  </separator>
  <separator name="grids" >
   <i type="int" name="NGX">    48</i>
   <i type="int" name="NGY">    48</i>
   <i type="int" name="NGZ">    48</i>
   <i type="int" name="NGXF">    96</i>
   <i type="int" name="NGYF">    96</i>
   <i type="int" name="NGZF">    96</i>
   <i type="logical" name="ADDGRID"> F  </i>
  </separator>
  <separator name="ionic" >
   <i type="int" name="NSW">   100</i>
   <i type="int" name="IBRION">     2</i>
   <i type="int" name="MDALGO">     0</i>
   <i type="int" name="ISIF">     3</i>
   <i name="PSTRESS">      0.00000000</i>
   <i name="EDIFFG">     -0.01000000</i>
   <i type="int" name="NFREE">     1</i>
   <i name="POTIM">      0.50000000</i>
   <i name="SMASS">     -3.00000000</i>
   <i name="SCALEE">      1.00000000</i>
  </separator>
  <separator name="ionic md" >
   <i name="TEBEG">      0.00010000</i>
   <i name="TEEND">      0.00010000</i>
   <i type="int" name="NBLOCK">     1</i>
   <i type="int" name="KBLOCK">   100</i>
   <i type="int" name="NPACO">   256</i>
   <i name="APACO">     16.00000000</i>
  </separator>
  <separator name="symmetry" >
   <i type="int" name="ISYM">     2</i>
   <i name="SYMPREC">      0.00001000</i>
  </separator>
  <separator name="dos" >
   <i type="int" name="LORBIT">     0</i>
   <v name="RWIGS">     -1.00000000     -1.00000000     -1.00000000     -1.00000000     -1.00000000     -1.00000000     -1.00000000</v>
   <i type="int" name="NEDOS">   301</i>
   <i name="EMIN">     10.00000000</i>
   <i name="EMAX">    -10.00000000</i>
   <i name="EFERMI">      0.00000000</i>
  </separator>
  <separator name="writing" >
   <i type="int" name="NWRITE">     2</i>
   <i type="logical" name="LWAVE"> F  </i>
   <i type="logical" name="LDOWNSAMPLE"> F  </i>
   <i type="logical" name="LCHARG"> F  </i>
   <i type="logical" name="LPARD"> F  </i>
   <i type="logical" name="LVTOT"> F  </i>
   <i type="logical" name="LVHAR"> F  </i>
   <i type="logical" name="LELF"> F  </i>
   <i type="logical" name="LOPTICS"> F  </i>
   <v name="STM">      0.00000000      0.00000000      0.00000000      0.00000000      0.00000000      0.00000000      0.00000000</v>
  </separator>
  <separator name="performance" >
   <i type="int" name="NPAR">    24</i>
   <i type="int" name="NSIM">     4</i>
   <i type="int" name="NBLK">    -1</i>
   <i type="logical" name="LPLANE"> T  </i>
   <i type="logical" name="LSCALAPACK"> T  </i>
   <i type="logical" name="LSCAAWARE"> F  </i>
   <i type="logical" name="LSCALU"> F  </i>
   <i type="logical" name="LASYNC"> F  </i>
   <i type="logical" name="LORBITALREAL"> F  </i>
  </separator>
  <separator name="miscellaneous" >
   <i type="int" name="IDIOT">     3</i>
   <i type="int" name="ISPECIAL">     0</i>
   <i type="logical" name="LMUSIC"> F  </i>
   <v name="POMASS">     50.94100000     92.91000000     91.22400000     14.00100000     12.01100000     51.99600000    180.94800000</v>
   <v name="DARWINR">      0.00000000      0.00000000      0.00000000      0.00000000      0.00000000      0.00000000      0.00000000</v>
   <v name="DARWINV">      1.00000000      1.00000000      1.00000000      1.00000000      1.00000000      1.00000000      1.00000000</v>
   <i type="logical" name="LCORR"> T  </i>
  </separator>
  <i type="logical" name="GGA_COMPAT"> T  </i>
  <i type="logical" name="LBERRY"> F  </i>
  <i type="int" name="ICORELEVEL">     0</i>
  <i type="logical" name="LDAU"> F  </i>
  <i type="int" name="I_CONSTRAINED_M">     0</i>
  <separator name="electronic exchange-correlation" >
   <i type="string" name="GGA">--</i>
   <i type="int" name="VOSKOWN">     0</i>
   <i type="logical" name="LHFCALC"> F  </i>
   <i type="string" name="PRECFOCK"></i>
   <i type="logical" name="LSYMGRAD"> F  </i>
   <i type="logical" name="LHFONE"> F  </i>
   <i type="logical" name="LRHFCALC"> F  </i>
   <i type="logical" name="LTHOMAS"> F  </i>
   <i type="logical" name="LMODELHF"> F  </i>
   <i name="ENCUT4O">     -1.00000000</i>
   <i type="int" name="EXXOEP">     0</i>
   <i type="int" name="FOURORBIT">     0</i>
   <i name="AEXX">      0.00000000</i>
   <i name="HFALPHA">      0.00000000</i>
   <i name="MCALPHA">      0.00000000</i>
   <i name="ALDAX">      1.00000000</i>
   <i name="AGGAX">      1.00000000</i>
   <i name="ALDAC">      1.00000000</i>
   <i name="AGGAC">      1.00000000</i>
   <i type="int" name="NKREDX">     1</i>
   <i type="int" name="NKREDY">     1</i>
   <i type="int" name="NKREDZ">     1</i>
   <i type="logical" name="SHIFTRED"> F  </i>
   <i type="logical" name="ODDONLY"> F  </i>
   <i type="logical" name="EVENONLY"> F  </i>
   <i type="int" name="LMAXFOCK">     0</i>
   <i type="int" name="NMAXFOCKAE">     0</i>
   <i type="logical" name="LFOCKAEDFT"> F  </i>
   <i name="HFSCREEN">      0.00000000</i>
   <i name="HFSCREENC">      0.00000000</i>
   <i type="int" name="NBANDSGWLOW">     0</i>
  </separator>
  <separator name="vdW DFT" >
   <i type="logical" name="LUSE_VDW"> F  </i>
   <i name="Zab_VDW">     -0.84910000</i>
   <i name="PARAM1">      0.12340000</i>
   <i name="PARAM2">      1.00000000</i>
   <i name="PARAM3">      0.00000000</i>
  </separator>
  <separator name="model GW" >
   <i type="int" name="MODEL_GW">     0</i>
   <i name="MODEL_EPS0">      6.77734242</i>
   <i name="MODEL_ALPHA">      1.00000000</i>
  </separator>
  <separator name="linear response parameters" >
   <i type="logical" name="LEPSILON"> F  </i>
   <i type="logical" name="LRPA"> F  </i>
   <i type="logical" name="LNABLA"> F  </i>
   <i type="logical" name="LVEL"> F  </i>
   <i type="int" name="KINTER">     0</i>
   <i name="CSHIFT">      0.10000000</i>
   <i name="OMEGAMAX">     -1.00000000</i>
   <i name="DEG_THRESHOLD">      0.00200000</i>
   <i name="RTIME">     -0.10000000</i>
   <i name="WPLASMAI">      0.00000000</i>
   <v name="DFIELD">      0.00000000      0.00000000      0.00000000</v>
   <v name="WPLASMA">      0.00000000      0.00000000      0.00000000      0.00000000      0.00000000      0.00000000      0.00000000      0.00000000      0.00000000</v>
  </separator>
  <separator name="orbital magnetization" >
   <i type="logical" name="NUCIND"> F  </i>
   <v name="MAGPOS">      0.00000000      0.00000000      0.00000000</v>
   <i type="logical" name="LNICSALL"> T  </i>
   <i type="logical" name="ORBITALMAG"> F  </i>
   <i type="logical" name="LMAGBLOCH"> F  </i>
   <i type="logical" name="LCHIMAG"> F  </i>
   <i type="logical" name="LGAUGE"> T  </i>
   <i type="int" name="MAGATOM">     0</i>
   <v name="MAGDIPOL">      0.00000000      0.00000000      0.00000000</v>
   <v name="AVECCONST">      0.00000000      0.00000000      0.00000000</v>
  </separator>
  <separator name="response functions" >
   <i type="logical" name="LADDER"> F  </i>
   <i type="logical" name="LRPAFORCE"> F  </i>
   <i type="logical" name="LFXC"> F  </i>
   <i type="logical" name="LHARTREE"> T  </i>
   <i type="int" name="IBSE">     0</i>
   <v type="int" name="KPOINT">    -1     0     0     0</v>
   <i type="logical" name="LTCTE"> F  </i>
   <i type="logical" name="LTETE"> F  </i>
   <i type="logical" name="LTRIPLET"> F  </i>
   <i type="logical" name="LFXCEPS"> F  </i>
   <i type="logical" name="LFXHEG"> F  </i>
   <i type="int" name="NATURALO">     2</i>
   <i type="logical" name="L2ORDER"> F  </i>
   <i type="logical" name="LMP2LT"> F  </i>
   <i type="logical" name="LUSEW"> F  </i>
   <i name="ENCUTGW">     -2.00000000</i>
   <i name="ENCUTGWSOFT">     -2.00000000</i>
   <i name="ENCUTLF">     -1.00000000</i>
   <i type="int" name="LMAXMP2">    -1</i>
   <i name="SCISSOR">      0.00000000</i>
   <i type="int" name="NOMEGA">     0</i>
   <i type="int" name="NOMEGAR">     0</i>
   <i type="int" name="NBANDSGW">    -1</i>
   <i type="int" name="NBANDSO">    -1</i>
   <i type="int" name="NBANDSV">    -1</i>
   <i type="int" name="NELM">    60</i>
   <i type="int" name="NELMHF">     1</i>
   <i type="int" name="DIM">     3</i>
   <i type="int" name="ANTIRES">     0</i>
   <i name="OMEGAMAX">    -30.00000000</i>
   <i name="OMEGAMIN">    -30.00000000</i>
   <i name="OMEGATL">   -200.00000000</i>
   <i type="int" name="OMEGAGRID">   140</i>
   <i name="CSHIFT">     -0.10000000</i>
   <i type="logical" name="SELFENERGY"> F  </i>
   <i type="logical" name="LSPECTRAL"> F  </i>
   <i type="logical" name="LSPECTRALGW"> F  </i>
   <i type="logical" name="LSINGLES"> F  </i>
   <i type="logical" name="LFERMIGW"> F  </i>
   <i type="logical" name="ODDONLYGW"> F  </i>
   <i type="logical" name="EVENONLYGW"> F  </i>
   <i type="int" name="NKREDLFX">     1</i>
   <i type="int" name="NKREDLFY">     1</i>
   <i type="int" name="NKREDLFZ">     1</i>
   <i type="int" name="MAXMEM">  2800</i>
   <i type="int" name="TELESCOPE">     0</i>
   <i type="int" name="TAUPAR">     1</i>
   <i type="int" name="OMEGAPAR">    -1</i>
   <i name="LAMBDA">      1.00000000</i>
  </separator>
  <separator name="External order field" >
   <i name="OFIELD_KAPPA">      0.00000000</i>
   <v name="OFIELD_K">      0.00000000      0.00000000      0.00000000</v>
   <i name="OFIELD_Q6_NEAR">      0.00000000</i>
   <i name="OFIELD_Q6_FAR">      0.00000000</i>
   <i name="OFIELD_A">      0.00000000</i>
  </separator>
 </parameters>
 <atominfo>
  <atoms>      64 </atoms>
  <types>       7 </types>
  <array name="atoms" >
   <dimension dim="1">ion</dimension>
   <field type="string">element</field>
   <field type="int">atomtype</field>
   <set>
    <rc><c>V </c><c>   1</c></rc>
    <rc><c>V </c><c>   1</c></rc>
    <rc><c>V </c><c>   1</c></rc>
    <rc><c>V </c><c>   1</c></rc>
    <rc><c>V </c><c>   1</c></rc>
    <rc><c>V </c><c>   1</c></rc>
    <rc><c>V </c><c>   1</c></rc>
    <rc><c>Nb</c><c>   2</c></rc>
    <rc><c>Nb</c><c>   2</c></rc>
    <rc><c>Nb</c><c>   2</c></rc>
    <rc><c>Nb</c><c>   2</c></rc>
    <rc><c>Nb</c><c>   2</c></rc>
    <rc><c>Nb</c><c>   2</c></rc>
    <rc><c>Zr</c><c>   3</c></rc>
    <rc><c>Zr</c><c>   3</c></rc>
    <rc><c>Zr</c><c>   3</c></rc>
    <rc><c>Zr</c><c>   3</c></rc>
    <rc><c>Zr</c><c>   3</c></rc>
    <rc><c>Zr</c><c>   3</c></rc>
    <rc><c>Zr</c><c>   3</c></rc>
    <rc><c>N </c><c>   4</c></rc>
    <rc><c>N </c><c>   4</c></rc>
    <rc><c>N </c><c>   4</c></rc>
    <rc><c>N </c><c>   4</c></rc>
    <rc><c>N </c><c>   4</c></rc>
    <rc><c>N </c><c>   4</c></rc>
    <rc><c>N </c><c>   4</c></rc>
    <rc><c>N </c><c>   4</c></rc>
    <rc><c>N </c><c>   4</c></rc>
    <rc><c>N </c><c>   4</c></rc>
    <rc><c>N </c><c>   4</c></rc>
    <rc><c>N </c><c>   4</c></rc>
    <rc><c>N </c><c>   4</c></rc>
    <rc><c>C </c><c>   5</c></rc>
    <rc><c>C </c><c>   5</c></rc>
    <rc><c>C </c><c>   5</c></rc>
    <rc><c>C </c><c>   5</c></rc>
    <rc><c>C </c><c>   5</c></rc>
    <rc><c>C </c><c>   5</c></rc>
    <rc><c>C </c><c>   5</c></rc>
    <rc><c>C </c><c>   5</c></rc>
    <rc><c>C </c><c>   5</c></rc>
    <rc><c>C </c><c>   5</c></rc>
    <rc><c>C </c><c>   5</c></rc>
    <rc><c>C </c><c>   5</c></rc>
    <rc><c>C </c><c>   5</c></rc>
    <rc><c>C </c><c>   5</c></rc>
    <rc><c>C </c><c>   5</c></rc>
    <rc><c>C </c><c>   5</c></rc>
    <rc><c>C </c><c>   5</c></rc>
    <rc><c>C </c><c>   5</c></rc>
    <rc><c>C </c><c>   5</c></rc>
    <rc><c>Cr</c><c>   6</c></rc>
    <rc><c>Cr</c><c>   6</c></rc>
    <rc><c>Cr</c><c>   6</c></rc>
    <rc><c>Cr</c><c>   6</c></rc>
    <rc><c>Cr</c><c>   6</c></rc>
    <rc><c>Cr</c><c>   6</c></rc>
    <rc><c>Ta</c><c>   7</c></rc>
    <rc><c>Ta</c><c>   7</c></rc>
    <rc><c>Ta</c><c>   7</c></rc>
    <rc><c>Ta</c><c>   7</c></rc>
    <rc><c>Ta</c><c>   7</c></rc>
    <rc><c>Ta</c><c>   7</c></rc>
   </set>
  </array>
  <array name="atomtypes" >
   <dimension dim="1">type</dimension>
   <field type="int">atomspertype</field>
   <field type="string">element</field>
   <field>mass</field>
   <field>valence</field>
   <field type="string">pseudopotential</field>
   <set>
    <rc><c>   7</c><c>V </c><c>     50.94100000</c><c>     13.00000000</c><c> PAW_PBE V_sv 07Sep2000                 </c></rc>
    <rc><c>   6</c><c>Nb</c><c>     92.91000000</c><c>     13.00000000</c><c> PAW_PBE Nb_sv 17Jan2003                </c></rc>
    <rc><c>   7</c><c>Zr</c><c>     91.22400000</c><c>     12.00000000</c><c> PAW_PBE Zr_sv 07Sep2000                </c></rc>
    <rc><c>  13</c><c>N </c><c>     14.00100000</c><c>      5.00000000</c><c> PAW_PBE N 08Apr2002                    </c></rc>
    <rc><c>  19</c><c>C </c><c>     12.01100000</c><c>      4.00000000</c><c> PAW_PBE C 08Apr2002                    </c></rc>
    <rc><c>   6</c><c>Cr</c><c>     51.99600000</c><c>     12.00000000</c><c> PAW_PBE Cr_pv 07Sep2000                </c></rc>
    <rc><c>   6</c><c>Ta</c><c>    180.94800000</c><c>     11.00000000</c><c> PAW_PBE Ta_pv 07Sep2000                </c></rc>
   </set>
  </array>
 </atominfo>
 <structure name="initialpos" >
  <crystal>
   <varray name="basis" >
    <v>       8.93249989       0.00000000       0.00000000 </v>
    <v>       0.00575300       9.05559834       0.00000000 </v>
    <v>       0.03210180      -0.01574346       8.93712807 </v>
   </varray>
   <i name="volume">    722.91652451 </i>
   <varray name="rec_basis" >
    <v>       0.11195074      -0.00007112      -0.00040225 </v>
    <v>       0.00000000       0.11042893       0.00019453 </v>
    <v>       0.00000000       0.00000000       0.11189277 </v>
   </varray>
  </crystal>
  <varray name="positions" >
   <v>       0.99688001       0.99204997       0.99924002 </v>
   <v>       0.25398003       0.99714995       0.24912000 </v>
   <v>       0.24803003       0.50165000       0.24955001 </v>
   <v>       0.50501006       0.49745998       0.99834003 </v>
   <v>       0.50479003       0.24631001       0.74710002 </v>
   <v>       0.99427992       0.50449999       0.49779000 </v>
   <v>       0.49950005       0.75481999       0.74817004 </v>
   <v>       0.99437004       0.23617001       0.26379999 </v>
   <v>       0.75718000       0.74102998       0.01100000 </v>
   <v>       0.00201000       0.25541000       0.73894001 </v>
   <v>       0.75307001       0.26163001       0.50533002 </v>
   <v>       0.99514004       0.74492004       0.74511997 </v>
   <v>       0.25679999       0.49462002       0.74545002 </v>
   <v>       0.24788999       0.24839000       0.99657997 </v>
   <v>       0.50833000       0.25676999       0.25376001 </v>
   <v>       0.74879004       0.98787999       0.26967001 </v>
   <v>       0.75719000       0.25603001       0.99591997 </v>
   <v>       0.24762001       0.74973999       0.99974006 </v>
   <v>       0.25272001       0.24823001       0.50015003 </v>
   <v>       0.24457999       0.75048999       0.49983999 </v>
   <v>       0.24982001       0.24942998       0.24825000 </v>
   <v>       0.26146999       0.99984002       0.99295996 </v>
   <v>       0.00281000       0.25024000       0.00130000 </v>
   <v>       0.75313998       0.24617000       0.25492002 </v>
   <v>       0.74767001       0.99748000       0.01202000 </v>
   <v>       0.50714994       0.99977000       0.24673000 </v>
   <v>       0.99051999       0.48088002       0.24100998 </v>
   <v>       0.50519005       0.76130999       0.00855000 </v>
   <v>       0.98896989       0.00202000       0.73708999 </v>
   <v>       0.75744996       0.24437997       0.74896999 </v>
   <v>       0.73632001       0.00417000       0.51063000 </v>
   <v>       0.50563996       0.23264999       0.49544997 </v>
   <v>       0.50008998       0.00061000       0.73471998 </v>
   <v>       0.99720000       0.99771992       0.25899999 </v>
   <v>       0.50427997       0.24673000       0.00262000 </v>
   <v>       0.25133999       0.74958002       0.24910999 </v>
   <v>       0.24328000       0.50072997       0.99510994 </v>
   <v>       0.99837005       0.74313996       0.00460000 </v>
   <v>       0.75633000       0.73891003       0.25767000 </v>
   <v>       0.75839004       0.50315998       0.00288000 </v>
   <v>       0.50700002       0.50333002       0.25878999 </v>
   <v>       0.24900999       0.25315000       0.74854000 </v>
   <v>       0.24446000       0.99823996       0.50287998 </v>
   <v>       0.99804009       0.24229999       0.50128003 </v>
   <v>       0.24177002       0.75340997       0.75018002 </v>
   <v>       0.25841001       0.50062002       0.50129001 </v>
   <v>       0.99000004       0.76215003       0.49746000 </v>
   <v>       0.99203996       0.50055999       0.75138002 </v>
   <v>       0.75036005       0.74888000       0.74756004 </v>
   <v>       0.74036002       0.50197000       0.50067003 </v>
   <v>       0.50575006       0.74958002       0.49720000 </v>
   <v>       0.50501003       0.50217998       0.73912003 </v>
   <v>       0.51588997       0.01358000       0.98075008 </v>
   <v>       0.99841994       0.50976998       0.98613004 </v>
   <v>       0.50379003       0.73926997       0.25905001 </v>
   <v>       0.23780002       0.01082000       0.74607998 </v>
   <v>       0.47957999       0.98308000       0.49717999 </v>
   <v>       0.74279003       0.97869994       0.76450995 </v>
   <v>       0.99864998       0.77573999       0.26102000 </v>
   <v>       0.73551001       0.51468004       0.26666001 </v>
   <v>       0.02362000       0.99783001       0.49557002 </v>
   <v>       0.50539000       0.52833005       0.49917999 </v>
   <v>       0.73876003       0.52828003       0.73814999 </v>
   <v>       0.75400003       0.72937999       0.49116997 </v>
  </varray>
 </structure>
 <calculation>
  <scstep>
   <time name="dav">   23.52   23.58</time>
   <time name="total">   23.56   23.63</time>
   <energy>
    <i name="alphaZ">   4360.93492141 </i>
    <i name="ewald"> -45708.31415416 </i>
    <i name="hartreedc">  -9841.97206259 </i>
    <i name="XCdc">   2189.15576568 </i>
    <i name="pawpsdc">  34616.46463129 </i>
    <i name="pawaedc"> -34711.20671403 </i>
    <i name="eentropy">     -0.08496740 </i>
    <i name="bandstr">   1744.01325072 </i>
    <i name="atom">  54367.89097663 </i>
    <i name="e_fr_energy">   7016.88164755 </i>
    <i name="e_wo_entrp">   7016.96661495 </i>
    <i name="e_0_energy">   7016.92413125 </i>
   </energy>
  </scstep>
  <scstep>
   <time name="dav">   23.91   23.96</time>
   <time name="total">   23.91   23.96</time>
   <energy>
    <i name="e_fr_energy">    384.67085631 </i>
    <i name="e_wo_entrp">    384.81858508 </i>
    <i name="e_0_energy">    384.74472069 </i>
   </energy>
  </scstep>
  <scstep>
   <time name="dav">   33.75   33.77</time>
   <time name="total">   33.75   33.77</time>
   <energy>
    <i name="e_fr_energy">   -651.30802329 </i>
    <i name="e_wo_entrp">   -651.19204458 </i>
    <i name="e_0_energy">   -651.25003393 </i>
   </energy>
  </scstep>
  <scstep>
   <time name="dav">   37.40   37.45</time>
   <time name="total">   37.40   37.45</time>
   <energy>
    <i name="e_fr_energy">   -775.24179257 </i>
    <i name="e_wo_entrp">   -775.13670664 </i>
    <i name="e_0_energy">   -775.18924960 </i>
   </energy>
  </scstep>
  <scstep>
   <time name="dav">   41.81   41.90</time>
   <time name="total">   42.10   42.18</time>
   <energy>
    <i name="e_fr_energy">   -791.17844592 </i>
    <i name="e_wo_entrp">   -791.07015823 </i>
    <i name="e_0_energy">   -791.12430208 </i>
   </energy>
  </scstep>
  <scstep>
   <time name="diag">    1.97    1.97</time>
   <time name="diis">   19.56   19.61</time>
   <time name="orth">    0.53    0.53</time>
   <time name="total">   22.35   22.41</time>
   <energy>
    <i name="e_fr_energy">   -974.16759412 </i>
    <i name="e_wo_entrp">   -973.91604598 </i>
    <i name="e_0_energy">   -974.04182005 </i>
   </energy>
  </scstep>
  <scstep>
   <time name="diag">    1.96    1.97</time>
   <time name="diis">   21.23   21.30</time>
   <time name="orth">    0.50    0.50</time>
   <time name="total">   24.00   24.08</time>
   <energy>
    <i name="e_fr_energy">   -637.49038189 </i>
    <i name="e_wo_entrp">   -637.32570537 </i>
    <i name="e_0_energy">   -637.40804363 </i>
   </energy>
  </scstep>
  <scstep>
   <time name="diag">    1.97    1.97</time>
   <time name="diis">   23.83   23.89</time>
   <time name="orth">    0.51    0.51</time>
   <time name="total">   26.60   26.67</time>
   <energy>
    <i name="e_fr_energy">   -655.83387363 </i>
    <i name="e_wo_entrp">   -655.72583903 </i>
    <i name="e_0_energy">   -655.77985633 </i>
   </energy>
  </scstep>
  <scstep>
   <time name="diag">    1.99    1.99</time>
   <time name="diis">   21.91   21.92</time>
   <time name="orth">    0.50    0.50</time>
   <time name="total">   24.70   24.73</time>
   <energy>
    <i name="e_fr_energy">   -637.38606609 </i>
    <i name="e_wo_entrp">   -637.18437850 </i>
    <i name="e_0_energy">   -637.28522229 </i>
   </energy>
  </scstep>
  <scstep>
   <time name="diag">    1.98    1.98</time>
   <time name="diis">   24.19   24.25</time>
   <time name="orth">    0.49    0.49</time>
   <time name="total">   26.96   27.03</time>
   <energy>
    <i name="e_fr_energy">   -631.06095116 </i>
    <i name="e_wo_entrp">   -630.86199484 </i>
    <i name="e_0_energy">   -630.96147300 </i>
   </energy>
  </scstep>
  <scstep>
   <time name="diag">    1.97    1.97</time>
   <time name="diis">   24.71   24.76</time>
   <time name="orth">    0.50    0.50</time>
   <time name="total">   27.47   27.53</time>
   <energy>
    <i name="e_fr_energy">   -630.94796677 </i>
    <i name="e_wo_entrp">   -630.76000395 </i>
    <i name="e_0_energy">   -630.85398536 </i>
   </energy>
  </scstep>
  <scstep>
   <time name="diag">    1.97    1.97</time>
   <time name="diis">   23.23   23.27</time>
   <time name="orth">    0.50    0.50</time>
   <time name="total">   26.00   26.04</time>
   <energy>
    <i name="e_fr_energy">   -629.90847703 </i>
    <i name="e_wo_entrp">   -629.69989286 </i>
    <i name="e_0_energy">   -629.80418495 </i>
   </energy>
  </scstep>
  <scstep>
   <time name="diag">    1.97    1.97</time>
   <time name="diis">   23.46   23.47</time>
   <time name="orth">    0.50    0.50</time>
   <time name="total">   26.22   26.24</time>
   <energy>
    <i name="e_fr_energy">   -629.30843789 </i>
    <i name="e_wo_entrp">   -629.09159151 </i>
    <i name="e_0_energy">   -629.20001470 </i>
   </energy>
  </scstep>
  <scstep>
   <time name="diag">    1.97    1.98</time>
   <time name="diis">   24.14   24.15</time>
   <time name="orth">    0.50    0.50</time>
   <time name="total">   26.91   26.93</time>
   <energy>
    <i name="e_fr_energy">   -629.15775890 </i>
    <i name="e_wo_entrp">   -628.94974929 </i>
    <i name="e_0_energy">   -629.05375409 </i>
   </energy>
  </scstep>
  <scstep>
   <time name="diag">    1.97    1.98</time>
   <time name="diis">   24.00   24.07</time>
   <time name="orth">    0.50    0.50</time>
   <time name="total">   26.78   26.85</time>
   <energy>
    <i name="e_fr_energy">   -628.57696378 </i>
    <i name="e_wo_entrp">   -628.36666280 </i>
    <i name="e_0_energy">   -628.47181329 </i>
   </energy>
  </scstep>
  <scstep>
   <time name="diag">    1.98    1.98</time>
   <time name="diis">   22.65   22.67</time>
   <time name="orth">    0.49    0.49</time>
   <time name="total">   25.43   25.45</time>
   <energy>
    <i name="e_fr_energy">   -628.57596837 </i>
    <i name="e_wo_entrp">   -628.37764638 </i>
    <i name="e_0_energy">   -628.47680737 </i>
   </energy>
  </scstep>
  <scstep>
   <time name="diag">    1.97    1.97</time>
   <time name="diis">   23.15   23.18</time>
   <time name="orth">    0.49    0.49</time>
   <time name="total">   25.92   25.96</time>
   <energy>
    <i name="e_fr_energy">   -628.92076669 </i>
    <i name="e_wo_entrp">   -628.70960959 </i>
    <i name="e_0_energy">   -628.81518814 </i>
   </energy>
  </scstep>
  <scstep>
   <time name="diag">    1.99    1.99</time>
   <time name="diis">   22.48   22.50</time>
   <time name="orth">    0.49    0.49</time>
   <time name="total">   25.28   25.29</time>
   <energy>
    <i name="e_fr_energy">   -628.32742509 </i>
    <i name="e_wo_entrp">   -628.11382465 </i>
    <i name="e_0_energy">   -628.22062487 </i>
   </energy>
  </scstep>
  <scstep>
   <time name="diag">    1.98    1.98</time>
   <time name="diis">   23.82   23.85</time>
   <time name="orth">    0.50    0.50</time>
   <time name="total">   26.60   26.63</time>
   <energy>
    <i name="e_fr_energy">   -628.27904966 </i>
    <i name="e_wo_entrp">   -628.07045184 </i>
    <i name="e_0_energy">   -628.17475075 </i>
   </energy>
  </scstep>
  <scstep>
   <time name="diag">    1.98    1.99</time>
   <time name="diis">   23.54   23.61</time>
   <time name="orth">    0.49    0.49</time>
   <time name="total">   26.32   26.39</time>
   <energy>
    <i name="e_fr_energy">   -628.27456262 </i>
    <i name="e_wo_entrp">   -628.06334073 </i>
    <i name="e_0_energy">   -628.16895167 </i>
   </energy>
  </scstep>
  <scstep>
   <time name="diag">    1.98    1.98</time>
   <time name="diis">   23.81   23.83</time>
   <time name="orth">    0.49    0.50</time>
   <time name="total">   26.59   26.61</time>
   <energy>
    <i name="e_fr_energy">   -628.26193696 </i>
    <i name="e_wo_entrp">   -628.05357023 </i>
    <i name="e_0_energy">   -628.15775360 </i>
   </energy>
  </scstep>
  <scstep>
   <time name="diag">    1.98    1.99</time>
   <time name="diis">   23.67   23.72</time>
   <time name="orth">    0.50    0.50</time>
   <time name="total">   26.46   26.51</time>
   <energy>
    <i name="e_fr_energy">   -628.29630942 </i>
    <i name="e_wo_entrp">   -628.08176545 </i>
    <i name="e_0_energy">   -628.18903743 </i>
   </energy>
  </scstep>
  <scstep>
   <time name="diag">    1.98    1.98</time>
   <time name="diis">   23.33   23.34</time>
   <time name="orth">    0.49    0.49</time>
   <time name="total">   26.11   26.12</time>
   <energy>
    <i name="e_fr_energy">   -628.25824397 </i>
    <i name="e_wo_entrp">   -628.04858561 </i>
    <i name="e_0_energy">   -628.15341479 </i>
   </energy>
  </scstep>
  <scstep>
   <time name="diag">    1.98    1.98</time>
   <time name="diis">   23.76   23.83</time>
   <time name="orth">    0.50    0.50</time>
   <time name="total">   26.54   26.61</time>
   <energy>
    <i name="e_fr_energy">   -628.25890272 </i>
    <i name="e_wo_entrp">   -628.04774097 </i>
    <i name="e_0_energy">   -628.15332185 </i>
   </energy>
  </scstep>
  <scstep>
   <time name="diag">    1.98    1.98</time>
   <time name="diis">   24.02   24.03</time>
   <time name="orth">    0.50    0.50</time>
   <time name="total">   26.81   26.82</time>
   <energy>
    <i name="e_fr_energy">   -628.25244004 </i>
    <i name="e_wo_entrp">   -628.04138167 </i>
    <i name="e_0_energy">   -628.14691085 </i>
   </energy>
  </scstep>
  <scstep>
   <time name="diag">    2.00    2.01</time>
   <time name="diis">   22.27   22.31</time>
   <time name="orth">    0.50    0.50</time>
   <time name="total">   25.08   25.12</time>
   <energy>
    <i name="e_fr_energy">   -628.25364072 </i>
    <i name="e_wo_entrp">   -628.04374342 </i>
    <i name="e_0_energy">   -628.14869207 </i>
   </energy>
  </scstep>
  <scstep>
   <time name="diag">    1.98    1.98</time>
   <time name="diis">   22.34   22.43</time>
   <time name="orth">    0.50    0.50</time>
   <time name="total">   25.13   25.22</time>
   <energy>
    <i name="e_fr_energy">   -628.25310393 </i>
    <i name="e_wo_entrp">   -628.04241379 </i>
    <i name="e_0_energy">   -628.14775886 </i>
   </energy>
  </scstep>
  <scstep>
   <time name="diag">    1.98    1.98</time>
   <time name="diis">   21.42   21.51</time>
   <time name="orth">    0.50    0.50</time>
   <time name="total">   24.20   24.29</time>
   <energy>
    <i name="e_fr_energy">   -628.25329281 </i>
    <i name="e_wo_entrp">   -628.04279432 </i>
    <i name="e_0_energy">   -628.14804357 </i>
   </energy>
  </scstep>
  <scstep>
   <time name="diag">    1.97    2.01</time>
   <time name="diis">   20.78   20.89</time>
   <time name="orth">    0.50    0.50</time>
   <time name="total">   23.57   23.71</time>
   <energy>
    <i name="e_fr_energy">   -628.25339812 </i>
    <i name="e_wo_entrp">   -628.04285796 </i>
    <i name="e_0_energy">   -628.14812804 </i>
   </energy>
  </scstep>
  <scstep>
   <time name="diag">    1.97    1.98</time>
   <time name="diis">   19.24   19.31</time>
   <time name="orth">    0.50    0.51</time>
   <time name="total">   22.02   22.10</time>
   <energy>
    <i name="e_fr_energy">   -628.25353138 </i>
    <i name="e_wo_entrp">   -628.04299154 </i>
    <i name="e_0_energy">   -628.14826146 </i>
   </energy>
  </scstep>
  <scstep>
   <time name="diag">    1.97    2.00</time>
   <time name="diis">   19.02   19.11</time>
   <time name="orth">    0.52    0.52</time>
   <time name="total">   21.81   21.93</time>
   <energy>
    <i name="e_fr_energy">   -628.25359326 </i>
    <i name="e_wo_entrp">   -628.04304503 </i>
    <i name="e_0_energy">   -628.14831915 </i>
   </energy>
  </scstep>
  <scstep>
   <time name="diag">    1.98    1.98</time>
   <time name="diis">   18.45   18.50</time>
   <time name="orth">    0.50    0.50</time>
   <time name="total">   21.23   21.29</time>
   <energy>
    <i name="e_fr_energy">   -628.25364777 </i>
    <i name="e_wo_entrp">   -628.04311160 </i>
    <i name="e_0_energy">   -628.14837969 </i>
   </energy>
  </scstep>
  <scstep>
   <time name="diag">    1.97    1.98</time>
   <time name="diis">   17.70   17.80</time>
   <time name="orth">    0.50    0.50</time>
   <time name="total">   20.49   20.59</time>
   <energy>
    <i name="e_fr_energy">   -628.25367389 </i>
    <i name="e_wo_entrp">   -628.04312926 </i>
    <i name="e_0_energy">   -628.14840157 </i>
   </energy>
  </scstep>
  <scstep>
   <time name="diag">    1.98    1.98</time>
   <time name="diis">   17.14   17.26</time>
   <time name="orth">    0.51    0.51</time>
   <time name="total">   19.95   20.08</time>
   <energy>
    <i name="e_fr_energy">   -628.25369360 </i>
    <i name="e_wo_entrp">   -628.04315342 </i>
    <i name="e_0_energy">   -628.14842351 </i>
   </energy>
  </scstep>
  <scstep>
   <time name="diag">    2.00    2.00</time>
   <time name="diis">   16.17   16.22</time>
   <time name="orth">    0.49    0.49</time>
   <time name="total">   18.97   19.02</time>
   <energy>
    <i name="e_fr_energy">   -628.25370432 </i>
    <i name="e_wo_entrp">   -628.04316447 </i>
    <i name="e_0_energy">   -628.14843440 </i>
   </energy>
  </scstep>
  <scstep>
   <time name="diag">    1.98    1.98</time>
   <time name="diis">   15.19   15.20</time>
   <time name="orth">    0.50    0.50</time>
   <time name="total">   17.70   17.72</time>
   <energy>
    <i name="alphaZ">   4360.93492141 </i>
    <i name="ewald"> -45708.31415416 </i>
    <i name="hartreedc">  -9183.23040134 </i>
    <i name="XCdc">   2170.95818930 </i>
    <i name="pawpsdc">  35327.05739802 </i>
    <i name="pawaedc"> -35455.84513514 </i>
    <i name="eentropy">     -0.21054031 </i>
    <i name="bandstr">  -6507.49496612 </i>
    <i name="atom">  54367.89097663 </i>
    <i name="e_fr_energy">   -628.25371171 </i>
    <i name="e_wo_entrp">   -628.04317140 </i>
    <i name="e_0_energy">   -628.14844155 </i>
   </energy>
  </scstep>
  <structure>
   <crystal>
    <varray name="basis" >
     <v>       8.93249989       0.00000000       0.00000000 </v>
     <v>       0.00575300       9.05559834       0.00000000 </v>
     <v>       0.03210180      -0.01574346       8.93712807 </v>
    </varray>
    <i name="volume">    722.91652451 </i>
    <varray name="rec_basis" >
     <v>       0.11195074      -0.00007112      -0.00040225 </v>
     <v>       0.00000000       0.11042893       0.00019453 </v>
     <v>       0.00000000       0.00000000       0.11189277 </v>
    </varray>
   </crystal>
   <varray name="positions" >
    <v>       0.99688001       0.99204997       0.99924002 </v>
    <v>       0.25398003       0.99714995       0.24912000 </v>
    <v>       0.24803003       0.50165000       0.24955001 </v>
    <v>       0.50501006       0.49745998       0.99834003 </v>
    <v>       0.50479003       0.24631001       0.74710002 </v>
    <v>       0.99427992       0.50449999       0.49779000 </v>
    <v>       0.49950005       0.75481999       0.74817004 </v>
    <v>       0.99437004       0.23617001       0.26379999 </v>
    <v>       0.75718000       0.74102998       0.01100000 </v>
    <v>       0.00201000       0.25541000       0.73894001 </v>
    <v>       0.75307001       0.26163001       0.50533002 </v>
    <v>       0.99514004       0.74492004       0.74511997 </v>
    <v>       0.25679999       0.49462002       0.74545002 </v>
    <v>       0.24788999       0.24839000       0.99657997 </v>
    <v>       0.50833000       0.25676999       0.25376001 </v>
    <v>       0.74879004       0.98787999       0.26967001 </v>
    <v>       0.75719000       0.25603001       0.99591997 </v>
    <v>       0.24762001       0.74973999       0.99974006 </v>
    <v>       0.25272001       0.24823001       0.50015003 </v>
    <v>       0.24457999       0.75048999       0.49983999 </v>
    <v>       0.24982001       0.24942998       0.24825000 </v>
    <v>       0.26146999       0.99984002       0.99295996 </v>
    <v>       0.00281000       0.25024000       0.00130000 </v>
    <v>       0.75313998       0.24617000       0.25492002 </v>
    <v>       0.74767001       0.99748000       0.01202000 </v>
    <v>       0.50714994       0.99977000       0.24673000 </v>
    <v>       0.99051999       0.48088002       0.24100998 </v>
    <v>       0.50519005       0.76130999       0.00855000 </v>
    <v>       0.98896989       0.00202000       0.73708999 </v>
    <v>       0.75744996       0.24437997       0.74896999 </v>
    <v>       0.73632001       0.00417000       0.51063000 </v>
    <v>       0.50563996       0.23264999       0.49544997 </v>
    <v>       0.50008998       0.00061000       0.73471998 </v>
    <v>       0.99720000       0.99771992       0.25899999 </v>
    <v>       0.50427997       0.24673000       0.00262000 </v>
    <v>       0.25133999       0.74958002       0.24910999 </v>
    <v>       0.24328000       0.50072997       0.99510994 </v>
    <v>       0.99837005       0.74313996       0.00460000 </v>
    <v>       0.75633000       0.73891003       0.25767000 </v>
    <v>       0.75839004       0.50315998       0.00288000 </v>
    <v>       0.50700002       0.50333002       0.25878999 </v>
    <v>       0.24900999       0.25315000       0.74854000 </v>
    <v>       0.24446000       0.99823996       0.50287998 </v>
    <v>       0.99804009       0.24229999       0.50128003 </v>
    <v>       0.24177002       0.75340997       0.75018002 </v>
    <v>       0.25841001       0.50062002       0.50129001 </v>
    <v>       0.99000004       0.76215003       0.49746000 </v>
    <v>       0.99203996       0.50055999       0.75138002 </v>
    <v>       0.75036005       0.74888000       0.74756004 </v>
    <v>       0.74036002       0.50197000       0.50067003 </v>
    <v>       0.50575006       0.74958002       0.49720000 </v>
    <v>       0.50501003       0.50217998       0.73912003 </v>
    <v>       0.51588997       0.01358000       0.98075008 </v>
    <v>       0.99841994       0.50976998       0.98613004 </v>
    <v>       0.50379003       0.73926997       0.25905001 </v>
    <v>       0.23780002       0.01082000       0.74607998 </v>
    <v>       0.47957999       0.98308000       0.49717999 </v>
    <v>       0.74279003       0.97869994       0.76450995 </v>
    <v>       0.99864998       0.77573999       0.26102000 </v>
    <v>       0.73551001       0.51468004       0.26666001 </v>
    <v>       0.02362000       0.99783001       0.49557002 </v>
    <v>       0.50539000       0.52833005       0.49917999 </v>
    <v>       0.73876003       0.52828003       0.73814999 </v>
    <v>       0.75400003       0.72937999       0.49116997 </v>
   </varray>
  </structure>
  <varray name="forces" >
   <v>      -0.07787309      -0.46364870       0.18120137 </v>
   <v>      -0.10460016      -0.50827545       0.18505323 </v>
   <v>       0.65933386       0.71761529      -0.18722653 </v>
   <v>      -0.32359402      -0.67327967      -0.14668918 </v>
   <v>      -0.74267754      -0.56241841       0.82330331 </v>
   <v>      -0.14323132      -0.80495380       0.65926837 </v>
   <v>       0.02452500       0.88134435      -0.23370599 </v>
   <v>       1.00482571       0.63579222      -0.87272649 </v>
   <v>      -0.88706449       0.92239082      -0.60048531 </v>
   <v>       0.12227777      -0.26098525       0.22040503 </v>
   <v>      -0.29185952      -0.56549424       0.63932509 </v>
   <v>       0.74752507       0.65615518       0.77810181 </v>
   <v>      -0.08751843       0.35529606       0.68561083 </v>
   <v>       0.23094464      -0.63779926       0.56536324 </v>
   <v>      -1.38043704      -1.06076581      -0.49870308 </v>
   <v>      -1.78250244       1.09429765      -0.99327643 </v>
   <v>      -0.23631514      -0.70489877      -0.57333338 </v>
   <v>       1.43101453       0.80575222       0.06433278 </v>
   <v>       0.92959769       0.15944341      -0.49466538 </v>
   <v>       1.43236146      -0.10817851      -0.04679977 </v>
   <v>      -0.18796054       0.15338523       0.06236913 </v>
   <v>      -0.41392068       0.15223695       0.25025119 </v>
   <v>      -0.10242611      -0.47072416       0.03174796 </v>
   <v>       0.26285325       0.44363743       0.16758402 </v>
   <v>       0.17694696      -0.34626073      -1.46917405 </v>
   <v>      -1.63354046      -0.54312952       0.39311678 </v>
   <v>       0.65399333       0.51148571       0.76827122 </v>
   <v>       0.26819564      -0.44265873      -0.51761129 </v>
   <v>       0.06150735      -0.04140374       1.07207639 </v>
   <v>      -1.00208128       0.19453004      -0.26924681 </v>
   <v>       0.25888015      -0.37263474       0.43495918 </v>
   <v>       0.10794674       0.16103137       1.35419855 </v>
   <v>       0.62193434      -0.04193358       0.60638535 </v>
   <v>       1.23670425       1.01676942      -1.71741561 </v>
   <v>      -0.02989212       0.26405018      -1.59901541 </v>
   <v>       0.16422267      -0.20703986       0.07574339 </v>
   <v>       0.49601005      -0.13363187       0.90908958 </v>
   <v>      -0.43733191       0.42617706      -0.11554522 </v>
   <v>      -0.75500122       1.14450247      -1.24660568 </v>
   <v>      -0.75731260       0.52328318      -0.13181055 </v>
   <v>      -2.15542520       0.85779505      -1.67253815 </v>
   <v>       0.83221740      -0.64978972       0.01772730 </v>
   <v>       2.72027678       0.02358472      -0.16529216 </v>
   <v>      -0.09660747       1.11912735      -0.04445775 </v>
   <v>       0.79863128       0.07892709      -0.00632784 </v>
   <v>      -1.14493707      -0.02844327      -0.98852700 </v>
   <v>       0.88149108      -1.62903588       0.60752705 </v>
   <v>       0.49807617       0.00946323      -0.29660283 </v>
   <v>      -1.17696586       2.36748461       0.73451094 </v>
   <v>       1.94468319      -1.18768962       0.45415640 </v>
   <v>      -0.66525955       2.19136205       0.37848364 </v>
   <v>      -0.78573672      -0.12391918       1.65403442 </v>
   <v>       0.17296880       0.60612828      -0.86632010 </v>
   <v>       0.42660405       0.93330767      -0.70782402 </v>
   <v>      -0.25024817       0.13731452      -0.46905907 </v>
   <v>       0.12574854       0.12916429       0.46443415 </v>
   <v>      -0.35675571      -0.33618515       0.38644927 </v>
   <v>      -0.89957247      -0.86066854       0.37386028 </v>
   <v>       1.58230070      -2.71251996      -2.36340498 </v>
   <v>       2.61628900      -2.54612948      -2.79727010 </v>
   <v>      -2.47480237       1.03406750       1.88461433 </v>
   <v>      -2.70801022      -2.33093916       0.30567699 </v>
   <v>       0.93271376      -3.22475931       2.03027571 </v>
   <v>      -0.33214031       3.87329149       1.87215186 </v>
  </varray>
  <varray name="stress" >
   <v>    -108.20576836       3.32693373      -1.83865830 </v>
   <v>       3.32693445    -120.98544143       2.10399415 </v>
   <v>      -1.83866024       2.10399543    -105.57504163 </v>
  </varray>
  <energy>
   <i name="e_fr_energy">   -628.25371171 </i>
   <i name="e_wo_entrp">   -628.14844155 </i>
   <i name="e_0_energy">     -0.21054031 </i>
  </energy>
  <time name="totalsc">  968.96  971.15</time>
 </calculation>
 <calculation>
  <scstep>
   <time name="dav">   30.14   30.21</time>
   <time name="total">   30.46   30.53</time>
   <energy>
    <i name="alphaZ">   4897.74106634 </i>
    <i name="ewald"> -47486.05155050 </i>
    <i name="hartreedc">  -9578.34080983 </i>
    <i name="XCdc">   2255.78480388 </i>
    <i name="pawpsdc">  35327.09253175 </i>
    <i name="pawaedc"> -35455.86300129 </i>
    <i name="eentropy">     -0.08788310 </i>
    <i name="bandstr">  -5002.76691272 </i>
    <i name="atom">  54367.89097663 </i>
    <i name="e_fr_energy">   -674.60077885 </i>
    <i name="e_wo_entrp">   -674.51289575 </i>
    <i name="e_0_energy">   -674.55683730 </i>
   </energy>
  </scstep>
  <scstep>
   <time name="diag">    1.96    1.96</time>
   <time name="diis">   18.79   18.87</time>
   <time name="orth">    0.50    0.50</time>
   <time name="total">   21.54   21.63</time>
   <energy>
    <i name="e_fr_energy">   -767.81842842 </i>
    <i name="e_wo_entrp">   -767.68102953 </i>
    <i name="e_0_energy">   -767.74972897 </i>
   </energy>
  </scstep>
  <scstep>
   <time name="diag">    1.99    1.99</time>
   <time name="diis">   20.81   20.89</time>
   <time name="orth">    0.50    0.50</time>
   <time name="total">   23.60   23.68</time>
   <energy>
    <i name="e_fr_energy">   -660.75340772 </i>
    <i name="e_wo_entrp">   -660.61777461 </i>
    <i name="e_0_energy">   -660.68559116 </i>
   </energy>
  </scstep>
  <scstep>
   <time name="diag">    1.97    1.97</time>
   <time name="diis">   22.04   22.10</time>
   <time name="orth">    0.51    0.51</time>
   <time name="total">   24.84   24.90</time>
   <energy>
    <i name="e_fr_energy">   -644.12222931 </i>
    <i name="e_wo_entrp">   -643.97833467 </i>
    <i name="e_0_energy">   -644.05028199 </i>
   </energy>
  </scstep>
  <scstep>
   <time name="diag">    2.00    2.01</time>
   <time name="diis">   18.63   18.67</time>
   <time name="orth">    0.49    0.49</time>
   <time name="total">   21.42   21.49</time>
   <energy>
    <i name="e_fr_energy">   -646.95081357 </i>
    <i name="e_wo_entrp">   -646.79933952 </i>
    <i name="e_0_energy">   -646.87507654 </i>
   </energy>
  </scstep>
  <scstep>
   <time name="diag">    1.96    1.96</time>
   <time name="diis">   20.29   20.33</time>
   <time name="orth">    0.50    0.50</time>
   <time name="total">   23.06   23.10</time>
   <energy>
    <i name="e_fr_energy">   -635.03180107 </i>
    <i name="e_wo_entrp">   -634.87675696 </i>
    <i name="e_0_energy">   -634.95427902 </i>
   </energy>
  </scstep>
  <scstep>
   <time name="diag">    1.98    2.00</time>
   <time name="diis">   21.14   21.23</time>
   <time name="orth">    0.50    0.50</time>
   <time name="total">   23.93   24.05</time>
   <energy>
    <i name="e_fr_energy">   -634.62533169 </i>
    <i name="e_wo_entrp">   -634.46188517 </i>
    <i name="e_0_energy">   -634.54360843 </i>
   </energy>
  </scstep>
  <scstep>
   <time name="diag">    1.97    1.97</time>
   <time name="diis">   22.06   22.10</time>
   <time name="orth">    0.49    0.49</time>
   <time name="total">   24.82   24.87</time>
   <energy>
    <i name="e_fr_energy">   -632.91685873 </i>
    <i name="e_wo_entrp">   -632.73587717 </i>
    <i name="e_0_energy">   -632.82636795 </i>
   </energy>
  </scstep>
  <scstep>
   <time name="diag">    1.97    1.97</time>
   <time name="diis">   24.33   24.38</time>
   <time name="orth">    0.50    0.50</time>
   <time name="total">   27.10   27.16</time>
   <energy>
    <i name="e_fr_energy">   -632.74856129 </i>
    <i name="e_wo_entrp">   -632.58194534 </i>
    <i name="e_0_energy">   -632.66525331 </i>
   </energy>
  </scstep>
  <scstep>
   <time name="diag">    1.98    2.00</time>
   <time name="diis">   24.12   24.15</time>
   <time name="orth">    0.50    0.50</time>
   <time name="total">   26.90   26.95</time>
   <energy>
    <i name="e_fr_energy">   -632.76351064 </i>
    <i name="e_wo_entrp">   -632.59390302 </i>
    <i name="e_0_energy">   -632.67870683 </i>
   </energy>
  </scstep>
  <scstep>
   <time name="diag">    1.98    1.98</time>
   <time name="diis">   24.66   24.78</time>
   <time name="orth">    0.50    0.50</time>
   <time name="total">   27.43   27.56</time>
   <energy>
    <i name="e_fr_energy">   -632.63298365 </i>
    <i name="e_wo_entrp">   -632.45536816 </i>
    <i name="e_0_energy">   -632.54417590 </i>
   </energy>
  </scstep>
  <scstep>
   <time name="diag">    1.96    1.96</time>
   <time name="diis">   25.12   25.14</time>
   <time name="orth">    0.49    0.49</time>
   <time name="total">   27.88   27.90</time>
   <energy>
    <i name="e_fr_energy">   -632.68817552 </i>
    <i name="e_wo_entrp">   -632.51812091 </i>
    <i name="e_0_energy">   -632.60314821 </i>
   </energy>
  </scstep>
  <scstep>
   <time name="diag">    1.97    1.97</time>
   <time name="diis">   23.95   23.98</time>
   <time name="orth">    0.49    0.50</time>
   <time name="total">   26.71   26.75</time>
   <energy>
    <i name="e_fr_energy">   -632.71169984 </i>
    <i name="e_wo_entrp">   -632.53450292 </i>
    <i name="e_0_energy">   -632.62310138 </i>
   </energy>
  </scstep>
  <scstep>
   <time name="diag">    1.97    1.97</time>
   <time name="diis">   24.78   24.83</time>
   <time name="orth">    0.49    0.49</time>
   <time name="total">   27.55   27.60</time>
   <energy>
    <i name="e_fr_energy">   -632.69213165 </i>
    <i name="e_wo_entrp">   -632.51671765 </i>
    <i name="e_0_energy">   -632.60442465 </i>
   </energy>
  </scstep>
  <scstep>
   <time name="diag">    1.97    1.97</time>
   <time name="diis">   24.78   24.80</time>
   <time name="orth">    0.50    0.50</time>
   <time name="total">   27.55   27.58</time>
   <energy>
    <i name="e_fr_energy">   -632.72065362 </i>
    <i name="e_wo_entrp">   -632.54478791 </i>
    <i name="e_0_energy">   -632.63272077 </i>
   </energy>
  </scstep>
  <scstep>
   <time name="diag">    1.99    2.01</time>
   <time name="diis">   24.62   24.77</time>
   <time name="orth">    0.50    0.50</time>
   <time name="total">   27.41   27.58</time>
   <energy>
    <i name="e_fr_energy">   -632.71453619 </i>
    <i name="e_wo_entrp">   -632.53671159 </i>
    <i name="e_0_energy">   -632.62562389 </i>
   </energy>
  </scstep>
  <scstep>
   <time name="diag">    1.96    1.96</time>
   <time name="diis">   24.64   24.74</time>
   <time name="orth">    0.50    0.50</time>
   <time name="total">   27.40   27.51</time>
   <energy>
    <i name="e_fr_energy">   -632.71950971 </i>
    <i name="e_wo_entrp">   -632.54215443 </i>
    <i name="e_0_energy">   -632.63083207 </i>
   </energy>
  </scstep>
  <scstep>
   <time name="diag">    1.97    1.97</time>
   <time name="diis">   24.71   24.80</time>
   <time name="orth">    0.50    0.50</time>
   <time name="total">   27.48   27.57</time>
   <energy>
    <i name="e_fr_energy">   -632.72033554 </i>
    <i name="e_wo_entrp">   -632.54340954 </i>
    <i name="e_0_energy">   -632.63187254 </i>
   </energy>
  </scstep>
  <scstep>
   <time name="diag">    1.97    1.97</time>
   <time name="diis">   24.82   24.86</time>
   <time name="orth">    0.50    0.50</time>
   <time name="total">   27.60   27.63</time>
   <energy>
    <i name="e_fr_energy">   -632.72192533 </i>
    <i name="e_wo_entrp">   -632.54478183 </i>
    <i name="e_0_energy">   -632.63335358 </i>
   </energy>
  </scstep>
  <scstep>
   <time name="diag">    1.97    1.97</time>
   <time name="diis">   23.92   23.94</time>
   <time name="orth">    0.52    0.52</time>
   <time name="total">   26.71   26.74</time>
   <energy>
    <i name="e_fr_energy">   -632.72198295 </i>
    <i name="e_wo_entrp">   -632.54502283 </i>
    <i name="e_0_energy">   -632.63350289 </i>
   </energy>
  </scstep>
  <scstep>
   <time name="diag">    1.97    1.97</time>
   <time name="diis">   23.25   23.27</time>
   <time name="orth">    0.49    0.49</time>
   <time name="total">   26.02   26.05</time>
   <energy>
    <i name="e_fr_energy">   -632.72257519 </i>
    <i name="e_wo_entrp">   -632.54560627 </i>
    <i name="e_0_energy">   -632.63409073 </i>
   </energy>
  </scstep>
  <scstep>
   <time name="diag">    1.98    1.98</time>
   <time name="diis">   22.71   22.75</time>
   <time name="orth">    0.50    0.50</time>
   <time name="total">   25.50   25.55</time>
   <energy>
    <i name="e_fr_energy">   -632.72264813 </i>
    <i name="e_wo_entrp">   -632.54556645 </i>
    <i name="e_0_energy">   -632.63410729 </i>
   </energy>
  </scstep>
  <scstep>
   <time name="diag">    1.96    1.96</time>
   <time name="diis">   21.73   21.78</time>
   <time name="orth">    0.49    0.49</time>
   <time name="total">   24.49   24.54</time>
   <energy>
    <i name="e_fr_energy">   -632.72290398 </i>
    <i name="e_wo_entrp">   -632.54572546 </i>
    <i name="e_0_energy">   -632.63431472 </i>
   </energy>
  </scstep>
  <scstep>
   <time name="diag">    1.96    1.97</time>
   <time name="diis">   21.05   21.08</time>
   <time name="orth">    0.50    0.50</time>
   <time name="total">   23.81   23.85</time>
   <energy>
    <i name="e_fr_energy">   -632.72295786 </i>
    <i name="e_wo_entrp">   -632.54575983 </i>
    <i name="e_0_energy">   -632.63435884 </i>
   </energy>
  </scstep>
  <scstep>
   <time name="diag">    1.97    1.98</time>
   <time name="diis">   20.35   20.43</time>
   <time name="orth">    0.50    0.50</time>
   <time name="total">   23.13   23.21</time>
   <energy>
    <i name="e_fr_energy">   -632.72300424 </i>
    <i name="e_wo_entrp">   -632.54587223 </i>
    <i name="e_0_energy">   -632.63443823 </i>
   </energy>
  </scstep>
  <scstep>
   <time name="diag">    1.97    1.97</time>
   <time name="diis">   20.24   20.26</time>
   <time name="orth">    0.49    0.49</time>
   <time name="total">   23.01   23.03</time>
   <energy>
    <i name="e_fr_energy">   -632.72306052 </i>
    <i name="e_wo_entrp">   -632.54585584 </i>
    <i name="e_0_energy">   -632.63445818 </i>
   </energy>
  </scstep>
  <scstep>
   <time name="diag">    1.97    1.97</time>
   <time name="diis">   19.47   19.49</time>
   <time name="orth">    0.52    0.52</time>
   <time name="total">   22.29   22.32</time>
   <energy>
    <i name="e_fr_energy">   -632.72308582 </i>
    <i name="e_wo_entrp">   -632.54593402 </i>
    <i name="e_0_energy">   -632.63450992 </i>
   </energy>
  </scstep>
  <scstep>
   <time name="diag">    2.01    2.02</time>
   <time name="diis">   19.24   19.28</time>
   <time name="orth">    0.50    0.50</time>
   <time name="total">   22.06   22.11</time>
   <energy>
    <i name="e_fr_energy">   -632.72310688 </i>
    <i name="e_wo_entrp">   -632.54594165 </i>
    <i name="e_0_energy">   -632.63452427 </i>
   </energy>
  </scstep>
  <scstep>
   <time name="diag">    1.96    1.96</time>
   <time name="diis">   18.16   18.21</time>
   <time name="orth">    0.50    0.50</time>
   <time name="total">   20.93   20.98</time>
   <energy>
    <i name="e_fr_energy">   -632.72311889 </i>
    <i name="e_wo_entrp">   -632.54596398 </i>
    <i name="e_0_energy">   -632.63454143 </i>
   </energy>
  </scstep>
  <scstep>
   <time name="diag">    1.97    1.97</time>
   <time name="diis">   17.33   17.36</time>
   <time name="orth">    0.50    0.50</time>
   <time name="total">   19.83   19.86</time>
   <energy>
    <i name="alphaZ">   4897.74106634 </i>
    <i name="ewald"> -47486.05155050 </i>
    <i name="hartreedc">  -8590.63213044 </i>
    <i name="XCdc">   2200.55649613 </i>
    <i name="pawpsdc">  36509.87072791 </i>
    <i name="pawaedc"> -36630.95157714 </i>
    <i name="eentropy">     -0.17715649 </i>
    <i name="bandstr">  -5900.96997956 </i>
    <i name="atom">  54367.89097663 </i>
    <i name="e_fr_energy">   -632.72312715 </i>
    <i name="e_wo_entrp">   -632.54597065 </i>
    <i name="e_0_energy">   -632.63454890 </i>
   </energy>
  </scstep>
  <structure>
   <crystal>
    <varray name="basis" >
     <v>       8.60376014       0.01010755      -0.00558602 </v>
     <v>       0.01578812       8.68297379       0.00647663 </v>
     <v>       0.02531363      -0.00866385       8.61618320 </v>
    </varray>
    <i name="volume">    643.68284772 </i>
    <varray name="rec_basis" >
     <v>       0.11622828      -0.00021108      -0.00034168 </v>
     <v>      -0.00013522       0.11516808       0.00011620 </v>
     <v>       0.00007545      -0.00008671       0.11606036 </v>
    </varray>
   </crystal>
   <varray name="positions" >
    <v>       0.99645751       0.98958163       0.00021814 </v>
    <v>       0.25341326       0.99444391       0.25011891 </v>
    <v>       0.25159213       0.50547126       0.24853936 </v>
    <v>       0.50326755       0.49387178       0.99754820 </v>
    <v>       0.50076493       0.24332152       0.75154421 </v>
    <v>       0.99349633       0.50021788       0.50134873 </v>
    <v>       0.49963402       0.75951306       0.74690850 </v>
    <v>       0.99981166       0.23954893       0.25908901 </v>
    <v>       0.75239763       0.74593827       0.00775858 </v>
    <v>       0.00266702       0.25402170       0.74012976 </v>
    <v>       0.75148327       0.25862341       0.50878110 </v>
    <v>       0.99915993       0.74842293       0.74932017 </v>
    <v>       0.25631280       0.49651925       0.74915095 </v>
    <v>       0.24912849       0.24499750       0.99963180 </v>
    <v>       0.50088785       0.25111421       0.25106801 </v>
    <v>       0.73917862       0.99370042       0.26430830 </v>
    <v>       0.75592725       0.25226936       0.99282512 </v>
    <v>       0.25534462       0.75403315       0.00008732 </v>
    <v>       0.25774963       0.24907478       0.49747983 </v>
    <v>       0.25231717       0.74991324       0.49958736 </v>
    <v>       0.24880314       0.25024771       0.24858666 </v>
    <v>       0.25922911       0.00065339       0.99431082 </v>
    <v>       0.00225782       0.24773257       0.00147138 </v>
    <v>       0.75455482       0.24853499       0.25582464 </v>
    <v>       0.74865537       0.99562154       0.00408939 </v>
    <v>       0.49832175       0.99688022       0.24885205 </v>
    <v>       0.99403542       0.48361212       0.24515712 </v>
    <v>       0.50665009       0.75894692       0.00575593 </v>
    <v>       0.98928141       0.00180949       0.74287707 </v>
    <v>       0.75204247       0.24541378       0.74751659 </v>
    <v>       0.73771101       0.00218891       0.51297791 </v>
    <v>       0.50619612       0.23352057       0.50275994 </v>
    <v>       0.50343730       0.00039229       0.73799325 </v>
    <v>       0.00390903       0.00312053       0.24972938 </v>
    <v>       0.50414865       0.24812169      -0.00601149 </v>
    <v>       0.25222616       0.74847775       0.24951885 </v>
    <v>       0.24594167       0.50002660       0.00001721 </v>
    <v>       0.99600888       0.74540929       0.00397629 </v>
    <v>       0.75227265       0.74499553       0.25094081 </v>
    <v>       0.75430071       0.50594647       0.00216849 </v>
    <v>       0.49538851       0.50788412       0.24976162 </v>
    <v>       0.25350651       0.24968849       0.74863570 </v>
    <v>       0.25915480       0.99836405       0.50198773 </v>
    <v>       0.99751535       0.24826160       0.50104005 </v>
    <v>       0.24608312       0.75383039       0.75014586 </v>
    <v>       0.25224571       0.50045921       0.49595394 </v>
    <v>       0.99475459       0.75347723       0.50073943 </v>
    <v>       0.99473570       0.50060762       0.74977895 </v>
    <v>       0.74398112       0.76149939       0.75152493 </v>
    <v>       0.75085812       0.49564699       0.50312157 </v>
    <v>       0.50214226       0.76125780       0.49924306 </v>
    <v>       0.50073475       0.50153534       0.74804851 </v>
    <v>       0.51683887       0.01680095       0.97607368 </v>
    <v>       0.00073448       0.51473543       0.98230920 </v>
    <v>       0.50244712       0.73999709       0.25651803 </v>
    <v>       0.23846971       0.01151247       0.74858700 </v>
    <v>       0.47764688       0.98129264       0.49926605 </v>
    <v>       0.73792731       0.97411833       0.76652805 </v>
    <v>       0.00725084       0.76126718       0.24826233 </v>
    <v>       0.74970308       0.50108958       0.25156033 </v>
    <v>       0.01021396       0.00335657       0.50574317 </v>
    <v>       0.49076664       0.51591511       0.50083004 </v>
    <v>       0.74376910       0.51111955       0.74910943 </v>
    <v>       0.75215659       0.75003207       0.50127585 </v>
   </varray>
  </structure>
  <varray name="forces" >
   <v>       0.41953207      -0.27501532      -0.07172077 </v>
   <v>      -0.06969895      -0.19758180       0.31002054 </v>
   <v>       0.80762881       0.56669017      -0.53357861 </v>
   <v>      -0.60953051      -0.68262518       0.05168379 </v>
   <v>      -0.88329006      -0.51502844       0.72800839 </v>
   <v>       0.82935904      -0.80546184       0.79303144 </v>
   <v>       0.02192461       0.51085618      -0.23591177 </v>
   <v>       0.70601235       0.49754008      -0.61175767 </v>
   <v>      -1.10487009       0.76174758      -0.84664333 </v>
   <v>       0.73256201      -0.38085114       0.82619930 </v>
   <v>      -0.09011319      -0.71149949      -0.21022418 </v>
   <v>       0.02874572       0.40712261       0.94663931 </v>
   <v>      -0.85455819       0.11348667       0.83326936 </v>
   <v>      -0.06353251      -0.15955181      -0.03598062 </v>
   <v>      -0.49758396       0.10902893      -0.71675720 </v>
   <v>       0.63630919       0.43488263      -1.44223300 </v>
   <v>      -0.19791581      -0.60694212       0.26901995 </v>
   <v>       0.99449261       0.33106986      -0.20047498 </v>
   <v>      -0.74274478      -0.11396387       0.21441779 </v>
   <v>      -0.85583640       0.48634954       0.00724250 </v>
   <v>      -0.20400109       0.04203715      -0.02622910 </v>
   <v>      -0.15068769      -0.04905295       0.19937787 </v>
   <v>      -0.02727647      -0.24418319       0.03825742 </v>
   <v>      -0.24811044       0.38630549      -0.28168865 </v>
   <v>       0.16238467       0.01344439      -1.12702202 </v>
   <v>      -1.63626828      -0.73226540      -0.03883170 </v>
   <v>       0.81891576       1.49256911       0.32370377 </v>
   <v>       0.09232580      -0.13482037      -0.39168923 </v>
   <v>      -0.02158835       0.08907186       1.60732052 </v>
   <v>      -0.72707569       0.38545880      -0.04622007 </v>
   <v>       0.69716948      -0.41655157       0.80509870 </v>
   <v>       0.21158911       0.72506826       0.74665792 </v>
   <v>       0.31883516       0.21269282       0.70693985 </v>
   <v>       0.40129124      -1.28287963      -0.75371619 </v>
   <v>      -0.25496062       0.36955211      -0.82500164 </v>
   <v>       0.93155062      -0.15740410      -0.08864549 </v>
   <v>       0.16849077       0.06135262       0.84624974 </v>
   <v>       0.64625491       0.37185955      -0.59027215 </v>
   <v>      -0.51332988      -0.37003369       0.64089829 </v>
   <v>      -0.28238946      -0.53366039      -0.16044385 </v>
   <v>      -0.15362786       0.28457585      -0.85070758 </v>
   <v>       0.73731570      -0.62682647       0.11057915 </v>
   <v>      -0.58426981       0.19642744       0.22251786 </v>
   <v>       0.42710573       1.07839178      -0.21103113 </v>
   <v>       0.95692637       0.53193926       0.08143463 </v>
   <v>      -1.56140143      -0.19400593      -0.51532000 </v>
   <v>       0.43395245      -0.88987587      -0.26070826 </v>
   <v>       0.59638183       0.03891281      -0.07048905 </v>
   <v>      -0.40276233      -1.30859317       0.42773901 </v>
   <v>      -0.17164638       1.44527926      -0.52079832 </v>
   <v>       0.25565559      -0.45416399       0.06445776 </v>
   <v>      -0.05283478      -0.12833147       0.95259227 </v>
   <v>      -0.25171423       0.10248085      -0.80181878 </v>
   <v>       0.31597166       0.66156178      -0.40283937 </v>
   <v>      -0.49625103      -0.13286047      -0.09334454 </v>
   <v>       0.00001396      -0.44145563       0.08310384 </v>
   <v>       0.66482393       0.41022309       0.15464201 </v>
   <v>      -1.09491552       0.95012996       0.43625656 </v>
   <v>      -0.68495335      -0.41481333       0.27177502 </v>
   <v>      -0.41324748       0.16226229      -0.01042229 </v>
   <v>       0.18387710      -0.34565824      -0.73069719 </v>
   <v>       2.24551470      -0.42969469      -0.55634256 </v>
   <v>       0.15037911       0.24397465       0.68831709 </v>
   <v>      -0.69030549      -0.73869390      -0.12789035 </v>
  </varray>
  <varray name="stress" >
   <v>     201.40716839      -4.08615029       0.25062230 </v>
   <v>      -4.08614990     168.49227232      -4.10543158 </v>
   <v>       0.25062283      -4.10543158     204.56507443 </v>
  </varray>
  <energy>
   <i name="e_fr_energy">   -632.72312715 </i>
   <i name="e_wo_entrp">   -632.63454890 </i>
   <i name="e_0_energy">     -0.17715649 </i>
  </energy>
  <time name="totalsc">  800.95  802.82</time>
 </calculation>
 <calculation>
  <scstep>
   <time name="dav">   30.09   30.17</time>
   <time name="total">   30.40   30.49</time>
   <energy>
    <i name="alphaZ">   4726.99003811 </i>
    <i name="ewald"> -46969.70189864 </i>
    <i name="hartreedc">  -8446.29103558 </i>
    <i name="XCdc">   2174.61025163 </i>
    <i name="pawpsdc">  36509.81558047 </i>
    <i name="pawaedc"> -36630.92191800 </i>
    <i name="eentropy">     -0.23232910 </i>
    <i name="bandstr">  -6370.56868910 </i>
    <i name="atom">  54367.89097663 </i>
    <i name="e_fr_energy">   -638.40902358 </i>
    <i name="e_wo_entrp">   -638.17669449 </i>
    <i name="e_0_energy">   -638.29285903 </i>
   </energy>
  </scstep>
  <scstep>
   <time name="diag">    1.96    1.96</time>
   <time name="diis">   21.24   21.29</time>
   <time name="orth">    0.50    0.50</time>
   <time name="total">   24.01   24.07</time>
   <energy>
    <i name="e_fr_energy">   -671.15235036 </i>
    <i name="e_wo_entrp">   -671.04337936 </i>
    <i name="e_0_energy">   -671.09786486 </i>
   </energy>
  </scstep>
  <scstep>
   <time name="diag">    1.97    1.97</time>
   <time name="diis">   18.65   18.75</time>
   <time name="orth">    0.49    0.49</time>
   <time name="total">   21.42   21.53</time>
   <energy>
    <i name="e_fr_energy">   -637.68009494 </i>
    <i name="e_wo_entrp">   -637.48632071 </i>
    <i name="e_0_energy">   -637.58320783 </i>
   </energy>
  </scstep>
  <scstep>
   <time name="diag">    2.07    2.08</time>
   <time name="diis">   21.28   21.38</time>
   <time name="orth">    0.49    0.49</time>
   <time name="total">   24.15   24.27</time>
   <energy>
    <i name="e_fr_energy">   -635.82797880 </i>
    <i name="e_wo_entrp">   -635.64548612 </i>
    <i name="e_0_energy">   -635.73673246 </i>
   </energy>
  </scstep>
  <scstep>
   <time name="diag">    1.98    1.98</time>
   <time name="diis">   20.92   20.95</time>
   <time name="orth">    0.50    0.50</time>
   <time name="total">   23.70   23.74</time>
   <energy>
    <i name="e_fr_energy">   -635.96523442 </i>
    <i name="e_wo_entrp">   -635.79291243 </i>
    <i name="e_0_energy">   -635.87907342 </i>
   </energy>
  </scstep>
  <scstep>
   <time name="diag">    1.97    2.01</time>
   <time name="diis">   20.40   20.46</time>
   <time name="orth">    0.50    0.50</time>
   <time name="total">   23.18   23.28</time>
   <energy>
    <i name="e_fr_energy">   -634.21930120 </i>
    <i name="e_wo_entrp">   -634.03384446 </i>
    <i name="e_0_energy">   -634.12657283 </i>
   </energy>
  </scstep>
  <scstep>
   <time name="diag">    1.97    1.97</time>
   <time name="diis">   20.69   20.73</time>
   <time name="orth">    0.50    0.50</time>
   <time name="total">   23.48   23.52</time>
   <energy>
    <i name="e_fr_energy">   -634.48269076 </i>
    <i name="e_wo_entrp">   -634.29867219 </i>
    <i name="e_0_energy">   -634.39068147 </i>
   </energy>
  </scstep>
  <scstep>
   <time name="diag">    1.97    1.97</time>
   <time name="diis">   20.95   21.03</time>
   <time name="orth">    0.49    0.49</time>
   <time name="total">   23.71   23.79</time>
   <energy>
    <i name="e_fr_energy">   -634.04376310 </i>
    <i name="e_wo_entrp">   -633.85738988 </i>
    <i name="e_0_energy">   -633.95057649 </i>
   </energy>
  </scstep>
  <scstep>
   <time name="diag">    1.99    1.99</time>
   <time name="diis">   22.72   23.46</time>
   <time name="orth">    0.50    0.50</time>
   <time name="total">   25.50   26.25</time>
   <energy>
    <i name="e_fr_energy">   -633.89585623 </i>
    <i name="e_wo_entrp">   -633.71426961 </i>
    <i name="e_0_energy">   -633.80506292 </i>
   </energy>
  </scstep>
  <scstep>
   <time name="diag">    1.97    1.97</time>
   <time name="diis">   22.99   23.03</time>
   <time name="orth">    0.49    0.49</time>
[...]
      </set>
     </set>
    </set>
   </array>
  </eigenvalues>
  <separator name="orbital magnetization" >
   <v name="MAGDIPOLOUT">      0.00000000      0.00000000      0.00000000</v>
  </separator>
  <dos>
   <i name="efermi">      8.48436935 </i>
   <total>
    <array>
     <dimension dim="1">gridpoints</dimension>
     <dimension dim="2">spin</dimension>
     <field>energy</field>
     <field>total</field>
     <field>integrated</field>
     <set>
      <set comment="spin 1">
       <r>   -60.0035     0.0000     0.0000 </r>
       <r>   -59.7533     0.0000     0.0000 </r>
       <r>   -59.5031     0.0000     0.0000 </r>
       <r>   -59.2529     0.0000     0.0000 </r>
       <r>   -59.0027     0.0000     0.0000 </r>
       <r>   -58.7526     0.0000     0.0000 </r>
       <r>   -58.5024     0.0000     0.0000 </r>
       <r>   -58.2522     0.0000     0.0000 </r>
       <r>   -58.0020     0.0000     0.0000 </r>
       <r>   -57.7518     0.0000     0.0000 </r>
       <r>   -57.5016     0.0000     0.0000 </r>
       <r>   -57.2514     0.0000     0.0000 </r>
       <r>   -57.0012     0.0000     0.0000 </r>
       <r>   -56.7510     0.0973     0.0243 </r>
       <r>   -56.5008     9.1673     2.3180 </r>
       <r>   -56.2506    35.7207    11.2551 </r>
       <r>   -56.0004    10.9255    13.9886 </r>
       <r>   -55.7502     0.0455    14.0000 </r>
       <r>   -55.5000     0.0000    14.0000 </r>
       <r>   -55.2498     0.0000    14.0000 </r>
       <r>   -54.9996     0.0000    14.0000 </r>
       <r>   -54.7494     0.0000    14.0000 </r>
       <r>   -54.4992     0.0000    14.0000 </r>
       <r>   -54.2490     0.0000    14.0000 </r>
       <r>   -53.9988     0.0000    14.0000 </r>
       <r>   -53.7486     0.0000    14.0000 </r>
       <r>   -53.4985     0.0000    14.0000 </r>
       <r>   -53.2483     0.0000    14.0000 </r>
       <r>   -52.9981     0.0000    14.0000 </r>
       <r>   -52.7479     0.0000    14.0000 </r>
       <r>   -52.4977     0.0000    14.0000 </r>
       <r>   -52.2475     0.0000    14.0000 </r>
       <r>   -51.9973     0.0000    14.0000 </r>
       <r>   -51.7471     0.0000    14.0000 </r>
       <r>   -51.4969     0.0000    14.0000 </r>
       <r>   -51.2467     0.0000    14.0000 </r>
       <r>   -50.9965     0.0000    14.0000 </r>
       <r>   -50.7463     0.0000    14.0000 </r>
       <r>   -50.4961     0.0000    14.0000 </r>
       <r>   -50.2459     0.0000    14.0000 </r>
       <r>   -49.9957     0.0000    14.0000 </r>
       <r>   -49.7455     0.0000    14.0000 </r>
       <r>   -49.4953     0.0000    14.0000 </r>
       <r>   -49.2451     0.0000    14.0000 </r>
       <r>   -48.9949     0.0000    14.0000 </r>
       <r>   -48.7447     0.0000    14.0000 </r>
       <r>   -48.4945     0.0000    14.0000 </r>
       <r>   -48.2444     0.0000    14.0000 </r>
       <r>   -47.9942     0.0000    14.0000 </r>
       <r>   -47.7440     0.0450    14.0113 </r>
       <r>   -47.4938    11.8172    16.9679 </r>
       <r>   -47.2436    14.5377    20.6051 </r>
       <r>   -46.9934    19.0273    25.3657 </r>
       <r>   -46.7432     2.5351    25.9999 </r>
       <r>   -46.4930     0.0002    26.0000 </r>
       <r>   -46.2428     0.0000    26.0000 </r>
       <r>   -45.9926     0.0000    26.0000 </r>
       <r>   -45.7424     0.0000    26.0000 </r>
       <r>   -45.4922     0.0000    26.0000 </r>
       <r>   -45.2420     0.0000    26.0000 </r>
       <r>   -44.9918     0.0000    26.0000 </r>
       <r>   -44.7416     0.0000    26.0000 </r>
       <r>   -44.4914     0.0000    26.0000 </r>
       <r>   -44.2412     0.0000    26.0000 </r>
       <r>   -43.9910     0.0000    26.0000 </r>
       <r>   -43.7408     0.0000    26.0000 </r>
       <r>   -43.4906     0.0000    26.0000 </r>
       <r>   -43.2404     0.0000    26.0000 </r>
       <r>   -42.9903     0.0000    26.0000 </r>
       <r>   -42.7401     0.0000    26.0000 </r>
       <r>   -42.4899     0.0000    26.0000 </r>
       <r>   -42.2397     0.0000    26.0000 </r>
       <r>   -41.9895     0.0000    26.0000 </r>
       <r>   -41.7393     0.0000    26.0000 </r>
       <r>   -41.4891     0.0000    26.0000 </r>
       <r>   -41.2389     0.0000    26.0000 </r>
       <r>   -40.9887     0.0006    26.0001 </r>
       <r>   -40.7385     4.5510    27.1388 </r>
       <r>   -40.4883    13.0118    30.3943 </r>
       <r>   -40.2381     7.4535    32.2591 </r>
       <r>   -39.9879    18.4943    36.8863 </r>
       <r>   -39.7377     4.5049    38.0134 </r>
       <r>   -39.4875     6.8024    39.7153 </r>
       <r>   -39.2373     1.1377    40.0000 </r>
       <r>   -38.9871     0.0000    40.0000 </r>
       <r>   -38.7369     0.0000    40.0000 </r>
       <r>   -38.4867     0.0000    40.0000 </r>
       <r>   -38.2365     0.0000    40.0000 </r>
       <r>   -37.9863     0.0000    40.0000 </r>
       <r>   -37.7361     0.0000    40.0000 </r>
       <r>   -37.4860     0.0000    40.0000 </r>
       <r>   -37.2358     0.0000    40.0000 </r>
       <r>   -36.9856     0.0000    40.0000 </r>
       <r>   -36.7354     0.0000    40.0000 </r>
       <r>   -36.4852     0.0000    40.0000 </r>
       <r>   -36.2350     0.0000    40.0000 </r>
       <r>   -35.9848     0.0000    40.0000 </r>
       <r>   -35.7346     0.0000    40.0000 </r>
       <r>   -35.4844     0.2213    40.0554 </r>
       <r>   -35.2342    20.0804    45.0794 </r>
       <r>   -34.9840    90.9056    67.8235 </r>
       <r>   -34.7338    32.5494    75.9672 </r>
       <r>   -34.4836     0.1309    76.0000 </r>
       <r>   -34.2334     0.0000    76.0000 </r>
       <r>   -33.9832     0.0000    76.0000 </r>
       <r>   -33.7330     0.0000    76.0000 </r>
       <r>   -33.4828     0.0000    76.0000 </r>
       <r>   -33.2326     0.0000    76.0000 </r>
       <r>   -32.9824     0.0000    76.0000 </r>
       <r>   -32.7322     0.0000    76.0000 </r>
       <r>   -32.4820     0.0000    76.0000 </r>
       <r>   -32.2319     0.0000    76.0000 </r>
       <r>   -31.9817     0.0000    76.0000 </r>
       <r>   -31.7315     0.0000    76.0000 </r>
       <r>   -31.4813     0.0000    76.0000 </r>
       <r>   -31.2311     0.0000    76.0000 </r>
       <r>   -30.9809     0.0000    76.0000 </r>
       <r>   -30.7307     0.6140    76.1536 </r>
       <r>   -30.4805    24.2276    82.2153 </r>
       <r>   -30.2303    98.1165   106.7635 </r>
       <r>   -29.9801    43.6078   117.6740 </r>
       <r>   -29.7299     1.3029   118.0000 </r>
       <r>   -29.4797     0.0000   118.0000 </r>
       <r>   -29.2295     0.0000   118.0000 </r>
       <r>   -28.9793     0.0000   118.0000 </r>
       <r>   -28.7291     0.0000   118.0000 </r>
       <r>   -28.4789     0.0000   118.0000 </r>
       <r>   -28.2287     0.0000   118.0000 </r>
       <r>   -27.9785     0.0000   118.0000 </r>
       <r>   -27.7283     0.0000   118.0000 </r>
       <r>   -27.4781     0.0000   118.0000 </r>
       <r>   -27.2279     0.0000   118.0000 </r>
       <r>   -26.9778     1.2742   118.3188 </r>
       <r>   -26.7276    57.3715   132.6729 </r>
       <r>   -26.4774    76.1342   151.7213 </r>
       <r>   -26.2272     9.1067   153.9998 </r>
       <r>   -25.9770     0.0010   154.0000 </r>
       <r>   -25.7268     0.0000   154.0000 </r>
       <r>   -25.4766     0.0000   154.0000 </r>
       <r>   -25.2264     0.0000   154.0000 </r>
       <r>   -24.9762     0.0000   154.0000 </r>
       <r>   -24.7260     0.0000   154.0000 </r>
       <r>   -24.4758     0.0000   154.0000 </r>
       <r>   -24.2256     0.0000   154.0000 </r>
       <r>   -23.9754     0.3654   154.0914 </r>
       <r>   -23.7252    19.0665   158.8618 </r>
       <r>   -23.4750    47.4564   170.7351 </r>
       <r>   -23.2248    52.8693   183.9628 </r>
       <r>   -22.9746    23.6929   189.8906 </r>
       <r>   -22.7244     0.4371   190.0000 </r>
       <r>   -22.4742     0.0000   190.0000 </r>
       <r>   -22.2240     0.0000   190.0000 </r>
       <r>   -21.9738     0.0000   190.0000 </r>
       <r>   -21.7237     0.0000   190.0000 </r>
       <r>   -21.4735     0.0000   190.0000 </r>
       <r>   -21.2233     0.0000   190.0000 </r>
       <r>   -20.9731     0.0000   190.0000 </r>
       <r>   -20.7229     0.0000   190.0000 </r>
       <r>   -20.4727     0.0000   190.0000 </r>
       <r>   -20.2225     0.0000   190.0000 </r>
       <r>   -19.9723     0.0000   190.0000 </r>
       <r>   -19.7221     0.0000   190.0000 </r>
       <r>   -19.4719     0.0864   190.0216 </r>
       <r>   -19.2217     7.8565   191.9873 </r>
       <r>   -18.9715    26.2903   198.5650 </r>
       <r>   -18.7213    27.6370   205.4796 </r>
       <r>   -18.4711    35.8574   214.4510 </r>
       <r>   -18.2209    45.5331   225.8431 </r>
       <r>   -17.9707    17.6197   230.2515 </r>
       <r>   -17.7205     6.9878   231.9998 </r>
       <r>   -17.4703     0.0006   232.0000 </r>
       <r>   -17.2201     0.0000   232.0000 </r>
       <r>   -16.9699     0.0000   232.0000 </r>
       <r>   -16.7197     0.0000   232.0000 </r>
       <r>   -16.4695     0.0000   232.0000 </r>
       <r>   -16.2194     0.0000   232.0000 </r>
       <r>   -15.9692     0.0000   232.0000 </r>
       <r>   -15.7190     0.0000   232.0000 </r>
       <r>   -15.4688     0.0000   232.0000 </r>
       <r>   -15.2186     0.0000   232.0000 </r>
       <r>   -14.9684     0.0000   232.0000 </r>
       <r>   -14.7182     0.0000   232.0000 </r>
       <r>   -14.4680     0.0000   232.0000 </r>
       <r>   -14.2178     0.0000   232.0000 </r>
       <r>   -13.9676     0.0000   232.0000 </r>
       <r>   -13.7174     0.0000   232.0000 </r>
       <r>   -13.4672     0.0000   232.0000 </r>
       <r>   -13.2170     0.0000   232.0000 </r>
       <r>   -12.9668     0.0000   232.0000 </r>
       <r>   -12.7166     0.0000   232.0000 </r>
       <r>   -12.4664     0.0000   232.0000 </r>
       <r>   -12.2162     0.0000   232.0000 </r>
       <r>   -11.9660     0.0000   232.0000 </r>
       <r>   -11.7158     0.0000   232.0000 </r>
       <r>   -11.4656     0.0000   232.0000 </r>
       <r>   -11.2154     0.0000   232.0000 </r>
       <r>   -10.9653     0.0000   232.0000 </r>
       <r>   -10.7151     0.0000   232.0000 </r>
       <r>   -10.4649     0.0000   232.0000 </r>
       <r>   -10.2147     0.0000   232.0000 </r>
       <r>    -9.9645     0.0000   232.0000 </r>
       <r>    -9.7143     0.0000   232.0000 </r>
       <r>    -9.4641     0.0000   232.0000 </r>
       <r>    -9.2139     0.0000   232.0000 </r>
       <r>    -8.9637     0.0000   232.0000 </r>
       <r>    -8.7135     0.0000   232.0000 </r>
       <r>    -8.4633     0.0000   232.0000 </r>
       <r>    -8.2131     0.0000   232.0000 </r>
       <r>    -7.9629     0.0000   232.0000 </r>
       <r>    -7.7127     0.0159   232.0040 </r>
       <r>    -7.4625     2.7529   232.6927 </r>
       <r>    -7.2123     6.6712   234.3618 </r>
       <r>    -6.9621    11.4434   237.2249 </r>
       <r>    -6.7119    10.8771   239.9463 </r>
       <r>    -6.4617    18.4975   244.5743 </r>
       <r>    -6.2115    28.2916   251.6528 </r>
       <r>    -5.9613    22.2724   257.2252 </r>
       <r>    -5.7112     3.0964   257.9999 </r>
       <r>    -5.4610     0.0003   258.0000 </r>
       <r>    -5.2108     0.0000   258.0000 </r>
       <r>    -4.9606     0.0000   258.0000 </r>
       <r>    -4.7104     0.0000   258.0000 </r>
       <r>    -4.4602     0.0616   258.0154 </r>
       <r>    -4.2100     3.5499   258.9036 </r>
       <r>    -3.9598     4.3179   259.9839 </r>
       <r>    -3.7096     3.2915   260.8074 </r>
       <r>    -3.4594     9.4537   263.1727 </r>
       <r>    -3.2092    15.2911   266.9984 </r>
       <r>    -2.9590    21.7588   272.4424 </r>
       <r>    -2.7088    23.1542   278.2355 </r>
       <r>    -2.4586    23.5482   284.1271 </r>
       <r>    -2.2084    21.1671   289.4230 </r>
       <r>    -1.9582    15.3091   293.2533 </r>
       <r>    -1.7080     8.8135   295.4584 </r>
       <r>    -1.4578     2.1371   295.9931 </r>
       <r>    -1.2076     0.0276   296.0000 </r>
       <r>    -0.9574     0.0000   296.0000 </r>
       <r>    -0.7072     0.0000   296.0000 </r>
       <r>    -0.4570     0.0000   296.0000 </r>
       <r>    -0.2069     0.0000   296.0000 </r>
       <r>     0.0433     0.0000   296.0000 </r>
       <r>     0.2935     0.0000   296.0000 </r>
       <r>     0.5437     0.0651   296.0163 </r>
       <r>     0.7939     0.7801   296.2115 </r>
       <r>     1.0441     4.4677   297.3293 </r>
       <r>     1.2943     8.6879   299.5029 </r>
       <r>     1.5445    11.5853   302.4015 </r>
       <r>     1.7947    18.4918   307.0281 </r>
       <r>     2.0449    26.6824   313.7039 </r>
       <r>     2.2951    29.1578   320.9990 </r>
       <r>     2.5453    28.1944   328.0531 </r>
       <r>     2.7955    32.3088   336.1367 </r>
       <r>     3.0457    35.7473   345.0805 </r>
       <r>     3.2959    43.3070   355.9157 </r>
       <r>     3.5461    49.2245   368.2314 </r>
       <r>     3.7963    59.0996   383.0178 </r>
       <r>     4.0465    65.9197   399.5106 </r>
       <r>     4.2967    67.3376   416.3582 </r>
       <r>     4.5469    62.3045   431.9465 </r>
       <r>     4.7971    51.8110   444.9093 </r>
       <r>     5.0472    42.8331   455.6260 </r>
       <r>     5.2974    37.2422   464.9438 </r>
       <r>     5.5476    32.0640   472.9661 </r>
       <r>     5.7978    25.8195   479.4260 </r>
       <r>     6.0480    17.3209   483.7596 </r>
       <r>     6.2982    12.8252   486.9684 </r>
       <r>     6.5484     5.7581   488.4091 </r>
       <r>     6.7986    12.3690   491.5037 </r>
       <r>     7.0488    20.4225   496.6133 </r>
       <r>     7.2990    19.3018   501.4425 </r>
       <r>     7.5492    21.3536   506.7851 </r>
       <r>     7.7994    22.7975   512.4889 </r>
       <r>     8.0496    26.9266   519.2258 </r>
       <r>     8.2998    29.2031   526.5323 </r>
       <r>     8.5500    30.5174   534.1676 </r>
       <r>     8.8002    35.6483   543.0867 </r>
       <r>     9.0504    44.5777   554.2398 </r>
       <r>     9.3006    50.4470   566.8614 </r>
       <r>     9.5508    53.4220   580.2273 </r>
       <r>     9.8010    51.4681   593.1044 </r>
       <r>    10.0512    46.2024   604.6640 </r>
       <r>    10.3013    45.4926   616.0461 </r>
       <r>    10.5515    45.3565   627.3941 </r>
       <r>    10.8017    49.4390   639.7635 </r>
       <r>    11.0519    42.6879   650.4438 </r>
       <r>    11.3021    38.4860   660.0728 </r>
       <r>    11.5523    38.6974   669.7547 </r>
       <r>    11.8025     8.9447   671.9926 </r>
       <r>    12.0527     0.0295   672.0000 </r>
       <r>    12.3029     0.0000   672.0000 </r>
       <r>    12.5531     0.0000   672.0000 </r>
       <r>    12.8033     0.0000   672.0000 </r>
       <r>    13.0535     0.0000   672.0000 </r>
       <r>    13.3037     0.0000   672.0000 </r>
       <r>    13.5539     0.0000   672.0000 </r>
       <r>    13.8041     0.0000   672.0000 </r>
       <r>    14.0543     0.0000   672.0000 </r>
       <r>    14.3045     0.0000   672.0000 </r>
       <r>    14.5547     0.0000   672.0000 </r>
       <r>    14.8049     0.0000   672.0000 </r>
       <r>    15.0551     0.0000   672.0000 </r>
      </set>
     </set>
    </array>
   </total>
  </dos>
 </calculation>
 <structure name="finalpos" >
  <crystal>
   <varray name="basis" >
    <v>       8.82270015       0.00808942      -0.03922375 </v>
    <v>       0.01393903       8.80708440      -0.03480217 </v>
    <v>      -0.00755202      -0.05000211       8.83869212 </v>
   </varray>
   <i name="volume">    686.76746673 </i>
   <varray name="rec_basis" >
    <v>       0.11334458      -0.00017901       0.00009583 </v>
    <v>      -0.00010126       0.11354765       0.00064227 </v>
    <v>       0.00050259       0.00044630       0.11314187 </v>
   </varray>
  </crystal>
  <varray name="positions" >
   <v>       0.00992819       0.97780322       0.01542984 </v>
   <v>       0.24797766       0.98220234       0.26596339 </v>
   <v>       0.27691478       0.51785255       0.23988501 </v>
   <v>       0.49863762       0.47033109       0.99201338 </v>
   <v>       0.47809401       0.24495400       0.75258328 </v>
   <v>       0.99546962       0.49230702       0.52018607 </v>
   <v>       0.50479481       0.77382245       0.74111393 </v>
   <v>      -0.00053902       0.25352862       0.25727349 </v>
   <v>       0.74373142       0.75140515      -0.00181380 </v>
   <v>       0.01109409       0.24534712       0.74379838 </v>
   <v>       0.75470333       0.25877157       0.50796958 </v>
   <v>       0.00344755       0.75773468       0.75535185 </v>
   <v>       0.25163429       0.50338958       0.75925569 </v>
   <v>       0.24275625       0.24137540       0.00276726 </v>
   <v>       0.49532176       0.24121530       0.24637403 </v>
   <v>       0.74247507       0.99481817       0.24948811 </v>
   <v>       0.75537355       0.24702117       0.98821730 </v>
   <v>       0.27226079       0.76055884       0.00230686 </v>
   <v>       0.25163543       0.25188461       0.49789699 </v>
   <v>       0.24664680       0.74654387       0.50407977 </v>
   <v>       0.24479291       0.25108096       0.25035202 </v>
   <v>       0.23127976      -0.00155140       0.01964125 </v>
   <v>      -0.00076754       0.23356255       0.00300111 </v>
   <v>       0.75018131       0.25169574       0.25072589 </v>
   <v>       0.75186562       0.99581369      -0.01204261 </v>
   <v>       0.48723507       0.98669025       0.26968275 </v>
   <v>       0.99415035       0.49789260       0.24901413 </v>
   <v>       0.51182328       0.78460788      -0.02188130 </v>
   <v>       0.99438274       0.00128412       0.75239274 </v>
   <v>       0.75262110       0.25348953       0.74229645 </v>
   <v>       0.75560727      -0.00011523       0.50796309 </v>
   <v>       0.50586965       0.25309984       0.50646593 </v>
   <v>       0.52109498       0.01509496       0.72762100 </v>
   <v>       0.00436040      -0.00363047       0.24868524 </v>
   <v>       0.49962154       0.23848058      -0.01378199 </v>
   <v>       0.25645541       0.74660518       0.25268784 </v>
   <v>       0.24834080       0.50272593       0.00873351 </v>
   <v>       0.00305754       0.74978861       0.00278001 </v>
   <v>       0.74177054       0.74500438       0.25099837 </v>
   <v>       0.75033126       0.50368571      -0.00012467 </v>
   <v>       0.49648313       0.50884039       0.24406131 </v>
   <v>       0.25636946       0.24219043       0.75074784 </v>
   <v>       0.25742758       0.99748517       0.50803306 </v>
   <v>      -0.00115964       0.25318276       0.50143251 </v>
   <v>       0.25700645       0.76349206       0.75271063 </v>
   <v>       0.24788334       0.49930591       0.49649349 </v>
   <v>       0.99382603       0.74586357       0.50158491 </v>
   <v>       0.99895426       0.50086141       0.75470238 </v>
   <v>       0.74545034       0.75607457       0.75002041 </v>
   <v>       0.75255247       0.50196336       0.50134662 </v>
   <v>       0.50128275       0.75577541       0.50591347 </v>
   <v>       0.50072483       0.49839763       0.75635959 </v>
   <v>       0.52836273       0.01571108       0.94231110 </v>
   <v>       0.00434545       0.53151826       0.97683604 </v>
   <v>       0.49958231       0.75130945       0.28356382 </v>
   <v>       0.22951691      -0.00223582       0.73230141 </v>
   <v>       0.47475744       0.97756649       0.49065509 </v>
   <v>       0.73339643       0.97715659       0.76049627 </v>
   <v>      -0.00100771       0.74116997       0.24955981 </v>
   <v>       0.73686239       0.50198123       0.24413203 </v>
   <v>       0.00429462       0.00347403       0.49864806 </v>
   <v>       0.49912054       0.50351499       0.50622901 </v>
   <v>       0.74669934       0.50968050       0.75488712 </v>
   <v>       0.75083694       0.74754817       0.50162300 </v>
  </varray>
 </structure>
</modeling>
