HECN                                    
           1
    11.240000    0.000000    0.000000
     0.000000   11.240000    0.000000
     0.000000    0.000000   11.240000
   Hf   Nb   Cr   Zr   C    N    V 
     7     6     6     7    19    13     6
Direct configuration=     1
   0.00000000  0.00000000  0.00000000
   0.75000000  0.00000000  0.25000000
   0.00000000  0.75000000  0.25000000
   0.50000000  0.50000000  0.00000000
   0.00000000  0.00000000  0.50000000
   0.25000000  0.00000000  0.75000000
   0.75000000  0.25000000  0.50000000
   0.00000000  0.25000000  0.25000000
   0.50000000  0.25000000  0.25000000
   0.75000000  0.25000000  0.00000000
   0.75000000  0.75000000  0.00000000
   0.00000000  0.50000000  0.50000000
   0.25000000  0.75000000  0.50000000
   0.25000000  0.00000000  0.25000000
   0.00000000  0.50000000  0.00000000
   0.50000000  0.75000000  0.25000000
   0.00000000  0.25000000  0.75000000
   0.75000000  0.00000000  0.75000000
   0.75000000  0.75000000  0.50000000
   0.25000000  0.25000000  0.00000000
   0.25000000  0.75000000  0.00000000
   0.75000000  0.50000000  0.25000000
   0.50000000  0.25000000  0.75000000
   0.00000000  0.75000000  0.75000000
   0.25000000  0.50000000  0.75000000
   0.50000000  0.75000000  0.75000000
   0.25000000  0.25000000  0.25000000
   0.00000000  0.25000000  0.00000000
   0.00000000  0.00000000  0.25000000
   0.75000000  0.25000000  0.25000000
   0.75000000  0.00000000  0.00000000
   0.25000000  0.75000000  0.25000000
   0.25000000  0.50000000  0.00000000
   0.00000000  0.75000000  0.00000000
   0.00000000  0.50000000  0.25000000
   0.50000000  0.50000000  0.25000000
   0.25000000  0.25000000  0.75000000
   0.00000000  0.00000000  0.75000000
   0.75000000  0.00000000  0.50000000
   0.50000000  0.25000000  0.50000000
   0.25000000  0.75000000  0.75000000
   0.00000000  0.50000000  0.75000000
   0.75000000  0.75000000  0.75000000
   0.75000000  0.50000000  0.50000000
   0.50000000  0.50000000  0.75000000
   0.25000000  0.00000000  0.00000000
   0.50000000  0.25000000  0.00000000
   0.50000000  0.00000000  0.25000000
   0.75000000  0.75000000  0.25000000
   0.75000000  0.50000000  0.00000000
   0.50000000  0.75000000  0.00000000
   0.25000000  0.00000000  0.50000000
   0.00000000  0.25000000  0.50000000
   0.75000000  0.25000000  0.75000000
   0.50000000  0.00000000  0.75000000
   0.25000000  0.50000000  0.50000000
   0.00000000  0.75000000  0.50000000
   0.50000000  0.75000000  0.50000000
   0.50000000  0.00000000  0.00000000
   0.25000000  0.50000000  0.25000000
   0.25000000  0.25000000  0.50000000
   0.50000000  0.00000000  0.50000000
   0.50000000  0.50000000  0.50000000
   0.75000000  0.50000000  0.75000000
HECN                                    
           1
     8.190181   -0.000320    0.004443
    -0.000320    8.189082   -0.000186
     0.004443   -0.000186    8.185749
   Hf   Nb   Cr   Zr   C    N    V 
     7     6     6     7    19    13     6
Direct configuration=     2
   0.99869992  0.00036022  0.99964160
   0.74955205  0.00023920  0.25019523
   0.00110793  0.74957078  0.24912725
   0.49929506  0.50037437  0.00034100
   0.99915631  0.00058826  0.50030172
   0.24927990  0.00066712  0.74931399
   0.74912195  0.24990196  0.50009912
   0.00128791  0.25085823  0.24780898
   0.49886654  0.25140482  0.25252146
   0.75270781  0.24749520  0.00118981
   0.75181485  0.75254317  0.99737486
   0.99839135  0.49949261  0.50019208
   0.25153722  0.74950843  0.49844845
   0.24898979  0.00000857  0.25069066
   0.00100546  0.49957384  0.00000434
   0.49755715  0.74809039  0.25049752
   0.00141192  0.25043670  0.75192224
   0.75126384  0.99820256  0.75009078
   0.74973637  0.74997057  0.50242814
   0.24842875  0.25109652  0.00068310
   0.24931582  0.74893649  0.00142827
   0.74990316  0.49962341  0.25090834
   0.49968750  0.25032747  0.74826097
   0.99872272  0.74963309  0.75078842
   0.24942973  0.49922211  0.74992143
   0.50128690  0.74964921  0.74895511
   0.25021379  0.25032597  0.24920181
   0.99914472  0.24798708  0.00202952
   0.99782146  0.99962915  0.25054016
   0.74986265  0.24947252  0.24996269
   0.75120116  0.00006870  0.00228150
   0.24809341  0.74974118  0.25102342
   0.25269546  0.49988964  0.99905003
   0.99920073  0.75232540  0.00084015
   0.99865426  0.50021608  0.25250573
   0.50115537  0.49789326  0.24820118
   0.25197354  0.24901628  0.75103096
   0.00244587  0.99844200  0.74956690
   0.75170004  0.00215533  0.49779282
   0.50151959  0.24984983  0.49943447
   0.25043132  0.75098529  0.74941895
   0.00078532  0.50150959  0.74751202
   0.74962706  0.74947133  0.75240804
   0.75190819  0.49782189  0.49898964
   0.49904210  0.50013319  0.75220977
   0.24792244  0.00011621  0.99651068
   0.49975274  0.25257632  0.99941158
   0.50315558  0.00214798  0.24983794
   0.75304200  0.75066042  0.24753611
   0.74635053  0.49979287  0.00211410
   0.49983361  0.74739572  0.99748119
   0.24729035  0.99797045  0.50315214
   0.99753057  0.24909606  0.49779128
   0.74722901  0.25079937  0.74923811
   0.49632577  0.99978681  0.75023384
   0.24818360  0.50199742  0.50169987
   0.00253201  0.75101514  0.49911548
   0.49718665  0.75023749  0.50238759
   0.50263878  0.99998011  0.00048600
   0.25018514  0.49992448  0.24932000
   0.25194270  0.25047602  0.49944051
   0.50173154  0.00122232  0.49942936
   0.50149645  0.49871498  0.49934926
   0.75063655  0.50138081  0.74833034
HECN                                    
           1
     8.978882   -0.000237    0.003294
    -0.000237    8.978067   -0.000138
     0.003294   -0.000138    8.975596
   Hf   Nb   Cr   Zr   C    N    V 
     7     6     6     7    19    13     6
Direct configuration=     3
   0.99916125  0.00023238  0.99976861
   0.74971107  0.00015430  0.25012582
   0.00071456  0.74972312  0.24943738
   0.49954531  0.50024150  0.00021977
   0.99945579  0.00037946  0.50019441
   0.24953533  0.00043034  0.74955744
   0.74943360  0.24993677  0.50006375
   0.00083039  0.25055360  0.24858725
   0.49926928  0.25090618  0.25162587
   0.75174706  0.24838424  0.00076786
   0.75117021  0.75164046  0.99830737
   0.99896231  0.49967273  0.50012357
   0.25099136  0.74968290  0.49899970
   0.24934845  0.00000554  0.25044521
   0.00064862  0.49972509  0.00000299
   0.49842425  0.74876824  0.25032040
   0.00091119  0.25028166  0.75123993
   0.75081534  0.99884055  0.75005880
   0.74983040  0.74998100  0.50156587
   0.24898651  0.25070733  0.00044022
   0.24955893  0.74931398  0.00092098
   0.74993771  0.49975707  0.25058578
   0.49979807  0.25021125  0.74887843
   0.99917619  0.74976334  0.75050821
   0.24963212  0.49949823  0.74994923
   0.50082998  0.74977371  0.74932640
   0.25013776  0.25021027  0.24948528
   0.99944868  0.24870157  0.00130869
   0.99859474  0.99976081  0.25034794
   0.74991140  0.24965975  0.24997592
   0.75077530  0.00004428  0.00147158
   0.24877027  0.74983306  0.25065964
   0.25173865  0.49992878  0.99938788
   0.99948452  0.75150000  0.00054164
   0.99913235  0.50013938  0.25161570
   0.50074501  0.49864105  0.24884017
   0.25127334  0.24936542  0.75066526
   0.00157776  0.99899498  0.74972117
   0.75109623  0.00139029  0.49857689
   0.50098017  0.24990312  0.49963558
   0.25027812  0.75063556  0.74962535
   0.00050611  0.50097377  0.74839563
   0.74975989  0.74965897  0.75155288
   0.75123080  0.49859500  0.49934880
   0.49938248  0.50008591  0.75142490
   0.24865910  0.00007502  0.99774932
   0.49984034  0.25166186  0.99962046
   0.50203559  0.00138551  0.24989608
   0.75196190  0.75042598  0.24841161
   0.74764615  0.49986642  0.00136269
   0.49989221  0.74832014  0.99837560
   0.24825265  0.99869086  0.50203232
   0.99840657  0.24941697  0.49857512
   0.74821229  0.25051567  0.74950811
   0.49762981  0.99986253  0.75015010
   0.24882855  0.50128844  0.50109589
   0.00163320  0.75065478  0.49943005
   0.49818558  0.75015321  0.50153922
   0.50170236  0.99998713  0.00031393
   0.25011930  0.49995129  0.24956150
   0.25125311  0.25030703  0.49963956
   0.50111688  0.00078844  0.49963231
   0.50096524  0.49917108  0.49958063
   0.75041030  0.50089069  0.74892334
HECN                                    
           1
     8.919518   -0.000244    0.003380
    -0.000244    8.918682   -0.000142
     0.003380   -0.000142    8.916146
   Hf   Nb   Cr   Zr   C    N    V 
     7     6     6     7    19    13     6
Direct configuration=     4
   0.99912958  0.00024116  0.99975989
   0.74970015  0.00016013  0.25013058
   0.00074156  0.74971267  0.24941610
   0.49952813  0.50025062  0.00022809
   0.99943523  0.00039380  0.50020178
   0.24951779  0.00044659  0.74954073
   0.74941220  0.24993438  0.50006618
   0.00086180  0.25057452  0.24853383
   0.49924164  0.25094041  0.25168734
   0.75181303  0.24832320  0.00079683
   0.75121446  0.75170244  0.99824336
   0.99892311  0.49966037  0.50012827
   0.25102883  0.74967092  0.49896187
   0.24932383  0.00000575  0.25046206
   0.00067312  0.49971470  0.00000309
   0.49836472  0.74872170  0.25033254
   0.00094557  0.25029230  0.75128677
   0.75084613  0.99879675  0.75006100
   0.74982396  0.74998028  0.50162506
   0.24894822  0.25073405  0.00045689
   0.24954224  0.74928807  0.00095580
   0.74993534  0.49974790  0.25060792
   0.49979047  0.25021923  0.74883605
   0.99914506  0.74975440  0.75052744
   0.24961822  0.49947928  0.74994732
   0.50086134  0.74976517  0.74930091
   0.25014297  0.25021822  0.24946583
   0.99942782  0.24865251  0.00135817
   0.99854165  0.99975177  0.25036112
   0.74990805  0.24964690  0.24997501
   0.75080455  0.00004596  0.00152718
   0.24872380  0.74982676  0.25068460
   0.25180434  0.49992609  0.99936470
   0.99946504  0.75155666  0.00056213
   0.99909954  0.50014465  0.25167679
   0.50077317  0.49858971  0.24879631
   0.25132141  0.24934145  0.75069037
   0.00163736  0.99895702  0.74971059
   0.75113768  0.00144281  0.49852307
   0.50101720  0.24989946  0.49962178
   0.25028864  0.75065957  0.74961119
   0.00052527  0.50101055  0.74833498
   0.74975078  0.74964608  0.75161158
   0.75127730  0.49854192  0.49932416
   0.49935912  0.50008916  0.75147877
   0.24860851  0.00007784  0.99766429
   0.49983433  0.25172464  0.99960612
   0.50211248  0.00143785  0.24989210
   0.75203604  0.75044208  0.24835152
   0.74755721  0.49986138  0.00141426
   0.49988818  0.74825667  0.99831420
   0.24818660  0.99864140  0.50210918
   0.99834642  0.24939494  0.49852130
   0.74814478  0.25053515  0.74948957
   0.49754028  0.99985733  0.75015583
   0.24878427  0.50133712  0.50113734
   0.00169491  0.75067952  0.49940847
   0.49811701  0.75015900  0.50159744
   0.50176665  0.99998665  0.00032576
   0.25012382  0.49994945  0.24954492
   0.25130046  0.25031863  0.49962590
   0.50115908  0.00081823  0.49961839
   0.50100171  0.49913977  0.49956476
   0.75042582  0.50092434  0.74888263
HECN                                    
           1
     8.898761   -0.000246    0.003411
    -0.000246    8.897917   -0.000143
     0.003411   -0.000143    8.895359
   Hf   Nb   Cr   Zr   C    N    V 
     7     6     6     7    19    13     6
Direct configuration=     5
   0.99911843  0.00024425  0.99975682
   0.74969631  0.00016218  0.25013226
   0.00075107  0.74970898  0.24940860
   0.49952208  0.50025383  0.00023102
   0.99942800  0.00039884  0.50020437
   0.24951161  0.00045232  0.74953485
   0.74940467  0.24993354  0.50006703
   0.00087285  0.25058188  0.24851502
   0.49923191  0.25095246  0.25170898
   0.75183625  0.24830172  0.00080703
   0.75123003  0.75172425  0.99822083
   0.99890932  0.49965601  0.50012992
   0.25104202  0.74966671  0.49894855
   0.24931516  0.00000582  0.25046799
   0.00068175  0.49971105  0.00000312
   0.49834377  0.74870532  0.25033682
   0.00095767  0.25029605  0.75130326
   0.75085697  0.99878133  0.75006178
   0.74982169  0.74998003  0.50164589
   0.24893474  0.25074345  0.00046275
   0.24953637  0.74927894  0.00096805
   0.74993451  0.49974467  0.25061571
   0.49978779  0.25022204  0.74882113
   0.99913410  0.74975125  0.75053421
   0.24961333  0.49947260  0.74994664
   0.50087238  0.74976216  0.74929195
   0.25014481  0.25022101  0.24945898
   0.99942048  0.24863525  0.00137559
   0.99852297  0.99974859  0.25036576
   0.74990687  0.24964237  0.24997469
   0.75081484  0.00004655  0.00154675
   0.24870745  0.74982454  0.25069339
   0.25182746  0.49992515  0.99935654
   0.99945818  0.75157661  0.00056934
   0.99908799  0.50014650  0.25169829
   0.50078309  0.49857164  0.24878088
   0.25133834  0.24933301  0.75069921
   0.00165834  0.99894365  0.74970687
   0.75115226  0.00146130  0.49850413
   0.50103024  0.24989817  0.49961693
   0.25029234  0.75066802  0.74960620
   0.00053201  0.50102350  0.74831363
   0.74974757  0.74964155  0.75163224
   0.75129367  0.49852324  0.49931548
   0.49935090  0.50009030  0.75149774
   0.24859071  0.00007884  0.99763436
   0.49983221  0.25174674  0.99960107
   0.50213955  0.00145628  0.24989070
   0.75206214  0.75044774  0.24833037
   0.74752590  0.49985960  0.00143241
   0.49988676  0.74823434  0.99829259
   0.24816335  0.99862399  0.50213623
   0.99832525  0.24938718  0.49850236
   0.74812102  0.25054201  0.74948304
   0.49750877  0.99985550  0.75015785
   0.24876869  0.50135425  0.50115193
   0.00171663  0.75068823  0.49940087
   0.49809287  0.75016103  0.50161794
   0.50178928  0.99998648  0.00032992
   0.25012541  0.49994880  0.24953909
   0.25131712  0.25032272  0.49962109
   0.50117393  0.00082871  0.49961349
   0.50101455  0.49912875  0.49955917
   0.75043129  0.50093619  0.74886831
HECN                                    
           1
     8.854933    0.003500    0.023911
     0.003498    8.845181    0.004755
     0.023903    0.004756    8.852417
   Hf   Nb   Cr   Zr   C    N    V 
     7     6     6     7    19    13     6
Direct configuration=     6
   0.99895594  0.00189940  0.99779927
   0.74430381  0.99451244  0.25138363
   0.00173402  0.74767341  0.25097884
   0.49981115  0.50245586  0.00185429
   0.99968413  0.00302342  0.50168633
   0.25009000  0.00379304  0.74769770
   0.74869144  0.24958879  0.50664727
   0.00607530  0.25247226  0.24511284
   0.49356978  0.25186780  0.25655625
   0.75458460  0.24471929  0.99645717
   0.75071668  0.75587217  0.99439506
   0.99665526  0.49739582  0.50126181
   0.25709686  0.74940888  0.49287693
   0.24808205  0.99989172  0.25241619
   0.00173286  0.49845975  0.00010162
   0.49197518  0.74435051  0.25108508
   0.00301740  0.25176316  0.75579679
   0.75133191  0.99463378  0.75089715
   0.75013162  0.74914380  0.50769349
   0.24693586  0.24936931  0.00304052
   0.25273562  0.75133799  0.00812415
   0.74846415  0.50533528  0.25151878
   0.50210177  0.24588787  0.74567743
   0.99254122  0.74833486  0.74818452
   0.24686546  0.49569545  0.74703362
   0.50745992  0.75383775  0.74534390
   0.25120824  0.24992174  0.25827584
   0.99491452  0.25554069  0.99752152
   0.00415456  0.00154154  0.25173278
   0.74951239  0.24856211  0.24673169
   0.74403058  0.00018090  0.99587527
   0.25650061  0.75016003  0.25520933
   0.24644986  0.49967835  0.00737379
   0.99446592  0.74638288  0.00209476
   0.00602552  0.49794138  0.24936089
   0.49307345  0.50273819  0.25576508
   0.24408661  0.24770035  0.74270735
   0.99536890  0.00656916  0.74857171
   0.74421217  0.99482239  0.50488741
   0.49431097  0.24970292  0.49504920
   0.25112190  0.75224284  0.74512319
   0.99182453  0.49261837  0.75159837
   0.74943741  0.74960171  0.74826211
   0.74772504  0.50491656  0.50741977
   0.50709465  0.50070791  0.74611217
   0.25310219  0.00042280  0.00005576
   0.50304374  0.24851206  0.00262280
   0.49795242  0.99812299  0.24985584
   0.74790445  0.75228599  0.24981654
   0.75058966  0.49934880  0.99616926
   0.50304559  0.75166965  0.00388272
   0.25201206  0.00021636  0.49801292
   0.00220495  0.25076930  0.50115721
   0.75367718  0.25158340  0.75101760
   0.50005903  0.99928160  0.75038374
   0.25136973  0.49946452  0.49448562
   0.00051951  0.74993852  0.49706436
   0.49997348  0.75052556  0.49437244
   0.50687002  0.99894207  0.00094694
   0.25134419  0.50025204  0.24914817
   0.25544495  0.25104176  0.49803418
   0.50405650  0.00433011  0.49859221
   0.50404974  0.49546435  0.49811546
   0.75191876  0.50357430  0.74497337
HECN                                    
           1
     8.841951    0.004610    0.029983
     0.004606    8.829561    0.006206
     0.029973    0.006207    8.839698
   Hf   Nb   Cr   Zr   C    N    V 
     7     6     6     7    19    13     6
Direct configuration=     7
   0.99890872  0.00239291  0.99721649
   0.74269854  0.99282954  0.25176073
   0.00202578  0.74706651  0.25144584
   0.49989580  0.50311167  0.00233686
   0.99975902  0.00380515  0.50212679
   0.25026301  0.00478866  0.74714996
   0.74847465  0.24948508  0.50860630
   0.00762596  0.25303542  0.24409635
   0.49188094  0.25214044  0.25800269
   0.75540612  0.24365225  0.99516122
   0.75056600  0.75710877  0.99325607
   0.99598383  0.49672247  0.50160062
   0.25890335  0.74933229  0.49106571
   0.24771367  0.99985756  0.25299690
   0.00204582  0.49808677  0.00013042
   0.49007954  0.74305365  0.25131290
   0.00362721  0.25219929  0.75713253
   0.75147322  0.99339779  0.75114613
   0.75021982  0.74889361  0.50949335
   0.24633926  0.24895971  0.00380935
   0.25368271  0.75194991  0.01025147
   0.74802516  0.50700107  0.25178766
   0.50279325  0.24459671  0.74474089
   0.99058059  0.74791405  0.74748997
   0.24605002  0.49457084  0.74616914
   0.50942297  0.75505192  0.74416364
   0.25151874  0.24983098  0.26089931
   0.99357507  0.25759941  0.99637641
   0.00582968  0.00207484  0.25213547
   0.74939734  0.24824083  0.24576693
   0.74201508  0.00022272  0.99419193
   0.25881716  0.75025827  0.25654797
   0.24484368  0.49960417  0.00976371
   0.99297953  0.74483574  0.00255307
   0.00809243  0.49728386  0.24866079
   0.49077328  0.50397946  0.25784841
   0.24193378  0.24721612  0.74033400
   0.99349663  0.00884221  0.74823693
   0.74214283  0.99284410  0.50679314
   0.49231409  0.24964635  0.49369438
   0.25137172  0.75271270  0.74378808
   0.98923147  0.49011455  0.75258340
   0.74934742  0.74959044  0.74725928
   0.74665642  0.50682061  0.50983325
   0.50940328  0.50089184  0.74450382
   0.25444336  0.00052432  0.00077327
   0.50399801  0.24754737  0.00352047
   0.49670653  0.99713035  0.24984890
   0.74666562  0.75283398  0.25026143
   0.75150531  0.49919709  0.99460077
   0.50398156  0.75269191  0.00554376
   0.25316030  0.00069101  0.49678278
   0.00335778  0.25118019  0.50194447
   0.75532983  0.25189274  0.75147033
   0.50081806  0.99911025  0.75044931
   0.25214878  0.49890224  0.49250005
   0.00016488  0.74971568  0.49636989
   0.50053821  0.75063512  0.49221462
   0.50838205  0.99863014  0.00112725
   0.25170721  0.50034230  0.24903093
   0.25667464  0.25125575  0.49755890
   0.50491478  0.00537318  0.49828569
   0.50495465  0.49437237  0.49768428
   0.75236387  0.50436080  0.74381266
HECN                                    
           1
     8.922876    0.007561    0.019608
     0.007511    8.933539    0.013039
     0.019609    0.013081    8.917356
   Hf   Nb   Cr   Zr   C    N    V 
     7     6     6     7    19    13     6
Direct configuration=     8
   0.99672140  0.00145703  0.99803965
   0.74136788  0.99396024  0.25295842
   0.00385131  0.74778623  0.25235158
   0.49959095  0.50250513  0.00162770
   0.99914530  0.00508096  0.50034321
   0.24847205  0.00061213  0.74513900
   0.74843469  0.24984881  0.50629285
   0.00641320  0.25243883  0.24280159
   0.49167615  0.25359368  0.25818149
   0.75360748  0.24290330  0.99412446
   0.74910986  0.75943620  0.99065163
   0.99360407  0.49558177  0.50200224
   0.26425188  0.74974544  0.49260725
   0.24620890  0.00038989  0.25560422
   0.00301873  0.49710681  0.00011843
   0.48361681  0.73761073  0.25393977
   0.00568192  0.25416027  0.76386768
   0.75102896  0.98867962  0.75323242
   0.75046300  0.74621085  0.51601342
   0.24832561  0.24898675  0.00419143
   0.25403455  0.75386598  0.00823222
   0.74701196  0.50553005  0.25363755
   0.50112864  0.24521232  0.74559199
   0.99594431  0.74731903  0.74613897
   0.24604519  0.49827315  0.74631483
   0.50525167  0.75510314  0.74094707
   0.25099782  0.24953722  0.26415743
   0.99532803  0.26018296  0.99417533
   0.00828911  0.00204361  0.25205184
   0.74941100  0.24857125  0.24572696
   0.74162397  0.00059995  0.99266839
   0.26165367  0.75096063  0.25579221
   0.24343774  0.49994181  0.01160799
   0.99248808  0.74293861  0.00220495
   0.00966983  0.49716732  0.24818870
   0.48888695  0.50650135  0.26005407
   0.23880432  0.24774271  0.73738302
   0.98953756  0.01250765  0.74859535
   0.73918446  0.99009864  0.51020600
   0.49184361  0.24965778  0.49599174
   0.25175800  0.75228290  0.74209306
   0.98626895  0.48660457  0.75443399
   0.75032334  0.75002962  0.74451520
   0.74443293  0.50836402  0.51111710
   0.51197819  0.50000646  0.74264631
   0.25678165  0.00129260  0.00133526
   0.50478454  0.24590676  0.00425517
   0.49358085  0.99521669  0.24982530
   0.74497047  0.75278179  0.25080984
   0.75202509  0.49925674  0.99306385
   0.50563696  0.75471471  0.00798491
   0.25507868  0.00180507  0.49376513
   0.00432214  0.25257324  0.50308589
   0.75785392  0.25223619  0.75184825
   0.50188065  0.99991083  0.75059213
   0.25330793  0.49747600  0.48966945
   0.99983840  0.74971487  0.49576336
   0.50334885  0.75114770  0.48634840
   0.51145247  0.99748734  0.00165698
   0.25222065  0.50048504  0.24995862
   0.25997513  0.25182759  0.49598421
   0.50538055  0.00900139  0.49636381
   0.50728986  0.49068407  0.49869142
   0.75034715  0.50734396  0.74043734
HECN                                    
           1
     8.904461    0.006889    0.021969
     0.006850    8.909878    0.011484
     0.021968    0.011517    8.899684
   Hf   Nb   Cr   Zr   C    N    V 
     7     6     6     7    19    13     6
Direct configuration=     9
   0.99721434  0.00166750  0.99785439
   0.74166769  0.99370604  0.25268880
   0.00343947  0.74762465  0.25214690
   0.49965984  0.50264140  0.00178765
   0.99928426  0.00479367  0.50074592
   0.24887614  0.00155099  0.74559240
   0.74844435  0.24976660  0.50681478
   0.00668697  0.25257270  0.24309388
   0.49172239  0.25326685  0.25814146
   0.75401329  0.24307144  0.99435869
   0.74943908  0.75891218  0.99123992
   0.99414050  0.49583822  0.50191209
   0.26304544  0.74965318  0.49225814
   0.24654755  0.00027050  0.25501657
   0.00279928  0.49732729  0.00012070
   0.48507302  0.73883487  0.25334802
   0.00521692  0.25372054  0.76234817
   0.75112824  0.98974111  0.75276112
   0.75040622  0.74681537  0.51454213
   0.24787760  0.24898088  0.00410471
   0.25395589  0.75343471  0.00868795
   0.74723983  0.50586114  0.25322028
   0.50150382  0.24507388  0.74540056
   0.99473515  0.74745302  0.74644218
   0.24604650  0.49744049  0.74628260
   0.50619314  0.75509076  0.74167378
   0.25111439  0.24960382  0.26342256
   0.99493353  0.25960165  0.99467181
   0.00773455  0.00205080  0.25207004
   0.74940795  0.24849693  0.24573603
   0.74171260  0.00051481  0.99301223
   0.26101431  0.75080274  0.25596205
   0.24375430  0.49986608  0.01119240
   0.99259886  0.74336520  0.00228328
   0.00931425  0.49719357  0.24829474
   0.48931189  0.50593439  0.25955747
   0.23951082  0.24762354  0.73804962
   0.99043047  0.01168302  0.74851619
   0.73985044  0.99071649  0.50943647
   0.49194908  0.24965557  0.49547364
   0.25167132  0.75237930  0.74247524
   0.98693623  0.48739410  0.75401674
   0.75010405  0.74993044  0.74513401
   0.74493408  0.50801695  0.51082836
   0.51139800  0.50020546  0.74306447
   0.25625428  0.00112008  0.00120799
   0.50460687  0.24627593  0.00408895
   0.49428554  0.99564685  0.24983114
   0.74535257  0.75279350  0.25068658
   0.75190830  0.49924310  0.99341041
   0.50526317  0.75426031  0.00743414
   0.25464698  0.00155413  0.49444551
   0.00410448  0.25226020  0.50282839
   0.75728468  0.25215920  0.75176238
   0.50164106  0.99973087  0.75055976
   0.25304721  0.49779637  0.49030741
   0.99991218  0.74971492  0.49590026
   0.50271668  0.75103161  0.48767101
   0.51075989  0.99774469  0.00153646
   0.25210463  0.50045313  0.24974924
   0.25923135  0.25169895  0.49633863
   0.50527630  0.00818507  0.49679784
   0.50676275  0.49151395  0.49846297
   0.75080302  0.50667229  0.74119978
HECN                                    
           1
     8.864961    0.006644    0.011495
     0.006581    8.877029    0.013178
     0.011502    0.013227    8.858627
   Hf   Nb   Cr   Zr   C    N    V 
     7     6     6     7    19    13     6
Direct configuration=    10
   0.99516243  0.00076888  0.99856711
   0.74084543  0.99442744  0.25333218
   0.00523049  0.74818929  0.25264917
   0.49969430  0.50234726  0.00082694
   0.99854408  0.00573630  0.49929465
   0.24691610  0.00023018  0.74362261
   0.74809759  0.25011669  0.50460796
   0.00445194  0.25211408  0.24109521
   0.49285588  0.25521526  0.25782926
   0.75200637  0.24285551  0.99408255
   0.74866933  0.76031293  0.98852867
   0.99157364  0.49508976  0.50198500
   0.26783898  0.75015557  0.49275679
   0.24501481  0.00099298  0.25868908
   0.00451848  0.49641572  0.99991718
   0.47916762  0.73256830  0.25730533
   0.00802174  0.25620609  0.77059858
   0.75077807  0.98419619  0.75531089
   0.75039698  0.74321052  0.52092269
   0.25008912  0.24870087  0.00389416
   0.25385429  0.75476345  0.00607538
   0.74712405  0.50478565  0.25421473
   0.49929994  0.24593860  0.74703318
   0.99877690  0.74687812  0.74591564
   0.24654062  0.49921553  0.74651420
   0.50331613  0.75454975  0.73878479
   0.25030119  0.24950665  0.26391503
   0.99744063  0.25970673  0.99389991
   0.00858223  0.00160653  0.25170416
   0.74933426  0.24898813  0.24650424
   0.74342151  0.00097695  0.99340507
   0.26141514  0.75155249  0.25431714
   0.24410346  0.50053669  0.01094467
   0.99312492  0.74304758  0.00171948
   0.00885428  0.49760714  0.24890476
   0.48950503  0.50693697  0.25958923
   0.23761315  0.24801086  0.73741877
   0.98779371  0.01317954  0.74902240
   0.73843656  0.98998827  0.51132353
   0.49357078  0.24997054  0.49836887
   0.25204987  0.75185396  0.74186935
   0.98617510  0.48630033  0.75489545
   0.75092229  0.75078906  0.74298411
   0.74370513  0.50740468  0.50960031
   0.51170038  0.49950540  0.74276502
   0.25722683  0.00183758  0.00049727
   0.50462501  0.24584553  0.00421132
   0.49252430  0.99518287  0.24976836
   0.74531754  0.75242638  0.25005423
   0.75079259  0.49940618  0.99345076
   0.50594803  0.75493495  0.00861923
   0.25529006  0.00201236  0.49248500
   0.00370638  0.25353865  0.50267665
   0.75785548  0.25252247  0.75144288
   0.50139405  0.00028745  0.75071009
   0.25342520  0.49714475  0.48949557
   0.99992651  0.75002799  0.49575421
   0.50539373  0.75132180  0.48286359
   0.51366827  0.99688801  0.00190168
   0.25205946  0.50092297  0.25069390
   0.26245040  0.25208071  0.49529362
   0.50467547  0.01231030  0.49413579
   0.50913102  0.48720088  0.50033879
   0.74775473  0.51065875  0.73810161
HECN                                    
           1
     8.865741    0.006649    0.011702
     0.006587    8.877678    0.013144
     0.011709    0.013193    8.859438
   Hf   Nb   Cr   Zr   C    N    V 
     7     6     6     7    19    13     6
Direct configuration=    11
   0.99520312  0.00078670  0.99855301
   0.74086173  0.99441314  0.25331944
   0.00519495  0.74817810  0.25263917
   0.49969364  0.50235309  0.00084600
   0.99855880  0.00571761  0.49932346
   0.24695503  0.00025635  0.74366173
   0.74810452  0.25010974  0.50465176
   0.00449633  0.25212316  0.24113492
   0.49283340  0.25517663  0.25783543
   0.75204620  0.24285980  0.99408808
   0.74868466  0.76028515  0.98858250
   0.99162456  0.49510460  0.50198361
   0.26774387  0.75014561  0.49274679
   0.24504513  0.00097867  0.25861624
   0.00448438  0.49643379  0.99992118
   0.47928469  0.73269255  0.25722692
   0.00796590  0.25615685  0.77043482
   0.75078496  0.98430612  0.75526029
   0.75039701  0.74328201  0.52079607
   0.25004525  0.24870642  0.00389829
   0.25385636  0.75473709  0.00612723
   0.74712632  0.50480698  0.25419499
   0.49934363  0.24592146  0.74700084
   0.99869672  0.74688951  0.74592599
   0.24653081  0.49918034  0.74650960
   0.50337328  0.75456047  0.73884218
   0.25031731  0.24950858  0.26390527
   0.99739091  0.25970464  0.99391517
   0.00856542  0.00161534  0.25171140
   0.74933571  0.24897839  0.24648900
   0.74338760  0.00096779  0.99339723
   0.26140723  0.75153762  0.25434978
   0.24409654  0.50052340  0.01094958
   0.99311449  0.74305387  0.00173065
   0.00886339  0.49759895  0.24889267
   0.48950119  0.50691710  0.25958860
   0.23765082  0.24800318  0.73743134
   0.98784601  0.01314988  0.74901242
   0.73846457  0.99000271  0.51128611
   0.49353854  0.24996431  0.49831139
   0.25204238  0.75186437  0.74188136
   0.98619018  0.48632202  0.75487802
   0.75090610  0.75077203  0.74302675
   0.74372954  0.50741681  0.50962470
   0.51169439  0.49951928  0.74277095
   0.25720755  0.00182335  0.00051135
   0.50462465  0.24585406  0.00420889
   0.49255924  0.99519207  0.24976965
   0.74531825  0.75243366  0.25006677
   0.75081472  0.49940295  0.99344999
   0.50593442  0.75492158  0.00859570
   0.25527734  0.00200327  0.49252389
   0.00371428  0.25351330  0.50267967
   0.75784416  0.25251527  0.75144921
   0.50139894  0.00027642  0.75070712
   0.25341772  0.49715766  0.48951167
   0.99992623  0.75002178  0.49575711
   0.50534073  0.75131603  0.48295892
   0.51361056  0.99690499  0.00189436
   0.25206033  0.50091366  0.25067516
   0.26238656  0.25207313  0.49531429
   0.50468745  0.01222851  0.49418865
   0.50908400  0.48728639  0.50030149
   0.74781528  0.51057971  0.73816317
HECN                                    
           1
     8.880663    0.003112    0.016314
     0.003076    8.871322    0.007116
     0.016312    0.007132    8.878254
   Hf   Nb   Cr   Zr   C    N    V 