<?xml version="1.0" encoding="ISO-8859-1"?>
<modeling>
 <generator>
  <i name="program" type="string">vasp </i>
  <i name="version" type="string">5.4.4.18Apr17-6-g9f103f2a35  </i>
  <i name="subversion" type="string">(build Oct 18 2021 20:38:43) complex            parallel </i>
  <i name="platform" type="string">LinuxIFC </i>
  <i name="date" type="string">2024 06 07 </i>
  <i name="time" type="string">16:01:40 </i>
 </generator>
 <incar>
  <i type="string" name="SYSTEM">HECN</i>
  <i type="int" name="ISTART">     0</i>
  <i type="string" name="PREC">normal</i>
  <i type="string" name="ALGO">Fast</i>
  <i type="int" name="ICHARG">     2</i>
  <i type="int" name="NELM">    60</i>
  <i type="int" name="IBRION">     2</i>
  <i name="EDIFF">      0.00001000</i>
  <i name="EDIFFG">     -0.01000000</i>
  <i type="int" name="NSW">   100</i>
  <i type="int" name="ISIF">     3</i>
  <i name="ENCUT">    400.00000000</i>
  <i name="POTIM">      0.50000000</i>
  <i type="logical" name="LREAL"> F  </i>
  <i type="int" name="ISMEAR">     0</i>
  <i name="SIGMA">      0.10000000</i>
  <i type="logical" name="LWAVE"> F  </i>
  <i type="logical" name="LCHARG"> F  </i>
  <v type="int" name="KPOINT_BSE">    -1     0     0     0</v>
  <i type="int" name="NELM">    60</i>
 </incar>
 <structure name="primitive_cell" >
  <crystal>
   <varray name="basis" >
    <v>       8.93249989       0.00000000       0.00000000 </v>
    <v>       0.00575300       9.05559834       0.00000000 </v>
    <v>       0.03210180      -0.01574346       8.93712807 </v>
   </varray>
   <i name="volume">    722.91652451 </i>
   <varray name="rec_basis" >
    <v>       0.11195074      -0.00007112      -0.00040225 </v>
    <v>       0.00000000       0.11042893       0.00019453 </v>
    <v>       0.00000000       0.00000000       0.11189277 </v>
   </varray>
  </crystal>
  <varray name="positions" >
   <v>      -0.00311999      -0.00795003      -0.00075998 </v>
   <v>      -0.25232999      -0.00252000       0.01202000 </v>
   <v>      -0.00162995      -0.25686004       0.00460000 </v>
   <v>      -0.00280000      -0.00228008       0.25899999 </v>
   <v>       0.00281000       0.25024000       0.00130000 </v>
   <v>      -0.01103011       0.00202000      -0.26291001 </v>
   <v>       0.26146999      -0.00015998      -0.00704004 </v>
   <v>      -0.00135002      -0.22426001       0.26102000 </v>
   <v>      -0.25720997      -0.02130006      -0.23549005 </v>
   <v>       0.23780002       0.01082000      -0.25392002 </v>
   <v>      -0.24282000      -0.25897003       0.01100000 </v>
   <v>       0.24762001      -0.25026001      -0.00025994 </v>
   <v>      -0.00485996      -0.25507996      -0.25488003 </v>
   <v>      -0.24281000       0.25603001      -0.00408003 </v>
   <v>       0.25398003      -0.00285005       0.24912000 </v>
   <v>       0.24788999       0.24839000      -0.00342003 </v>
   <v>      -0.00562996       0.23617001       0.26379999 </v>
   <v>      -0.25120996      -0.01212001       0.26967001 </v>
   <v>       0.00201000       0.25541000      -0.26105999 </v>
   <v>       0.24177002      -0.24659003      -0.24981998 </v>
   <v>      -0.24963995      -0.25112000      -0.25243996 </v>
   <v>      -0.24255004       0.24437997      -0.25103001 </v>
   <v>       0.25133999      -0.25041998       0.24910999 </v>
   <v>      -0.24367000      -0.26108997       0.25767000 </v>
   <v>      -0.24686002       0.24616999       0.25492002 </v>
   <v>       0.24982001       0.24942998       0.24825000 </v>
   <v>       0.24900999       0.25315000      -0.25146000 </v>
   <v>      -0.48411003       0.01358000      -0.01924992 </v>
   <v>      -0.00158006      -0.49023002      -0.01386996 </v>
   <v>       0.02362000      -0.00216999       0.49557002 </v>
   <v>      -0.49480995      -0.23869001       0.00855000 </v>
   <v>      -0.49285006      -0.00023001       0.24673000 </v>
   <v>      -0.24160996      -0.49684002       0.00288000 </v>
   <v>      -0.00999997      -0.23784997       0.49746000 </v>
   <v>      -0.00948001       0.48088003       0.24100999 </v>
   <v>       0.24446000      -0.00176004      -0.49712002 </v>
   <v>      -0.26367999       0.00417000      -0.48937000 </v>
   <v>       0.24328000      -0.49927003      -0.00489006 </v>
   <v>      -0.49572003       0.24673000       0.00262000 </v>
   <v>      -0.00796004      -0.49944001      -0.24861998 </v>
   <v>      -0.00195991       0.24229999      -0.49871997 </v>
   <v>      -0.49991002       0.00061000      -0.26528002 </v>
   <v>      -0.26123997      -0.47171998      -0.26185001 </v>
   <v>       0.49950005      -0.24518001      -0.25182996 </v>
   <v>       0.24457999      -0.24951001       0.49983999 </v>
   <v>      -0.24599997      -0.27062001       0.49116997 </v>
   <v>      -0.49520997       0.24631001      -0.25289998 </v>
   <v>       0.24803003      -0.49835000       0.24955001 </v>
   <v>      -0.26448999      -0.48531996       0.26666001 </v>
   <v>      -0.49167000       0.25676999       0.25376001 </v>
   <v>      -0.49620997      -0.26073003       0.25905001 </v>
   <v>      -0.24692999       0.26163001      -0.49466998 </v>
   <v>       0.25272001       0.24823001      -0.49984997 </v>
   <v>       0.25679999       0.49462002      -0.25454998 </v>
   <v>       0.47957999      -0.01691999       0.49717999 </v>
   <v>      -0.49498994       0.49745998      -0.00165997 </v>
   <v>      -0.00572008      -0.49550001       0.49779000 </v>
   <v>      -0.49436004       0.23264998       0.49544997 </v>
   <v>      -0.49424994      -0.25041998       0.49720000 </v>
   <v>      -0.49299998      -0.49666998       0.25878999 </v>
   <v>      -0.49498997      -0.49782002      -0.26087997 </v>
   <v>      -0.25963999      -0.49803000      -0.49932997 </v>
   <v>       0.25841001      -0.49937998      -0.49870999 </v>
   <v>      -0.49461000      -0.47166995       0.49917999 </v>
  </varray>
 </structure>
 <varray name="primitive_index" >
  <v type="int" >        1 </v>
  <v type="int" >       25 </v>
  <v type="int" >       38 </v>
  <v type="int" >       34 </v>
  <v type="int" >       23 </v>
  <v type="int" >       29 </v>
  <v type="int" >       22 </v>
  <v type="int" >       59 </v>
  <v type="int" >       58 </v>
  <v type="int" >       56 </v>
  <v type="int" >        9 </v>
  <v type="int" >       18 </v>
  <v type="int" >       12 </v>
  <v type="int" >       17 </v>
  <v type="int" >        2 </v>
  <v type="int" >       14 </v>
  <v type="int" >        8 </v>
  <v type="int" >       16 </v>
  <v type="int" >       10 </v>
  <v type="int" >       45 </v>
  <v type="int" >       49 </v>
  <v type="int" >       30 </v>
  <v type="int" >       36 </v>
  <v type="int" >       39 </v>
  <v type="int" >       24 </v>
  <v type="int" >       21 </v>
  <v type="int" >       42 </v>
  <v type="int" >       53 </v>
  <v type="int" >       54 </v>
  <v type="int" >       61 </v>
  <v type="int" >       28 </v>
  <v type="int" >       26 </v>
  <v type="int" >       40 </v>
  <v type="int" >       47 </v>
  <v type="int" >       27 </v>
  <v type="int" >       43 </v>
  <v type="int" >       31 </v>
  <v type="int" >       37 </v>
  <v type="int" >       35 </v>
  <v type="int" >       48 </v>
  <v type="int" >       44 </v>
  <v type="int" >       33 </v>
  <v type="int" >       63 </v>
  <v type="int" >        7 </v>
  <v type="int" >       20 </v>
  <v type="int" >       64 </v>
  <v type="int" >        5 </v>
  <v type="int" >        3 </v>
  <v type="int" >       60 </v>
  <v type="int" >       15 </v>
  <v type="int" >       55 </v>
  <v type="int" >       11 </v>
  <v type="int" >       19 </v>
  <v type="int" >       13 </v>
  <v type="int" >       57 </v>
  <v type="int" >        4 </v>
  <v type="int" >        6 </v>
  <v type="int" >       32 </v>
  <v type="int" >       51 </v>
  <v type="int" >       41 </v>
  <v type="int" >       52 </v>
  <v type="int" >       50 </v>
  <v type="int" >       46 </v>
  <v type="int" >       62 </v>
 </varray>
 <kpoints>
  <generation param="Gamma">
   <v type="int" name="divisions">       3        3        3 </v>
   <v name="usershift">      0.00000000       0.00000000       0.00000000 </v>
   <v name="genvec1">      0.33333333      -0.00000000      -0.00000000 </v>
   <v name="genvec2">      0.00000000       0.33333333       0.00000000 </v>
   <v name="genvec3">      0.00000000       0.00000000       0.33333333 </v>
   <v name="shift">      0.00000000       0.00000000       0.00000000 </v>
  </generation>
  <varray name="kpointlist" >
   <v>       0.00000000       0.00000000       0.00000000 </v>
   <v>       0.33333333       0.00000000       0.00000000 </v>
   <v>       0.00000000       0.33333333       0.00000000 </v>
   <v>       0.33333333       0.33333333       0.00000000 </v>
   <v>      -0.33333333       0.33333333       0.00000000 </v>
   <v>       0.00000000       0.00000000       0.33333333 </v>
   <v>       0.33333333       0.00000000       0.33333333 </v>
   <v>      -0.33333333       0.00000000       0.33333333 </v>
   <v>       0.00000000       0.33333333       0.33333333 </v>
   <v>       0.33333333       0.33333333       0.33333333 </v>
   <v>      -0.33333333       0.33333333       0.33333333 </v>
   <v>       0.00000000      -0.33333333       0.33333333 </v>
   <v>       0.33333333      -0.33333333       0.33333333 </v>
   <v>      -0.33333333      -0.33333333       0.33333333 </v>
  </varray>
  <varray name="weights" >
   <v>       0.03703704 </v>
   <v>       0.07407407 </v>
   <v>       0.07407407 </v>
   <v>       0.07407407 </v>
   <v>       0.07407407 </v>
   <v>       0.07407407 </v>
   <v>       0.07407407 </v>
   <v>       0.07407407 </v>
   <v>       0.07407407 </v>
   <v>       0.07407407 </v>
   <v>       0.07407407 </v>
   <v>       0.07407407 </v>
   <v>       0.07407407 </v>
   <v>       0.07407407 </v>
  </varray>
 </kpoints>
 <parameters>
  <separator name="general" >
   <i type="string" name="SYSTEM">HECN</i>
   <i type="logical" name="LCOMPAT"> F  </i>
  </separator>
  <separator name="electronic" >
   <i type="string" name="PREC">normal</i>
   <i name="ENMAX">    400.00000000</i>
   <i name="ENAUG">    644.87300000</i>
   <i name="EDIFF">      0.00001000</i>
   <i type="int" name="IALGO">    68</i>
   <i type="int" name="IWAVPR">    11</i>
   <i type="int" name="NBANDS">   312</i>
   <i name="NELECT">    495.00000000</i>
   <i type="int" name="TURBO">     0</i>
   <i type="int" name="IRESTART">     0</i>
   <i type="int" name="NREBOOT">     0</i>
   <i type="int" name="NMIN">     0</i>
   <i name="EREF">      0.00000000</i>
   <separator name="electronic smearing" >
    <i type="int" name="ISMEAR">     0</i>
    <i name="SIGMA">      0.10000000</i>
    <i name="KSPACING">      0.50000000</i>
    <i type="logical" name="KGAMMA"> T  </i>
   </separator>
   <separator name="electronic projectors" >
    <i type="logical" name="LREAL"> F  </i>
    <v name="ROPT">      0.00000000      0.00000000      0.00000000      0.00000000      0.00000000      0.00000000      0.00000000</v>
    <i type="int" name="LMAXPAW">  -100</i>
    <i type="int" name="LMAXMIX">     2</i>
    <i type="logical" name="NLSPLINE"> F  </i>
   </separator>
   <separator name="electronic startup" >
    <i type="int" name="ISTART">     0</i>
    <i type="int" name="ICHARG">     2</i>
    <i type="int" name="INIWAV">     1</i>
   </separator>
   <separator name="electronic spin" >
    <i type="int" name="ISPIN">     1</i>
    <i type="logical" name="LNONCOLLINEAR"> F  </i>
    <v name="MAGMOM">      1.00000000      1.00000000      1.00000000      1.00000000      1.00000000      1.00000000      1.00000000      1.00000000      1.00000000      1.00000000      1.00000000      1.00000000      1.00000000      1.00000000      1.00000000      1.00000000      1.00000000      1.00000000      1.00000000      1.00000000
      1.00000000      1.00000000      1.00000000      1.00000000      1.00000000      1.00000000      1.00000000      1.00000000      1.00000000      1.00000000      1.00000000      1.00000000      1.00000000      1.00000000      1.00000000      1.00000000      1.00000000      1.00000000      1.00000000      1.00000000
      1.00000000      1.00000000      1.00000000      1.00000000      1.00000000      1.00000000      1.00000000      1.00000000      1.00000000      1.00000000      1.00000000      1.00000000      1.00000000      1.00000000      1.00000000      1.00000000      1.00000000      1.00000000      1.00000000      1.00000000
      1.00000000      1.00000000      1.00000000      1.00000000</v>
    <i name="NUPDOWN">     -1.00000000</i>
    <i type="logical" name="LSORBIT"> F  </i>
    <v name="SAXIS">      0.00000000      0.00000000      1.00000000</v>
    <i type="logical" name="LSPIRAL"> F  </i>
    <v name="QSPIRAL">      0.00000000      0.00000000      0.00000000</v>
    <i type="logical" name="LZEROZ"> F  </i>
   </separator>
   <separator name="electronic exchange-correlation" >
    <i type="logical" name="LASPH"> F  </i>
    <i type="logical" name="LMETAGGA"> F  </i>
   </separator>
   <separator name="electronic convergence" >
    <i type="int" name="NELM">    60</i>
    <i type="int" name="NELMDL">    -5</i>
    <i type="int" name="NELMIN">     2</i>
    <i name="ENINI">    400.00000000</i>
    <separator name="electronic convergence detail" >
     <i type="logical" name="LDIAG"> T  </i>
     <i type="logical" name="LSUBROT"> F  </i>
     <i name="WEIMIN">      0.00100000</i>
     <i name="EBREAK">      0.00000001</i>
     <i name="DEPER">      0.30000000</i>
     <i type="int" name="NRMM">     4</i>
     <i name="TIME">      0.40000000</i>
    </separator>
   </separator>
   <separator name="electronic mixer" >
    <i name="AMIX">      0.40000000</i>
    <i name="BMIX">      1.00000000</i>
    <i name="AMIN">      0.10000000</i>
    <i name="AMIX_MAG">      1.60000000</i>
    <i name="BMIX_MAG">      1.00000000</i>
    <separator name="electronic mixer details" >
     <i type="int" name="IMIX">     4</i>
     <i type="logical" name="MIXFIRST"> F  </i>
     <i type="int" name="MAXMIX">   -45</i>
     <i name="WC">    100.00000000</i>
     <i type="int" name="INIMIX">     1</i>
     <i type="int" name="MIXPRE">     1</i>
     <i type="int" name="MREMOVE">     5</i>
    </separator>
   </separator>
   <separator name="electronic dipolcorrection" >
    <i type="logical" name="LDIPOL"> F  </i>
    <i type="logical" name="LMONO"> F  </i>
    <i type="int" name="IDIPOL">     0</i>
    <i name="EPSILON">      1.00000000</i>
    <v name="DIPOL">   -100.00000000   -100.00000000   -100.00000000</v>
    <i name="EFIELD">      0.00000000</i>
   </separator>
  </separator>
  <separator name="grids" >
   <i type="int" name="NGX">    48</i>
   <i type="int" name="NGY">    48</i>
   <i type="int" name="NGZ">    48</i>
   <i type="int" name="NGXF">    96</i>
   <i type="int" name="NGYF">    96</i>
   <i type="int" name="NGZF">    96</i>
   <i type="logical" name="ADDGRID"> F  </i>
  </separator>
  <separator name="ionic" >
   <i type="int" name="NSW">   100</i>
   <i type="int" name="IBRION">     2</i>
   <i type="int" name="MDALGO">     0</i>
   <i type="int" name="ISIF">     3</i>
   <i name="PSTRESS">      0.00000000</i>
   <i name="EDIFFG">     -0.01000000</i>
   <i type="int" name="NFREE">     1</i>
   <i name="POTIM">      0.50000000</i>
   <i name="SMASS">     -3.00000000</i>
   <i name="SCALEE">      1.00000000</i>
  </separator>
  <separator name="ionic md" >
   <i name="TEBEG">      0.00010000</i>
   <i name="TEEND">      0.00010000</i>
   <i type="int" name="NBLOCK">     1</i>
   <i type="int" name="KBLOCK">   100</i>
   <i type="int" name="NPACO">   256</i>
   <i name="APACO">     16.00000000</i>
  </separator>
  <separator name="symmetry" >
   <i type="int" name="ISYM">     2</i>
   <i name="SYMPREC">      0.00001000</i>
  </separator>
  <separator name="dos" >
   <i type="int" name="LORBIT">     0</i>
   <v name="RWIGS">     -1.00000000     -1.00000000     -1.00000000     -1.00000000     -1.00000000     -1.00000000     -1.00000000</v>
   <i type="int" name="NEDOS">   301</i>
   <i name="EMIN">     10.00000000</i>
   <i name="EMAX">    -10.00000000</i>
   <i name="EFERMI">      0.00000000</i>
  </separator>
  <separator name="writing" >
   <i type="int" name="NWRITE">     2</i>
   <i type="logical" name="LWAVE"> F  </i>
   <i type="logical" name="LDOWNSAMPLE"> F  </i>
   <i type="logical" name="LCHARG"> F  </i>
   <i type="logical" name="LPARD"> F  </i>
   <i type="logical" name="LVTOT"> F  </i>
   <i type="logical" name="LVHAR"> F  </i>
   <i type="logical" name="LELF"> F  </i>
   <i type="logical" name="LOPTICS"> F  </i>
   <v name="STM">      0.00000000      0.00000000      0.00000000      0.00000000      0.00000000      0.00000000      0.00000000</v>
  </separator>
  <separator name="performance" >
   <i type="int" name="NPAR">    24</i>
   <i type="int" name="NSIM">     4</i>
   <i type="int" name="NBLK">    -1</i>
   <i type="logical" name="LPLANE"> T  </i>
   <i type="logical" name="LSCALAPACK"> T  </i>
   <i type="logical" name="LSCAAWARE"> F  </i>
   <i type="logical" name="LSCALU"> F  </i>
   <i type="logical" name="LASYNC"> F  </i>
   <i type="logical" name="LORBITALREAL"> F  </i>
  </separator>
  <separator name="miscellaneous" >
   <i type="int" name="IDIOT">     3</i>
   <i type="int" name="ISPECIAL">     0</i>
   <i type="logical" name="LMUSIC"> F  </i>
   <v name="POMASS">     91.22400000     92.91000000     47.88000000     14.00100000     12.01100000     51.99600000     95.94000000</v>
   <v name="DARWINR">      0.00000000      0.00000000      0.00000000      0.00000000      0.00000000      0.00000000      0.00000000</v>
   <v name="DARWINV">      1.00000000      1.00000000      1.00000000      1.00000000      1.00000000      1.00000000      1.00000000</v>
   <i type="logical" name="LCORR"> T  </i>
  </separator>
  <i type="logical" name="GGA_COMPAT"> T  </i>
  <i type="logical" name="LBERRY"> F  </i>
  <i type="int" name="ICORELEVEL">     0</i>
  <i type="logical" name="LDAU"> F  </i>
  <i type="int" name="I_CONSTRAINED_M">     0</i>
  <separator name="electronic exchange-correlation" >
   <i type="string" name="GGA">--</i>
   <i type="int" name="VOSKOWN">     0</i>
   <i type="logical" name="LHFCALC"> F  </i>
   <i type="string" name="PRECFOCK"></i>
   <i type="logical" name="LSYMGRAD"> F  </i>
   <i type="logical" name="LHFONE"> F  </i>
   <i type="logical" name="LRHFCALC"> F  </i>
   <i type="logical" name="LTHOMAS"> F  </i>
   <i type="logical" name="LMODELHF"> F  </i>
   <i name="ENCUT4O">     -1.00000000</i>
   <i type="int" name="EXXOEP">     0</i>
   <i type="int" name="FOURORBIT">     0</i>
   <i name="AEXX">      0.00000000</i>
   <i name="HFALPHA">      0.00000000</i>
   <i name="MCALPHA">      0.00000000</i>
   <i name="ALDAX">      1.00000000</i>
   <i name="AGGAX">      1.00000000</i>
   <i name="ALDAC">      1.00000000</i>
   <i name="AGGAC">      1.00000000</i>
   <i type="int" name="NKREDX">     1</i>
   <i type="int" name="NKREDY">     1</i>
   <i type="int" name="NKREDZ">     1</i>
   <i type="logical" name="SHIFTRED"> F  </i>
   <i type="logical" name="ODDONLY"> F  </i>
   <i type="logical" name="EVENONLY"> F  </i>
   <i type="int" name="LMAXFOCK">     0</i>
   <i type="int" name="NMAXFOCKAE">     0</i>
   <i type="logical" name="LFOCKAEDFT"> F  </i>
   <i name="HFSCREEN">      0.00000000</i>
   <i name="HFSCREENC">      0.00000000</i>
   <i type="int" name="NBANDSGWLOW">     0</i>
  </separator>
  <separator name="vdW DFT" >
   <i type="logical" name="LUSE_VDW"> F  </i>
   <i name="Zab_VDW">     -0.84910000</i>
   <i name="PARAM1">      0.12340000</i>
   <i name="PARAM2">      1.00000000</i>
   <i name="PARAM3">      0.00000000</i>
  </separator>
  <separator name="model GW" >
   <i type="int" name="MODEL_GW">     0</i>
   <i name="MODEL_EPS0">      6.77734242</i>
   <i name="MODEL_ALPHA">      1.00000000</i>
  </separator>
  <separator name="linear response parameters" >
   <i type="logical" name="LEPSILON"> F  </i>
   <i type="logical" name="LRPA"> F  </i>
   <i type="logical" name="LNABLA"> F  </i>
   <i type="logical" name="LVEL"> F  </i>
   <i type="int" name="KINTER">     0</i>
   <i name="CSHIFT">      0.10000000</i>
   <i name="OMEGAMAX">     -1.00000000</i>
   <i name="DEG_THRESHOLD">      0.00200000</i>
   <i name="RTIME">     -0.10000000</i>
   <i name="WPLASMAI">      0.00000000</i>
   <v name="DFIELD">      0.00000000      0.00000000      0.00000000</v>
   <v name="WPLASMA">      0.00000000      0.00000000      0.00000000      0.00000000      0.00000000      0.00000000      0.00000000      0.00000000      0.00000000</v>
  </separator>
  <separator name="orbital magnetization" >
   <i type="logical" name="NUCIND"> F  </i>
   <v name="MAGPOS">      0.00000000      0.00000000      0.00000000</v>
   <i type="logical" name="LNICSALL"> T  </i>
   <i type="logical" name="ORBITALMAG"> F  </i>
   <i type="logical" name="LMAGBLOCH"> F  </i>
   <i type="logical" name="LCHIMAG"> F  </i>
   <i type="logical" name="LGAUGE"> T  </i>
   <i type="int" name="MAGATOM">     0</i>
   <v name="MAGDIPOL">      0.00000000      0.00000000      0.00000000</v>
   <v name="AVECCONST">      0.00000000      0.00000000      0.00000000</v>
  </separator>
  <separator name="response functions" >
   <i type="logical" name="LADDER"> F  </i>
   <i type="logical" name="LRPAFORCE"> F  </i>
   <i type="logical" name="LFXC"> F  </i>
   <i type="logical" name="LHARTREE"> T  </i>
   <i type="int" name="IBSE">     0</i>
   <v type="int" name="KPOINT">    -1     0     0     0</v>
   <i type="logical" name="LTCTE"> F  </i>
   <i type="logical" name="LTETE"> F  </i>
   <i type="logical" name="LTRIPLET"> F  </i>
   <i type="logical" name="LFXCEPS"> F  </i>
   <i type="logical" name="LFXHEG"> F  </i>
   <i type="int" name="NATURALO">     2</i>
   <i type="logical" name="L2ORDER"> F  </i>
   <i type="logical" name="LMP2LT"> F  </i>
   <i type="logical" name="LUSEW"> F  </i>
   <i name="ENCUTGW">     -2.00000000</i>
   <i name="ENCUTGWSOFT">     -2.00000000</i>
   <i name="ENCUTLF">     -1.00000000</i>
   <i type="int" name="LMAXMP2">    -1</i>
   <i name="SCISSOR">      0.00000000</i>
   <i type="int" name="NOMEGA">     0</i>
   <i type="int" name="NOMEGAR">     0</i>
   <i type="int" name="NBANDSGW">    -1</i>
   <i type="int" name="NBANDSO">    -1</i>
   <i type="int" name="NBANDSV">    -1</i>
   <i type="int" name="NELM">    60</i>
   <i type="int" name="NELMHF">     1</i>
   <i type="int" name="DIM">     3</i>
   <i type="int" name="ANTIRES">     0</i>
   <i name="OMEGAMAX">    -30.00000000</i>
   <i name="OMEGAMIN">    -30.00000000</i>
   <i name="OMEGATL">   -200.00000000</i>
   <i type="int" name="OMEGAGRID">   140</i>
   <i name="CSHIFT">     -0.10000000</i>
   <i type="logical" name="SELFENERGY"> F  </i>
   <i type="logical" name="LSPECTRAL"> F  </i>
   <i type="logical" name="LSPECTRALGW"> F  </i>
   <i type="logical" name="LSINGLES"> F  </i>
   <i type="logical" name="LFERMIGW"> F  </i>
   <i type="logical" name="ODDONLYGW"> F  </i>
   <i type="logical" name="EVENONLYGW"> F  </i>
   <i type="int" name="NKREDLFX">     1</i>
   <i type="int" name="NKREDLFY">     1</i>
   <i type="int" name="NKREDLFZ">     1</i>
   <i type="int" name="MAXMEM">  2800</i>
   <i type="int" name="TELESCOPE">     0</i>
   <i type="int" name="TAUPAR">     1</i>
   <i type="int" name="OMEGAPAR">    -1</i>
   <i name="LAMBDA">      1.00000000</i>
  </separator>
  <separator name="External order field" >
   <i name="OFIELD_KAPPA">      0.00000000</i>
   <v name="OFIELD_K">      0.00000000      0.00000000      0.00000000</v>
   <i name="OFIELD_Q6_NEAR">      0.00000000</i>
   <i name="OFIELD_Q6_FAR">      0.00000000</i>
   <i name="OFIELD_A">      0.00000000</i>
  </separator>
 </parameters>
 <atominfo>
  <atoms>      64 </atoms>
  <types>       7 </types>
  <array name="atoms" >
   <dimension dim="1">ion</dimension>
   <field type="string">element</field>
   <field type="int">atomtype</field>
   <set>
    <rc><c>Zr</c><c>   1</c></rc>
    <rc><c>Zr</c><c>   1</c></rc>
    <rc><c>Zr</c><c>   1</c></rc>
    <rc><c>Zr</c><c>   1</c></rc>
    <rc><c>Zr</c><c>   1</c></rc>
    <rc><c>Zr</c><c>   1</c></rc>
    <rc><c>Zr</c><c>   1</c></rc>
    <rc><c>Nb</c><c>   2</c></rc>
    <rc><c>Nb</c><c>   2</c></rc>
    <rc><c>Nb</c><c>   2</c></rc>
    <rc><c>Nb</c><c>   2</c></rc>
    <rc><c>Nb</c><c>   2</c></rc>
    <rc><c>Nb</c><c>   2</c></rc>
    <rc><c>Ti</c><c>   3</c></rc>
    <rc><c>Ti</c><c>   3</c></rc>
    <rc><c>Ti</c><c>   3</c></rc>
    <rc><c>Ti</c><c>   3</c></rc>
    <rc><c>Ti</c><c>   3</c></rc>
    <rc><c>Ti</c><c>   3</c></rc>
    <rc><c>Ti</c><c>   3</c></rc>
    <rc><c>N </c><c>   4</c></rc>
    <rc><c>N </c><c>   4</c></rc>
    <rc><c>N </c><c>   4</c></rc>
    <rc><c>N </c><c>   4</c></rc>
    <rc><c>N </c><c>   4</c></rc>
    <rc><c>N </c><c>   4</c></rc>
    <rc><c>N </c><c>   4</c></rc>
    <rc><c>N </c><c>   4</c></rc>
    <rc><c>N </c><c>   4</c></rc>
    <rc><c>N </c><c>   4</c></rc>
    <rc><c>N </c><c>   4</c></rc>
    <rc><c>N </c><c>   4</c></rc>
    <rc><c>N </c><c>   4</c></rc>
    <rc><c>C </c><c>   5</c></rc>
    <rc><c>C </c><c>   5</c></rc>
    <rc><c>C </c><c>   5</c></rc>
    <rc><c>C </c><c>   5</c></rc>
    <rc><c>C </c><c>   5</c></rc>
    <rc><c>C </c><c>   5</c></rc>
    <rc><c>C </c><c>   5</c></rc>
    <rc><c>C </c><c>   5</c></rc>
    <rc><c>C </c><c>   5</c></rc>
    <rc><c>C </c><c>   5</c></rc>
    <rc><c>C </c><c>   5</c></rc>
    <rc><c>C </c><c>   5</c></rc>
    <rc><c>C </c><c>   5</c></rc>
    <rc><c>C </c><c>   5</c></rc>
    <rc><c>C </c><c>   5</c></rc>
    <rc><c>C </c><c>   5</c></rc>
    <rc><c>C </c><c>   5</c></rc>
    <rc><c>C </c><c>   5</c></rc>
    <rc><c>C </c><c>   5</c></rc>
    <rc><c>Cr</c><c>   6</c></rc>
    <rc><c>Cr</c><c>   6</c></rc>
    <rc><c>Cr</c><c>   6</c></rc>
    <rc><c>Cr</c><c>   6</c></rc>
    <rc><c>Cr</c><c>   6</c></rc>
    <rc><c>Cr</c><c>   6</c></rc>
    <rc><c>Mo</c><c>   7</c></rc>
    <rc><c>Mo</c><c>   7</c></rc>
    <rc><c>Mo</c><c>   7</c></rc>
    <rc><c>Mo</c><c>   7</c></rc>
    <rc><c>Mo</c><c>   7</c></rc>
    <rc><c>Mo</c><c>   7</c></rc>
   </set>
  </array>
  <array name="atomtypes" >
   <dimension dim="1">type</dimension>
   <field type="int">atomspertype</field>
   <field type="string">element</field>
   <field>mass</field>
   <field>valence</field>
   <field type="string">pseudopotential</field>
   <set>
    <rc><c>   7</c><c>Zr</c><c>     91.22400000</c><c>     12.00000000</c><c> PAW_PBE Zr_sv 07Sep2000                </c></rc>
    <rc><c>   6</c><c>Nb</c><c>     92.91000000</c><c>     13.00000000</c><c> PAW_PBE Nb_sv 17Jan2003                </c></rc>
    <rc><c>   7</c><c>Ti</c><c>     47.88000000</c><c>     12.00000000</c><c> PAW_PBE Ti_sv 07Sep2000                </c></rc>
    <rc><c>  13</c><c>N </c><c>     14.00100000</c><c>      5.00000000</c><c> PAW_PBE N 08Apr2002                    </c></rc>
    <rc><c>  19</c><c>C </c><c>     12.01100000</c><c>      4.00000000</c><c> PAW_PBE C 08Apr2002                    </c></rc>
    <rc><c>   6</c><c>Cr</c><c>     51.99600000</c><c>     12.00000000</c><c> PAW_PBE Cr_pv 07Sep2000                </c></rc>
    <rc><c>   6</c><c>Mo</c><c>     95.94000000</c><c>      6.00000000</c><c> PAW_PBE Mo 08Apr2002                   </c></rc>
   </set>
  </array>
 </atominfo>
 <structure name="initialpos" >
  <crystal>
   <varray name="basis" >
    <v>       8.93249989       0.00000000       0.00000000 </v>
    <v>       0.00575300       9.05559834       0.00000000 </v>
    <v>       0.03210180      -0.01574346       8.93712807 </v>
   </varray>
   <i name="volume">    722.91652451 </i>
   <varray name="rec_basis" >
    <v>       0.11195074      -0.00007112      -0.00040225 </v>
    <v>       0.00000000       0.11042893       0.00019453 </v>
    <v>       0.00000000       0.00000000       0.11189277 </v>
   </varray>
  </crystal>
  <varray name="positions" >
   <v>       0.99688001       0.99204997       0.99924002 </v>
   <v>       0.25398003       0.99714995       0.24912000 </v>
   <v>       0.24803003       0.50165000       0.24955001 </v>
   <v>       0.50501006       0.49745998       0.99834003 </v>
   <v>       0.50479003       0.24631001       0.74710002 </v>
   <v>       0.99427992       0.50449999       0.49779000 </v>
   <v>       0.49950005       0.75481999       0.74817004 </v>
   <v>       0.99437004       0.23617001       0.26379999 </v>
   <v>       0.75718000       0.74102998       0.01100000 </v>
   <v>       0.00201000       0.25541000       0.73894001 </v>
   <v>       0.75307001       0.26163001       0.50533002 </v>
   <v>       0.99514004       0.74492004       0.74511997 </v>
   <v>       0.25679999       0.49462002       0.74545002 </v>
   <v>       0.24788999       0.24839000       0.99657997 </v>
   <v>       0.50833000       0.25676999       0.25376001 </v>
   <v>       0.74879004       0.98787999       0.26967001 </v>
   <v>       0.75719000       0.25603001       0.99591997 </v>
   <v>       0.24762001       0.74973999       0.99974006 </v>
   <v>       0.25272001       0.24823001       0.50015003 </v>
   <v>       0.24457999       0.75048999       0.49983999 </v>
   <v>       0.24982001       0.24942998       0.24825000 </v>
   <v>       0.26146999       0.99984002       0.99295996 </v>
   <v>       0.00281000       0.25024000       0.00130000 </v>
   <v>       0.75313998       0.24617000       0.25492002 </v>
   <v>       0.74767001       0.99748000       0.01202000 </v>
   <v>       0.50714994       0.99977000       0.24673000 </v>
   <v>       0.99051999       0.48088002       0.24100998 </v>
   <v>       0.50519005       0.76130999       0.00855000 </v>
   <v>       0.98896989       0.00202000       0.73708999 </v>
   <v>       0.75744996       0.24437997       0.74896999 </v>
   <v>       0.73632001       0.00417000       0.51063000 </v>
   <v>       0.50563996       0.23264999       0.49544997 </v>
   <v>       0.50008998       0.00061000       0.73471998 </v>
   <v>       0.99720000       0.99771992       0.25899999 </v>
   <v>       0.50427997       0.24673000       0.00262000 </v>
   <v>       0.25133999       0.74958002       0.24910999 </v>
   <v>       0.24328000       0.50072997       0.99510994 </v>
   <v>       0.99837005       0.74313996       0.00460000 </v>
   <v>       0.75633000       0.73891003       0.25767000 </v>
   <v>       0.75839004       0.50315998       0.00288000 </v>
   <v>       0.50700002       0.50333002       0.25878999 </v>
   <v>       0.24900999       0.25315000       0.74854000 </v>
   <v>       0.24446000       0.99823996       0.50287998 </v>
   <v>       0.99804009       0.24229999       0.50128003 </v>
   <v>       0.24177002       0.75340997       0.75018002 </v>
   <v>       0.25841001       0.50062002       0.50129001 </v>
   <v>       0.99000004       0.76215003       0.49746000 </v>
   <v>       0.99203996       0.50055999       0.75138002 </v>
   <v>       0.75036005       0.74888000       0.74756004 </v>
   <v>       0.74036002       0.50197000       0.50067003 </v>
   <v>       0.50575006       0.74958002       0.49720000 </v>
   <v>       0.50501003       0.50217998       0.73912003 </v>
   <v>       0.51588997       0.01358000       0.98075008 </v>
   <v>       0.99841994       0.50976998       0.98613004 </v>
   <v>       0.50379003       0.73926997       0.25905001 </v>
   <v>       0.23780002       0.01082000       0.74607998 </v>
   <v>       0.47957999       0.98308000       0.49717999 </v>
   <v>       0.74279003       0.97869994       0.76450995 </v>
   <v>       0.99864998       0.77573999       0.26102000 </v>
   <v>       0.73551001       0.51468004       0.26666001 </v>
   <v>       0.02362000       0.99783001       0.49557002 </v>
   <v>       0.50539000       0.52833005       0.49917999 </v>
   <v>       0.73876003       0.52828003       0.73814999 </v>
   <v>       0.75400003       0.72937999       0.49116997 </v>
  </varray>
 </structure>
 <calculation>
  <scstep>
   <time name="dav">   21.76   22.53</time>
   <time name="total">   21.80   22.58</time>
   <energy>
    <i name="alphaZ">   3580.68847919 </i>
    <i name="ewald"> -39236.78144405 </i>
    <i name="hartreedc">  -9271.77795786 </i>
    <i name="XCdc">   1615.34465931 </i>
    <i name="pawpsdc">  30041.04833961 </i>
    <i name="pawaedc"> -29564.69687160 </i>
    <i name="eentropy">     -0.09008045 </i>
    <i name="bandstr">   2543.73029847 </i>
    <i name="atom">  46851.09501822 </i>
    <i name="e_fr_energy">   6558.56044083 </i>
    <i name="e_wo_entrp">   6558.65052128 </i>
    <i name="e_0_energy">   6558.60548106 </i>
   </energy>
  </scstep>
  <scstep>
   <time name="dav">   22.82   22.84</time>
   <time name="total">   22.82   22.84</time>
   <energy>
    <i name="e_fr_energy">    492.59649478 </i>
    <i name="e_wo_entrp">    492.72313366 </i>
    <i name="e_0_energy">    492.65981422 </i>
   </energy>
  </scstep>
  <scstep>
   <time name="dav">   34.07   34.20</time>
   <time name="total">   34.08   34.20</time>
   <energy>
    <i name="e_fr_energy">   -608.57474400 </i>
    <i name="e_wo_entrp">   -608.47068113 </i>
    <i name="e_0_energy">   -608.52271257 </i>
   </energy>
  </scstep>
  <scstep>
   <time name="dav">   36.45   36.59</time>
   <time name="total">   36.45   36.59</time>
   <energy>
    <i name="e_fr_energy">   -755.70923363 </i>
    <i name="e_wo_entrp">   -755.60405253 </i>
    <i name="e_0_energy">   -755.65664308 </i>
   </energy>
  </scstep>
  <scstep>
   <time name="dav">   39.45   40.76</time>
   <time name="total">   39.71   41.03</time>
   <energy>
    <i name="e_fr_energy">   -775.13933756 </i>
    <i name="e_wo_entrp">   -775.03297621 </i>
    <i name="e_0_energy">   -775.08615689 </i>
   </energy>
  </scstep>
  <scstep>
   <time name="diag">    1.84    1.84</time>
   <time name="diis">   20.64   20.67</time>
   <time name="orth">    0.44    0.44</time>
   <time name="total">   23.19   23.23</time>
   <energy>
    <i name="e_fr_energy">   -936.94852573 </i>
    <i name="e_wo_entrp">   -936.77184561 </i>
    <i name="e_0_energy">   -936.86018567 </i>
   </energy>
  </scstep>
  <scstep>
   <time name="diag">    1.85    1.85</time>
   <time name="diis">   23.91   24.03</time>
   <time name="orth">    0.44    0.44</time>
   <time name="total">   26.48   26.60</time>
   <energy>
    <i name="e_fr_energy">   -634.84555400 </i>
    <i name="e_wo_entrp">   -634.68536433 </i>
    <i name="e_0_energy">   -634.76545916 </i>
   </energy>
  </scstep>
  <scstep>
   <time name="diag">    1.86    1.86</time>
   <time name="diis">   23.47   23.50</time>
   <time name="orth">    0.43    0.43</time>
   <time name="total">   26.04   26.07</time>
   <energy>
    <i name="e_fr_energy">   -627.39109130 </i>
    <i name="e_wo_entrp">   -627.22496309 </i>
    <i name="e_0_energy">   -627.30802720 </i>
   </energy>
  </scstep>
  <scstep>
   <time name="diag">    1.84    1.84</time>
   <time name="diis">   22.88   22.94</time>
   <time name="orth">    0.43    0.43</time>
   <time name="total">   25.43   25.50</time>
   <energy>
    <i name="e_fr_energy">   -622.59486216 </i>
    <i name="e_wo_entrp">   -622.42098761 </i>
    <i name="e_0_energy">   -622.50792489 </i>
   </energy>
  </scstep>
  <scstep>
   <time name="diag">    1.88    1.90</time>
   <time name="diis">   22.47   22.52</time>
   <time name="orth">    0.44    0.44</time>
   <time name="total">   25.07   25.13</time>
   <energy>
    <i name="e_fr_energy">   -621.19662846 </i>
    <i name="e_wo_entrp">   -621.02977016 </i>
    <i name="e_0_energy">   -621.11319931 </i>
   </energy>
  </scstep>
  <scstep>
   <time name="diag">    1.83    1.87</time>
   <time name="diis">   22.28   23.13</time>
   <time name="orth">    0.43    0.44</time>
   <time name="total">   24.82   25.73</time>
   <energy>
    <i name="e_fr_energy">   -623.10102308 </i>
    <i name="e_wo_entrp">   -622.92898242 </i>
    <i name="e_0_energy">   -623.01500275 </i>
   </energy>
  </scstep>
  <scstep>
   <time name="diag">    1.84    1.84</time>
   <time name="diis">   23.10   23.14</time>
   <time name="orth">    0.45    0.47</time>
   <time name="total">   25.67   25.73</time>
   <energy>
    <i name="e_fr_energy">   -621.21738075 </i>
    <i name="e_wo_entrp">   -621.04586083 </i>
    <i name="e_0_energy">   -621.13162079 </i>
   </energy>
  </scstep>
  <scstep>
   <time name="diag">    1.84    1.84</time>
   <time name="diis">   23.79   23.80</time>
   <time name="orth">    0.43    0.43</time>
   <time name="total">   26.34   26.36</time>
   <energy>
    <i name="e_fr_energy">   -620.44479922 </i>
    <i name="e_wo_entrp">   -620.26500585 </i>
    <i name="e_0_energy">   -620.35490253 </i>
   </energy>
  </scstep>
  <scstep>
   <time name="diag">    1.84    1.84</time>
   <time name="diis">   23.64   23.72</time>
   <time name="orth">    0.43    0.43</time>
   <time name="total">   26.19   26.27</time>
   <energy>
    <i name="e_fr_energy">   -620.11505991 </i>
    <i name="e_wo_entrp">   -619.91818532 </i>
    <i name="e_0_energy">   -620.01662261 </i>
   </energy>
  </scstep>
  <scstep>
   <time name="diag">    1.81    1.86</time>
   <time name="diis">   22.68   23.52</time>
   <time name="orth">    0.43    0.43</time>
   <time name="total">   25.21   26.10</time>
   <energy>
    <i name="e_fr_energy">   -620.07138828 </i>
    <i name="e_wo_entrp">   -619.89588457 </i>
    <i name="e_0_energy">   -619.98363643 </i>
   </energy>
  </scstep>
  <scstep>
   <time name="diag">    1.84    1.84</time>
   <time name="diis">   21.39   21.43</time>
   <time name="orth">    0.43    0.43</time>
   <time name="total">   23.95   23.99</time>
   <energy>
    <i name="e_fr_energy">   -620.37327686 </i>
    <i name="e_wo_entrp">   -620.19175813 </i>
    <i name="e_0_energy">   -620.28251750 </i>
   </energy>
  </scstep>
  <scstep>
   <time name="diag">    1.84    1.89</time>
   <time name="diis">   22.91   23.79</time>
   <time name="orth">    0.43    0.43</time>
   <time name="total">   25.47   26.41</time>
   <energy>
    <i name="e_fr_energy">   -620.02999189 </i>
    <i name="e_wo_entrp">   -619.84904985 </i>
    <i name="e_0_energy">   -619.93952087 </i>
   </energy>
  </scstep>
  <scstep>
   <time name="diag">    1.84    1.85</time>
   <time name="diis">   24.12   24.23</time>
   <time name="orth">    0.43    0.43</time>
   <time name="total">   26.68   26.80</time>
   <energy>
    <i name="e_fr_energy">   -620.07988380 </i>
    <i name="e_wo_entrp">   -619.89189155 </i>
    <i name="e_0_energy">   -619.98588767 </i>
   </energy>
  </scstep>
  <scstep>
   <time name="diag">    1.82    1.86</time>
   <time name="diis">   23.15   24.09</time>
   <time name="orth">    0.43    0.44</time>
   <time name="total">   25.68   26.68</time>
   <energy>
    <i name="e_fr_energy">   -620.04831944 </i>
    <i name="e_wo_entrp">   -619.86419820 </i>
    <i name="e_0_energy">   -619.95625882 </i>
   </energy>
  </scstep>
  <scstep>
   <time name="diag">    1.91    1.92</time>
   <time name="diis">   23.08   23.13</time>
   <time name="orth">    0.43    0.43</time>
   <time name="total">   25.71   25.77</time>
   <energy>
    <i name="e_fr_energy">   -620.01365101 </i>
    <i name="e_wo_entrp">   -619.82902370 </i>
    <i name="e_0_energy">   -619.92133735 </i>
   </energy>
  </scstep>
  <scstep>
   <time name="diag">    1.87    1.89</time>
   <time name="diis">   23.34   23.46</time>
   <time name="orth">    0.43    0.43</time>
   <time name="total">   25.93   26.07</time>
   <energy>
    <i name="e_fr_energy">   -620.01131271 </i>
    <i name="e_wo_entrp">   -619.82606521 </i>
    <i name="e_0_energy">   -619.91868896 </i>
   </energy>
  </scstep>
  <scstep>
   <time name="diag">    1.84    1.84</time>
   <time name="diis">   23.70   23.78</time>
   <time name="orth">    0.43    0.43</time>
   <time name="total">   26.26   26.33</time>
   <energy>
    <i name="e_fr_energy">   -620.01407236 </i>
    <i name="e_wo_entrp">   -619.82865937 </i>
    <i name="e_0_energy">   -619.92136586 </i>
   </energy>
  </scstep>
  <scstep>
   <time name="diag">    1.84    1.84</time>
   <time name="diis">   23.57   23.70</time>
   <time name="orth">    0.43    0.43</time>
   <time name="total">   26.13   26.26</time>
   <energy>
    <i name="e_fr_energy">   -620.01757656 </i>
    <i name="e_wo_entrp">   -619.83199948 </i>
    <i name="e_0_energy">   -619.92478802 </i>
   </energy>
  </scstep>
  <scstep>
   <time name="diag">    1.84    1.84</time>
   <time name="diis">   22.67   22.71</time>
   <time name="orth">    0.43    0.43</time>
   <time name="total">   25.23   25.27</time>
   <energy>
    <i name="e_fr_energy">   -620.02033616 </i>
    <i name="e_wo_entrp">   -619.83465145 </i>
    <i name="e_0_energy">   -619.92749381 </i>
   </energy>
  </scstep>
  <scstep>
   <time name="diag">    1.85    1.85</time>
   <time name="diis">   23.07   23.12</time>
   <time name="orth">    0.44    0.44</time>
   <time name="total">   25.65   25.72</time>
   <energy>
    <i name="e_fr_energy">   -620.02159585 </i>
    <i name="e_wo_entrp">   -619.83599618 </i>
    <i name="e_0_energy">   -619.92879602 </i>
   </energy>
  </scstep>
  <scstep>
   <time name="diag">    1.88    1.93</time>
   <time name="diis">   22.85   23.09</time>
   <time name="orth">    0.43    0.43</time>
   <time name="total">   25.44   25.74</time>
   <energy>
    <i name="e_fr_energy">   -620.02270013 </i>
    <i name="e_wo_entrp">   -619.83712433 </i>
    <i name="e_0_energy">   -619.92991223 </i>
   </energy>
  </scstep>
  <scstep>
   <time name="diag">    1.83    1.83</time>
   <time name="diis">   20.93   20.99</time>
   <time name="orth">    0.43    0.43</time>
   <time name="total">   23.48   23.53</time>
   <energy>
    <i name="e_fr_energy">   -620.02332906 </i>
    <i name="e_wo_entrp">   -619.83775924 </i>
    <i name="e_0_energy">   -619.93054415 </i>
   </energy>
  </scstep>
  <scstep>
   <time name="diag">    1.85    1.85</time>
   <time name="diis">   20.41   20.52</time>
   <time name="orth">    0.45    0.45</time>
   <time name="total">   22.99   23.10</time>
   <energy>
    <i name="e_fr_energy">   -620.02382941 </i>
    <i name="e_wo_entrp">   -619.83825725 </i>
    <i name="e_0_energy">   -619.93104333 </i>
   </energy>
  </scstep>
  <scstep>
   <time name="diag">    1.87    1.89</time>
   <time name="diis">   20.38   20.44</time>
   <time name="orth">    0.44    0.44</time>
   <time name="total">   22.97   23.05</time>
   <energy>
    <i name="e_fr_energy">   -620.02414570 </i>
    <i name="e_wo_entrp">   -619.83859104 </i>
    <i name="e_0_energy">   -619.93136837 </i>
   </energy>
  </scstep>
  <scstep>
   <time name="diag">    1.84    1.90</time>
   <time name="diis">   19.16   19.20</time>
   <time name="orth">    0.43    0.43</time>
   <time name="total">   21.72   21.81</time>
   <energy>
    <i name="e_fr_energy">   -620.02437295 </i>
    <i name="e_wo_entrp">   -619.83879716 </i>
    <i name="e_0_energy">   -619.93158506 </i>
   </energy>
  </scstep>
  <scstep>
   <time name="diag">    1.84    1.84</time>
   <time name="diis">   18.91   18.97</time>
   <time name="orth">    0.43    0.44</time>
   <time name="total">   21.47   21.53</time>
   <energy>
    <i name="e_fr_energy">   -620.02451628 </i>
    <i name="e_wo_entrp">   -619.83894180 </i>
    <i name="e_0_energy">   -619.93172904 </i>
   </energy>
  </scstep>
  <scstep>
   <time name="diag">    1.81    1.85</time>
   <time name="diis">   18.64   19.33</time>
   <time name="orth">    0.43    0.43</time>
   <time name="total">   21.17   21.91</time>
   <energy>
    <i name="e_fr_energy">   -620.02462614 </i>
    <i name="e_wo_entrp">   -619.83905189 </i>
    <i name="e_0_energy">   -619.93183902 </i>
   </energy>
  </scstep>
  <scstep>
   <time name="diag">    1.83    1.83</time>
   <time name="diis">   18.98   19.02</time>
   <time name="orth">    0.44    0.44</time>
   <time name="total">   21.54   21.57</time>
   <energy>
    <i name="e_fr_energy">   -620.02469654 </i>
    <i name="e_wo_entrp">   -619.83913228 </i>
    <i name="e_0_energy">   -619.93191441 </i>
   </energy>
  </scstep>
  <scstep>
   <time name="diag">    1.86    1.87</time>
   <time name="diis">   18.69   18.80</time>
   <time name="orth">    0.44    0.44</time>
   <time name="total">   21.26   21.38</time>
   <energy>
    <i name="e_fr_energy">   -620.02474884 </i>
    <i name="e_wo_entrp">   -619.83918464 </i>
    <i name="e_0_energy">   -619.93196674 </i>
   </energy>
  </scstep>
  <scstep>
   <time name="diag">    1.84    1.84</time>
   <time name="diis">   19.04   19.11</time>
   <time name="orth">    0.43    0.43</time>
   <time name="total">   21.60   21.68</time>
   <energy>
    <i name="e_fr_energy">   -620.02478447 </i>
    <i name="e_wo_entrp">   -619.83922494 </i>
    <i name="e_0_energy">   -619.93200470 </i>
   </energy>
  </scstep>
  <scstep>
   <time name="diag">    1.84    1.84</time>
   <time name="diis">   18.70   18.75</time>
   <time name="orth">    0.49    0.51</time>
   <time name="total">   21.31   21.37</time>
   <energy>
    <i name="e_fr_energy">   -620.02480932 </i>
    <i name="e_wo_entrp">   -619.83924476 </i>
    <i name="e_0_energy">   -619.93202704 </i>
   </energy>
  </scstep>
  <scstep>
   <time name="diag">    1.84    1.89</time>
   <time name="diis">   16.89   17.54</time>
   <time name="orth">    0.43    0.44</time>
   <time name="total">   19.45   20.16</time>
   <energy>
    <i name="e_fr_energy">   -620.02482691 </i>
    <i name="e_wo_entrp">   -619.83926417 </i>
    <i name="e_0_energy">   -619.93204554 </i>
   </energy>
  </scstep>
  <scstep>
   <time name="diag">    1.81    1.86</time>
   <time name="diis">   16.66   17.28</time>
   <time name="orth">    0.43    0.43</time>
   <time name="total">   19.19   19.87</time>
   <energy>
    <i name="e_fr_energy">   -620.02483949 </i>
    <i name="e_wo_entrp">   -619.83927647 </i>
    <i name="e_0_energy">   -619.93205798 </i>
   </energy>
  </scstep>
  <scstep>
   <time name="diag">    1.85    1.85</time>
   <time name="diis">   16.51   16.54</time>
   <time name="orth">    0.43    0.43</time>
   <time name="total">   19.08   19.12</time>
   <energy>
    <i name="e_fr_energy">   -620.02484779 </i>
    <i name="e_wo_entrp">   -619.83928338 </i>
    <i name="e_0_energy">   -619.93206558 </i>
   </energy>
  </scstep>
  <scstep>
   <time name="diag">    1.86    1.90</time>
   <time name="diis">   16.14   16.17</time>
   <time name="orth">    0.43    0.43</time>
   <time name="total">   18.47   18.54</time>
   <energy>
    <i name="alphaZ">   3580.68847919 </i>
    <i name="ewald"> -39236.78144405 </i>
    <i name="hartreedc">  -8734.44879856 </i>
    <i name="XCdc">   1606.11007871 </i>
    <i name="pawpsdc">  30849.53899421 </i>
    <i name="pawaedc"> -30387.31990309 </i>
    <i name="eentropy">     -0.18556614 </i>
    <i name="bandstr">  -5148.72171220 </i>
    <i name="atom">  46851.09501822 </i>
    <i name="e_fr_energy">   -620.02485372 </i>
    <i name="e_wo_entrp">   -619.83928757 </i>
    <i name="e_0_energy">   -619.93207064 </i>
   </energy>
  </scstep>
  <structure>
   <crystal>
    <varray name="basis" >
     <v>       8.93249989       0.00000000       0.00000000 </v>
     <v>       0.00575300       9.05559834       0.00000000 </v>
     <v>       0.03210180      -0.01574346       8.93712807 </v>
    </varray>
    <i name="volume">    722.91652451 </i>
    <varray name="rec_basis" >
     <v>       0.11195074      -0.00007112      -0.00040225 </v>
     <v>       0.00000000       0.11042893       0.00019453 </v>
     <v>       0.00000000       0.00000000       0.11189277 </v>
    </varray>
   </crystal>
   <varray name="positions" >
    <v>       0.99688001       0.99204997       0.99924002 </v>
    <v>       0.25398003       0.99714995       0.24912000 </v>
    <v>       0.24803003       0.50165000       0.24955001 </v>
    <v>       0.50501006       0.49745998       0.99834003 </v>
    <v>       0.50479003       0.24631001       0.74710002 </v>
    <v>       0.99427992       0.50449999       0.49779000 </v>
    <v>       0.49950005       0.75481999       0.74817004 </v>
    <v>       0.99437004       0.23617001       0.26379999 </v>
    <v>       0.75718000       0.74102998       0.01100000 </v>
    <v>       0.00201000       0.25541000       0.73894001 </v>
    <v>       0.75307001       0.26163001       0.50533002 </v>
    <v>       0.99514004       0.74492004       0.74511997 </v>
    <v>       0.25679999       0.49462002       0.74545002 </v>
    <v>       0.24788999       0.24839000       0.99657997 </v>
    <v>       0.50833000       0.25676999       0.25376001 </v>
    <v>       0.74879004       0.98787999       0.26967001 </v>
    <v>       0.75719000       0.25603001       0.99591997 </v>
    <v>       0.24762001       0.74973999       0.99974006 </v>
    <v>       0.25272001       0.24823001       0.50015003 </v>
    <v>       0.24457999       0.75048999       0.49983999 </v>
    <v>       0.24982001       0.24942998       0.24825000 </v>
    <v>       0.26146999       0.99984002       0.99295996 </v>
    <v>       0.00281000       0.25024000       0.00130000 </v>
    <v>       0.75313998       0.24617000       0.25492002 </v>
    <v>       0.74767001       0.99748000       0.01202000 </v>
    <v>       0.50714994       0.99977000       0.24673000 </v>
    <v>       0.99051999       0.48088002       0.24100998 </v>
    <v>       0.50519005       0.76130999       0.00855000 </v>
    <v>       0.98896989       0.00202000       0.73708999 </v>
    <v>       0.75744996       0.24437997       0.74896999 </v>
    <v>       0.73632001       0.00417000       0.51063000 </v>
    <v>       0.50563996       0.23264999       0.49544997 </v>
    <v>       0.50008998       0.00061000       0.73471998 </v>
    <v>       0.99720000       0.99771992       0.25899999 </v>
    <v>       0.50427997       0.24673000       0.00262000 </v>
    <v>       0.25133999       0.74958002       0.24910999 </v>
    <v>       0.24328000       0.50072997       0.99510994 </v>
    <v>       0.99837005       0.74313996       0.00460000 </v>
    <v>       0.75633000       0.73891003       0.25767000 </v>
    <v>       0.75839004       0.50315998       0.00288000 </v>
    <v>       0.50700002       0.50333002       0.25878999 </v>
    <v>       0.24900999       0.25315000       0.74854000 </v>
    <v>       0.24446000       0.99823996       0.50287998 </v>
    <v>       0.99804009       0.24229999       0.50128003 </v>
    <v>       0.24177002       0.75340997       0.75018002 </v>
    <v>       0.25841001       0.50062002       0.50129001 </v>
    <v>       0.99000004       0.76215003       0.49746000 </v>
    <v>       0.99203996       0.50055999       0.75138002 </v>
    <v>       0.75036005       0.74888000       0.74756004 </v>
    <v>       0.74036002       0.50197000       0.50067003 </v>
    <v>       0.50575006       0.74958002       0.49720000 </v>
    <v>       0.50501003       0.50217998       0.73912003 </v>
    <v>       0.51588997       0.01358000       0.98075008 </v>
    <v>       0.99841994       0.50976998       0.98613004 </v>
    <v>       0.50379003       0.73926997       0.25905001 </v>
    <v>       0.23780002       0.01082000       0.74607998 </v>
    <v>       0.47957999       0.98308000       0.49717999 </v>
    <v>       0.74279003       0.97869994       0.76450995 </v>
    <v>       0.99864998       0.77573999       0.26102000 </v>
    <v>       0.73551001       0.51468004       0.26666001 </v>
    <v>       0.02362000       0.99783001       0.49557002 </v>
    <v>       0.50539000       0.52833005       0.49917999 </v>
    <v>       0.73876003       0.52828003       0.73814999 </v>
    <v>       0.75400003       0.72937999       0.49116997 </v>
   </varray>
  </structure>
  <varray name="forces" >
   <v>      -0.07852832       0.84457142      -0.87684134 </v>
   <v>       1.77782532       0.30499352      -0.81817076 </v>
   <v>      -0.13233709      -0.30439638      -0.57094972 </v>
   <v>      -0.50295025       0.13464658       0.47293989 </v>
   <v>      -0.01450271      -1.41025436      -0.18406791 </v>
   <v>       0.74367776      -0.36844621       0.07215465 </v>
   <v>      -0.82524769       1.90128046       0.85129403 </v>
   <v>      -0.19722266      -0.19850213      -0.66944632 </v>
   <v>      -0.39550656       0.50778761       0.09689124 </v>
   <v>       0.24936106      -0.41682618       0.82874022 </v>
   <v>      -0.73993993      -1.16945697      -0.29833427 </v>
   <v>       0.74395775       0.31346071       0.62044011 </v>
   <v>      -0.64897716       0.21557545       0.55907639 </v>
   <v>       0.12501658       0.05070508      -0.42116431 </v>
   <v>       0.38829487      -0.77845549      -0.10848239 </v>
   <v>      -1.18940615       0.40395750       0.16848280 </v>
   <v>      -0.30845580      -0.03643361      -0.09182861 </v>
   <v>      -0.20425962      -0.18572741      -0.07641762 </v>
   <v>       0.14634051      -0.21178908       0.34649845 </v>
   <v>       0.25489651       0.17713065       0.10564720 </v>
   <v>       0.33433373      -0.01144243       0.11953761 </v>
   <v>      -0.26668539       0.09367283      -0.25247069 </v>
   <v>      -0.08542818      -0.05025997      -0.15607975 </v>
   <v>      -0.59947739      -0.27449390      -0.29636227 </v>
   <v>      -0.65867498       0.27522509      -0.71853378 </v>
   <v>       0.58247262      -0.00595834       0.52407280 </v>
   <v>       0.26826665       0.25655398       0.21442887 </v>
   <v>      -0.31959442      -0.09644267      -0.21449167 </v>
   <v>       0.06089466       0.03515927       0.70364984 </v>
   <v>      -0.18679776      -0.06210393       0.55727150 </v>
   <v>       0.12341313      -0.08681132      -0.94807942 </v>
   <v>      -0.53915408       0.11231584      -0.59674298 </v>
   <v>       0.44788362      -0.07374622       0.63834443 </v>
   <v>      -0.65067912       0.73034498      -0.64915309 </v>
   <v>       0.19897514      -0.68234295       0.41265845 </v>
   <v>       0.24475492      -0.12614530       0.02398698 </v>
   <v>      -0.25153324       0.14294557      -0.03943451 </v>
   <v>       0.77321017      -0.63932217      -0.20232070 </v>
   <v>      -0.76265044       1.20060140      -0.78547499 </v>
   <v>       0.64667954      -0.69118180      -0.08828377 </v>
   <v>      -0.83706944      -0.12111037      -0.57406476 </v>
   <v>      -0.15574033      -0.67413162      -0.02734597 </v>
   <v>       1.87819022      -0.19952769       0.91784266 </v>
   <v>       0.70943622       0.50403524       0.04714380 </v>
   <v>       0.02935188       0.12147251      -0.00820713 </v>
   <v>      -0.35924631       0.13888948      -0.07165854 </v>
   <v>       1.21693727      -0.40183464       0.60155489 </v>
   <v>       0.32757828       0.03771475       0.66391386 </v>
   <v>      -0.02392565       1.70747594       0.35818299 </v>
   <v>       0.81231465      -0.88352041       0.29216130 </v>
   <v>      -0.99818717       1.52474455      -1.01671562 </v>
   <v>      -0.79827709      -0.14476321       0.78606536 </v>
   <v>       0.60160297       0.40051507       0.02999642 </v>
   <v>       0.09917843       0.24031160      -0.58581147 </v>
   <v>       0.06879309      -0.27221763      -0.02077032 </v>
   <v>      -0.09221677       0.44404752       0.09985815 </v>
   <v>      -0.55420885       0.08536721       0.11860451 </v>
   <v>      -0.48772871      -0.80596563       0.43130899 </v>
   <v>       0.44350605      -0.41246897      -0.47351068 </v>
   <v>      -0.01434314      -0.82756944      -1.16767622 </v>
   <v>      -0.58614333       0.36355917       0.74638446 </v>
   <v>      -0.45905860      -0.72979984      -0.49427058 </v>
   <v>       0.78136825      -1.48891989       0.92964640 </v>
   <v>      -0.15435748       1.57330715       0.16438290 </v>
  </varray>
  <varray name="stress" >
   <v>    -129.90163855       6.78921317      -3.59380710 </v>
   <v>       6.78921425    -129.66753706       0.63650544 </v>
   <v>      -3.59380571       0.63650494    -126.83883716 </v>
  </varray>
  <energy>
   <i name="e_fr_energy">   -620.02485372 </i>
   <i name="e_wo_entrp">   -619.93207064 </i>
   <i name="e_0_energy">     -0.18556614 </i>
  </energy>
  <time name="totalsc"> 1032.67 1043.37</time>
 </calculation>
 <calculation>
  <scstep>
   <time name="dav">   28.88   29.80</time>
   <time name="total">   29.17   30.10</time>
   <energy>
    <i name="alphaZ">   4095.76169144 </i>
    <i name="ewald"> -40797.29844864 </i>
    <i name="hartreedc">  -9368.83343174 </i>
    <i name="XCdc">   1695.25873396 </i>
    <i name="pawpsdc">  30849.60774763 </i>
    <i name="pawaedc"> -30387.34183732 </i>
    <i name="eentropy">     -0.10110980 </i>
    <i name="bandstr">  -3618.77234341 </i>
    <i name="atom">  46851.09501822 </i>
    <i name="e_fr_energy">   -680.62397966 </i>
    <i name="e_wo_entrp">   -680.52286986 </i>
    <i name="e_0_energy">   -680.57342476 </i>
   </energy>
  </scstep>
  <scstep>
   <time name="diag">    1.83    1.83</time>
   <time name="diis">   17.60   17.62</time>
   <time name="orth">    0.43    0.43</time>
   <time name="total">   20.14   20.16</time>
   <energy>
    <i name="e_fr_energy">   -841.97966212 </i>
    <i name="e_wo_entrp">   -841.86455069 </i>
    <i name="e_0_energy">   -841.92210641 </i>
   </energy>
  </scstep>
  <scstep>
   <time name="diag">    1.84    1.84</time>
   <time name="diis">   19.96   20.02</time>
   <time name="orth">    0.43    0.43</time>
   <time name="total">   22.51   22.57</time>
   <energy>
    <i name="e_fr_energy">   -628.46132065 </i>
    <i name="e_wo_entrp">   -628.32552462 </i>
    <i name="e_0_energy">   -628.39342263 </i>
   </energy>
  </scstep>
  <scstep>
   <time name="diag">    1.88    1.90</time>
   <time name="diis">   22.41   22.49</time>
   <time name="orth">    0.43    0.43</time>
   <time name="total">   25.00   25.11</time>
   <energy>
    <i name="e_fr_energy">   -630.96207382 </i>
    <i name="e_wo_entrp">   -630.84921693 </i>
    <i name="e_0_energy">   -630.90564538 </i>
   </energy>
  </scstep>
  <scstep>
   <time name="diag">    1.85    1.85</time>
   <time name="diis">   19.20   19.27</time>
   <time name="orth">    0.43    0.43</time>
   <time name="total">   21.78   21.85</time>
   <energy>
    <i name="e_fr_energy">   -630.27659056 </i>
    <i name="e_wo_entrp">   -630.13010766 </i>
    <i name="e_0_energy">   -630.20334911 </i>
   </energy>
  </scstep>
  <scstep>
   <time name="diag">    1.84    1.84</time>
   <time name="diis">   21.31   21.34</time>
   <time name="orth">    0.43    0.43</time>
   <time name="total">   23.86   23.90</time>
   <energy>
    <i name="e_fr_energy">   -621.44591487 </i>
    <i name="e_wo_entrp">   -621.31837940 </i>
    <i name="e_0_energy">   -621.38214713 </i>
   </energy>
  </scstep>
  <scstep>
   <time name="diag">    1.84    1.85</time>
   <time name="diis">   20.29   20.34</time>
   <time name="orth">    0.43    0.43</time>
   <time name="total">   22.85   22.89</time>
   <energy>
    <i name="e_fr_energy">   -620.65868301 </i>
    <i name="e_wo_entrp">   -620.50721218 </i>
    <i name="e_0_energy">   -620.58294759 </i>
   </energy>
  </scstep>
  <scstep>
   <time name="diag">    1.84    1.84</time>
   <time name="diis">   21.86   21.94</time>
   <time name="orth">    0.43    0.43</time>
   <time name="total">   24.41   24.50</time>
   <energy>
    <i name="e_fr_energy">   -620.15097859 </i>
    <i name="e_wo_entrp">   -620.00743402 </i>
    <i name="e_0_energy">   -620.07920631 </i>
   </energy>
  </scstep>
  <scstep>
   <time name="diag">    1.88    1.88</time>
   <time name="diis">   22.56   22.63</time>
   <time name="orth">    0.43    0.43</time>
   <time name="total">   25.15   25.23</time>
   <energy>
    <i name="e_fr_energy">   -619.70276118 </i>
    <i name="e_wo_entrp">   -619.56081185 </i>
    <i name="e_0_energy">   -619.63178652 </i>
   </energy>
  </scstep>
  <scstep>
   <time name="diag">    1.85    1.85</time>
   <time name="diis">   24.40   25.36</time>
   <time name="orth">    0.45    0.46</time>
   <time name="total">   26.98   27.95</time>
   <energy>
    <i name="e_fr_energy">   -619.63602786 </i>
    <i name="e_wo_entrp">   -619.49201778 </i>
    <i name="e_0_energy">   -619.56402282 </i>
   </energy>
  </scstep>
  <scstep>
   <time name="diag">    1.81    1.85</time>
   <time name="diis">   23.21   24.10</time>
   <time name="orth">    0.43    0.43</time>
   <time name="total">   25.72   26.67</time>
   <energy>
    <i name="e_fr_energy">   -619.64990247 </i>
    <i name="e_wo_entrp">   -619.50436289 </i>
    <i name="e_0_energy">   -619.57713268 </i>
   </energy>
  </scstep>
  <scstep>
   <time name="diag">    1.81    1.85</time>
   <time name="diis">   23.45   24.38</time>
   <time name="orth">    0.44    0.44</time>
   <time name="total">   25.98   26.97</time>
   <energy>
    <i name="e_fr_energy">   -619.67897693 </i>
    <i name="e_wo_entrp">   -619.53334379 </i>
    <i name="e_0_energy">   -619.60616036 </i>
   </energy>
  </scstep>
  <scstep>
   <time name="diag">    1.82    1.86</time>
   <time name="diis">   23.99   24.69</time>
   <time name="orth">    0.43    0.43</time>
   <time name="total">   26.53   27.28</time>
   <energy>
    <i name="e_fr_energy">   -619.72846347 </i>
    <i name="e_wo_entrp">   -619.58372816 </i>
    <i name="e_0_energy">   -619.65609582 </i>
   </energy>
  </scstep>
  <scstep>
   <time name="diag">    1.90    1.91</time>
   <time name="diis">   26.06   26.11</time>
   <time name="orth">    0.43    0.43</time>
   <time name="total">   28.68   28.75</time>
   <energy>
    <i name="e_fr_energy">   -619.76196495 </i>
    <i name="e_wo_entrp">   -619.61563920 </i>
    <i name="e_0_energy">   -619.68880207 </i>
   </energy>
  </scstep>
  <scstep>
   <time name="diag">    1.84    1.85</time>
   <time name="diis">   24.88   24.93</time>
   <time name="orth">    0.43    0.43</time>
   <time name="total">   27.43   27.48</time>
   <energy>
    <i name="e_fr_energy">   -619.75873770 </i>
    <i name="e_wo_entrp">   -619.61318218 </i>
    <i name="e_0_energy">   -619.68595994 </i>
   </energy>
  </scstep>
  <scstep>
   <time name="diag">    1.81    1.85</time>
   <time name="diis">   24.73   25.64</time>
   <time name="orth">    0.48    0.51</time>
   <time name="total">   27.31   28.30</time>
   <energy>
    <i name="e_fr_energy">   -619.76724545 </i>
    <i name="e_wo_entrp">   -619.62182154 </i>
    <i name="e_0_energy">   -619.69453349 </i>
   </energy>
  </scstep>
  <scstep>
   <time name="diag">    1.89    1.91</time>
   <time name="diis">   25.54   25.67</time>
   <time name="orth">    0.43    0.43</time>
   <time name="total">   28.15   28.31</time>
   <energy>
    <i name="e_fr_energy">   -619.77217940 </i>
    <i name="e_wo_entrp">   -619.62680684 </i>
    <i name="e_0_energy">   -619.69949312 </i>
   </energy>
  </scstep>
  <scstep>
   <time name="diag">    1.85    1.85</time>
   <time name="diis">   25.13   25.18</time>
   <time name="orth">    0.43    0.43</time>
   <time name="total">   27.71   27.76</time>
   <energy>
    <i name="e_fr_energy">   -619.77448921 </i>
    <i name="e_wo_entrp">   -619.62915115 </i>
    <i name="e_0_energy">   -619.70182018 </i>
   </energy>
  </scstep>
  <scstep>
   <time name="diag">    1.85    1.85</time>
   <time name="diis">   25.37   25.46</time>
   <time name="orth">    0.43    0.43</time>
   <time name="total">   27.94   28.03</time>
   <energy>
    <i name="e_fr_energy">   -619.77586961 </i>
    <i name="e_wo_entrp">   -619.63054019 </i>
    <i name="e_0_energy">   -619.70320490 </i>
   </energy>
  </scstep>
  <scstep>
   <time name="diag">    1.85    1.85</time>
   <time name="diis">   24.27   24.32</time>
   <time name="orth">    0.43    0.43</time>
   <time name="total">   26.83   26.88</time>
   <energy>
    <i name="e_fr_energy">   -619.77687778 </i>
    <i name="e_wo_entrp">   -619.63153157 </i>
    <i name="e_0_energy">   -619.70420468 </i>
   </energy>
  </scstep>
  <scstep>
   <time name="diag">    1.88    1.89</time>
   <time name="diis">   23.79   23.89</time>
   <time name="orth">    0.43    0.43</time>
   <time name="total">   26.39   26.50</time>
   <energy>
    <i name="e_fr_energy">   -619.77739715 </i>
    <i name="e_wo_entrp">   -619.63205587 </i>
    <i name="e_0_energy">   -619.70472651 </i>
   </energy>
  </scstep>
  <scstep>
   <time name="diag">    1.85    1.86</time>
   <time name="diis">   22.51   22.62</time>
   <time name="orth">    0.43    0.43</time>
   <time name="total">   25.08   25.19</time>
   <energy>
    <i name="e_fr_energy">   -619.77780221 </i>
    <i name="e_wo_entrp">   -619.63245481 </i>
    <i name="e_0_energy">   -619.70512851 </i>
   </energy>
  </scstep>
  <scstep>
   <time name="diag">    1.83    1.83</time>
   <time name="diis">   22.21   22.30</time>
   <time name="orth">    0.43    0.44</time>
   <time name="total">   24.77   24.86</time>
   <energy>
    <i name="e_fr_energy">   -619.77799056 </i>
    <i name="e_wo_entrp">   -619.63265469 </i>
    <i name="e_0_energy">   -619.70532262 </i>
   </energy>
  </scstep>
  <scstep>
   <time name="diag">    1.82    1.86</time>
   <time name="diis">   20.67   21.45</time>
   <time name="orth">    0.43    0.43</time>
   <time name="total">   23.20   24.03</time>
   <energy>
    <i name="e_fr_energy">   -619.77815007 </i>
    <i name="e_wo_entrp">   -619.63280310 </i>
    <i name="e_0_energy">   -619.70547659 </i>
   </energy>
  </scstep>
  <scstep>
   <time name="diag">    1.84    1.84</time>
   <time name="diis">   20.57   20.60</time>
   <time name="orth">    0.43    0.43</time>
   <time name="total">   23.13   23.15</time>
   <energy>
    <i name="e_fr_energy">   -619.77823162 </i>
    <i name="e_wo_entrp">   -619.63289046 </i>
    <i name="e_0_energy">   -619.70556104 </i>
   </energy>
  </scstep>
  <scstep>
   <time name="diag">    1.84    1.84</time>
   <time name="diis">   20.38   20.56</time>
   <time name="orth">    0.43    0.43</time>
   <time name="total">   22.93   23.11</time>
   <energy>
    <i name="e_fr_energy">   -619.77829761 </i>
    <i name="e_wo_entrp">   -619.63295702 </i>
    <i name="e_0_energy">   -619.70562731 </i>
   </energy>
  </scstep>
  <scstep>
   <time name="diag">    1.83    1.84</time>
   <time name="diis">   19.72   19.78</time>
   <time name="orth">    0.43    0.43</time>
   <time name="total">   22.27   22.33</time>
   <energy>
    <i name="e_fr_energy">   -619.77833130 </i>
    <i name="e_wo_entrp">   -619.63298973 </i>
    <i name="e_0_energy">   -619.70566051 </i>
   </energy>
  </scstep>
  <scstep>
   <time name="diag">    1.84    1.85</time>
   <time name="diis">   19.55   19.59</time>
   <time name="orth">    0.45    0.45</time>
   <time name="total">   22.12   22.17</time>
   <energy>
    <i name="e_fr_energy">   -619.77835713 </i>
    <i name="e_wo_entrp">   -619.63301676 </i>
    <i name="e_0_energy">   -619.70568695 </i>
   </energy>
  </scstep>
  <scstep>
   <time name="diag">    1.81    1.85</time>
   <time name="diis">   17.83   18.52</time>
   <time name="orth">    0.42    0.43</time>
   <time name="total">   20.34   21.08</time>
   <energy>
    <i name="e_fr_energy">   -619.77837161 </i>
    <i name="e_wo_entrp">   -619.63303259 </i>
    <i name="e_0_energy">   -619.70570210 </i>
   </energy>
  </scstep>
  <scstep>
   <time name="diag">    1.80    1.84</time>
   <time name="diis">   17.26   17.56</time>
   <time name="orth">    0.43    0.43</time>
   <time name="total">   19.78   20.12</time>
   <energy>
    <i name="e_fr_energy">   -619.77838180 </i>
    <i name="e_wo_entrp">   -619.63304193 </i>
    <i name="e_0_energy">   -619.70571186 </i>
   </energy>
  </scstep>
  <scstep>
   <time name="diag">    1.85    1.85</time>
   <time name="diis">   16.68   16.71</time>
   <time name="orth">    0.43    0.43</time>
   <time name="total">   19.00   19.03</time>
   <energy>
    <i name="alphaZ">   4095.76169144 </i>
    <i name="ewald"> -40797.29844864 </i>
    <i name="hartreedc">  -8409.71354346 </i>
    <i name="XCdc">   1641.55048557 </i>
    <i name="pawpsdc">  32293.43215833 </i>
    <i name="pawaedc"> -31806.36309696 </i>
    <i name="eentropy">     -0.14533907 </i>
    <i name="bandstr">  -4488.09731372 </i>
    <i name="atom">  46851.09501822 </i>
    <i name="e_fr_energy">   -619.77838830 </i>
    <i name="e_wo_entrp">   -619.63304922 </i>
    <i name="e_0_energy">   -619.70571876 </i>
   </energy>
  </scstep>
  <structure>
   <crystal>
    <varray name="basis" >
     <v>       8.53784595       0.02062630      -0.01091834 </v>
     <v>       0.02640937       8.65624000       0.00195338 </v>
     <v>       0.01972314      -0.01304025       8.55153692 </v>
    </varray>
    <i name="volume">    632.00426825 </i>
    <varray name="rec_basis" >
     <v>       0.11712608      -0.00035728      -0.00027068 </v>
     <v>      -0.00027887       0.11552441       0.00017681 </v>
     <v>       0.00014961      -0.00002684       0.11693766 </v>
    </varray>
   </crystal>
   <varray name="positions" >
    <v>       0.99647001       0.99654109       0.99450682 </v>
    <v>       0.26359654       0.99876709       0.24470351 </v>
    <v>       0.24732742       0.50002301       0.24646802 </v>
    <v>       0.50228409       0.49818173       0.00089296 </v>
    <v>       0.50472012       0.23879532       0.74610642 </v>
    <v>       0.99829624       0.50253781       0.49817949 </v>
    <v>       0.49502001       0.76495683       0.75276533 </v>
    <v>       0.99331855       0.23510623       0.26018631 </v>
    <v>       0.75504032       0.74373606       0.01152302 </v>
    <v>       0.00334210       0.25319718       0.74341356 </v>
    <v>       0.74908355       0.25539706       0.50371961 </v>
    <v>       0.99914490       0.74659578       0.74846911 </v>
    <v>       0.25328341       0.49577372       0.74846792 </v>
    <v>       0.24857318       0.24865617       0.99430652 </v>
    <v>       0.51043188       0.25262184       0.25317442 </v>
    <v>       0.74236164       0.99003361       0.27057948 </v>
    <v>       0.75552600       0.25583505       0.99542428 </v>
    <v>       0.24651896       0.74874984       0.99932755 </v>
    <v>       0.25350436       0.24710498       0.50202043 </v>
    <v>       0.24595398       0.75143462       0.50041027 </v>
    <v>       0.25162340       0.24937014       0.24889526 </v>
    <v>       0.26003425       0.00033668       0.99159713 </v>
    <v>       0.00235182       0.24997078       0.00045748 </v>
    <v>       0.74990902       0.24470488       0.25332025 </v>
    <v>       0.74412564       0.99893948       0.00814135 </v>
    <v>       0.51028561       0.99974317       0.24955895 </v>
    <v>       0.99196381       0.48224880       0.24216747 </v>
    <v>       0.50346848       0.76079419       0.00739217 </v>
    <v>       0.98928499       0.00221391       0.74088830 </v>
    <v>       0.75643050       0.24405435       0.75197814 </v>
    <v>       0.73700524       0.00369863       0.50551227 </v>
    <v>       0.50273929       0.23324273       0.49222875 </v>
    <v>       0.50249677       0.00022312       0.73816577 </v>
    <v>       0.99369590       0.00160466       0.25549586 </v>
    <v>       0.50534893       0.24309877       0.00484753 </v>
    <v>       0.25266183       0.74890822       0.24923947 </v>
    <v>       0.24192180       0.50149113       0.99489707 </v>
    <v>       0.00255212       0.73973215       0.00350787 </v>
    <v>       0.75222220       0.74529872       0.25343000 </v>
    <v>       0.76188671       0.49947696       0.00240344 </v>
    <v>       0.50249073       0.50267943       0.25569118 </v>
    <v>       0.24817171       0.24955839       0.74839239 </v>
    <v>       0.25458661       0.99718561       0.50783449 </v>
    <v>       0.00186897       0.24498563       0.50153451 </v>
    <v>       0.24192828       0.75405702       0.75013572 </v>
    <v>       0.25647070       0.50135926       0.50090319 </v>
    <v>       0.99656218       0.76001494       0.50070719 </v>
    <v>       0.99379613       0.50076714       0.75496383 </v>
    <v>       0.75021803       0.75797974       0.74949351 </v>
    <v>       0.74474453       0.49726589       0.50224711 </v>
    <v>       0.50037354       0.75769338       0.49171177 </v>
    <v>       0.50068394       0.50141615       0.74336321 </v>
    <v>       0.51913715       0.01571398       0.98091200 </v>
    <v>       0.99896613       0.51104472       0.98296782 </v>
    <v>       0.50416290       0.73781956       0.25893789 </v>
    <v>       0.23729851       0.01318655       0.74661902 </v>
    <v>       0.47658423       0.98353590       0.49782022 </v>
    <v>       0.74015030       0.97441030       0.76683816 </v>
    <v>       0.00105587       0.77353817       0.25846399 </v>
    <v>       0.73545804       0.51026030       0.26035689 </v>
    <v>       0.02043862       0.99977383       0.49959900 </v>
    <v>       0.50292281       0.52443749       0.49651192 </v>
    <v>       0.74296712       0.52035670       0.74316823 </v>
    <v>       0.75315779       0.73776314       0.49205731 </v>
   </varray>
  </structure>
  <varray name="forces" >
   <v>       0.16073851       0.07421528      -0.14021405 </v>
   <v>       0.01056004       0.21581474      -0.21215810 </v>
   <v>      -0.40634696      -0.42321310       0.06284652 </v>
   <v>      -0.08929974      -0.01421346      -0.10346834 </v>
   <v>      -0.17004758       0.41503287       0.15589327 </v>
   <v>       0.43067337      -0.17065837       0.15742283 </v>
   <v>      -0.30377551      -0.96152477       0.07430758 </v>
   <v>       0.18514298       0.52880318      -0.92029863 </v>
   <v>      -0.21545914       0.47650727      -0.51856263 </v>
   <v>      -0.22915773      -0.38681708       0.90401988 </v>
   <v>       0.02079020      -1.08715916      -0.04197397 </v>
   <v>      -0.02538746       0.39005607       0.56567700 </v>
   <v>      -0.42876925       0.07448858       0.20209540 </v>
   <v>       0.32810805      -0.24222053       0.02698440 </v>
   <v>      -0.20061142      -0.29269720      -0.31323820 </v>
   <v>      -0.39224270       0.48557175      -0.53923851 </v>
   <v>      -0.39103284      -0.37696442       0.20446429 </v>
   <v>       0.12082441       0.09942633       0.07936090 </v>
   <v>       0.22226577      -0.23218588      -0.11157655 </v>
   <v>       0.28389653       0.14910955      -0.07171900 </v>
   <v>       0.35592121      -0.13837308      -0.01956428 </v>
   <v>       0.29819872       0.08229418      -0.58652726 </v>
   <v>       0.05313966       0.65033700       0.05393424 </v>
   <v>      -0.67283601      -0.26767176      -0.75723755 </v>
   <v>      -0.47055349       0.52183995      -0.49378809 </v>
   <v>       0.65479109      -0.01425641       0.00385369 </v>
   <v>      -0.07131354       0.88405611      -0.49941340 </v>
   <v>      -0.62622765       0.44302683       0.37720803 </v>
   <v>      -0.08986457       0.07058553       0.19338642 </v>
   <v>      -0.06140846       0.03850488       0.53479021 </v>
   <v>       0.53340801      -0.35096665      -0.07742298 </v>
   <v>      -0.75517007       0.42996752      -0.40143369 </v>
   <v>       0.24158292       0.33732249       0.50792697 </v>
   <v>      -0.02556374      -0.28252333      -0.35255926 </v>
   <v>      -0.15733529      -0.35188767       0.31537135 </v>
   <v>       0.56608979       0.05678592      -0.06899669 </v>
   <v>      -0.43313148      -0.01490241      -0.04774103 </v>
   <v>       0.44277416      -0.16851806       0.20136230 </v>
   <v>      -0.80701501       0.76755040      -0.13593158 </v>
   <v>       0.34950193      -0.61569948       0.08058816 </v>
   <v>      -0.78768609      -0.34478491      -0.30202702 </v>
   <v>       0.30305274      -0.50083771       0.00563426 </v>
   <v>       0.64567640       0.08834705       0.47450308 </v>
   <v>       0.55482561       0.34643397       0.01926158 </v>
   <v>       0.18683791       0.42588359       0.11738134 </v>
   <v>      -0.04160313      -0.01258286      -0.11938852 </v>
   <v>       0.86319909      -0.39744629       0.23824315 </v>
   <v>       0.46199349      -0.11183066       0.23698683 </v>
   <v>      -0.12254127       0.07559735      -0.04530692 </v>
   <v>       0.18293587       0.06946495      -0.06767881 </v>
   <v>      -0.66834740       0.84783114      -0.23991487 </v>
   <v>      -0.16479970       0.08369745       0.19640001 </v>
   <v>       0.05962530      -0.47545497       0.15444798 </v>
   <v>       0.19752776      -0.37895588       0.14385260 </v>
   <v>      -0.37623325      -0.09852183      -0.51376538 </v>
   <v>      -0.39674230      -0.05391675       0.34863291 </v>
   <v>       0.37255023       0.53120728      -0.15764004 </v>
   <v>      -0.31945715       0.79642942       0.53966982 </v>
   <v>       0.47869780      -0.75991104      -0.81061278 </v>
   <v>       0.76383932      -0.78671717      -0.96529450 </v>
   <v>      -0.18299817       0.56174695       0.38680931 </v>
   <v>      -0.14821181      -0.78649191      -0.07697166 </v>
   <v>       0.50795030      -0.61805596       1.53038336 </v>
   <v>      -0.60594928       0.70002517       0.61796461 </v>
  </varray>
  <varray name="stress" >
   <v>     283.58511020       3.84962125       3.43136836 </v>
   <v>       3.84962043     249.08370192      -2.40963930 </v>
   <v>       3.43136624      -2.40964106     278.40608019 </v>
  </varray>
  <energy>
   <i name="e_fr_energy">   -619.77838830 </i>
   <i name="e_wo_entrp">   -619.70571876 </i>
   <i name="e_0_energy">     -0.14533907 </i>
  </energy>
  <time name="totalsc">  808.11  818.37</time>
 </calculation>
 <calculation>
  <scstep>
   <time name="dav">   29.63   29.74</time>
   <time name="total">   29.91   30.02</time>
   <energy>
    <i name="alphaZ">   3828.39959287 </i>
    <i name="ewald"> -40022.08696037 </i>
    <i name="hartreedc">  -8090.65063832 </i>
    <i name="XCdc">   1597.40201541 </i>
    <i name="pawpsdc">  32293.36153126 </i>
    <i name="pawaedc"> -31806.34742757 </i>
    <i name="eentropy">     -0.15871335 </i>
    <i name="bandstr">  -5292.13942099 </i>
    <i name="atom">  46851.09501822 </i>
    <i name="e_fr_energy">   -641.12500283 </i>
    <i name="e_wo_entrp">   -640.96628948 </i>
    <i name="e_0_energy">   -641.04564615 </i>
   </energy>
  </scstep>
  <scstep>
   <time name="diag">    1.84    1.84</time>
   <time name="diis">   22.24   22.34</time>
   <time name="orth">    0.43    0.43</time>
   <time name="total">   24.79   24.90</time>
   <energy>
    <i name="e_fr_energy">   -804.16231271 </i>
    <i name="e_wo_entrp">   -804.02168149 </i>
    <i name="e_0_energy">   -804.09199710 </i>
   </energy>
  </scstep>
  <scstep>
   <time name="diag">    1.87    1.87</time>
   <time name="diis">   20.65   20.72</time>
   <time name="orth">    0.44    0.47</time>
   <time name="total">   23.24   23.34</time>
   <energy>
    <i name="e_fr_energy">   -639.79676345 </i>
    <i name="e_wo_entrp">   -639.66044405 </i>
    <i name="e_0_energy">   -639.72860375 </i>
   </energy>
  </scstep>
  <scstep>
   <time name="diag">    1.88    1.88</time>
   <time name="diis">   20.54   20.58</time>
   <time name="orth">    0.43    0.43</time>
   <time name="total">   23.12   23.17</time>
   <energy>
    <i name="e_fr_energy">   -627.99095536 </i>
    <i name="e_wo_entrp">   -627.84038282 </i>
    <i name="e_0_energy">   -627.91566909 </i>
   </energy>
  </scstep>
  <scstep>
   <time name="diag">    1.82    1.86</time>
   <time name="diis">   20.33   20.38</time>
   <time name="orth">    0.42    0.43</time>
[...]
      </set>
     </set>
    </set>
   </array>
  </eigenvalues>
  <separator name="orbital magnetization" >
   <v name="MAGDIPOLOUT">      0.00000000      0.00000000      0.00000000</v>
  </separator>
  <dos>
   <i name="efermi">      8.63797992 </i>
   <total>
    <array>
     <dimension dim="1">gridpoints</dimension>
     <dimension dim="2">spin</dimension>
     <field>energy</field>
     <field>total</field>
     <field>integrated</field>
     <set>
      <set comment="spin 1">
       <r>   -52.0496     0.0000     0.0000 </r>
       <r>   -51.8277     0.0000     0.0000 </r>
       <r>   -51.6057     0.0000     0.0000 </r>
       <r>   -51.3837     0.0000     0.0000 </r>
       <r>   -51.1618     0.0000     0.0000 </r>
       <r>   -50.9398     0.0000     0.0000 </r>
       <r>   -50.7178     0.0000     0.0000 </r>
       <r>   -50.4959     0.0000     0.0000 </r>
       <r>   -50.2739     0.0000     0.0000 </r>
       <r>   -50.0519     0.0000     0.0000 </r>
       <r>   -49.8300     0.0000     0.0000 </r>
       <r>   -49.6080     0.0000     0.0000 </r>
       <r>   -49.3860     0.0000     0.0000 </r>
       <r>   -49.1641     0.2205     0.0489 </r>
       <r>   -48.9421    15.0257     3.3842 </r>
       <r>   -48.7201    28.8957     9.7981 </r>
       <r>   -48.4981    15.3610    13.2078 </r>
       <r>   -48.2762     3.5660    13.9993 </r>
       <r>   -48.0542     0.0030    14.0000 </r>
       <r>   -47.8322     0.0000    14.0000 </r>
       <r>   -47.6103     0.0303    14.0067 </r>
       <r>   -47.3883     9.4481    16.1039 </r>
       <r>   -47.1663    15.1471    19.4661 </r>
       <r>   -46.9444    17.4934    23.3491 </r>
       <r>   -46.7224    11.2866    25.8544 </r>
       <r>   -46.5004     0.6561    26.0000 </r>
       <r>   -46.2785     0.0000    26.0000 </r>
       <r>   -46.0565     0.0000    26.0000 </r>
       <r>   -45.8345     0.0000    26.0000 </r>
       <r>   -45.6126     0.0000    26.0000 </r>
       <r>   -45.3906     0.0000    26.0000 </r>
       <r>   -45.1686     0.0000    26.0000 </r>
       <r>   -44.9466     0.0000    26.0000 </r>
       <r>   -44.7247     0.0000    26.0000 </r>
       <r>   -44.5027     0.0000    26.0000 </r>
       <r>   -44.2807     0.0000    26.0000 </r>
       <r>   -44.0588     0.0000    26.0000 </r>
       <r>   -43.8368     0.0000    26.0000 </r>
       <r>   -43.6148     0.0000    26.0000 </r>
       <r>   -43.3929     0.0000    26.0000 </r>
       <r>   -43.1709     0.0000    26.0000 </r>
       <r>   -42.9489     0.0000    26.0000 </r>
       <r>   -42.7270     0.0000    26.0000 </r>
       <r>   -42.5050     0.0000    26.0000 </r>
       <r>   -42.2830     0.0000    26.0000 </r>
       <r>   -42.0611     0.0000    26.0000 </r>
       <r>   -41.8391     0.0000    26.0000 </r>
       <r>   -41.6171     0.0000    26.0000 </r>
       <r>   -41.3951     0.0000    26.0000 </r>
       <r>   -41.1732     0.0000    26.0000 </r>
       <r>   -40.9512     0.0000    26.0000 </r>
       <r>   -40.7292     0.0013    26.0003 </r>
       <r>   -40.5073     2.8225    26.6268 </r>
       <r>   -40.2853     7.6289    28.3202 </r>
       <r>   -40.0633    12.1092    31.0080 </r>
       <r>   -39.8414    31.6702    38.0378 </r>
       <r>   -39.6194     8.8181    39.9952 </r>
       <r>   -39.3974     0.0218    40.0000 </r>
       <r>   -39.1755     0.0000    40.0000 </r>
       <r>   -38.9535     0.0000    40.0000 </r>
       <r>   -38.7315     0.0000    40.0000 </r>
       <r>   -38.5096     0.0000    40.0000 </r>
       <r>   -38.2876     0.0000    40.0000 </r>
       <r>   -38.0656     0.0000    40.0000 </r>
       <r>   -37.8436     0.0000    40.0000 </r>
       <r>   -37.6217     0.0000    40.0000 </r>
       <r>   -37.3997     0.0000    40.0000 </r>
       <r>   -37.1777     0.0000    40.0000 </r>
       <r>   -36.9558     0.0000    40.0000 </r>
       <r>   -36.7338     0.0000    40.0000 </r>
       <r>   -36.5118     0.0000    40.0000 </r>
       <r>   -36.2899     0.0000    40.0000 </r>
       <r>   -36.0679     0.0000    40.0000 </r>
       <r>   -35.8459     0.0000    40.0000 </r>
       <r>   -35.6240     0.0000    40.0000 </r>
       <r>   -35.4020     0.1021    40.0227 </r>
       <r>   -35.1800     8.7136    41.9568 </r>
       <r>   -34.9580    49.7292    52.9952 </r>
       <r>   -34.7361    95.7439    74.2473 </r>
       <r>   -34.5141     7.8935    75.9994 </r>
       <r>   -34.2921     0.0025    76.0000 </r>
       <r>   -34.0702     0.0000    76.0000 </r>
       <r>   -33.8482     0.0000    76.0000 </r>
       <r>   -33.6262     0.0000    76.0000 </r>
       <r>   -33.4043     0.0000    76.0000 </r>
       <r>   -33.1823     0.0000    76.0000 </r>
       <r>   -32.9603     0.0000    76.0000 </r>
       <r>   -32.7384     0.0000    76.0000 </r>
       <r>   -32.5164     0.0000    76.0000 </r>
       <r>   -32.2944     0.0000    76.0000 </r>
       <r>   -32.0725     0.0000    76.0000 </r>
       <r>   -31.8505     0.0000    76.0000 </r>
       <r>   -31.6285     0.0000    76.0000 </r>
       <r>   -31.4065     0.0000    76.0000 </r>
       <r>   -31.1846     0.0000    76.0000 </r>
       <r>   -30.9626     0.0000    76.0000 </r>
       <r>   -30.7406     0.0000    76.0000 </r>
       <r>   -30.5187     0.0000    76.0000 </r>
       <r>   -30.2967     0.0000    76.0000 </r>
       <r>   -30.0747     0.0000    76.0000 </r>
       <r>   -29.8528     0.0000    76.0000 </r>
       <r>   -29.6308     0.0000    76.0000 </r>
       <r>   -29.4088     0.0000    76.0000 </r>
       <r>   -29.1869     0.0000    76.0000 </r>
       <r>   -28.9649     0.0000    76.0000 </r>
       <r>   -28.7429     0.0000    76.0000 </r>
       <r>   -28.5210     0.0000    76.0000 </r>
       <r>   -28.2990     0.0000    76.0000 </r>
       <r>   -28.0770     0.0000    76.0000 </r>
       <r>   -27.8550     0.0000    76.0000 </r>
       <r>   -27.6331     0.0000    76.0000 </r>
       <r>   -27.4111     0.0000    76.0000 </r>
       <r>   -27.1891     0.0000    76.0000 </r>
       <r>   -26.9672     0.0000    76.0000 </r>
       <r>   -26.7452     0.0000    76.0000 </r>
       <r>   -26.5232     0.0000    76.0000 </r>
       <r>   -26.3013     0.0000    76.0000 </r>
       <r>   -26.0793     0.0000    76.0000 </r>
       <r>   -25.8573     0.0000    76.0000 </r>
       <r>   -25.6354     0.1199    76.0266 </r>
       <r>   -25.4134    20.9434    80.6754 </r>
       <r>   -25.1914    66.2542    95.3817 </r>
       <r>   -24.9695    76.5506   112.3736 </r>
       <r>   -24.7475    24.8290   117.8849 </r>
       <r>   -24.5255     0.5187   118.0000 </r>
       <r>   -24.3035     0.0000   118.0000 </r>
       <r>   -24.0816     0.0000   118.0000 </r>
       <r>   -23.8596     0.2720   118.0604 </r>
       <r>   -23.6376    13.8769   121.1406 </r>
       <r>   -23.4157    37.9506   129.5644 </r>
       <r>   -23.1937    57.4577   142.3183 </r>
       <r>   -22.9717    35.9795   150.3046 </r>
       <r>   -22.7498    16.5296   153.9736 </r>
       <r>   -22.5278     0.1188   154.0000 </r>
       <r>   -22.3058     0.0000   154.0000 </r>
       <r>   -22.0839     0.0000   154.0000 </r>
       <r>   -21.8619     0.0000   154.0000 </r>
       <r>   -21.6399     0.0000   154.0000 </r>
       <r>   -21.4180     0.0000   154.0000 </r>
       <r>   -21.1960     0.0000   154.0000 </r>
       <r>   -20.9740     0.0000   154.0000 </r>
       <r>   -20.7520     0.0000   154.0000 </r>
       <r>   -20.5301     0.0000   154.0000 </r>
       <r>   -20.3081     0.0000   154.0000 </r>
       <r>   -20.0861     0.0000   154.0000 </r>
       <r>   -19.8642     0.0000   154.0000 </r>
       <r>   -19.6422     0.0000   154.0000 </r>
       <r>   -19.4202     0.0000   154.0000 </r>
       <r>   -19.1983     0.0000   154.0000 </r>
       <r>   -18.9763     1.0025   154.2225 </r>
       <r>   -18.7543    19.7115   158.5979 </r>
       <r>   -18.5324    29.1097   165.0593 </r>
       <r>   -18.3104    69.7908   180.5507 </r>
       <r>   -18.0884    52.6034   192.2270 </r>
       <r>   -17.8664    15.3623   195.6370 </r>
       <r>   -17.6445     1.6353   195.9999 </r>
       <r>   -17.4225     0.0002   196.0000 </r>
       <r>   -17.2005     0.0000   196.0000 </r>
       <r>   -16.9786     0.0000   196.0000 </r>
       <r>   -16.7566     0.0000   196.0000 </r>
       <r>   -16.5346     0.0000   196.0000 </r>
       <r>   -16.3127     0.0000   196.0000 </r>
       <r>   -16.0907     0.0000   196.0000 </r>
       <r>   -15.8687     0.0000   196.0000 </r>
       <r>   -15.6468     0.0000   196.0000 </r>
       <r>   -15.4248     0.0000   196.0000 </r>
       <r>   -15.2028     0.0000   196.0000 </r>
       <r>   -14.9809     0.0000   196.0000 </r>
       <r>   -14.7589     0.0000   196.0000 </r>
       <r>   -14.5369     0.0000   196.0000 </r>
       <r>   -14.3149     0.0000   196.0000 </r>
       <r>   -14.0930     0.0000   196.0000 </r>
       <r>   -13.8710     0.0000   196.0000 </r>
       <r>   -13.6490     0.0000   196.0000 </r>
       <r>   -13.4271     0.0000   196.0000 </r>
       <r>   -13.2051     0.0000   196.0000 </r>
       <r>   -12.9831     0.0000   196.0000 </r>
       <r>   -12.7612     0.0000   196.0000 </r>
       <r>   -12.5392     0.0000   196.0000 </r>
       <r>   -12.3172     0.0000   196.0000 </r>
       <r>   -12.0953     0.0000   196.0000 </r>
       <r>   -11.8733     0.0000   196.0000 </r>
       <r>   -11.6513     0.0000   196.0000 </r>
       <r>   -11.4294     0.0000   196.0000 </r>
       <r>   -11.2074     0.0000   196.0000 </r>
       <r>   -10.9854     0.0000   196.0000 </r>
       <r>   -10.7634     0.0000   196.0000 </r>
       <r>   -10.5415     0.0000   196.0000 </r>
       <r>   -10.3195     0.0000   196.0000 </r>
       <r>   -10.0975     0.0000   196.0000 </r>
       <r>    -9.8756     0.0000   196.0000 </r>
       <r>    -9.6536     0.0000   196.0000 </r>
       <r>    -9.4316     0.0000   196.0000 </r>
       <r>    -9.2097     0.0000   196.0000 </r>
       <r>    -8.9877     0.0000   196.0000 </r>
       <r>    -8.7657     0.0000   196.0000 </r>
       <r>    -8.5438     0.0000   196.0000 </r>
       <r>    -8.3218     0.0000   196.0000 </r>
       <r>    -8.0998     0.0000   196.0000 </r>
       <r>    -7.8779     0.0000   196.0000 </r>
       <r>    -7.6559     0.0001   196.0000 </r>
       <r>    -7.4339     0.3582   196.0795 </r>
       <r>    -7.2119     6.6844   197.5633 </r>
       <r>    -6.9900     8.2954   199.4046 </r>
       <r>    -6.7680    11.2296   201.8972 </r>
       <r>    -6.5460     9.4818   204.0018 </r>
       <r>    -6.3241    13.1548   206.9218 </r>
       <r>    -6.1021    18.5354   211.0361 </r>
       <r>    -5.8801    26.9824   217.0253 </r>
       <r>    -5.6582    16.0079   220.5786 </r>
       <r>    -5.4362     6.3620   221.9907 </r>
       <r>    -5.2142     0.0417   222.0000 </r>
       <r>    -4.9923     0.0000   222.0000 </r>
       <r>    -4.7703     0.0000   222.0000 </r>
       <r>    -4.5483     0.0000   222.0000 </r>
       <r>    -4.3264     0.0000   222.0000 </r>
       <r>    -4.1044     0.0003   222.0001 </r>
       <r>    -3.8824     0.4224   222.0938 </r>
       <r>    -3.6604     4.9744   223.1980 </r>
       <r>    -3.4385     4.4132   224.1776 </r>
       <r>    -3.2165    10.1616   226.4331 </r>
       <r>    -2.9945    14.5633   229.6657 </r>
       <r>    -2.7726    21.4454   234.4259 </r>
       <r>    -2.5506    22.5888   239.4399 </r>
       <r>    -2.3286    26.2808   245.2735 </r>
       <r>    -2.1067    22.3042   250.2243 </r>
       <r>    -1.8847    18.2560   254.2766 </r>
       <r>    -1.6627    14.0385   257.3927 </r>
       <r>    -1.4408     8.0698   259.1839 </r>
       <r>    -1.2188     3.1217   259.8768 </r>
       <r>    -0.9968     0.5539   259.9997 </r>
       <r>    -0.7748     0.0011   260.0000 </r>
       <r>    -0.5529     0.0000   260.0000 </r>
       <r>    -0.3309     0.0000   260.0000 </r>
       <r>    -0.1089     0.0000   260.0000 </r>
       <r>     0.1130     0.0000   260.0000 </r>
       <r>     0.3350     0.0000   260.0000 </r>
       <r>     0.5570     0.0000   260.0000 </r>
       <r>     0.7789     0.0002   260.0000 </r>
       <r>     1.0009     0.1726   260.0383 </r>
       <r>     1.2229     1.5500   260.3824 </r>
       <r>     1.4448     6.9488   261.9248 </r>
       <r>     1.6668    10.8737   264.3384 </r>
       <r>     1.8888    15.1509   267.7015 </r>
       <r>     2.1107    19.9996   272.1408 </r>
       <r>     2.3327    27.1377   278.1645 </r>
       <r>     2.5547    31.9966   285.2667 </r>
       <r>     2.7767    27.3615   291.3401 </r>
       <r>     2.9986    36.0624   299.3448 </r>
       <r>     3.2206    39.7212   308.1617 </r>
       <r>     3.4426    43.0757   317.7232 </r>
       <r>     3.6645    47.0362   328.1638 </r>
       <r>     3.8865    58.2915   341.1026 </r>
       <r>     4.1085    64.3963   355.3966 </r>
       <r>     4.3304    64.3548   369.6814 </r>
       <r>     4.5524    63.0266   383.6713 </r>
       <r>     4.7744    57.6391   396.4654 </r>
       <r>     4.9963    51.1432   407.8176 </r>
       <r>     5.2183    45.3130   417.8757 </r>
       <r>     5.4403    37.3511   426.1665 </r>
       <r>     5.6622    31.1007   433.0698 </r>
       <r>     5.8842    28.0878   439.3045 </r>
       <r>     6.1062    22.7370   444.3514 </r>
       <r>     6.3282    17.3537   448.2034 </r>
       <r>     6.5501    13.0669   451.1038 </r>
       <r>     6.7721     8.2851   452.9428 </r>
       <r>     6.9941    14.7803   456.2236 </r>
       <r>     7.2160    18.2533   460.2753 </r>
       <r>     7.4380    19.1717   464.5308 </r>
       <r>     7.6600    25.6896   470.2331 </r>
       <r>     7.8819    20.7929   474.8484 </r>
       <r>     8.1039    22.8652   479.9238 </r>
       <r>     8.3259    29.7461   486.5265 </r>
       <r>     8.5478    28.7421   492.9064 </r>
       <r>     8.7698    24.1909   498.2760 </r>
       <r>     8.9918    30.7703   505.1061 </r>
       <r>     9.2137    41.2283   514.2575 </r>
       <r>     9.4357    44.8982   524.2235 </r>
       <r>     9.6577    50.5246   535.4383 </r>
       <r>     9.8797    52.0106   546.9831 </r>
       <r>    10.1016    54.7401   559.1337 </r>
       <r>    10.3236    53.9945   571.1188 </r>
       <r>    10.5456    51.7792   582.6121 </r>
       <r>    10.7675    51.9823   594.1506 </r>
       <r>    10.9895    51.2833   605.5339 </r>
       <r>    11.2115    50.5109   616.7457 </r>
       <r>    11.4334    28.8718   623.1543 </r>
       <r>    11.6554     3.7803   623.9934 </r>
       <r>    11.8774     0.0295   624.0000 </r>
       <r>    12.0993     0.0000   624.0000 </r>
       <r>    12.3213     0.0000   624.0000 </r>
       <r>    12.5433     0.0000   624.0000 </r>
       <r>    12.7652     0.0000   624.0000 </r>
       <r>    12.9872     0.0000   624.0000 </r>
       <r>    13.2092     0.0000   624.0000 </r>
       <r>    13.4312     0.0000   624.0000 </r>
       <r>    13.6531     0.0000   624.0000 </r>
       <r>    13.8751     0.0000   624.0000 </r>
       <r>    14.0971     0.0000   624.0000 </r>
       <r>    14.3190     0.0000   624.0000 </r>
       <r>    14.5410     0.0000   624.0000 </r>
      </set>
     </set>
    </array>
   </total>
  </dos>
 </calculation>
 <structure name="finalpos" >
  <crystal>
   <varray name="basis" >
    <v>       8.81302802       0.02020095      -0.00570861 </v>
    <v>       0.02654808       8.81096143       0.00590986 </v>
    <v>       0.02590733      -0.00937557       8.79741822 </v>
   </varray>
   <i name="volume">    683.12759925 </i>
   <varray name="rec_basis" >
    <v>       0.11346895      -0.00034167      -0.00033452 </v>
    <v>      -0.00026007       0.11349569       0.00012172 </v>
    <v>       0.00007380      -0.00007646       0.11366941 </v>
   </varray>
  </crystal>
  <varray name="positions" >
   <v>       0.99901317       0.99696503       0.99778767 </v>
   <v>       0.26755444       0.00294035       0.24632492 </v>
   <v>       0.24233353       0.49457246       0.24524022 </v>
   <v>       0.50258718       0.49955846       0.00123125 </v>
   <v>       0.50864860       0.24629725       0.74116396 </v>
   <v>      -0.00290141       0.50232889       0.50134769 </v>
   <v>       0.49718979       0.75878957       0.74819431 </v>
   <v>       0.98745961       0.24000433       0.25268788 </v>
   <v>       0.75679918       0.74431642       0.01387193 </v>
   <v>       0.00059199       0.25109187       0.75001351 </v>
   <v>       0.75291039       0.24549520       0.49675372 </v>
   <v>      -0.00072205       0.74994856       0.74918319 </v>
   <v>       0.25146552       0.49396052       0.74882207 </v>
   <v>       0.25743996       0.24189781       0.98944025 </v>
   <v>       0.51153785       0.25645909       0.25374036 </v>
   <v>       0.73258011       0.99110922       0.26524310 </v>
   <v>       0.74617172       0.24637774      -0.00041304 </v>
   <v>       0.24803630       0.74856891      -0.00423253 </v>
   <v>       0.25155019       0.24661507       0.50505099 </v>
   <v>       0.24978836       0.75192528       0.50284576 </v>
   <v>       0.25062929       0.24828072       0.24778430 </v>
   <v>       0.25831016       0.00182140       0.99102762 </v>
   <v>       0.00161941       0.25466228       0.00058553 </v>
   <v>       0.74414596       0.23859137       0.24549896 </v>
   <v>       0.74230991       0.00010097       0.00422069 </v>
   <v>       0.51084228       0.00311900       0.26216904 </v>
   <v>       0.99207760       0.49827449       0.24350250 </v>
   <v>       0.49742469       0.76412768       0.00824334 </v>
   <v>       0.98640437       0.00384350       0.74185790 </v>
   <v>       0.75675760       0.24710866       0.75329103 </v>
   <v>       0.75527457       0.00590639       0.49296883 </v>
   <v>       0.49832004       0.24498772       0.48871732 </v>
   <v>       0.52663987       0.00151533       0.74423023 </v>
   <v>       0.99663826       0.00101989       0.25353868 </v>
   <v>       0.50249863       0.23776412       0.00271376 </v>
   <v>       0.25575866       0.74979867       0.24957281 </v>
   <v>       0.24092923       0.50079386       0.99272701 </v>
   <v>       0.00394840       0.73884903       0.00421560 </v>
   <v>       0.74583750       0.74613861       0.25437281 </v>
   <v>       0.76467190       0.49432660       0.00786101 </v>
   <v>       0.49773441       0.50380243       0.25108483 </v>
   <v>       0.24961672       0.24531228       0.74810862 </v>
   <v>       0.25850960       0.00033839       0.51567709 </v>
   <v>       0.00444808       0.24792279       0.50025182 </v>
   <v>       0.24280391       0.75857744       0.75066347 </v>
   <v>       0.25486572       0.50225789       0.50122815 </v>
   <v>       0.00037795       0.75862218       0.50018817 </v>
   <v>       0.00105139       0.50182958       0.75558140 </v>
   <v>       0.75159525       0.75641106       0.75109355 </v>
   <v>       0.74355929       0.49664553       0.50820485 </v>
   <v>       0.49733428       0.76534642       0.48420792 </v>
   <v>       0.50358676       0.50298070       0.74278371 </v>
   <v>       0.52122728       0.01002834       0.96943319 </v>
   <v>       0.99368484       0.51160273       0.97853321 </v>
   <v>       0.47510730       0.73280981       0.25566690 </v>
   <v>       0.21849089       0.01615991       0.74389056 </v>
   <v>       0.47500384       0.99320513       0.51487746 </v>
   <v>       0.74068422       0.96946545       0.78248894 </v>
   <v>       0.01622060       0.76761942       0.25711841 </v>
   <v>       0.73735309       0.49322044       0.25835343 </v>
   <v>       0.02057585       0.00367872       0.49720580 </v>
   <v>       0.50420464       0.51935974       0.48740071 </v>
   <v>       0.75500768       0.51732267       0.76263359 </v>
   <v>       0.74588405       0.73522839       0.48992815 </v>
  </varray>
 </structure>
</modeling>
