HECN                                    
           1
     8.932500    0.000000    0.000000
     0.005753    9.055598    0.000000
     0.032102   -0.015743    8.937128
   Zr   Nb   Ti   N    C    Cr   Mo
   7   6   7  13  19   6   6
Direct configuration=     1
   0.99688001  0.99204997  0.99924002
   0.25398003  0.99714995  0.24912000
   0.24803003  0.50165000  0.24955001
   0.50501006  0.49745998  0.99834003
   0.50479003  0.24631001  0.74710002
   0.99427992  0.50449999  0.49779000
   0.49950005  0.75481999  0.74817004
   0.99437004  0.23617001  0.26379999
   0.75718000  0.74102998  0.01100000
   0.00201000  0.25541000  0.73894001
   0.75307001  0.26163001  0.50533002
   0.99514004  0.74492004  0.74511997
   0.25679999  0.49462002  0.74545002
   0.24788999  0.24839000  0.99657997
   0.50833000  0.25676999  0.25376001
   0.74879004  0.98787999  0.26967001
   0.75719000  0.25603001  0.99591997
   0.24762001  0.74973999  0.99974006
   0.25272001  0.24823001  0.50015003
   0.24457999  0.75048999  0.49983999
   0.24982001  0.24942998  0.24825000
   0.26146999  0.99984002  0.99295996
   0.00281000  0.25024000  0.00130000
   0.75313998  0.24617000  0.25492002
   0.74767001  0.99748000  0.01202000
   0.50714994  0.99977000  0.24673000
   0.99051999  0.48088002  0.24100998
   0.50519005  0.76130999  0.00855000
   0.98896989  0.00202000  0.73708999
   0.75744996  0.24437997  0.74896999
   0.73632001  0.00417000  0.51063000
   0.50563996  0.23264999  0.49544997
   0.50008998  0.00061000  0.73471998
   0.99720000  0.99771992  0.25899999
   0.50427997  0.24673000  0.00262000
   0.25133999  0.74958002  0.24910999
   0.24328000  0.50072997  0.99510994
   0.99837005  0.74313996  0.00460000
   0.75633000  0.73891003  0.25767000
   0.75839004  0.50315998  0.00288000
   0.50700002  0.50333002  0.25878999
   0.24900999  0.25315000  0.74854000
   0.24446000  0.99823996  0.50287998
   0.99804009  0.24229999  0.50128003
   0.24177002  0.75340997  0.75018002
   0.25841001  0.50062002  0.50129001
   0.99000004  0.76215003  0.49746000
   0.99203996  0.50055999  0.75138002
   0.75036005  0.74888000  0.74756004
   0.74036002  0.50197000  0.50067003
   0.50575006  0.74958002  0.49720000
   0.50501003  0.50217998  0.73912003
   0.51588997  0.01358000  0.98075008
   0.99841994  0.50976998  0.98613004
   0.50379003  0.73926997  0.25905001
   0.23780002  0.01082000  0.74607998
   0.47957999  0.98308000  0.49717999
   0.74279003  0.97869994  0.76450995
   0.99864998  0.77573999  0.26102000
   0.73551001  0.51468004  0.26666001
   0.02362000  0.99783001  0.49557002
   0.50539000  0.52833005  0.49917999
   0.73876003  0.52828003  0.73814999
   0.75400003  0.72937999  0.49116997
HECN                                    
           1
     8.537846    0.020626   -0.010918
     0.026409    8.656240    0.001953
     0.019723   -0.013040    8.551537
   Zr   Nb   Ti   N    C    Cr   Mo
   7   6   7  13  19   6   6
Direct configuration=     2
   0.99647001  0.99654109  0.99450682
   0.26359654  0.99876709  0.24470351
   0.24732742  0.50002301  0.24646802
   0.50228409  0.49818173  0.00089296
   0.50472012  0.23879532  0.74610642
   0.99829624  0.50253781  0.49817949
   0.49502001  0.76495683  0.75276533
   0.99331855  0.23510623  0.26018631
   0.75504032  0.74373606  0.01152302
   0.00334210  0.25319718  0.74341356
   0.74908355  0.25539706  0.50371961
   0.99914490  0.74659578  0.74846911
   0.25328341  0.49577372  0.74846792
   0.24857318  0.24865617  0.99430652
   0.51043188  0.25262184  0.25317442
   0.74236164  0.99003361  0.27057948
   0.75552600  0.25583505  0.99542428
   0.24651896  0.74874984  0.99932755
   0.25350436  0.24710498  0.50202043
   0.24595398  0.75143462  0.50041027
   0.25162340  0.24937014  0.24889526
   0.26003425  0.00033668  0.99159713
   0.00235182  0.24997078  0.00045748
   0.74990902  0.24470488  0.25332025
   0.74412564  0.99893948  0.00814135
   0.51028561  0.99974317  0.24955895
   0.99196381  0.48224880  0.24216747
   0.50346848  0.76079419  0.00739217
   0.98928499  0.00221391  0.74088830
   0.75643050  0.24405435  0.75197814
   0.73700524  0.00369863  0.50551227
   0.50273929  0.23324273  0.49222875
   0.50249677  0.00022312  0.73816577
   0.99369590  0.00160466  0.25549586
   0.50534893  0.24309877  0.00484753
   0.25266183  0.74890822  0.24923947
   0.24192180  0.50149113  0.99489707
   0.00255212  0.73973215  0.00350787
   0.75222220  0.74529872  0.25343000
   0.76188671  0.49947696  0.00240344
   0.50249073  0.50267943  0.25569118
   0.24817171  0.24955839  0.74839239
   0.25458661  0.99718561  0.50783449
   0.00186897  0.24498563  0.50153451
   0.24192828  0.75405702  0.75013572
   0.25647070  0.50135926  0.50090319
   0.99656218  0.76001494  0.50070719
   0.99379613  0.50076714  0.75496383
   0.75021803  0.75797974  0.74949351
   0.74474453  0.49726589  0.50224711
   0.50037354  0.75769338  0.49171177
   0.50068394  0.50141615  0.74336321
   0.51913715  0.01571398  0.98091200
   0.99896613  0.51104472  0.98296782
   0.50416290  0.73781956  0.25893789
   0.23729851  0.01318655  0.74661902
   0.47658423  0.98353590  0.49782022
   0.74015030  0.97441030  0.76683816
   0.00105587  0.77353817  0.25846399
   0.73545804  0.51026030  0.26035689
   0.02043862  0.99977383  0.49959900
   0.50292281  0.52443749  0.49651192
   0.74296712  0.52035670  0.74316823
   0.75315779  0.73776314  0.49205731
HECN                                    
           1
     8.733859    0.010382   -0.005496
     0.016150    8.854589    0.000983
     0.025871   -0.014383    8.743049
   Zr   Nb   Ti   N    C    Cr   Mo
   7   6   7  13  19   6   6
Direct configuration=     3
   0.99669194  0.99420647  0.99696448
   0.25860452  0.99793820  0.24698977
   0.24769251  0.50086713  0.24806804
   0.50369980  0.49780366 -0.00043028
   0.50474755  0.24269965  0.74662130
   0.99620648  0.50356235  0.49797442
   0.49735780  0.75968488  0.75038427
   0.99386600  0.23565721  0.26206262
   0.75615525  0.74232743  0.01125328
   0.00264409  0.25434913  0.74109034
   0.75114818  0.25863049  0.50455742
   0.99706374  0.74573045  0.74672823
   0.25511018  0.49517029  0.74690390
   0.24822003  0.24851843  0.99548617
   0.50933480  0.25477970  0.25347648
   0.74570416  0.98890678  0.27011193
   0.75639075  0.25593423  0.99568266
   0.24709012  0.74926290  0.99954228
   0.25309411  0.24769073  0.50104892
   0.24524083  0.75094557  0.50011346
   0.25068580  0.24940355  0.24855912
   0.26078185  0.00007668  0.99230554
   0.00259013  0.25011000  0.00089508
   0.75158713  0.24546194  0.25415260
   0.74597185  0.99817629  0.01015715
   0.50865429  0.99976134  0.24808845
   0.99121453  0.48153953  0.24156587
   0.50436318  0.76105992  0.00799424
   0.98911896  0.00211401  0.73891654
   0.75695782  0.24422265  0.75041735
   0.73665200  0.00394376  0.50816820
   0.50424947  0.23293076  0.49390277
   0.50124333  0.00042754  0.73637553
   0.99552402 -0.00041857  0.25731753
   0.50478735  0.24498710  0.00369015
   0.25197402  0.74925893  0.24917131
   0.24262867  0.50109394  0.99500856
   0.00037538  0.74150784  0.00407157
   0.75436770  0.74197364  0.25563433
   0.76006537  0.50139487  0.00264804
   0.50483514  0.50301151  0.25730258
   0.24860283  0.25142349  0.74846913
   0.24931986  0.99774658  0.50525592
  -0.00011739  0.24359497  0.50140020
   0.24184690  0.75372101  0.75015868
   0.25747962  0.50097271  0.50110535
   0.99314740  0.76113282  0.49901707
   0.99288144  0.50066212  0.75310245
   0.75030211  0.75325170  0.74849110
   0.74245916  0.49971571  0.50142503
   0.50318134  0.75347046  0.49456507
   0.50292810  0.50180820  0.74116350
   0.51745242  0.01460923  0.98082605
   0.99868605  0.51038267  0.98460901
   0.50396738  0.73857362  0.25899567
   0.23756176  0.01195637  0.74633984
   0.47814107  0.98329540  0.49748994
   0.74151497  0.97663616  0.76563090
  -0.00019540  0.77468487  0.25978886
   0.73548364  0.51255590  0.26362813
   0.02209154  0.99876041  0.49751004
   0.50420167  0.52645663  0.49789799
   0.74076755  0.52447938  0.74055968
   0.75360552  0.73340643  0.49159829
HECN                                    
           1
     8.764916    0.028818   -0.009489
     0.034905    8.847844   -0.000535
     0.021958   -0.015813    8.776331
   Zr   Nb   Ti   N    C    Cr   Mo
   7   6   7  13  19   6   6
Direct configuration=     4
   0.99685845  0.99807459  0.99264461
   0.26618700  0.99977650  0.24315833
   0.24627828  0.49863185  0.24570400
   0.50124287  0.49839127  0.00141308
   0.50436947  0.23741225  0.74632661
   0.00045843  0.50159837  0.49856381
   0.49336490  0.76597170  0.75417049
   0.99355165  0.23573268  0.25711592
   0.75385583  0.74572521  0.01061538
   0.00337055  0.25159371  0.74682026
   0.74800196  0.25141446  0.50313505
   0.00026542  0.74791940  0.75073162
   0.25127665  0.49630899  0.74992843
   0.24949842  0.24813984  0.99370588
   0.51063911  0.25082052  0.25234917
   0.73949229  0.99160320  0.26986760
   0.75415658  0.25502110  0.99566935
   0.24641740  0.74868526  0.99936905
   0.25422953  0.24623250  0.50225765
   0.24700612  0.75209137  0.50042002
   0.25292959  0.24907738  0.24897634
   0.26035777  0.00066386  0.99005971
   0.00233945  0.25115466  0.00027320
   0.74739463  0.24374681  0.25124855
   0.74184205  0.00041048  0.00593164
   0.51259609  0.99980961  0.25026262
   0.99218469  0.48457700  0.24131313
   0.50166524  0.76161438  0.00775385
   0.98925694  0.00246033  0.74241677
   0.75592372  0.24413035  0.75403527
   0.73843045  0.00280381  0.50380997
   0.50039910  0.23429554  0.49050523
   0.50368058  0.00063756  0.74025906
   0.99285106  0.00218018  0.25386281
   0.50531505  0.24126343  0.00617331
   0.25424511  0.74883519  0.24904340
   0.24066191  0.50165937  0.99472010
   0.00477608  0.73839626  0.00360518
   0.74929999  0.74862576  0.25188064
   0.76355247  0.49701726  0.00241827
   0.49952902  0.50182216  0.25413278
   0.24855651  0.24737876  0.74843672
   0.25906209  0.99705310  0.51006097
   0.00410612  0.24641526  0.50166424
   0.24239051  0.75514402  0.75044208
   0.25582847  0.50150909  0.50052411
   0.00012473  0.75867290  0.50207939
   0.99524642  0.50057606  0.75659553
   0.74986603  0.76080245  0.74984852
   0.74619653  0.49633174  0.50250736
   0.49741307  0.76182012  0.48981045
   0.49919417  0.50141297  0.74489712
   0.52036835  0.01537402  0.98113692
   0.99959736  0.51065392  0.98227754
   0.50342087  0.73730667  0.25791725
   0.23623282  0.01389158  0.74751388
   0.47597121  0.98449000  0.49745857
   0.73856248  0.97438479  0.76886185
   0.00290522  0.77116986  0.25581708
   0.73729008  0.50740890  0.25647375
   0.01930833  0.00165276  0.50162272
   0.50184528  0.52171667  0.49555527
   0.74528788  0.51721315  0.74804939
   0.75147394  0.74129484  0.49380126
HECN                                    
           1
     8.763551    0.028008   -0.009313
     0.034081    8.848140   -0.000468
     0.022130   -0.015750    8.774867
   Zr   Nb   Ti   N    C    Cr   Mo
   7   6   7  13  19   6   6
Direct configuration=     5
   0.99685160  0.99790444  0.99283379
   0.26585505  0.99969633  0.24332599
   0.24634008  0.49873009  0.24580759
   0.50135053  0.49836518  0.00133239
   0.50438555  0.23764487  0.74633956
   0.00027195  0.50168517  0.49853792
   0.49354035  0.76569469  0.75400469
   0.99356553  0.23572936  0.25733259
   0.75395691  0.74557550  0.01064334
   0.00333835  0.25171498  0.74656929
   0.74813915  0.25173169  0.50319746
   0.00012528  0.74782335  0.75055619
   0.25144464  0.49625852  0.74979602
   0.24944241  0.24815662  0.99378383
   0.51058161  0.25099485  0.25239855
   0.73976470  0.99148399  0.26987840
   0.75425438  0.25506108  0.99566999
   0.24644682  0.74871061  0.99937666
   0.25417962  0.24629676  0.50220470
   0.24692888  0.75204112  0.50040655
   0.25283124  0.24909193  0.24895802
   0.26037645  0.00063800  0.99015808
   0.00235054  0.25110868  0.00030044
   0.74757821  0.24382191  0.25137584
   0.74202327  0.00031182  0.00611678
   0.51242336  0.99980783  0.25016732
   0.99214248  0.48444344  0.24132416
   0.50178350  0.76158974  0.00776443
   0.98925086  0.00244508  0.74226346
   0.75596895  0.24413430  0.75387683
   0.73835251  0.00285416  0.50400083
   0.50056799  0.23423516  0.49065410
   0.50357374  0.00062851  0.74008891
   0.99296848  0.00206561  0.25401416
   0.50529153  0.24142731  0.00606456
   0.25414557  0.74885404  0.24904896
   0.24074814  0.50163431  0.99473277
   0.00458299  0.73853358  0.00362554
   0.74952272  0.74833262  0.25204510
   0.76339929  0.49721019  0.00242830
   0.49976144  0.50187403  0.25427174
   0.24855816  0.24755672  0.74843817
   0.25863511  0.99708447  0.50985032
   0.00392134  0.24629155  0.50165257
   0.24236682  0.75508145  0.75042964
   0.25590087  0.50148534  0.50054960
  -0.00018125  0.75878175  0.50194514
   0.99514273  0.50058004  0.75644248
   0.74988582  0.76047016  0.74978901
   0.74603245  0.49648097  0.50245991
   0.49766667  0.76145224  0.49001875
   0.49935765  0.50142999  0.74473366
   0.52024067  0.01534064  0.98112324
   0.99955750  0.51064208  0.98237964
   0.50344471  0.73736237  0.25796451
   0.23629120  0.01380630  0.74746246
   0.47606639  0.98443724  0.49745998
   0.73869156  0.97448356  0.76872041
   0.00276913  0.77132484  0.25599101
   0.73721059  0.50763558  0.25678712
   0.01943045  0.00152522  0.50144261
   0.50194811  0.52192503  0.49565796
   0.74508900  0.51753323  0.74772131
   0.75156803  0.74094754  0.49370475
HECN                                    
           1
     8.790874    0.029525   -0.005006
     0.035721    8.846385   -0.003097
     0.026537   -0.018366    8.793209
   Zr   Nb   Ti   N    C    Cr   Mo
   7   6   7  13  19   6   6
Direct configuration=     6
   0.99667527  0.99721305  0.99344231
   0.26563760  0.99955959  0.24286170
   0.24527951  0.49774397  0.24632972
   0.50179301  0.49786945  0.00104571
   0.50424427  0.23954187  0.74652511
  -0.00007680  0.50125056  0.50007558
   0.49342393  0.76211670  0.75327935
   0.99248418  0.23618080  0.25630400
   0.75454255  0.74558371  0.00948141
   0.00278308  0.25093910  0.74732969
   0.74938019  0.24873928  0.50282987
  -0.00035729  0.74802842  0.75167433
   0.25103740  0.49553448  0.75003791
   0.25067337  0.24700217  0.99302657
   0.51098254  0.25084410  0.25161459
   0.73862699  0.99236843  0.26883468
   0.75237632  0.25375058  0.99618743
   0.24617813  0.74876497  0.99992164
   0.25446842  0.24516855  0.50271560
   0.24752739  0.75280405  0.49991344
   0.25333848  0.24812135  0.24886231
   0.25989158  0.00125686  0.98934569
   0.00262947  0.25239752  0.00050453
   0.74626845  0.24286996  0.24979414
   0.74151188  0.00158689  0.00306755
   0.51350103  0.00058112  0.25077728
   0.99236601  0.48709171  0.24147185
   0.50050723  0.76225224  0.00796425
   0.98963114  0.00284936  0.74249435
   0.75567751  0.24482079  0.75473426
   0.74145931  0.00263044  0.50185960
   0.49891531  0.23680528  0.49014675
   0.50572424  0.00134936  0.74302670
   0.99396976 -0.00050465  0.25382571
   0.50454525  0.24034436  0.00599087
   0.25537745  0.74950496  0.24877099
   0.23999849  0.50138666  0.99445431
   0.00437488  0.73879922  0.00444535
   0.74722139  0.74915885  0.25303970
   0.76374937  0.49669874  0.00289336
   0.49992098  0.50132793  0.25459657
   0.24890939  0.24657677  0.74837064
   0.25856061  0.99789740  0.51137553
   0.00494958  0.24699368  0.50149837
   0.24230405  0.75596859  0.75095550
   0.25625192  0.50157586  0.50069351
   0.00148284  0.75789851  0.50164456
   0.99692361  0.50047909  0.75669923
   0.74964766  0.75941608  0.74941199
   0.74586867  0.49768339  0.50227518
   0.49663831  0.76186988  0.48894761
   0.49957018  0.50213773  0.74456889
   0.52212263  0.01408171  0.98047510
   0.99932177  0.51088960  0.98106453
   0.50192883  0.73427093  0.25774386
   0.23308402  0.01404887  0.74804759
   0.47642464  0.98544136  0.49727891
   0.73598007  0.97565486  0.77226940
   0.00383772  0.77314013  0.25453691
   0.73593601  0.50808335  0.25520969
   0.02206781  0.00272864  0.50169961
   0.50344937  0.52250751  0.49375946
   0.74665351  0.51830036  0.75235802
   0.74982790  0.74002264  0.49361930
HECN                                    
           1
     8.805790    0.030353   -0.002655
     0.036617    8.845427   -0.004533
     0.028942   -0.019794    8.803222
   Zr   Nb   Ti   N    C    Cr   Mo
   7   6   7  13  19   6   6
Direct configuration=     7
   0.99657920  0.99683562  0.99377377
   0.26551940  0.99948487  0.24260879
   0.24470226  0.49720568  0.24661431
   0.50203396  0.49759867  0.00088933
   0.50416713  0.24057778  0.74662655
  -0.00026698  0.50101352  0.50091333
   0.49336114  0.76016283  0.75288363
   0.99189590  0.23642724  0.25574398
   0.75486160  0.74558795  0.00884823
   0.00248075  0.25051560  0.74774398
   0.75005602  0.24710510  0.50262879
  -0.00062025  0.74814062  0.75228366
   0.25081577  0.49513918  0.75016968
   0.25134364  0.24637155  0.99261349
   0.51120097  0.25076163  0.25118734
   0.73800799  0.99285132  0.26826650
   0.75135418  0.25303523  0.99646962
   0.24603174  0.74879477  0.00021862
   0.25462557  0.24455254  0.50299368
   0.24785318  0.75322051  0.49964476
   0.25361467  0.24759130  0.24880987
   0.25962785  0.00159471  0.98890333
   0.00278108  0.25310130  0.00061586
   0.74555614  0.24235001  0.24893261
   0.74123424  0.00228269  0.00140666
   0.51408730  0.00100339  0.25110942
   0.99248735  0.48853780  0.24155268
   0.49981250  0.76261415  0.00807355
   0.98983801  0.00307013  0.74262011
   0.75551860  0.24519582  0.75520158
   0.74315078  0.00250766  0.50069217
   0.49801572  0.23820877  0.48987120
   0.50689377  0.00174326  0.74462676
   0.99451502 -0.00190826  0.25372235
   0.50413922  0.23975307  0.00595075
   0.25604791  0.74986024  0.24861932
   0.23959059  0.50125146  0.99430277
   0.00426137  0.73894443  0.00489208
   0.74596854  0.74961038  0.25358231
   0.76393983  0.49641950  0.00314654
   0.50000778  0.50102978  0.25477340
   0.24910066  0.24604163  0.74833359
   0.25851956  0.99834155  0.51220662
   0.00550917  0.24737697  0.50141420
   0.24226965  0.75645310  0.75124215
   0.25644293  0.50162528  0.50077183
   0.00238870  0.75741602  0.50148021
   0.99789279  0.50042385  0.75683861
   0.74951826  0.75884046  0.74920649
   0.74577946  0.49833996  0.50217478
   0.49607887  0.76209785  0.48836438
   0.49968582  0.50252415  0.74447918
   0.52314719  0.01339400  0.98012128
   0.99919381  0.51102457  0.98034815
   0.50110418  0.73258294  0.25762355
   0.23133833  0.01418171  0.74836727
   0.47661957  0.98598960  0.49718032
   0.73450327  0.97629526  0.77420382
   0.00441951  0.77413105  0.25374472
   0.73524270  0.50832771  0.25435072
   0.02350300  0.00338558  0.50183911
   0.50426688  0.52282513  0.49272484
   0.74750365  0.51871985  0.75488382
   0.74888096  0.73951774  0.49357307
HECN                                    
           1
     8.774426    0.027305   -0.001620
     0.033538    8.812714   -0.001491
     0.029857   -0.016730    8.760298
   Zr   Nb   Ti   N    C    Cr   Mo
   7   6   7  13  19   6   6
Direct configuration=     8
   0.99653631  0.99707811  0.99472182
   0.26597162  0.00023234  0.24270415
   0.24410512  0.49599116  0.24715629
   0.50172510  0.49762567  0.00176052
   0.50499260  0.24303374  0.74539024
  -0.00175524  0.50115681  0.50182558
   0.49414833  0.75914012  0.75127873
   0.99064912  0.23552769  0.25513966
   0.75544960  0.74583603  0.00853705
   0.00198872  0.24960235  0.74785568
   0.75144697  0.24503263  0.50198056
  -0.00084373  0.74863102  0.75235151
   0.25104580  0.49431805  0.74956332
   0.25244688  0.24452671  0.99201265
   0.51117029  0.25119320  0.25117072
   0.73787380  0.99288470  0.26730718
   0.74945772  0.25103595  0.99720876
   0.24584478  0.74878360  0.00039984
   0.25498426  0.24417242  0.50318968
   0.24852489  0.75341777  0.49922504
   0.25352611  0.24710200  0.24855336
   0.25836146  0.00202507  0.98879067
   0.00301658  0.25434982  0.00098448
   0.74512400  0.24164754  0.24775402
   0.74267339  0.00286599 -0.00069168
   0.51344515  0.00257498  0.25166766
   0.99251077  0.49082498  0.24252851
   0.49903111  0.76288897  0.00801583
   0.99073494  0.00325292  0.74213022
   0.75534791  0.24567954  0.75525071
   0.74699744  0.00370605  0.49797615
   0.49745372  0.24164392  0.48993175
   0.51024806  0.00078747  0.74803047
   0.99580215 -0.00016183  0.25408964
   0.50313104  0.23884585  0.00510181
   0.25687546  0.74959034  0.24840997
   0.23955521  0.50072096  0.99444592
   0.00346342  0.73937014  0.00566793
   0.74436790  0.74969115  0.25349434
   0.76398045  0.49658732  0.00423450
   0.49901323  0.49971784  0.25404754
   0.24896079  0.24556907  0.74852269
   0.25946203  0.99905599  0.51312876
   0.00584986  0.24730222  0.50108986
   0.24166673  0.75711347  0.75179206
   0.25688137  0.50187233  0.50128489
   0.00249443  0.75790030  0.50031323
   0.99929477  0.50049608  0.75649190
   0.74917803  0.75868810  0.74904125
   0.74556901  0.49828929  0.50288472
   0.49609786  0.76220883  0.48722591
   0.50092328  0.50294255  0.74361730
   0.52430486  0.01204536  0.97817074
   0.99798492  0.51191040  0.97896619
   0.49883322  0.72922022  0.25774939
   0.22650049  0.01454162  0.74910235
   0.47680608  0.98751881  0.49817517
   0.73061344  0.97597399  0.77827345
   0.00533953  0.77182282  0.25388231
   0.73467010  0.50957253  0.25392244
   0.02475553  0.00355011  0.50184546
   0.50572946  0.52212149  0.49075726
   0.75018721  0.51915231  0.75960939
   0.74747494  0.73820077  0.49296064
HECN                                    
           1
     8.780314    0.027877   -0.001815
     0.034116    8.818855   -0.002062
     0.029685   -0.017305    8.768355
   Zr   Nb   Ti   N    C    Cr   Mo
   7   6   7  13  19   6   6
Direct configuration=     9
   0.99654440  0.99703249  0.99454301
   0.26588639  0.00009149  0.24268622
   0.24421770  0.49622006  0.24705396
   0.50178330  0.49762066  0.00159618
   0.50483691  0.24257089  0.74562362
  -0.00147487  0.50112997  0.50165348
   0.49400007  0.75933266  0.75158142
   0.99088403  0.23569721  0.25525357
   0.75533881  0.74578923  0.00859578
   0.00208147  0.24977445  0.74783454
   0.75118506  0.24542297  0.50210273
  -0.00080166  0.74853864  0.75233874
   0.25100251  0.49447270  0.74967765
   0.25223915  0.24487418  0.99212589
   0.51117604  0.25111189  0.25117388
   0.73789906  0.99287836  0.26748813
   0.74981512  0.25141279  0.99706916
   0.24588001  0.74878572  0.00036565
   0.25491672  0.24424403  0.50315269
   0.24839833  0.75338054  0.49930424
   0.25354282  0.24719417  0.24860171
   0.25859999  0.00194406  0.98881192
   0.00297214  0.25411460  0.00091504
   0.74520543  0.24177984  0.24797629
   0.74240220  0.00275587 -0.00029580
   0.51356603  0.00227896  0.25156245
   0.99250623  0.49039412  0.24234459
   0.49917829  0.76283723  0.00802672
   0.99056595  0.00321839  0.74222266
   0.75538003  0.24558841  0.75524147
   0.74627267  0.00347985  0.49848863
   0.49755937  0.24099675  0.48992054
   0.50961631  0.00096755  0.74738844
   0.99555957 -0.00049093  0.25402050
   0.50332100  0.23901678  0.00526186
   0.25671958  0.74964113  0.24844946
   0.23956191  0.50082092  0.99441888
   0.00361373  0.73929004  0.00552159
   0.74466942  0.74967603  0.25351090
   0.76397281  0.49655577  0.00402929
   0.49920065  0.49996504  0.25418435
   0.24898718  0.24565813  0.74848699
   0.25928446  0.99892138  0.51295488
   0.00578568  0.24731626  0.50115104
   0.24178028  0.75698912  0.75168836
   0.25679877  0.50182579  0.50118814
   0.00247446  0.75780898  0.50053339
   0.99903065  0.50048236  0.75655734
   0.74924213  0.75871682  0.74907240
   0.74560867  0.49829889  0.50275080
   0.49609425  0.76218785  0.48744067
   0.50069012  0.50286359  0.74377993
   0.52408681  0.01229926  0.97853860
   0.99821256  0.51174349  0.97922690
   0.49926124  0.72985393  0.25772539
   0.22741184  0.01447416  0.74896361
   0.47677087  0.98723075  0.49798762
   0.73134632  0.97603502  0.77750569
   0.00516637  0.77225766  0.25385623
   0.73477788  0.50933801  0.25400329
   0.02451957  0.00351903  0.50184430
   0.50545394  0.52225384  0.49112839
   0.74968175  0.51907096  0.75871810
   0.74773987  0.73844895  0.49307604
HECN                                    
           1
     8.800129    0.024563   -0.003414
     0.030799    8.839590    0.002900
     0.028149   -0.012414    8.785421
   Zr   Nb   Ti   N    C    Cr   Mo
   7   6   7  13  19   6   6
Direct configuration=    10
   0.99708049  0.99780602  0.99551495
   0.26657530  0.00072423  0.24325843
   0.24368009  0.49523008  0.24735212
   0.50093810  0.49834350  0.00231981
   0.50611414  0.24407450  0.74350943
  -0.00282794  0.50177842  0.50147600
   0.49449921  0.75975847  0.74995807
   0.99016418  0.23531625  0.25475632
   0.75525271  0.74661891  0.00891424
   0.00164175  0.24917473  0.74789115
   0.75186860  0.24471285  0.50128922
  -0.00067760  0.74933400  0.75133538
   0.25141379  0.49416189  0.74887959
   0.25302702  0.24322949  0.99189912
   0.51061310  0.25180573  0.25190834
   0.73864925  0.99197788  0.26645129
   0.74845850  0.24952019  0.99783506
   0.24603979  0.74858105  0.00000717
   0.25508240  0.24481818  0.50301740
   0.24915628  0.75288345  0.49913576
   0.25307334  0.24730436  0.24838152
   0.25742166  0.00193423  0.98907815
   0.00293204  0.25508182  0.00130740
   0.74553454  0.24157987  0.24738776
   0.74474089  0.00258395  0.00023736
   0.51236231  0.00415462  0.25199002
   0.99199893  0.49226325  0.24338846
   0.49883922  0.76286319  0.00798101
   0.99124082  0.00299627  0.74166680
   0.75550619  0.24565483  0.75470704
   0.74968024  0.00530190  0.49633130
   0.49800174  0.24415063  0.49006901
   0.51264954  0.00037823  0.74945358
   0.99639297  0.00170084  0.25442684
   0.50252663  0.23839221  0.00427170
   0.25723832  0.74870870  0.24850130
   0.23986841  0.50036258  0.99456014
   0.00310826  0.73955305  0.00563838
   0.74386740  0.74970029  0.25235503
   0.76395647  0.49679960  0.00572524
   0.49742818  0.49812439  0.25283222
   0.24878663  0.24549887  0.74870928
   0.26106782  0.99913919  0.51358566
   0.00568325  0.24681945  0.50073659
   0.24129122  0.75740408  0.75189183
   0.25677184  0.50211473  0.50177229
   0.00146452  0.75871764  0.49970317
   0.99980689  0.50071623  0.75606930
   0.74924682  0.75976373  0.74907547
   0.74554659  0.49684510  0.50441318
   0.49681107  0.76270372  0.48617693
   0.50236010  0.50281066  0.74307419
   0.52361752  0.01124232  0.97665908
   0.99675028  0.51255488  0.97882013
   0.49642275  0.72752080  0.25781227
   0.22302553  0.01484461  0.74957529
   0.47730153  0.98917740  0.50019857
   0.72871523  0.97478817  0.77993590
   0.00588215  0.76908325  0.25502701
   0.73540553  0.50999256  0.25426457
   0.02356734  0.00291220  0.50122960
   0.50597186  0.51966297  0.48989563
   0.75256678  0.51834534  0.76178026
   0.74681982  0.73790322  0.49259478
HECN                                    
           1
     8.799250    0.024710   -0.003343
     0.030946    8.838670    0.002679
     0.028217   -0.012631    8.784664
   Zr   Nb   Ti   N    C    Cr   Mo
   7   6   7  13  19   6   6
Direct configuration=    11
   0.99705674  0.99777180  0.99547193
   0.26654479  0.00069623  0.24323311
   0.24370390  0.49527391  0.24733890
   0.50097549  0.49831155  0.00228780
   0.50605760  0.24400789  0.74360306
  -0.00276806  0.50174974  0.50148389
   0.49447713  0.75973957  0.75002994
   0.99019605  0.23533311  0.25477834
   0.75525651  0.74658220  0.00890016
   0.00166123  0.24920128  0.74788863
   0.75183837  0.24474424  0.50132522
  -0.00068309  0.74929878  0.75137982
   0.25139560  0.49417562  0.74891491
   0.25299218  0.24330226  0.99190911
   0.51063800  0.25177505  0.25187584
   0.73861607  0.99201769  0.26649717
   0.74851857  0.24960399  0.99780111
   0.24603273  0.74859010  0.00002304
   0.25507506  0.24479277  0.50302341
   0.24912274  0.75290543  0.49914320
   0.25309412  0.24729948  0.24839128
   0.25747381  0.00193469  0.98906638
   0.00293380  0.25503903  0.00129006
   0.74551998  0.24158870  0.24741381
   0.74463738  0.00259153  0.00021373
   0.51241555  0.00407164  0.25197115
   0.99202135  0.49218056  0.24334230
   0.49885423  0.76286205  0.00798304
   0.99121096  0.00300607  0.74169140
   0.75550061  0.24565188  0.75473071
   0.74952941  0.00522115  0.49642683
   0.49798210  0.24401105  0.49006251
   0.51251528  0.00040431  0.74936211
   0.99635604  0.00160384  0.25440890
   0.50256181  0.23841984  0.00431552
   0.25721538  0.74874996  0.24849898
   0.23985485  0.50038286  0.99455387
   0.00313063  0.73954143  0.00563322
   0.74390291  0.74969920  0.25240621
   0.76395718  0.49678885  0.00565016
   0.49750668  0.49820584  0.25289205
   0.24879550  0.24550593  0.74869943
   0.26098888  0.99912954  0.51355773
   0.00568779  0.24684143  0.50075492
   0.24131286  0.75738573  0.75188284
   0.25677302  0.50210196  0.50174644
   0.00150921  0.75867743  0.49973996
   0.99977253  0.50070585  0.75609090
   0.74924660  0.75971740  0.74907536
   0.74554934  0.49690948  0.50433955
   0.49677934  0.76268085  0.48623289
   0.50228619  0.50281295  0.74310542
   0.52363833  0.01128905  0.97674227
   0.99681499  0.51251898  0.97883817
   0.49654842  0.72762410  0.25780839
   0.22321966  0.01482830  0.74954825
   0.47727799  0.98909130  0.50010073
   0.72883168  0.97484345  0.77982830
   0.00585052  0.76922375  0.25497509
   0.73537774  0.50996359  0.25425301
   0.02360950  0.00293906  0.50125681
   0.50594899  0.51977759  0.48995014
   0.75243908  0.51837748  0.76164465
   0.74686055  0.73792737  0.49261608
HECN                                    
           1
     8.802225    0.025568   -0.005363
     0.031855    8.825552    0.002770
     0.026212   -0.012515    8.794350
   Zr   Nb   Ti   N    C    Cr   Mo
   7   6   7  13  19   6   6
Direct configuration=    12
   0.99804411  0.99770533  0.99595425
   0.26660842  0.00013727  0.24404105
   0.24301669  0.49519139  0.24709540