       N       E                     dE             d eps       ncg     rms          rms(c)
DAV:   1     0.370916583328E+04    0.37092E+04   -0.17510E+05  8960   0.118E+03
DAV:   2     0.128100992178E+03   -0.35811E+04   -0.34496E+04  8596   0.431E+02
DAV:   3    -0.562389165220E+03   -0.69049E+03   -0.66455E+03 12768   0.135E+02
DAV:   4    -0.635801096934E+03   -0.73412E+02   -0.70791E+02 12348   0.446E+01
DAV:   5    -0.643838996254E+03   -0.80379E+01   -0.77653E+01 12936   0.146E+01    0.646E+01
RMM:   6    -0.507184885442E+03    0.13665E+03   -0.11501E+03 10837   0.509E+01    0.459E+01
RMM:   7    -0.474450858481E+03    0.32734E+02   -0.19978E+02 10418   0.279E+01    0.153E+01
RMM:   8    -0.482531937761E+03   -0.80811E+01   -0.13504E+02 11490   0.123E+01    0.163E+01
RMM:   9    -0.482456792117E+03    0.75146E-01   -0.32772E+01 11613   0.844E+00    0.117E+01
RMM:  10    -0.481656128700E+03    0.80066E+00   -0.16335E+01 10803   0.494E+00    0.817E+00
RMM:  11    -0.481838028475E+03   -0.18190E+00   -0.78320E+00 11648   0.406E+00    0.725E+00
RMM:  12    -0.481579083281E+03    0.25895E+00   -0.62066E+00 10955   0.307E+00    0.411E+00
RMM:  13    -0.481743677513E+03   -0.16459E+00   -0.40268E+00 11662   0.187E+00    0.191E+00
RMM:  14    -0.482014970994E+03   -0.27129E+00   -0.31898E+00 11165   0.156E+00    0.237E+00
RMM:  15    -0.482168182738E+03   -0.15321E+00   -0.20026E+00 11429   0.125E+00    0.218E+00
RMM:  16    -0.482242535903E+03   -0.74353E-01   -0.12378E+00 10924   0.102E+00    0.190E+00
RMM:  17    -0.482263948849E+03   -0.21413E-01   -0.64992E-01 11066   0.741E-01    0.122E+00
RMM:  18    -0.482294961669E+03   -0.31013E-01   -0.55072E-01 11730   0.544E-01    0.850E-01
RMM:  19    -0.482317202506E+03   -0.22241E-01   -0.36418E-01 11825   0.473E-01    0.453E-01
RMM:  20    -0.482349152394E+03   -0.31950E-01   -0.34994E-01 11789   0.369E-01    0.362E-01
RMM:  21    -0.482368323542E+03   -0.19171E-01   -0.21012E-01 11229   0.303E-01    0.287E-01
RMM:  22    -0.482388222121E+03   -0.19899E-01   -0.20677E-01 11375   0.224E-01    0.217E-01
RMM:  23    -0.482401473706E+03   -0.13252E-01   -0.13812E-01 11369   0.194E-01    0.149E-01
RMM:  24    -0.482414779430E+03   -0.13306E-01   -0.13279E-01 11644   0.146E-01    0.179E-01
RMM:  25    -0.482423261027E+03   -0.84816E-02   -0.88285E-02 10736   0.121E-01    0.104E-01
RMM:  26    -0.482431678975E+03   -0.84179E-02   -0.85422E-02 10754   0.105E-01    0.908E-02
RMM:  27    -0.482437368510E+03   -0.56895E-02   -0.57225E-02 11017   0.105E-01    0.679E-02
RMM:  28    -0.482443129483E+03   -0.57610E-02   -0.57400E-02  9938   0.803E-02    0.520E-02
RMM:  29    -0.482447098998E+03   -0.39695E-02   -0.39416E-02  9346   0.668E-02    0.330E-02
RMM:  30    -0.482451137860E+03   -0.40389E-02   -0.40124E-02  9012   0.562E-02    0.393E-02
RMM:  31    -0.482453855974E+03   -0.27181E-02   -0.26854E-02  9874   0.571E-02    0.321E-02
RMM:  32    -0.482456727898E+03   -0.28719E-02   -0.28495E-02  8995   0.470E-02    0.251E-02
RMM:  33    -0.482458678014E+03   -0.19501E-02   -0.19264E-02  8360   0.417E-02    0.288E-02
RMM:  34    -0.482460700246E+03   -0.20222E-02   -0.20136E-02  8134   0.371E-02    0.272E-02
RMM:  35    -0.482462090993E+03   -0.13907E-02   -0.13797E-02  8460   0.365E-02    0.123E-02
RMM:  36    -0.482463547345E+03   -0.14564E-02   -0.14484E-02  7517   0.322E-02    0.125E-02
RMM:  37    -0.482464561340E+03   -0.10140E-02   -0.10013E-02  6519   0.303E-02    0.937E-03
RMM:  38    -0.482465622732E+03   -0.10614E-02   -0.10529E-02  6637   0.275E-02    0.941E-03
RMM:  39    -0.482466364010E+03   -0.74128E-03   -0.73242E-03  6581   0.257E-02    0.767E-03
RMM:  40    -0.482467136834E+03   -0.77282E-03   -0.76827E-03  6853   0.240E-02    0.728E-03
RMM:  41    -0.482467684624E+03   -0.54779E-03   -0.54194E-03  6374   0.227E-02    0.575E-03
RMM:  42    -0.482468254698E+03   -0.57007E-03   -0.56678E-03  5297   0.197E-02    0.613E-03
RMM:  43    -0.482468667065E+03   -0.41237E-03   -0.40754E-03  5511   0.190E-02    0.652E-03
RMM:  44    -0.482469090922E+03   -0.42386E-03   -0.42025E-03  5274   0.179E-02    0.673E-03
RMM:  45    -0.482469405470E+03   -0.31455E-03   -0.30980E-03  4752   0.169E-02    0.115E-02
RMM:  46    -0.482469728834E+03   -0.32336E-03   -0.31832E-03  4556   0.142E-02    0.165E-02
RMM:  47    -0.482469964963E+03   -0.23613E-03   -0.23339E-03  4579   0.141E-02    0.184E-02
RMM:  48    -0.482470202133E+03   -0.23717E-03   -0.23699E-03  4822   0.125E-02    0.187E-02
RMM:  49    -0.482470381022E+03   -0.17889E-03   -0.17740E-03  4469   0.127E-02    0.209E-02
RMM:  50    -0.482470561579E+03   -0.18056E-03   -0.17912E-03  4105   0.105E-02    0.240E-02
RMM:  51    -0.482470691734E+03   -0.13016E-03   -0.13408E-03  5272   0.114E-02    0.169E-02
RMM:  52    -0.482470828107E+03   -0.13637E-03   -0.13628E-03  4935   0.120E-02    0.174E-02
RMM:  53    -0.482470934037E+03   -0.10593E-03   -0.10475E-03  4364   0.959E-03    0.182E-02
RMM:  54    -0.482471037930E+03   -0.10389E-03   -0.10351E-03  4311   0.100E-02    0.187E-02
RMM:  55    -0.482471119746E+03   -0.81815E-04   -0.80821E-04  4026   0.835E-03    0.201E-02
RMM:  56    -0.482471197165E+03   -0.77419E-04   -0.78655E-04  4602   0.866E-03    0.180E-02
RMM:  57    -0.482471259463E+03   -0.62298E-04   -0.61986E-04  4196   0.815E-03    0.187E-02
RMM:  58    -0.482471321203E+03   -0.61740E-04   -0.61137E-04  3987   0.736E-03    0.200E-02
RMM:  59    -0.482471368782E+03   -0.47579E-04   -0.48157E-04  4354   0.697E-03    0.191E-02
RMM:  60    -0.482471416594E+03   -0.47812E-04   -0.47837E-04  4471   0.709E-03
   1 F= -.48247142E+03 E0= -.48226479E+03  d E =-.482471E+03
       N       E                     dE             d eps       ncg     rms          rms(c)
DAV:   1    -0.248932996884E+04   -0.20069E+04   -0.50886E+04 10024   0.717E+02    0.265E+02
RMM:   2    -0.901557514741E+03    0.15878E+04   -0.41213E+03 11802   0.196E+02    0.134E+02
RMM:   3    -0.557717278072E+03    0.34384E+03   -0.18451E+03 11341   0.123E+02    0.474E+01
RMM:   4    -0.558502106391E+03   -0.78483E+00   -0.62866E+02 11099   0.645E+01    0.174E+01
RMM:   5    -0.561605075491E+03   -0.31030E+01   -0.10650E+02 10514   0.295E+01    0.101E+01
RMM:   6    -0.563574590241E+03   -0.19695E+01   -0.31878E+01 11344   0.127E+01    0.683E+00
RMM:   7    -0.563652395238E+03   -0.77805E-01   -0.87109E+00 10689   0.611E+00    0.349E+00
RMM:   8    -0.563899645470E+03   -0.24725E+00   -0.43365E+00 11053   0.343E+00    0.228E+00
RMM:   9    -0.563984773059E+03   -0.85128E-01   -0.14958E+00 10210   0.203E+00    0.107E+00
RMM:  10    -0.564024637787E+03   -0.39865E-01   -0.76550E-01 10719   0.124E+00    0.361E-01
RMM:  11    -0.564053270265E+03   -0.28632E-01   -0.31246E-01 11424   0.633E-01    0.300E-01
RMM:  12    -0.564065330675E+03   -0.12060E-01   -0.13915E-01 10940   0.332E-01    0.177E-01
RMM:  13    -0.564070126293E+03   -0.47956E-02   -0.59341E-02 10673   0.227E-01    0.890E-02
RMM:  14    -0.564072773104E+03   -0.26468E-02   -0.28242E-02 10733   0.132E-01    0.485E-02
RMM:  15    -0.564074014936E+03   -0.12418E-02   -0.12937E-02  9912   0.774E-02    0.262E-02
RMM:  16    -0.564074627258E+03   -0.61232E-03   -0.63907E-03  8937   0.519E-02    0.128E-02
RMM:  17    -0.564074943014E+03   -0.31576E-03   -0.31694E-03  7242   0.318E-02    0.802E-03
RMM:  18    -0.564075105470E+03   -0.16246E-03   -0.16334E-03  6008   0.245E-02    0.485E-03
RMM:  19    -0.564075190257E+03   -0.84787E-04   -0.84489E-04  5625   0.184E-02    0.178E-03
RMM:  20    -0.564075235455E+03   -0.45198E-04   -0.44848E-04  5526   0.140E-02    0.174E-03
RMM:  21    -0.564075259871E+03   -0.24416E-04   -0.24272E-04  5418   0.104E-02    0.106E-03
RMM:  22    -0.564075273344E+03   -0.13473E-04   -0.13143E-04  5261   0.871E-03    0.515E-04
RMM:  23    -0.564075280412E+03   -0.70681E-05   -0.70810E-05  5119   0.644E-03
   2 F= -.56407528E+03 E0= -.56401235E+03  d E =-.816039E+02
       N       E                     dE             d eps       ncg     rms          rms(c)
DAV:   1    -0.953085486270E+03   -0.38901E+03   -0.76160E+03  8456   0.299E+02    0.151E+02
RMM:   2    -0.101044630562E+04   -0.57361E+02   -0.14934E+03  8522   0.103E+02    0.747E+01
RMM:   3    -0.789021226441E+03    0.22143E+03   -0.36239E+02 10571   0.502E+01    0.506E+01
RMM:   4    -0.701328077424E+03    0.87693E+02   -0.88235E+01 10817   0.232E+01    0.351E+01
RMM:   5    -0.662978152904E+03    0.38350E+02   -0.21532E+02 11002   0.315E+01    0.283E+01
RMM:   6    -0.654746136476E+03    0.82320E+01   -0.34568E+01  9080   0.167E+01    0.114E+01
RMM:   7    -0.652756532044E+03    0.19896E+01   -0.15591E+01 10485   0.749E+00    0.564E+00
RMM:   8    -0.652361060416E+03    0.39547E+00   -0.23524E+00 11044   0.348E+00    0.449E+00
RMM:   9    -0.652110012705E+03    0.25105E+00   -0.14167E+00 10611   0.218E+00    0.242E+00
RMM:  10    -0.652227560224E+03   -0.11755E+00   -0.13191E+00 10621   0.194E+00    0.242E+00
RMM:  11    -0.652146257003E+03    0.81303E-01   -0.26511E-01 10704   0.104E+00    0.116E+00
RMM:  12    -0.652153368813E+03   -0.71118E-02   -0.13870E-01 10875   0.609E-01    0.129E+00
RMM:  13    -0.652130694103E+03    0.22675E-01   -0.22346E-01 11108   0.752E-01    0.433E-01
RMM:  14    -0.652141655046E+03   -0.10961E-01   -0.10704E-01 11499   0.424E-01    0.585E-01
RMM:  15    -0.652133299529E+03    0.83555E-02   -0.21220E-02  9366   0.230E-01    0.288E-01
RMM:  16    -0.652132379463E+03    0.92007E-03   -0.20458E-02 10309   0.175E-01    0.124E-01
RMM:  17    -0.652133350622E+03   -0.97116E-03   -0.12435E-02 10725   0.143E-01    0.116E-01
RMM:  18    -0.652133414120E+03   -0.63498E-04   -0.38681E-03  8999   0.763E-02    0.722E-02
RMM:  19    -0.652133476161E+03   -0.62041E-04   -0.20972E-03  8947   0.443E-02    0.486E-02
RMM:  20    -0.652133551235E+03   -0.75073E-04   -0.13697E-03  8912   0.356E-02    0.134E-02
RMM:  21    -0.652133623530E+03   -0.72295E-04   -0.72928E-04  7550   0.279E-02    0.148E-02
RMM:  22    -0.652133660212E+03   -0.36682E-04   -0.38279E-04  6183   0.202E-02    0.135E-02
RMM:  23    -0.652133678364E+03   -0.18152E-04   -0.22576E-04  5699   0.119E-02    0.586E-03
RMM:  24    -0.652133691061E+03   -0.12697E-04   -0.12967E-04  5543   0.102E-02    0.330E-03
RMM:  25    -0.652133699221E+03   -0.81604E-05   -0.81086E-05  5426   0.954E-03
   3 F= -.65213370E+03 E0= -.65204128E+03  d E =-.169662E+03
       N       E                     dE             d eps       ncg     rms          rms(c)
DAV:   1    -0.654623087563E+03   -0.24894E+01   -0.39757E+01  8680   0.185E+01    0.733E+00
RMM:   2    -0.653574040097E+03    0.10490E+01   -0.61882E+00  9988   0.687E+00    0.455E+00
RMM:   3    -0.653388834663E+03    0.18521E+00   -0.14431E+00  9865   0.314E+00    0.392E+00
RMM:   4    -0.653147355338E+03    0.24148E+00   -0.47986E-01 10095   0.163E+00    0.179E+00
RMM:   5    -0.653114542083E+03    0.32813E-01   -0.23250E-01 10155   0.105E+00    0.141E+00
RMM:   6    -0.653087652210E+03    0.26890E-01   -0.89119E-02 10179   0.697E-01    0.578E-01
RMM:   7    -0.653084798497E+03    0.28537E-02   -0.28884E-02 11345   0.386E-01    0.285E-01
RMM:   8    -0.653084889675E+03   -0.91179E-04   -0.92096E-03 11499   0.199E-01    0.204E-01
RMM:   9    -0.653084722464E+03    0.16721E-03   -0.32521E-03 11231   0.106E-01    0.112E-01
RMM:  10    -0.653084857156E+03   -0.13469E-03   -0.16640E-03 10493   0.736E-02    0.806E-02
RMM:  11    -0.653084910332E+03   -0.53176E-04   -0.85921E-04 10676   0.560E-02    0.334E-02
RMM:  12    -0.653084928816E+03   -0.18484E-04   -0.37400E-04  9513   0.325E-02    0.177E-02
RMM:  13    -0.653084936947E+03   -0.81309E-05   -0.19510E-04  7293   0.219E-02    0.964E-03
RMM:  14    -0.653084941982E+03   -0.50351E-05   -0.94577E-05  6043   0.181E-02
   4 F= -.65308494E+03 E0= -.65299517E+03  d E =-.170614E+03
       N       E                     dE             d eps       ncg     rms          rms(c)
DAV:   1    -0.653707593404E+03   -0.62266E+00   -0.12631E+01  8624   0.106E+01    0.414E+00
RMM:   2    -0.653389452338E+03    0.31814E+00   -0.19777E+00  9679   0.386E+00    0.264E+00
RMM:   3    -0.653319281740E+03    0.70171E-01   -0.44492E-01  9876   0.177E+00    0.227E+00
RMM:   4    -0.653247793978E+03    0.71488E-01   -0.15031E-01 10049   0.912E-01    0.113E+00
RMM:   5    -0.653233337653E+03    0.14456E-01   -0.72912E-02 10076   0.596E-01    0.788E-01
RMM:   6    -0.653224703851E+03    0.86338E-02   -0.29642E-02 10152   0.401E-01    0.321E-01
RMM:   7    -0.653223893675E+03    0.81018E-03   -0.94144E-03 11146   0.225E-01    0.172E-01
RMM:   8    -0.653223876575E+03    0.17100E-04   -0.29326E-03 11314   0.117E-01    0.113E-01
RMM:   9    -0.653223837330E+03    0.39245E-04   -0.10062E-03 10706   0.611E-02    0.632E-02
RMM:  10    -0.653223891114E+03   -0.53785E-04   -0.49821E-04 10355   0.427E-02    0.460E-02
RMM:  11    -0.653223915970E+03   -0.24855E-04   -0.25810E-04  9348   0.330E-02    0.182E-02
RMM:  12    -0.653223923728E+03   -0.77585E-05   -0.11418E-04  7195   0.231E-02    0.986E-03
RMM:  13    -0.653223925393E+03   -0.16649E-05   -0.54546E-05  5781   0.163E-02
   5 F= -.65322393E+03 E0= -.65313560E+03  d E =-.170753E+03
       N       E                     dE             d eps       ncg     rms          rms(c)
DAV:   1    -0.651458012347E+03    0.17659E+01   -0.32653E+02  8232   0.552E+01    0.302E+00
RMM:   2    -0.654320110284E+03   -0.28621E+01   -0.31493E+01 11431   0.161E+01    0.236E+00
RMM:   3    -0.654859241601E+03   -0.53913E+00   -0.55036E+00 11839   0.578E+00    0.159E+00
RMM:   4    -0.654865049618E+03   -0.58080E-02   -0.68539E-01 11856   0.207E+00    0.114E+00
RMM:   5    -0.654858684350E+03    0.63653E-02   -0.25645E-01 10997   0.103E+00    0.980E-01
RMM:   6    -0.654852056559E+03    0.66278E-02   -0.19525E-01 10353   0.843E-01    0.508E-01
RMM:   7    -0.654852137421E+03   -0.80862E-04   -0.55161E-02 11626   0.409E-01    0.285E-01
RMM:   8    -0.654851577267E+03    0.56015E-03   -0.26321E-02 10621   0.245E-01    0.191E-01
RMM:   9    -0.654852526337E+03   -0.94907E-03   -0.16029E-02 11069   0.174E-01    0.122E-01
RMM:  10    -0.654853076203E+03   -0.54987E-03   -0.78471E-03 11433   0.116E-01    0.685E-02
RMM:  11    -0.654853381650E+03   -0.30545E-03   -0.41622E-03 10352   0.645E-02    0.442E-02
RMM:  12    -0.654853646953E+03   -0.26530E-03   -0.28081E-03  9906   0.515E-02    0.340E-02
RMM:  13    -0.654853755013E+03   -0.10806E-03   -0.13783E-03  8522   0.387E-02    0.196E-02
RMM:  14    -0.654853823453E+03   -0.68440E-04   -0.86285E-04  7563   0.264E-02    0.944E-03
RMM:  15    -0.654853870008E+03   -0.46555E-04   -0.48528E-04  6902   0.225E-02    0.708E-03
RMM:  16    -0.654853899830E+03   -0.29822E-04   -0.31464E-04  5969   0.184E-02    0.598E-03
RMM:  17    -0.654853914893E+03   -0.15063E-04   -0.17558E-04  5510   0.134E-02    0.248E-03
RMM:  18    -0.654853925920E+03   -0.11028E-04   -0.11392E-04  5446   0.917E-03    0.219E-03
RMM:  19    -0.654853931807E+03   -0.58866E-05   -0.61725E-05  5338   0.745E-03
   6 F= -.65485393E+03 E0= -.65477938E+03  d E =-.163001E+01
       N       E                     dE             d eps       ncg     rms          rms(c)
DAV:   1    -0.654448598635E+03    0.40533E+00   -0.55333E+01  8232   0.228E+01    0.127E+00
RMM:   2    -0.654923017067E+03   -0.47442E+00   -0.52727E+00 11331   0.659E+00    0.101E+00
RMM:   3    -0.655018276371E+03   -0.95259E-01   -0.96743E-01 11834   0.243E+00    0.693E-01
RMM:   4    -0.655019125407E+03   -0.84904E-03   -0.11682E-01 11861   0.852E-01    0.473E-01
RMM:   5    -0.655018620091E+03    0.50532E-03   -0.42423E-02 11404   0.415E-01    0.399E-01
RMM:   6    -0.655017007182E+03    0.16129E-02   -0.32272E-02 10339   0.349E-01    0.169E-01
RMM:   7    -0.655017214052E+03   -0.20687E-03   -0.88933E-03 11477   0.164E-01    0.103E-01
RMM:   8    -0.655017251736E+03   -0.37684E-04   -0.43048E-03 10642   0.989E-02    0.687E-02
RMM:   9    -0.655017432439E+03   -0.18070E-03   -0.24228E-03 10795   0.673E-02    0.439E-02
RMM:  10    -0.655017524232E+03   -0.91793E-04   -0.12513E-03  9978   0.472E-02    0.246E-02
RMM:  11    -0.655017581087E+03   -0.56856E-04   -0.69044E-04  8324   0.283E-02    0.163E-02
RMM:  12    -0.655017624864E+03   -0.43777E-04   -0.42926E-04  7199   0.251E-02    0.118E-02
RMM:  13    -0.655017642294E+03   -0.17430E-04   -0.21827E-04  5850   0.197E-02    0.618E-03
RMM:  14    -0.655017654272E+03   -0.11978E-04   -0.13645E-04  5589   0.126E-02    0.330E-03
RMM:  15    -0.655017661821E+03   -0.75488E-05   -0.77979E-05  5479   0.112E-02
   7 F= -.65501766E+03 E0= -.65494707E+03  d E =-.179374E+01
       N       E                     dE             d eps       ncg     rms          rms(c)
DAV:   1    -0.654939028303E+03    0.78626E-01   -0.11642E+02  8232   0.358E+01    0.686E+00
RMM:   2    -0.655252501575E+03   -0.31347E+00   -0.16975E+01 11056   0.127E+01    0.431E+00
RMM:   3    -0.655328893513E+03   -0.76392E-01   -0.44023E+00 10860   0.576E+00    0.291E+00
RMM:   4    -0.655270330858E+03    0.58563E-01   -0.87572E-01 11560   0.231E+00    0.149E+00
RMM:   5    -0.655243433851E+03    0.26897E-01   -0.24513E-01 11060   0.114E+00    0.104E+00
RMM:   6    -0.655232985504E+03    0.10448E-01   -0.10962E-01 10713   0.708E-01    0.594E-01
RMM:   7    -0.655231437713E+03    0.15478E-02   -0.45059E-02 11386   0.427E-01    0.278E-01
RMM:   8    -0.655232214847E+03   -0.77713E-03   -0.19213E-02 11533   0.224E-01    0.177E-01
RMM:   9    -0.655232623005E+03   -0.40816E-03   -0.78457E-03 11554   0.129E-01    0.117E-01
RMM:  10    -0.655232910515E+03   -0.28751E-03   -0.47398E-03 10877   0.861E-02    0.551E-02
RMM:  11    -0.655233073767E+03   -0.16325E-03   -0.22470E-03 10620   0.578E-02    0.317E-02
RMM:  12    -0.655233184859E+03   -0.11109E-03   -0.13740E-03  9335   0.369E-02    0.171E-02
RMM:  13    -0.655233250526E+03   -0.65667E-04   -0.69986E-04  8377   0.293E-02    0.116E-02
RMM:  14    -0.655233289328E+03   -0.38802E-04   -0.41656E-04  6541   0.195E-02    0.649E-03
RMM:  15    -0.655233311689E+03   -0.22361E-04   -0.22337E-04  5788   0.150E-02    0.407E-03
RMM:  16    -0.655233327274E+03   -0.15585E-04   -0.13835E-04  5577   0.120E-02    0.284E-03
RMM:  17    -0.655233336156E+03   -0.88823E-05   -0.80572E-05  5464   0.101E-02
   8 F= -.65523334E+03 E0= -.65516522E+03  d E =-.215674E+00
       N       E                     dE             d eps       ncg     rms          rms(c)
DAV:   1    -0.655240724480E+03   -0.73972E-02   -0.75091E+00  9016   0.910E+00    0.170E+00
RMM:   2    -0.655262544504E+03   -0.21820E-01   -0.11240E+00 11210   0.322E+00    0.103E+00
RMM:   3    -0.655269804909E+03   -0.72604E-02   -0.27151E-01 10704   0.142E+00    0.781E-01
RMM:   4    -0.655264214959E+03    0.55900E-02   -0.53309E-02 11612   0.569E-01    0.373E-01
RMM:   5    -0.655262454635E+03    0.17603E-02   -0.15868E-02 10860   0.284E-01    0.274E-01
RMM:   6    -0.655261719070E+03    0.73557E-03   -0.72880E-03 10526   0.191E-01    0.154E-01
RMM:   7    -0.655261646647E+03    0.72423E-04   -0.29645E-03 11102   0.114E-01    0.689E-02
RMM:   8    -0.655261705770E+03   -0.59123E-04   -0.11916E-03 11208   0.610E-02    0.441E-02
RMM:   9    -0.655261737448E+03   -0.31678E-04   -0.46080E-04  9582   0.339E-02    0.298E-02
RMM:  10    -0.655261764851E+03   -0.27403E-04   -0.27280E-04  8783   0.259E-02    0.138E-02
RMM:  11    -0.655261777551E+03   -0.12701E-04   -0.12779E-04  6824   0.177E-02    0.770E-03
RMM:  12    -0.655261783706E+03   -0.61543E-05   -0.70157E-05  5762   0.146E-02
   9 F= -.65526178E+03 E0= -.65519293E+03  d E =-.244122E+00
       N       E                     dE             d eps       ncg     rms          rms(c)
DAV:   1    -0.653827947934E+03    0.14338E+01   -0.10230E+02  8232   0.345E+01    0.244E+00
RMM:   2    -0.655221961865E+03   -0.13940E+01   -0.15948E+01 11820   0.109E+01    0.119E+00
RMM:   3    -0.655474862415E+03   -0.25290E+00   -0.24677E+00 11914   0.366E+00    0.108E+00
RMM:   4    -0.655487851027E+03   -0.12989E-01   -0.29865E-01 11809   0.137E+00    0.692E-01
RMM:   5    -0.655487061806E+03    0.78922E-03   -0.11021E-01 11469   0.672E-01    0.487E-01
RMM:   6    -0.655485974687E+03    0.10871E-02   -0.54789E-02 10534   0.483E-01    0.237E-01
RMM:   7    -0.655487377766E+03   -0.14031E-02   -0.21873E-02 11541   0.246E-01    0.159E-01
RMM:   8    -0.655487742483E+03   -0.36472E-03   -0.90364E-03 11343   0.143E-01    0.827E-02
RMM:   9    -0.655488127835E+03   -0.38535E-03   -0.58290E-03 10986   0.101E-01    0.487E-02
RMM:  10    -0.655488359035E+03   -0.23120E-03   -0.26156E-03 10786   0.606E-02    0.331E-02
RMM:  11    -0.655488493421E+03   -0.13439E-03   -0.15633E-03  9564   0.381E-02    0.214E-02
RMM:  12    -0.655488568861E+03   -0.75440E-04   -0.78550E-04  8301   0.290E-02    0.118E-02
RMM:  13    -0.655488612313E+03   -0.43452E-04   -0.46868E-04  6530   0.227E-02    0.669E-03
RMM:  14    -0.655488635835E+03   -0.23522E-04   -0.24719E-04  5805   0.160E-02    0.430E-03
RMM:  15    -0.655488650318E+03   -0.14483E-04   -0.15589E-04  5583   0.128E-02    0.295E-03
RMM:  16    -0.655488658052E+03   -0.77339E-05   -0.85666E-05  5476   0.914E-03
  10 F= -.65548866E+03 E0= -.65542494E+03  d E =-.226874E+00
       N       E                     dE             d eps       ncg     rms          rms(c)
DAV:   1    -0.655487101045E+03    0.15493E-02   -0.11462E-01 10416   0.116E+00    0.842E-02
RMM:   2    -0.655488600853E+03   -0.14998E-02   -0.17418E-02 11484   0.361E-01    0.393E-02
RMM:   3    -0.655488931548E+03   -0.33069E-03   -0.32097E-03 11857   0.136E-01    0.369E-02
RMM:   4    -0.655488957401E+03   -0.25853E-04   -0.43054E-04 10653   0.488E-02    0.224E-02
RMM:   5    -0.655488960465E+03   -0.30647E-05   -0.13810E-04  8263   0.270E-02    0.159E-02
RMM:   6    -0.655488962629E+03   -0.21639E-05   -0.72159E-05  7081   0.225E-02
  11 F= -.65548896E+03 E0= -.65542543E+03  d E =-.227179E+00
       N       E                     dE             d eps       ncg     rms          rms(c)
DAV:   1    -0.655142697766E+03    0.34626E+00   -0.33078E+01  8624   0.185E+01    0.130E+00
RMM:   2    -0.655517786114E+03   -0.37509E+00   -0.42597E+00 11474   0.536E+00    0.715E-01
RMM:   3    -0.655597637695E+03   -0.79852E-01   -0.74566E-01 11779   0.203E+00    0.671E-01
RMM:   4    -0.655599230548E+03   -0.15929E-02   -0.85226E-02 11779   0.749E-01    0.345E-01
RMM:   5    -0.655599750496E+03   -0.51995E-03   -0.33098E-02 11790   0.357E-01    0.265E-01
RMM:   6    -0.655599359275E+03    0.39122E-03   -0.14288E-02 10622   0.241E-01    0.129E-01
RMM:   7    -0.655599749716E+03   -0.39044E-03   -0.61738E-03 11259   0.126E-01    0.813E-02
RMM:   8    -0.655599853140E+03   -0.10342E-03   -0.26830E-03 11052   0.780E-02    0.427E-02
RMM:   9    -0.655599968956E+03   -0.11582E-03   -0.16594E-03 10452   0.545E-02    0.267E-02
RMM:  10    -0.655600037447E+03   -0.68491E-04   -0.79588E-04  9332   0.339E-02    0.168E-02
RMM:  11    -0.655600077698E+03   -0.40251E-04   -0.46183E-04  7167   0.237E-02    0.112E-02
RMM:  12    -0.655600100588E+03   -0.22890E-04   -0.24635E-04  6062   0.196E-02    0.660E-03
RMM:  13    -0.655600114432E+03   -0.13844E-04   -0.14908E-04  5709   0.141E-02    0.343E-03
RMM:  14    -0.655600122477E+03   -0.80455E-05   -0.82420E-05  5522   0.103E-02
  12 F= -.65560012E+03 E0= -.65553868E+03  d E =-.111160E+00
       N       E                     dE             d eps       ncg     rms          rms(c)
DAV:   1    -0.655533150833E+03    0.66964E-01   -0.56813E+00  9240   0.769E+00    0.536E-01
RMM:   2    -0.655598124851E+03   -0.64974E-01   -0.73879E-01 11496   0.223E+00    0.287E-01
RMM:   3    -0.655611829897E+03   -0.13705E-01   -0.12684E-01 11853   0.825E-01    0.275E-01
RMM:   4    -0.655612072509E+03   -0.24261E-03   -0.14316E-02 11754   0.307E-01    0.144E-01
RMM:   5    -0.655612163242E+03   -0.90733E-04   -0.58749E-03 11699   0.150E-01    0.109E-01
RMM:   6    -0.655612108642E+03    0.54600E-04   -0.25403E-03 10471   0.102E-01    0.543E-02
RMM:   7    -0.655612177128E+03   -0.68486E-04   -0.11054E-03 10754   0.537E-02    0.332E-02
RMM:   8    -0.655612197083E+03   -0.19955E-04   -0.49106E-04  9661   0.348E-02    0.173E-02
RMM:   9    -0.655612219229E+03   -0.22146E-04   -0.30573E-04  8535   0.261E-02    0.107E-02
RMM:  10    -0.655612232066E+03   -0.12836E-04   -0.15040E-04  6568   0.184E-02    0.643E-03
RMM:  11    -0.655612239639E+03   -0.75734E-05   -0.85575E-05  5727   0.130E-02
  13 F= -.65561224E+03 E0= -.65555185E+03  d E =-.123277E+00
       N       E                     dE             d eps       ncg     rms          rms(c)
DAV:   1    -0.655544964961E+03    0.67267E-01   -0.93786E+00  8624   0.969E+00    0.773E-01
RMM:   2    -0.655626620240E+03   -0.81655E-01   -0.10129E+00 11344   0.283E+00    0.390E-01
RMM:   3    -0.655647781305E+03   -0.21161E-01   -0.21626E-01 12005   0.113E+00    0.335E-01
RMM:   4    -0.655648659909E+03   -0.87860E-03   -0.26921E-02 11870   0.409E-01    0.194E-01
RMM:   5    -0.655648784507E+03   -0.12460E-03   -0.98310E-03 11820   0.196E-01    0.142E-01
RMM:   6    -0.655648688990E+03    0.95517E-04   -0.44990E-03 10456   0.127E-01    0.639E-02
RMM:   7    -0.655648827045E+03   -0.13806E-03   -0.20543E-03 11289   0.704E-02    0.403E-02
RMM:   8    -0.655648876565E+03   -0.49520E-04   -0.83596E-04 10132   0.420E-02    0.235E-02
RMM:   9    -0.655648913636E+03   -0.37071E-04   -0.51783E-04  9046   0.296E-02    0.139E-02
RMM:  10    -0.655648933569E+03   -0.19933E-04   -0.23585E-04  7133   0.216E-02    0.894E-03
RMM:  11    -0.655648945213E+03   -0.11644E-04   -0.14088E-04  5991   0.161E-02    0.543E-03
RMM:  12    -0.655648951087E+03   -0.58743E-05   -0.67468E-05  5632   0.112E-02
  14 F= -.65564895E+03 E0= -.65558934E+03  d E =-.367114E-01
       N       E                     dE             d eps       ncg     rms          rms(c)
DAV:   1    -0.655632284497E+03    0.16661E-01   -0.17541E+00  9128   0.417E+00    0.338E-01
RMM:   2    -0.655649243259E+03   -0.16959E-01   -0.20631E-01 11562   0.128E+00    0.170E-01
RMM:   3    -0.655653031521E+03   -0.37883E-02   -0.38876E-02 12009   0.460E-01    0.148E-01
RMM:   4    -0.655653127742E+03   -0.96222E-04   -0.48413E-03 11846   0.171E-01    0.856E-02
RMM:   5    -0.655653156074E+03   -0.28331E-04   -0.19525E-03 11496   0.858E-02    0.624E-02
RMM:   6    -0.655653140991E+03    0.15083E-04   -0.88917E-04 10054   0.561E-02    0.275E-02
RMM:   7    -0.655653168780E+03   -0.27789E-04   -0.41799E-04  9815   0.331E-02    0.176E-02
RMM:   8    -0.655653179949E+03   -0.11169E-04   -0.18024E-04  7370   0.224E-02    0.999E-03
RMM:   9    -0.655653187633E+03   -0.76843E-05   -0.10720E-04  6151   0.163E-02    0.583E-03
RMM:  10    -0.655653191644E+03   -0.40102E-05   -0.49812E-05  5660   0.126E-02
  15 F= -.65565319E+03 E0= -.65559391E+03  d E =-.409520E-01
       N       E                     dE             d eps       ncg     rms          rms(c)
DAV:   1    -0.655595800291E+03    0.57387E-01   -0.85102E+00  8428   0.934E+00    0.134E+00
RMM:   2    -0.655652470749E+03   -0.56670E-01   -0.11293E+00 11362   0.306E+00    0.755E-01
RMM:   3    -0.655666642980E+03   -0.14172E-01   -0.23733E-01 10699   0.130E+00    0.608E-01
RMM:   4    -0.655663879318E+03    0.27637E-02   -0.39969E-02 11626   0.498E-01    0.281E-01
RMM:   5    -0.655663291077E+03    0.58824E-03   -0.13426E-02 11211   0.247E-01    0.213E-01
RMM:   6    -0.655662995714E+03    0.29536E-03   -0.55493E-03 10535   0.163E-01    0.125E-01
RMM:   7    -0.655663019106E+03   -0.23391E-04   -0.25764E-03 11182   0.959E-02    0.520E-02
RMM:   8    -0.655663106371E+03   -0.87265E-04   -0.11589E-03 11009   0.527E-02    0.331E-02
RMM:   9    -0.655663150467E+03   -0.44096E-04   -0.50472E-04  9232   0.317E-02    0.228E-02
RMM:  10    -0.655663181542E+03   -0.31075E-04   -0.29294E-04  7712   0.233E-02    0.100E-02
RMM:  11    -0.655663196805E+03   -0.15263E-04   -0.14314E-04  6283   0.181E-02    0.570E-03
RMM:  12    -0.655663204854E+03   -0.80485E-05   -0.81298E-05  5679   0.128E-02
  16 F= -.65566320E+03 E0= -.65560513E+03  d E =-.100132E-01
       N       E                     dE             d eps       ncg     rms          rms(c)
DAV:   1    -0.655659640320E+03    0.35565E-02   -0.69943E-01  9072   0.270E+00    0.390E-01
RMM:   2    -0.655664438016E+03   -0.47977E-02   -0.94831E-02 11381   0.893E-01    0.223E-01
RMM:   3    -0.655665575818E+03   -0.11378E-02   -0.19739E-02 10647   0.371E-01    0.175E-01
RMM:   4    -0.655665326720E+03    0.24910E-03   -0.32650E-03 11493   0.142E-01    0.811E-02
RMM:   5    -0.655665256737E+03    0.69983E-04   -0.10139E-03 10871   0.712E-02    0.614E-02
RMM:   6    -0.655665217404E+03    0.39333E-04   -0.42771E-04 10041   0.479E-02    0.354E-02
RMM:   7    -0.655665208303E+03    0.91010E-05   -0.18816E-04  9788   0.298E-02    0.149E-02
RMM:   8    -0.655665210870E+03   -0.25665E-05   -0.83963E-05  6894   0.194E-02
  17 F= -.65566521E+03 E0= -.65560679E+03  d E =-.120192E-01
       N       E                     dE             d eps       ncg     rms          rms(c)
DAV:   1    -0.655584137887E+03    0.81070E-01   -0.71167E+00  8232   0.848E+00    0.737E-01
RMM:   2    -0.655661043790E+03   -0.76906E-01   -0.94358E-01 11799   0.269E+00    0.414E-01
RMM:   3    -0.655675446846E+03   -0.14403E-01   -0.14790E-01 11695   0.930E-01    0.394E-01
RMM:   4    -0.655674983502E+03    0.46334E-03   -0.20789E-02 11925   0.360E-01    0.189E-01
RMM:   5    -0.655674968649E+03    0.14853E-04   -0.79409E-03 11659   0.172E-01    0.146E-01
RMM:   6    -0.655674816910E+03    0.15174E-03   -0.33610E-03 10422   0.115E-01    0.873E-02
RMM:   7    -0.655674831422E+03   -0.14512E-04   -0.15717E-03 10959   0.696E-02    0.339E-02
RMM:   8    -0.655674873549E+03   -0.42127E-04   -0.70836E-04 10257   0.430E-02    0.235E-02
RMM:   9    -0.655674897043E+03   -0.23495E-04   -0.34865E-04  8923   0.280E-02    0.159E-02
RMM:  10    -0.655674912250E+03   -0.15207E-04   -0.19907E-04  6955   0.198E-02    0.875E-03
RMM:  11    -0.655674919562E+03   -0.73121E-05   -0.98887E-05  5853   0.155E-02
  18 F= -.65567492E+03 E0= -.65561721E+03  d E =-.970869E-02
       N       E                     dE             d eps       ncg     rms          rms(c)
DAV:   1    -0.655674150247E+03    0.76200E-03   -0.67510E-02  9884   0.828E-01    0.704E-02
RMM:   2    -0.655674863634E+03   -0.71339E-03   -0.86866E-03 11648   0.258E-01    0.406E-02
RMM:   3    -0.655675004126E+03   -0.14049E-03   -0.15026E-03 11327   0.946E-02    0.379E-02
RMM:   4    -0.655675000803E+03    0.33233E-05   -0.18964E-04 10117   0.365E-02    0.184E-02
RMM:   5    -0.655675000566E+03    0.23658E-06   -0.67229E-05  6907   0.207E-02
  19 F= -.65567500E+03 E0= -.65561721E+03  d E =-.978970E-02
       N       E                     dE             d eps       ncg     rms          rms(c)
DAV:   1    -0.655664495623E+03    0.10505E-01   -0.12516E+00  8064   0.342E+00    0.300E-01
RMM:   2    -0.655676369967E+03   -0.11874E-01   -0.14633E-01 11733   0.109E+00    0.156E-01
RMM:   3    -0.655678653874E+03   -0.22839E-02   -0.24833E-02 11738   0.367E-01    0.135E-01
RMM:   4    -0.655678616943E+03    0.36932E-04   -0.32076E-03 11927   0.137E-01    0.753E-02
RMM:   5    -0.655678581382E+03    0.35560E-04   -0.11988E-03 10442   0.723E-02    0.470E-02
RMM:   6    -0.655678585746E+03   -0.43638E-05   -0.53159E-04 10158   0.431E-02    0.267E-02
RMM:   7    -0.655678596883E+03   -0.11137E-04   -0.22333E-04  8929   0.295E-02    0.138E-02
RMM:   8    -0.655678603938E+03   -0.70546E-05   -0.11093E-04  6834   0.168E-02    0.775E-03
RMM:   9    -0.655678608561E+03   -0.46238E-05   -0.55219E-05  5789   0.143E-02
  20 F= -.65567861E+03 E0= -.65562150E+03  d E =-.360800E-02
       N       E                     dE             d eps       ncg     rms          rms(c)
DAV:   1    -0.655678354539E+03    0.24940E-03   -0.32191E-02  8904   0.546E-01    0.477E-02
RMM:   2    -0.655678669209E+03   -0.31467E-03   -0.38203E-03 11685   0.176E-01    0.260E-02
RMM:   3    -0.655678731422E+03   -0.62214E-04   -0.68278E-04 11349   0.603E-02    0.236E-02
RMM:   4    -0.655678729833E+03    0.15894E-05   -0.10365E-04  7895   0.251E-02    0.121E-02
RMM:   5    -0.655678729752E+03    0.80763E-07   -0.42771E-05  5939   0.175E-02
  21 F= -.65567873E+03 E0= -.65562174E+03  d E =-.372919E-02
       N       E                     dE             d eps       ncg     rms          rms(c)
DAV:   1    -0.655674976478E+03    0.37534E-02   -0.56263E-01  8568   0.230E+00    0.210E-01
RMM:   2    -0.655679510402E+03   -0.45339E-02   -0.58851E-02 11563   0.689E-01    0.111E-01
RMM:   3    -0.655680403879E+03   -0.89348E-03   -0.98514E-03 11688   0.241E-01    0.106E-01
RMM:   4    -0.655680343983E+03    0.59896E-04   -0.14002E-03 11359   0.944E-02    0.575E-02
RMM:   5    -0.655680336110E+03    0.78724E-05   -0.59410E-04 10724   0.493E-02    0.386E-02
RMM:   6    -0.655680326076E+03    0.10035E-04   -0.26215E-04  9340   0.359E-02    0.171E-02
RMM:   7    -0.655680333930E+03   -0.78538E-05   -0.12158E-04  7643   0.220E-02    0.939E-03
RMM:   8    -0.655680337523E+03   -0.35936E-05   -0.49725E-05  5925   0.156E-02
  22 F= -.65568034E+03 E0= -.65562342E+03  d E =-.160777E-02
       N       E                     dE             d eps       ncg     rms          rms(c)
DAV:   1    -0.655680267291E+03    0.66638E-04   -0.12380E-02  9996   0.340E-01    0.309E-02
RMM:   2    -0.655680373082E+03   -0.10579E-03   -0.13286E-03 11455   0.103E-01    0.169E-02
RMM:   3    -0.655680395300E+03   -0.22218E-04   -0.24605E-04 10060   0.370E-02    0.166E-02
RMM:   4    -0.655680394191E+03    0.11090E-05   -0.40338E-05  5855   0.201E-02
  23 F= -.65568039E+03 E0= -.65562349E+03  d E =-.166444E-02
       N       E                     dE             d eps       ncg     rms          rms(c)
DAV:   1    -0.655679473280E+03    0.92202E-03   -0.22097E-01  8624   0.145E+00    0.190E-01
RMM:   2    -0.655680705063E+03   -0.12318E-02   -0.23684E-02 11402   0.459E-01    0.108E-01
RMM:   3    -0.655681003779E+03   -0.29872E-03   -0.48381E-03 10901   0.184E-01    0.923E-02
RMM:   4    -0.655680936267E+03    0.67512E-04   -0.85858E-04 11206   0.726E-02    0.442E-02
RMM:   5    -0.655680916916E+03    0.19352E-04   -0.32059E-04 10143   0.378E-02    0.312E-02
RMM:   6    -0.655680906279E+03    0.10637E-04   -0.13024E-04  8576   0.296E-02    0.178E-02
RMM:   7    -0.655680904005E+03    0.22738E-05   -0.68699E-05  6759   0.195E-02
  24 F= -.65568090E+03 E0= -.65562409E+03  d E =-.509814E-03
       N       E                     dE             d eps       ncg     rms          rms(c)
DAV:   1    -0.655680902287E+03    0.39916E-05   -0.83084E-04 10528   0.885E-02    0.130E-02
RMM:   2    -0.655680907715E+03   -0.54281E-05   -0.10384E-04  8469   0.279E-02    0.968E-03
RMM:   3    -0.655680906011E+03    0.17046E-05   -0.16172E-05  5079   0.155E-02
  25 F= -.65568091E+03 E0= -.65562408E+03  d E =-.511820E-03
       N       E                     dE             d eps       ncg     rms          rms(c)
DAV:   1    -0.655680052484E+03    0.85523E-03   -0.10921E-01  8848   0.103E+00    0.960E-02
RMM:   2    -0.655680985917E+03   -0.93343E-03   -0.12229E-02 11534   0.313E-01    0.493E-02
RMM:   3    -0.655681173707E+03   -0.18779E-03   -0.20932E-03 11421   0.115E-01    0.451E-02
RMM:   4    -0.655681168519E+03    0.51873E-05   -0.29864E-04 10585   0.444E-02    0.220E-02
RMM:   5    -0.655681169457E+03   -0.93802E-06   -0.12131E-04  7978   0.247E-02    0.156E-02
RMM:   6    -0.655681170311E+03   -0.85396E-06   -0.49125E-05  6405   0.225E-02
  26 F= -.65568117E+03 E0= -.65562450E+03  d E =-.264301E-03
       N       E                     dE             d eps       ncg     rms          rms(c)
DAV:   1    -0.655681121196E+03    0.48262E-04   -0.57230E-03  9016   0.235E-01    0.225E-02
RMM:   2    -0.655681175600E+03   -0.54404E-04   -0.69458E-04 11041   0.735E-02    0.126E-02
RMM:   3    -0.655681187515E+03   -0.11915E-04   -0.14072E-04  8059   0.302E-02    0.117E-02
RMM:   4    -0.655681187096E+03    0.41859E-06   -0.20558E-05  5311   0.180E-02
  27 F= -.65568119E+03 E0= -.65562456E+03  d E =-.281085E-03
       N       E                     dE             d eps       ncg     rms          rms(c)
DAV:   1    -0.655681234465E+03   -0.46951E-04   -0.97633E-03  9016   0.297E-01    0.486E-02
RMM:   2    -0.655681265751E+03   -0.31286E-04   -0.10382E-03 11337   0.985E-02    0.266E-02
RMM:   3    -0.655681278091E+03   -0.12339E-04   -0.24358E-04  9565   0.408E-02    0.231E-02
RMM:   4    -0.655681273756E+03    0.43347E-05   -0.46775E-05  6243   0.224E-02
  28 F= -.65568127E+03 E0= -.65562468E+03  d E =-.866601E-04
