<?xml version="1.0" encoding="ISO-8859-1"?>
<modeling>
 <generator>
  <i name="program" type="string">vasp </i>
  <i name="version" type="string">6.4.3  </i>
  <i name="subversion" type="string">19Mar24 (build Sep 18 2024 11:30:23) complex                          parallel </i>
  <i name="platform" type="string">LinuxIFC </i>
  <i name="date" type="string">2026 07 07 </i>
  <i name="time" type="string">23:59:48 </i>
 </generator>
 <incar>
  <i type="string" name="SYSTEM">HECN</i>
  <i type="int" name="ISTART">     0</i>
  <i type="string" name="PREC">Normal</i>
  <i type="string" name="ALGO">Fast</i>
  <i type="int" name="ICHARG">     2</i>
  <i type="int" name="NELM">    60</i>
  <i type="int" name="IBRION">     2</i>
  <i name="EDIFF">      0.00001000</i>
  <i name="EDIFFG">     -0.01000000</i>
  <i type="int" name="NSW">   100</i>
  <i type="int" name="ISIF">     3</i>
  <i name="ENCUT">    400.00000000</i>
  <i name="POTIM">      0.50000000</i>
  <i type="logical" name="LREAL"> F  </i>
  <i type="int" name="ISMEAR">     0</i>
  <i name="SIGMA">      0.10000000</i>
  <i type="logical" name="LWAVE"> F  </i>
  <i type="logical" name="LCHARG"> F  </i>
 </incar>
 <primitive_cell>
  <structure name="primitive_cell" >
   <crystal>
    <varray name="basis" >
     <v>      11.23999977       0.00000000       0.00000000 </v>
     <v>       0.00000000      11.23999977       0.00000000 </v>
     <v>       0.00000000       0.00000000      11.23999977 </v>
    </varray>
    <i name="volume">   1420.03453724 </i>
    <varray name="rec_basis" >
     <v>       0.08896797       0.00000000       0.00000000 </v>
     <v>       0.00000000       0.08896797       0.00000000 </v>
     <v>       0.00000000       0.00000000       0.08896797 </v>
    </varray>
   </crystal>
   <varray name="positions" >
    <v>       0.00000000       0.00000000       0.00000000 </v>
    <v>       0.25000000       0.00000000       0.25000000 </v>
    <v>       0.25000000       0.50000000       0.25000000 </v>
    <v>       0.50000000       0.50000000       0.00000000 </v>
    <v>       0.50000000       0.25000000       0.75000004 </v>
    <v>       0.00000000       0.50000000       0.50000000 </v>
    <v>       0.50000000       0.75000004       0.75000004 </v>
    <v>       0.00000000       0.25000000       0.25000000 </v>
    <v>       0.75000004       0.75000004       0.00000000 </v>
    <v>       0.00000000       0.25000000       0.75000004 </v>
    <v>       0.75000004       0.25000000       0.50000000 </v>
    <v>       0.00000000       0.75000004       0.75000004 </v>
    <v>       0.25000000       0.50000000       0.75000004 </v>
    <v>       0.25000000       0.25000000       0.00000000 </v>
    <v>       0.50000000       0.25000000       0.25000000 </v>
    <v>       0.75000004       0.00000000       0.25000000 </v>
    <v>       0.75000004       0.25000000       0.00000000 </v>
    <v>       0.25000000       0.75000004       0.00000000 </v>
    <v>       0.25000000       0.25000000       0.50000000 </v>
    <v>       0.25000000       0.25000000       0.25000000 </v>
    <v>       0.25000000       0.00000000       0.00000000 </v>
    <v>       0.00000000       0.25000000       0.00000000 </v>
    <v>       0.75000004       0.25000000       0.25000000 </v>
    <v>       0.75000004       0.00000000       0.00000000 </v>
    <v>       0.50000000       0.00000000       0.25000000 </v>
    <v>       0.00000000       0.50000000       0.25000000 </v>
    <v>       0.50000000       0.75000004       0.00000000 </v>
    <v>       0.00000000       0.00000000       0.75000004 </v>
    <v>       0.75000004       0.25000000       0.75000004 </v>
    <v>       0.75000004       0.00000000       0.50000000 </v>
    <v>       0.50000000       0.25000000       0.50000000 </v>
    <v>       0.50000000       0.00000000       0.75000004 </v>
    <v>       0.00000000       0.00000000       0.25000000 </v>
    <v>       0.50000000       0.25000000       0.00000000 </v>
    <v>       0.25000000       0.75000004       0.25000000 </v>
    <v>       0.25000000       0.50000000       0.00000000 </v>
    <v>       0.00000000       0.75000004       0.00000000 </v>
    <v>       0.75000004       0.75000004       0.25000000 </v>
    <v>       0.75000004       0.50000000       0.00000000 </v>
    <v>       0.50000000       0.50000000       0.25000000 </v>
    <v>       0.25000000       0.25000000       0.75000004 </v>
    <v>       0.25000000       0.00000000       0.50000000 </v>
    <v>       0.00000000       0.25000000       0.50000000 </v>
    <v>       0.25000000       0.75000004       0.75000004 </v>
    <v>       0.25000000       0.50000000       0.50000000 </v>
    <v>       0.00000000       0.75000004       0.50000000 </v>
    <v>       0.00000000       0.50000000       0.75000004 </v>
    <v>       0.75000004       0.75000004       0.75000004 </v>
    <v>       0.75000004       0.50000000       0.50000000 </v>
    <v>       0.50000000       0.75000004       0.50000000 </v>
    <v>       0.50000000       0.50000000       0.75000004 </v>
    <v>       0.50000000       0.00000000       0.00000000 </v>
    <v>       0.00000000       0.50000000       0.00000000 </v>
    <v>       0.50000000       0.75000004       0.25000000 </v>
    <v>       0.25000000       0.00000000       0.75000004 </v>
    <v>       0.50000000       0.00000000       0.50000000 </v>
    <v>       0.75000004       0.00000000       0.75000004 </v>
    <v>       0.25000000       0.75000004       0.50000000 </v>
    <v>       0.00000000       0.75000004       0.25000000 </v>
    <v>       0.75000004       0.50000000       0.25000000 </v>
    <v>       0.00000000       0.00000000       0.50000000 </v>
    <v>       0.50000000       0.50000000       0.50000000 </v>
    <v>       0.75000004       0.50000000       0.75000004 </v>
    <v>       0.75000004       0.75000004       0.50000000 </v>
   </varray>
  </structure>
  <varray name="primitive_index" >
   <v type="int" >        1 </v>
   <v type="int" >        2 </v>
   <v type="int" >        3 </v>
   <v type="int" >        4 </v>
   <v type="int" >        5 </v>
   <v type="int" >        6 </v>
   <v type="int" >        7 </v>
   <v type="int" >        8 </v>
   <v type="int" >        9 </v>
   <v type="int" >       10 </v>
   <v type="int" >       11 </v>
   <v type="int" >       12 </v>
   <v type="int" >       13 </v>
   <v type="int" >       14 </v>
   <v type="int" >       15 </v>
   <v type="int" >       16 </v>
   <v type="int" >       17 </v>
   <v type="int" >       18 </v>
   <v type="int" >       19 </v>
   <v type="int" >       20 </v>
   <v type="int" >       21 </v>
   <v type="int" >       22 </v>
   <v type="int" >       23 </v>
   <v type="int" >       24 </v>
   <v type="int" >       25 </v>
   <v type="int" >       26 </v>
   <v type="int" >       27 </v>
   <v type="int" >       28 </v>
   <v type="int" >       29 </v>
   <v type="int" >       30 </v>
   <v type="int" >       31 </v>
   <v type="int" >       32 </v>
   <v type="int" >       33 </v>
   <v type="int" >       34 </v>
   <v type="int" >       35 </v>
   <v type="int" >       36 </v>
   <v type="int" >       37 </v>
   <v type="int" >       38 </v>
   <v type="int" >       39 </v>
   <v type="int" >       40 </v>
   <v type="int" >       41 </v>
   <v type="int" >       42 </v>
   <v type="int" >       43 </v>
   <v type="int" >       44 </v>
   <v type="int" >       45 </v>
   <v type="int" >       46 </v>
   <v type="int" >       47 </v>
   <v type="int" >       48 </v>
   <v type="int" >       49 </v>
   <v type="int" >       50 </v>
   <v type="int" >       51 </v>
   <v type="int" >       52 </v>
   <v type="int" >       53 </v>
   <v type="int" >       54 </v>
   <v type="int" >       55 </v>
   <v type="int" >       56 </v>
   <v type="int" >       57 </v>
   <v type="int" >       58 </v>
   <v type="int" >       59 </v>
   <v type="int" >       60 </v>
   <v type="int" >       61 </v>
   <v type="int" >       62 </v>
   <v type="int" >       63 </v>
   <v type="int" >       64 </v>
  </varray>
 </primitive_cell>
 <kpoints>
  <generation param="Gamma">
   <v type="int" name="divisions">       3        3        3 </v>
   <v name="usershift">      0.00000000       0.00000000       0.00000000 </v>
   <v name="genvec1">      0.33333333       0.00000000       0.00000000 </v>
   <v name="genvec2">      0.00000000       0.33333333       0.00000000 </v>
   <v name="genvec3">      0.00000000       0.00000000       0.33333333 </v>
   <v name="shift">      0.00000000       0.00000000       0.00000000 </v>
  </generation>
  <varray name="kpointlist" >
   <v>       0.00000000       0.00000000       0.00000000 </v>
   <v>       0.33333333       0.00000000       0.00000000 </v>
   <v>       0.00000000       0.33333333       0.00000000 </v>
   <v>       0.00000000       0.00000000       0.33333333 </v>
   <v>       0.33333333       0.33333333       0.00000000 </v>
   <v>       0.00000000       0.33333333       0.33333333 </v>
   <v>       0.33333333       0.00000000       0.33333333 </v>
   <v>      -0.33333333       0.33333333       0.00000000 </v>
   <v>      -0.33333333       0.00000000       0.33333333 </v>
   <v>       0.00000000      -0.33333333       0.33333333 </v>
   <v>       0.33333333       0.33333333       0.33333333 </v>
   <v>      -0.33333333       0.33333333       0.33333333 </v>
   <v>      -0.33333333      -0.33333333       0.33333333 </v>
   <v>       0.33333333      -0.33333333       0.33333333 </v>
  </varray>
  <varray name="weights" >
   <v>       0.03703704 </v>
   <v>       0.07407407 </v>
   <v>       0.07407407 </v>
   <v>       0.07407407 </v>
   <v>       0.07407407 </v>
   <v>       0.07407407 </v>
   <v>       0.07407407 </v>
   <v>       0.07407407 </v>
   <v>       0.07407407 </v>
   <v>       0.07407407 </v>
   <v>       0.07407407 </v>
   <v>       0.07407407 </v>
   <v>       0.07407407 </v>
   <v>       0.07407407 </v>
  </varray>
 </kpoints>
 <parameters>
  <separator name="general" >
   <i type="string" name="SYSTEM">HECN</i>
   <i type="logical" name="LCOMPAT"> F  </i>
  </separator>
  <separator name="electronic" >
   <i type="string" name="PREC">normal</i>
   <i name="ENMAX">    400.00000000</i>
   <i name="ENAUG">    644.87300000</i>
   <i name="EDIFF">      0.00001000</i>
   <i type="int" name="IALGO">    68</i>
   <i type="int" name="IWAVPR">    11</i>
   <i type="int" name="NBANDS">   280</i>
   <i type="int" name="NBANDSLOW">    -1</i>
   <i type="int" name="NBANDSHIGH">    -1</i>
   <i name="NELECT">    437.00000000</i>
   <i type="int" name="TURBO">     0</i>
   <i type="int" name="IRESTART">     0</i>
   <i type="int" name="NREBOOT">     0</i>
   <i type="int" name="NMIN">     0</i>
   <i name="EREF">      0.00000000</i>
   <separator name="electronic smearing" >
    <i type="int" name="ISMEAR">     0</i>
    <i name="SIGMA">      0.10000000</i>
    <i name="KSPACING">      0.50000000</i>
    <i type="logical" name="KGAMMA"> T  </i>
    <i type="logical" name="KBLOWUP"> T  </i>
   </separator>
   <separator name="electronic projectors" >
    <i type="logical" name="LREAL"> F  </i>
    <v name="ROPT">      0.00000000      0.00000000      0.00000000      0.00000000      0.00000000      0.00000000      0.00000000</v>
    <i type="int" name="LMAXPAW">  -100</i>
    <i type="int" name="LMAXMIX">     2</i>
    <i type="logical" name="NLSPLINE"> F  </i>
   </separator>
   <separator name="electronic startup" >
    <i type="int" name="ISTART">     0</i>
    <i type="int" name="ICHARG">     2</i>
    <i type="int" name="INIWAV">     1</i>
   </separator>
   <separator name="electronic spin" >
    <i type="int" name="ISPIN">     1</i>
    <i type="logical" name="LNONCOLLINEAR"> F  </i>
    <v name="MAGMOM">      1.00000000      1.00000000      1.00000000      1.00000000      1.00000000      1.00000000      1.00000000      1.00000000      1.00000000      1.00000000      1.00000000      1.00000000      1.00000000      1.00000000      1.00000000      1.00000000      1.00000000      1.00000000      1.00000000      1.00000000
      1.00000000      1.00000000      1.00000000      1.00000000      1.00000000      1.00000000      1.00000000      1.00000000      1.00000000      1.00000000      1.00000000      1.00000000      1.00000000      1.00000000      1.00000000      1.00000000      1.00000000      1.00000000      1.00000000      1.00000000
      1.00000000      1.00000000      1.00000000      1.00000000      1.00000000      1.00000000      1.00000000      1.00000000      1.00000000      1.00000000      1.00000000      1.00000000      1.00000000      1.00000000      1.00000000      1.00000000      1.00000000      1.00000000      1.00000000      1.00000000
      1.00000000      1.00000000      1.00000000      1.00000000</v>
    <i name="NUPDOWN">     -1.00000000</i>
    <i type="logical" name="LSORBIT"> F  </i>
    <v name="SAXIS">      0.00000000      0.00000000      1.00000000</v>
    <i type="logical" name="LSPIRAL"> F  </i>
    <v name="QSPIRAL">      0.00000000      0.00000000      0.00000000</v>
    <i type="logical" name="LZEROZ"> F  </i>
   </separator>
   <separator name="electronic exchange-correlation" >
    <i type="logical" name="LASPH"> F  </i>
   </separator>
   <separator name="electronic convergence" >
    <i type="int" name="NELM">    60</i>
    <i type="int" name="NELMDL">    -5</i>
    <i type="int" name="NELMIN">     2</i>
    <i name="ENINI">    400.00000000</i>
    <separator name="electronic convergence detail" >
     <i type="logical" name="LDIAG"> T  </i>
     <i type="logical" name="LSUBROT"> F  </i>
     <i name="WEIMIN">      0.00100000</i>
     <i name="EBREAK">      0.00000001</i>
     <i name="DEPER">      0.30000000</i>
     <i type="int" name="NRMM">     4</i>
     <i name="TIME">      0.40000000</i>
    </separator>
   </separator>
   <separator name="electronic mixer" >
    <i name="AMIX">      0.40000000</i>
    <i name="BMIX">      1.00000000</i>
    <i name="AMIN">      0.10000000</i>
    <i name="AMIX_MAG">      1.60000000</i>
    <i name="BMIX_MAG">      1.00000000</i>
    <separator name="electronic mixer details" >
     <i type="int" name="IMIX">     4</i>
     <i type="logical" name="MIXFIRST"> F  </i>
     <i type="int" name="MAXMIX">   -45</i>
     <i name="WC">    100.00000000</i>
     <i type="int" name="INIMIX">     1</i>
     <i type="int" name="MIXPRE">     1</i>
     <i type="int" name="MREMOVE">     5</i>
    </separator>
   </separator>
   <separator name="electronic dipolcorrection" >
    <i type="logical" name="LDIPOL"> F  </i>
    <i type="logical" name="LMONO"> F  </i>
    <i type="int" name="IDIPOL">     0</i>
    <i name="EPSILON">      1.00000000</i>
    <v name="DIPOL">   -100.00000000   -100.00000000   -100.00000000</v>
    <i name="EFIELD">      0.00000000</i>
    <i type="logical" name="LVACPOTAV"> F  </i>
   </separator>
  </separator>
  <separator name="grids" >
   <i type="int" name="NGX">    56</i>
   <i type="int" name="NGY">    56</i>
   <i type="int" name="NGZ">    56</i>
   <i type="int" name="NGXF">   112</i>
   <i type="int" name="NGYF">   112</i>
   <i type="int" name="NGZF">   112</i>
   <i type="logical" name="ADDGRID"> F  </i>
  </separator>
  <separator name="ionic" >
   <i type="int" name="NSW">   100</i>
   <i type="int" name="IBRION">     2</i>
   <i type="int" name="MDALGO">     0</i>
   <i type="int" name="ISIF">     3</i>
   <i name="PSTRESS">      0.00000000</i>
   <i name="EDIFFG">     -0.01000000</i>
   <i type="int" name="NFREE">     1</i>
   <i name="POTIM">      0.50000000</i>
   <i name="SMASS">     -3.00000000</i>
   <i name="SCALEE">      1.00000000</i>
  </separator>
  <separator name="ionic md" >
   <i name="TEBEG">      0.00010000</i>
   <i name="TEEND">      0.00010000</i>
   <i type="int" name="NBLOCK">     1</i>
   <i type="int" name="KBLOCK">   100</i>
   <i type="int" name="NPACO">   256</i>
   <i name="APACO">     10.00000000</i>
  </separator>
  <separator name="symmetry" >
   <i type="int" name="ISYM">     2</i>
   <i name="SYMPREC">      0.00001000</i>
  </separator>
  <separator name="dos" >
   <i type="int" name="LORBIT">     0</i>
   <v name="RWIGS">     -1.00000000     -1.00000000     -1.00000000     -1.00000000     -1.00000000     -1.00000000     -1.00000000</v>
   <i type="int" name="NEDOS">   301</i>
   <i name="EMIN">     10.00000000</i>
   <i name="EMAX">    -10.00000000</i>
   <i name="EFERMI">      0.00000000</i>
  </separator>
  <separator name="writing" >
   <i type="int" name="NWRITE">     2</i>
   <i type="logical" name="LWAVE"> F  </i>
   <i type="logical" name="LDOWNSAMPLE"> F  </i>
   <i type="logical" name="LCHARG"> F  </i>
   <i type="logical" name="LPARD"> F  </i>
   <i type="logical" name="LVTOT"> F  </i>
   <i type="logical" name="LVHAR"> F  </i>
   <i type="logical" name="LELF"> F  </i>
   <i type="logical" name="LOPTICS"> F  </i>
   <v name="STM">      0.00000000      0.00000000      0.00000000      0.00000000      0.00000000      0.00000000      0.00000000</v>
  </separator>
  <separator name="performance" >
   <i type="int" name="NPAR">    28</i>
   <i type="int" name="NSIM">     4</i>
   <i type="int" name="NBLK">    -1</i>
   <i type="logical" name="LPLANE"> T  </i>
   <i type="logical" name="LSCALAPACK"> T  </i>
   <i type="logical" name="LSCAAWARE"> F  </i>
   <i type="logical" name="LSCALU"> F  </i>
   <i type="logical" name="LASYNC"> F  </i>
   <i type="logical" name="LORBITALREAL"> F  </i>
  </separator>
  <separator name="miscellaneous" >
   <i type="int" name="IDIOT">     3</i>
   <i type="int" name="PHON_NSTRUCT">    -1</i>
   <i type="logical" name="LMUSIC"> F  </i>
   <v name="POMASS">     47.88000000     92.00000000    178.49000000     14.00100000     12.01100000     91.22400000    183.85000000</v>
   <v name="DARWINR">      0.00000000      0.00000000      0.00000000      0.00000000      0.00000000      0.00000000      0.00000000</v>
   <v name="DARWINV">      1.00000000      1.00000000      1.00000000      1.00000000      1.00000000      1.00000000      1.00000000</v>
   <i type="logical" name="LCORR"> T  </i>
  </separator>
  <i type="logical" name="GGA_COMPAT"> T  </i>
  <i type="logical" name="LBERRY"> F  </i>
  <i type="int" name="ICORELEVEL">     0</i>
  <i type="logical" name="LDAU"> F  </i>
  <i type="int" name="I_CONSTRAINED_M">     0</i>
  <separator name="electronic exchange-correlation" >
   <i type="string" name="GGA    ">PE</i>
   <i type="string" name="XC_C">1</i>
   <i type="int" name="VOSKOWN">     0</i>
   <i type="logical" name="LHFCALC"> F  </i>
   <i type="string" name="PRECFOCK"></i>
   <i type="logical" name="LSYMGRAD"> F  </i>
   <i type="logical" name="LHFONE"> F  </i>
   <i type="logical" name="LRHFCALC"> F  </i>
   <i type="logical" name="LTHOMAS"> F  </i>
   <i type="logical" name="LMODELHF"> F  </i>
   <i type="logical" name="LFOCKACE"> F  </i>
   <i name="ENCUT4O">     -1.00000000</i>
   <i type="int" name="EXXOEP">     0</i>
   <i type="int" name="FOURORBIT">     0</i>
   <i name="AEXX">      0.00000000</i>
   <i name="HFALPHA">      0.00000000</i>
   <i name="MCALPHA">      0.00000000</i>
   <i name="ALDAX">      1.00000000</i>
   <i name="AGGAX">      1.00000000</i>
   <i name="AMGGAX">      1.00000000</i>
   <i name="ALDAC">      1.00000000</i>
   <i name="AGGAC">      1.00000000</i>
   <i name="AMGGAC">      1.00000000</i>
   <i type="int" name="NKREDX">     1</i>
   <i type="int" name="NKREDY">     1</i>
   <i type="int" name="NKREDZ">     1</i>
   <i type="logical" name="SHIFTRED"> F  </i>
   <i type="logical" name="ODDONLY"> F  </i>
   <i type="logical" name="EVENONLY"> F  </i>
   <i type="int" name="LMAXFOCK">     0</i>
   <i type="int" name="NMAXFOCKAE">     0</i>
   <i type="logical" name="LFOCKAEDFT"> F  </i>
   <i name="HFSCREEN">      0.00000000</i>
   <i name="HFSCREENC">      0.00000000</i>
   <i type="int" name="NBANDSGWLOW">     0</i>
  </separator>
  <separator name="vdW DFT" >
   <i type="logical" name="LUSE_VDW"> F  </i>
   <i type="int" name="IVDW_NL">    -1</i>
   <i type="logical" name="LSPIN_VDW"> F  </i>
   <i name="ZAB_VDW">     -0.84910000</i>
   <i name="GAMMA_VDW">      1.39626340</i>
   <i name="ALPHA_VDW">      0.00000000</i>
   <i name="PARAM1">      0.12340000</i>
   <i name="PARAM2">      1.00000000</i>
   <i name="BPARAM">      6.30000000</i>
   <i name="CPARAM">      0.00930000</i>
  </separator>
  <separator name="model GW" >
   <i type="int" name="MODEL_GW">     0</i>
   <i name="MODEL_EPS0">     13.31282379</i>
   <i name="MODEL_ALPHA">      1.00000000</i>
  </separator>
  <separator name="linear response parameters" >
   <i type="logical" name="LEPSILON"> F  </i>
   <i type="logical" name="LRPA"> F  </i>
   <i type="logical" name="LNABLA"> F  </i>
   <i type="logical" name="LVEL"> F  </i>
   <i name="CSHIFT">      0.10000000</i>
   <i name="OMEGAMAX">     -1.00000000</i>
   <i name="DEG_THRESHOLD">      0.00200000</i>
   <i name="RTIME">     -0.10000000</i>
   <i name="WPLASMAI">      0.00000000</i>
   <v name="DFIELD">      0.00000000      0.00000000      0.00000000</v>
   <v name="WPLASMA">      0.00000000      0.00000000      0.00000000      0.00000000      0.00000000      0.00000000      0.00000000      0.00000000      0.00000000</v>
  </separator>
  <separator name="orbital magnetization" >
   <i type="logical" name="NUCIND"> F  </i>
   <v name="MAGPOS">      0.00000000      0.00000000      0.00000000</v>
   <i type="logical" name="LNICSALL"> T  </i>
   <i type="logical" name="ORBITALMAG"> F  </i>
   <i type="logical" name="LMAGBLOCH"> F  </i>
   <i type="logical" name="LCHIMAG"> F  </i>
   <i type="logical" name="LGAUGE"> T  </i>
   <i type="int" name="MAGATOM">     0</i>
   <v name="MAGDIPOL">      0.00000000      0.00000000      0.00000000</v>
   <v name="AVECCONST">      0.00000000      0.00000000      0.00000000</v>
  </separator>
  <separator name="response functions" >
   <i type="logical" name="LALL_IN_ONE"> F  </i>
   <i type="int" name="IALL_IN_ONE">    -1</i>
   <i type="int" name="NBANDS_WAVE">    -1</i>
   <i type="logical" name="LFINITE_TEMPERATURE"> F  </i>
   <i type="logical" name="LADDER"> F  </i>
   <i type="logical" name="LRPAFORCE"> F  </i>
   <i type="logical" name="LFXC"> F  </i>
   <i type="logical" name="LHARTREE"> T  </i>
   <i type="int" name="IBSE">     0</i>
   <v type="int" name="KPOINT">    -1     0     0     0</v>
   <i type="logical" name="LTCTC"> F  </i>
   <i type="logical" name="LTCTE"> F  </i>
   <i type="logical" name="LTETE"> F  </i>
   <i type="logical" name="LTRIPLET"> F  </i>
   <i type="logical" name="LFXCEPS"> F  </i>
   <i type="logical" name="LFXHEG"> F  </i>
   <i type="int" name="NATURALO">     2</i>
   <i type="logical" name="LHOLEGF"> F  </i>
   <i type="logical" name="L2ORDER"> F  </i>
   <i type="logical" name="LDMP1"> F  </i>
   <i type="logical" name="LMP2LT"> F  </i>
   <i type="logical" name="LSMP2LT"> F  </i>
   <i type="logical" name="LGWLF"> F  </i>
   <i name="ENCUTGW">     -1.60000002</i>
   <i name="ENCUTGWSOFT">     -1.60000002</i>
   <i name="ENCUTLF">     -1.00000000</i>
   <i type="logical" name="ESF_SPLINES"> F  </i>
   <i name="ESF_CONV">      0.01000000</i>
   <i type="int" name="ESF_NINTER">    15</i>
   <i type="int" name="LMAXMP2">    -1</i>
   <i name="SCISSOR">      0.00000000</i>
   <i type="int" name="NOMEGA">     0</i>
   <i type="int" name="NOMEGAR">     0</i>
   <i type="int" name="NBANDSGW">    -1</i>
   <i type="int" name="NBANDSO">    -1</i>
   <i type="int" name="NBANDSV">    -1</i>
   <i type="int" name="NELMGW">     1</i>
   <i type="int" name="NELMHF">     1</i>
   <i type="int" name="DIM">     3</i>
   <i type="int" name="IESPILON">     4</i>
   <i type="int" name="ANTIRES">     0</i>
   <i name="OMEGAMAX">    -30.00000000</i>
   <i name="OMEGAMIN">    -30.00000000</i>
   <i name="OMEGATL">   -200.00000000</i>
   <i type="int" name="OMEGAGRID">     0</i>
   <i name="CSHIFT">     -0.10000000</i>
   <i type="logical" name="LSELFENERGY"> F  </i>
   <i type="logical" name="LSPECTRAL"> F  </i>
   <i type="logical" name="LSPECTRALGW"> F  </i>
   <i type="logical" name="LSINGLES"> F  </i>
   <i type="logical" name="LFERMIGW"> F  </i>
   <i type="logical" name="ODDONLYGW"> F  </i>
   <i type="logical" name="EVENONLYGW"> F  </i>
   <i type="int" name="NKREDLFX">     1</i>
   <i type="int" name="NKREDLFY">     1</i>
   <i type="int" name="NKREDLFZ">     1</i>
   <i type="int" name="MAXMEM">  2800</i>
   <i type="int" name="TELESCOPE">     0</i>
   <i type="int" name="NTAUPAR">    -1</i>
   <i type="int" name="NOMEGAPAR">    -1</i>
   <i name="DAMP_NEWTON">      0.80000001</i>
   <i name="LAMBDA">      1.00000000</i>
  </separator>
  <separator name="External order field" >
   <i name="OFIELD_KAPPA">      0.00000000</i>
   <v name="OFIELD_K">      0.00000000      0.00000000      0.00000000</v>
   <i name="OFIELD_Q6_NEAR">      0.00000000</i>
   <i name="OFIELD_Q6_FAR">      0.00000000</i>
   <i name="OFIELD_A">      0.00000000</i>
  </separator>
  <separator name="optional k-points parameters" >
   <i type="int" name="KPOINTS_OPT_MODE">     1</i>
   <i type="logical" name="LKPOINTS_OPT"> F  </i>
  </separator>
  <separator name="solvation model" >
   <i type="logical" name="LSOL"> F  </i>
  </separator>
 </parameters>
 <atominfo>
  <atoms>      64 </atoms>
  <types>       7 </types>
  <array name="atoms" >
   <dimension dim="1">ion</dimension>
   <field type="string">element</field>
   <field type="int">atomtype</field>
   <set>
    <rc><c>Ti</c><c>   1</c></rc>
    <rc><c>Ti</c><c>   1</c></rc>
    <rc><c>Ti</c><c>   1</c></rc>
    <rc><c>Ti</c><c>   1</c></rc>
    <rc><c>Ti</c><c>   1</c></rc>
    <rc><c>Ti</c><c>   1</c></rc>
    <rc><c>Ti</c><c>   1</c></rc>
    <rc><c>Nb</c><c>   2</c></rc>
    <rc><c>Nb</c><c>   2</c></rc>
    <rc><c>Nb</c><c>   2</c></rc>
    <rc><c>Nb</c><c>   2</c></rc>
    <rc><c>Nb</c><c>   2</c></rc>
    <rc><c>Nb</c><c>   2</c></rc>
    <rc><c>Hf</c><c>   3</c></rc>
    <rc><c>Hf</c><c>   3</c></rc>
    <rc><c>Hf</c><c>   3</c></rc>
    <rc><c>Hf</c><c>   3</c></rc>
    <rc><c>Hf</c><c>   3</c></rc>
    <rc><c>Hf</c><c>   3</c></rc>
    <rc><c>N </c><c>   4</c></rc>
    <rc><c>N </c><c>   4</c></rc>
    <rc><c>N </c><c>   4</c></rc>
    <rc><c>N </c><c>   4</c></rc>
    <rc><c>N </c><c>   4</c></rc>
    <rc><c>N </c><c>   4</c></rc>
    <rc><c>N </c><c>   4</c></rc>
    <rc><c>N </c><c>   4</c></rc>
    <rc><c>N </c><c>   4</c></rc>
    <rc><c>N </c><c>   4</c></rc>
    <rc><c>N </c><c>   4</c></rc>
    <rc><c>N </c><c>   4</c></rc>
    <rc><c>N </c><c>   4</c></rc>
    <rc><c>C </c><c>   5</c></rc>
    <rc><c>C </c><c>   5</c></rc>
    <rc><c>C </c><c>   5</c></rc>
    <rc><c>C </c><c>   5</c></rc>
    <rc><c>C </c><c>   5</c></rc>
    <rc><c>C </c><c>   5</c></rc>
    <rc><c>C </c><c>   5</c></rc>
    <rc><c>C </c><c>   5</c></rc>
    <rc><c>C </c><c>   5</c></rc>
    <rc><c>C </c><c>   5</c></rc>
    <rc><c>C </c><c>   5</c></rc>
    <rc><c>C </c><c>   5</c></rc>
    <rc><c>C </c><c>   5</c></rc>
    <rc><c>C </c><c>   5</c></rc>
    <rc><c>C </c><c>   5</c></rc>
    <rc><c>C </c><c>   5</c></rc>
    <rc><c>C </c><c>   5</c></rc>
    <rc><c>C </c><c>   5</c></rc>
    <rc><c>C </c><c>   5</c></rc>
    <rc><c>Zr</c><c>   6</c></rc>
    <rc><c>Zr</c><c>   6</c></rc>
    <rc><c>Zr</c><c>   6</c></rc>
    <rc><c>Zr</c><c>   6</c></rc>
    <rc><c>Zr</c><c>   6</c></rc>
    <rc><c>Zr</c><c>   6</c></rc>
    <rc><c>Zr</c><c>   6</c></rc>
    <rc><c>W </c><c>   7</c></rc>
    <rc><c>W </c><c>   7</c></rc>
    <rc><c>W </c><c>   7</c></rc>
    <rc><c>W </c><c>   7</c></rc>
    <rc><c>W </c><c>   7</c></rc>
    <rc><c>W </c><c>   7</c></rc>
   </set>
  </array>
  <array name="atomtypes" >
   <dimension dim="1">type</dimension>
   <field type="int">atomspertype</field>
   <field type="string">element</field>
   <field>mass</field>
   <field>valence</field>
   <field type="string">pseudopotential</field>
   <set>
    <rc><c>   7</c><c>Ti</c><c>     47.88000000</c><c>     10.00000000</c><c> PAW_PBE Ti_pv 07Sep2000                </c></rc>
    <rc><c>   6</c><c>Nb</c><c>     92.00000000</c><c>     11.00000000</c><c> PAW_PBE Nb_pv 08Apr2002                </c></rc>
    <rc><c>   6</c><c>Hf</c><c>    178.49000000</c><c>     10.00000000</c><c> PAW_PBE Hf_pv 06Sep2000                </c></rc>
    <rc><c>  13</c><c>N </c><c>     14.00100000</c><c>      5.00000000</c><c> PAW_PBE N 08Apr2002                    </c></rc>
    <rc><c>  19</c><c>C </c><c>     12.01100000</c><c>      4.00000000</c><c> PAW_PBE C 08Apr2002                    </c></rc>
    <rc><c>   7</c><c>Zr</c><c>     91.22400000</c><c>      4.00000000</c><c> PAW_PBE Zr 08Apr2002                   </c></rc>
    <rc><c>   6</c><c>W </c><c>    183.85000000</c><c>     12.00000000</c><c> PAW_PBE W_pv 06Sep2000                 </c></rc>
   </set>
  </array>
 </atominfo>
 <structure name="initialpos" >
  <crystal>
   <varray name="basis" >
    <v>      11.23999977       0.00000000       0.00000000 </v>
    <v>       0.00000000      11.23999977       0.00000000 </v>
    <v>       0.00000000       0.00000000      11.23999977 </v>
   </varray>
   <i name="volume">   1420.03453724 </i>
   <varray name="rec_basis" >
    <v>       0.08896797       0.00000000       0.00000000 </v>
    <v>       0.00000000       0.08896797       0.00000000 </v>
    <v>       0.00000000       0.00000000       0.08896797 </v>
   </varray>
  </crystal>
  <varray name="positions" >
   <v>       0.00000000       0.00000000       0.00000000 </v>
   <v>       0.25000000       0.00000000       0.25000000 </v>
   <v>       0.25000000       0.50000000       0.25000000 </v>
   <v>       0.50000000       0.50000000       0.00000000 </v>
   <v>       0.50000000       0.25000000       0.75000004 </v>
   <v>       0.00000000       0.50000000       0.50000000 </v>
   <v>       0.50000000       0.75000004       0.75000004 </v>
   <v>       0.00000000       0.25000000       0.25000000 </v>
   <v>       0.75000004       0.75000004       0.00000000 </v>
   <v>       0.00000000       0.25000000       0.75000004 </v>
   <v>       0.75000004       0.25000000       0.50000000 </v>
   <v>       0.00000000       0.75000004       0.75000004 </v>
   <v>       0.25000000       0.50000000       0.75000004 </v>
   <v>       0.25000000       0.25000000       0.00000000 </v>
   <v>       0.50000000       0.25000000       0.25000000 </v>
   <v>       0.75000004       0.00000000       0.25000000 </v>
   <v>       0.75000004       0.25000000       0.00000000 </v>
   <v>       0.25000000       0.75000004       0.00000000 </v>
   <v>       0.25000000       0.25000000       0.50000000 </v>
   <v>       0.25000000       0.25000000       0.25000000 </v>
   <v>       0.25000000       0.00000000       0.00000000 </v>
   <v>       0.00000000       0.25000000       0.00000000 </v>
   <v>       0.75000004       0.25000000       0.25000000 </v>
   <v>       0.75000004       0.00000000       0.00000000 </v>
   <v>       0.50000000       0.00000000       0.25000000 </v>
   <v>       0.00000000       0.50000000       0.25000000 </v>
   <v>       0.50000000       0.75000004       0.00000000 </v>
   <v>       0.00000000       0.00000000       0.75000004 </v>
   <v>       0.75000004       0.25000000       0.75000004 </v>
   <v>       0.75000004       0.00000000       0.50000000 </v>
   <v>       0.50000000       0.25000000       0.50000000 </v>
   <v>       0.50000000       0.00000000       0.75000004 </v>
   <v>       0.00000000       0.00000000       0.25000000 </v>
   <v>       0.50000000       0.25000000       0.00000000 </v>
   <v>       0.25000000       0.75000004       0.25000000 </v>
   <v>       0.25000000       0.50000000       0.00000000 </v>
   <v>       0.00000000       0.75000004       0.00000000 </v>
   <v>       0.75000004       0.75000004       0.25000000 </v>
   <v>       0.75000004       0.50000000       0.00000000 </v>
   <v>       0.50000000       0.50000000       0.25000000 </v>
   <v>       0.25000000       0.25000000       0.75000004 </v>
   <v>       0.25000000       0.00000000       0.50000000 </v>
   <v>       0.00000000       0.25000000       0.50000000 </v>
   <v>       0.25000000       0.75000004       0.75000004 </v>
   <v>       0.25000000       0.50000000       0.50000000 </v>
   <v>       0.00000000       0.75000004       0.50000000 </v>
   <v>       0.00000000       0.50000000       0.75000004 </v>
   <v>       0.75000004       0.75000004       0.75000004 </v>
   <v>       0.75000004       0.50000000       0.50000000 </v>
   <v>       0.50000000       0.75000004       0.50000000 </v>
   <v>       0.50000000       0.50000000       0.75000004 </v>
   <v>       0.50000000       0.00000000       0.00000000 </v>
   <v>       0.00000000       0.50000000       0.00000000 </v>
   <v>       0.50000000       0.75000004       0.25000000 </v>
   <v>       0.25000000       0.00000000       0.75000004 </v>
   <v>       0.50000000       0.00000000       0.50000000 </v>
   <v>       0.75000004       0.00000000       0.75000004 </v>
   <v>       0.25000000       0.75000004       0.50000000 </v>
   <v>       0.00000000       0.75000004       0.25000000 </v>
   <v>       0.75000004       0.50000000       0.25000000 </v>
   <v>       0.00000000       0.00000000       0.50000000 </v>
   <v>       0.50000000       0.50000000       0.50000000 </v>
   <v>       0.75000004       0.50000000       0.75000004 </v>
   <v>       0.75000004       0.75000004       0.50000000 </v>
  </varray>
 </structure>
 <calculation>
  <scstep>
   <time name="dav">   52.48   52.73</time>
   <time name="total">   52.52   52.79</time>
   <energy>
    <i name="alphaZ">   1750.11566466 </i>
    <i name="ewald"> -23815.05943141 </i>
    <i name="hartreedc">  -7962.84556730 </i>
    <i name="XCdc">    488.71576151 </i>
    <i name="pawpsdc">  20454.15370312 </i>
    <i name="pawaedc"> -19519.38515857 </i>
    <i name="eentropy">     -0.12618049 </i>
    <i name="bandstr">   -739.76623014 </i>
    <i name="atom">  33053.36327190 </i>
    <i name="e_fr_energy">   3709.16583328 </i>
    <i name="e_wo_entrp">   3709.29201377 </i>
    <i name="e_0_energy">   3709.22892353 </i>
   </energy>
  </scstep>
  <scstep>
   <time name="dav">   50.87   51.72</time>
   <time name="total">   50.87   51.72</time>
   <energy>
    <i name="e_fr_energy">    128.10099218 </i>
    <i name="e_wo_entrp">    128.35930995 </i>
    <i name="e_0_energy">    128.23015106 </i>
   </energy>
  </scstep>
  <scstep>
   <time name="dav">   70.66   71.22</time>
   <time name="total">   70.66   71.22</time>
   <energy>
    <i name="e_fr_energy">   -562.38916522 </i>
    <i name="e_wo_entrp">   -562.19383255 </i>
    <i name="e_0_energy">   -562.29149889 </i>
   </energy>
  </scstep>
  <scstep>
   <time name="dav">   68.46   69.02</time>
   <time name="total">   68.46   69.02</time>
   <energy>
    <i name="e_fr_energy">   -635.80109693 </i>
    <i name="e_wo_entrp">   -635.59242359 </i>
    <i name="e_0_energy">   -635.69676026 </i>
   </energy>
  </scstep>
  <scstep>
   <time name="dav">   71.41   71.77</time>
   <time name="total">   71.80   72.17</time>
   <energy>
    <i name="e_fr_energy">   -643.83899625 </i>
    <i name="e_wo_entrp">   -643.63475535 </i>
    <i name="e_0_energy">   -643.73687580 </i>
   </energy>
  </scstep>
  <scstep>
   <time name="diag">    1.98    2.01</time>
   <time name="diis">   46.28   46.64</time>
   <time name="orth">    0.46    0.46</time>
   <time name="total">   49.14   49.53</time>
   <energy>
    <i name="e_fr_energy">   -507.18488544 </i>
    <i name="e_wo_entrp">   -506.87112338 </i>
    <i name="e_0_energy">   -507.02800441 </i>
   </energy>
  </scstep>
  <scstep>
   <time name="diag">    1.98    1.98</time>
   <time name="diis">   44.39   44.75</time>
   <time name="orth">    0.51    0.52</time>
   <time name="total">   47.31   47.67</time>
   <energy>
    <i name="e_fr_energy">   -474.45085848 </i>
    <i name="e_wo_entrp">   -474.12976616 </i>
    <i name="e_0_energy">   -474.29031232 </i>
   </energy>
  </scstep>
  <scstep>
   <time name="diag">    1.95    1.96</time>
   <time name="diis">   48.98   49.46</time>
   <time name="orth">    0.46    0.46</time>
   <time name="total">   51.81   52.30</time>
   <energy>
    <i name="e_fr_energy">   -482.53193776 </i>
    <i name="e_wo_entrp">   -482.19661660 </i>
    <i name="e_0_energy">   -482.36427718 </i>
   </energy>
  </scstep>
  <scstep>
   <time name="diag">    1.99    1.99</time>
   <time name="diis">   49.59   49.89</time>
   <time name="orth">    0.47    0.47</time>
   <time name="total">   52.46   52.78</time>
   <energy>
    <i name="e_fr_energy">   -482.45679212 </i>
    <i name="e_wo_entrp">   -482.15585751 </i>
    <i name="e_0_energy">   -482.30632482 </i>
   </energy>
  </scstep>
  <scstep>
   <time name="diag">    2.03    2.04</time>
   <time name="diis">   46.21   46.61</time>
   <time name="orth">    0.47    0.47</time>
   <time name="total">   49.14   49.55</time>
   <energy>
    <i name="e_fr_energy">   -481.65612870 </i>
    <i name="e_wo_entrp">   -481.35018424 </i>
    <i name="e_0_energy">   -481.50315647 </i>
   </energy>
  </scstep>
  <scstep>
   <time name="diag">    2.05    2.06</time>
   <time name="diis">   49.34   49.83</time>
   <time name="orth">    0.49    0.49</time>
   <time name="total">   52.31   52.80</time>
   <energy>
    <i name="e_fr_energy">   -481.83802847 </i>
    <i name="e_wo_entrp">   -481.51508207 </i>
    <i name="e_0_energy">   -481.67655527 </i>
   </energy>
  </scstep>
  <scstep>
   <time name="diag">    1.96    1.97</time>
   <time name="diis">   46.32   46.77</time>
   <time name="orth">    0.46    0.47</time>
   <time name="total">   49.19   49.64</time>
   <energy>
    <i name="e_fr_energy">   -481.57908328 </i>
    <i name="e_wo_entrp">   -481.21948677 </i>
    <i name="e_0_energy">   -481.39928502 </i>
   </energy>
  </scstep>
  <scstep>
   <time name="diag">    2.00    2.02</time>
   <time name="diis">   49.70   50.13</time>
   <time name="orth">    0.50    0.51</time>
   <time name="total">   52.70   53.15</time>
   <energy>
    <i name="e_fr_energy">   -481.74367751 </i>
    <i name="e_wo_entrp">   -481.37840251 </i>
    <i name="e_0_energy">   -481.56104001 </i>
   </energy>
  </scstep>
  <scstep>
   <time name="diag">    2.00    2.00</time>
   <time name="diis">   47.43   47.82</time>
   <time name="orth">    0.47    0.47</time>
   <time name="total">   50.34   50.74</time>
   <energy>
    <i name="e_fr_energy">   -482.01497099 </i>
    <i name="e_wo_entrp">   -481.63289633 </i>
    <i name="e_0_energy">   -481.82393366 </i>
   </energy>
  </scstep>
  <scstep>
   <time name="diag">    1.98    1.99</time>
   <time name="diis">   48.47   48.77</time>
   <time name="orth">    0.52    0.52</time>
   <time name="total">   51.41   51.72</time>
   <energy>
    <i name="e_fr_energy">   -482.16818274 </i>
    <i name="e_wo_entrp">   -481.78190484 </i>
    <i name="e_0_energy">   -481.97504379 </i>
   </energy>
  </scstep>
  <scstep>
   <time name="diag">    1.91    1.92</time>
   <time name="diis">   46.32   46.74</time>
   <time name="orth">    0.49    0.49</time>
   <time name="total">   49.16   49.58</time>
   <energy>
    <i name="e_fr_energy">   -482.24253590 </i>
    <i name="e_wo_entrp">   -481.86334101 </i>
    <i name="e_0_energy">   -482.05293846 </i>
   </energy>
  </scstep>
  <scstep>
   <time name="diag">    2.05    2.07</time>
   <time name="diis">   46.82   47.10</time>
   <time name="orth">    0.48    0.48</time>
   <time name="total">   49.78   50.08</time>
   <energy>
    <i name="e_fr_energy">   -482.26394885 </i>
    <i name="e_wo_entrp">   -481.87860885 </i>
    <i name="e_0_energy">   -482.07127885 </i>
   </energy>
  </scstep>
  <scstep>
   <time name="diag">    1.93    1.93</time>
   <time name="diis">   50.17   50.58</time>
   <time name="orth">    0.52    0.53</time>
   <time name="total">   53.05   53.48</time>
   <energy>
    <i name="e_fr_energy">   -482.29496167 </i>
    <i name="e_wo_entrp">   -481.90860174 </i>
    <i name="e_0_energy">   -482.10178170 </i>
   </energy>
  </scstep>
  <scstep>
   <time name="diag">    2.03    2.03</time>
   <time name="diis">   50.82   51.20</time>
   <time name="orth">    0.46    0.46</time>
   <time name="total">   53.75   54.14</time>
   <energy>
    <i name="e_fr_energy">   -482.31720251 </i>
    <i name="e_wo_entrp">   -481.92685476 </i>
    <i name="e_0_energy">   -482.12202863 </i>
   </energy>
  </scstep>
  <scstep>
   <time name="diag">    1.94    1.95</time>
   <time name="diis">   50.15   50.62</time>
   <time name="orth">    0.45    0.47</time>
   <time name="total">   52.99   53.47</time>
   <energy>
    <i name="e_fr_energy">   -482.34915239 </i>
    <i name="e_wo_entrp">   -481.95872228 </i>
    <i name="e_0_energy">   -482.15393734 </i>
   </energy>
  </scstep>
  <scstep>
   <time name="diag">    2.00    2.00</time>
   <time name="diis">   47.48   47.84</time>
   <time name="orth">    0.67    0.72</time>
   <time name="total">   50.60   51.02</time>
   <energy>
    <i name="e_fr_energy">   -482.36832354 </i>
    <i name="e_wo_entrp">   -481.97570718 </i>
    <i name="e_0_energy">   -482.17201536 </i>
   </energy>
  </scstep>
  <scstep>
   <time name="diag">    2.05    2.06</time>
   <time name="diis">   48.15   48.46</time>
   <time name="orth">    0.49    0.49</time>
   <time name="total">   51.16   51.48</time>
   <energy>
    <i name="e_fr_energy">   -482.38822212 </i>
    <i name="e_wo_entrp">   -481.99326199 </i>
    <i name="e_0_energy">   -482.19074206 </i>
   </energy>
  </scstep>
  <scstep>
   <time name="diag">    1.99    1.99</time>
   <time name="diis">   48.24   48.61</time>
   <time name="orth">    0.54    0.54</time>
   <time name="total">   51.23   51.60</time>
   <energy>
    <i name="e_fr_energy">   -482.40147371 </i>
    <i name="e_wo_entrp">   -482.00353873 </i>
    <i name="e_0_energy">   -482.20250622 </i>
   </energy>
  </scstep>
  <scstep>
   <time name="diag">    1.93    1.93</time>
   <time name="diis">   49.45   49.76</time>
   <time name="orth">    0.47    0.47</time>
   <time name="total">   52.28   52.60</time>
   <energy>
    <i name="e_fr_energy">   -482.41477943 </i>
    <i name="e_wo_entrp">   -482.01473356 </i>
    <i name="e_0_energy">   -482.21475650 </i>
   </energy>
  </scstep>
  <scstep>
   <time name="diag">    1.94    1.94</time>
   <time name="diis">   45.47   45.92</time>
   <time name="orth">    0.46    0.46</time>
   <time name="total">   48.31   48.77</time>
   <energy>
    <i name="e_fr_energy">   -482.42326103 </i>
    <i name="e_wo_entrp">   -482.02234548 </i>
    <i name="e_0_energy">   -482.22280325 </i>
   </energy>
  </scstep>
  <scstep>
   <time name="diag">    2.00    2.01</time>
   <time name="diis">   45.93   46.41</time>
   <time name="orth">    0.46    0.46</time>
   <time name="total">   48.84   49.33</time>
   <energy>
    <i name="e_fr_energy">   -482.43167897 </i>
    <i name="e_wo_entrp">   -482.03001945 </i>
    <i name="e_0_energy">   -482.23084921 </i>
   </energy>
  </scstep>
  <scstep>
   <time name="diag">    1.94    1.95</time>
   <time name="diis">   47.41   47.63</time>
   <time name="orth">    0.47    0.47</time>
   <time name="total">   50.26   50.49</time>
   <energy>
    <i name="e_fr_energy">   -482.43736851 </i>
    <i name="e_wo_entrp">   -482.03509547 </i>
    <i name="e_0_energy">   -482.23623199 </i>
   </energy>
  </scstep>
  <scstep>
   <time name="diag">    1.97    1.98</time>
   <time name="diis">   43.08   43.32</time>
   <time name="orth">    0.46    0.46</time>
   <time name="total">   45.96   46.20</time>
   <energy>
    <i name="e_fr_energy">   -482.44312948 </i>
    <i name="e_wo_entrp">   -482.03949975 </i>
    <i name="e_0_energy">   -482.24131462 </i>
   </energy>
  </scstep>
  <scstep>
   <time name="diag">    2.02    2.03</time>
   <time name="diis">   40.14   40.35</time>
   <time name="orth">    0.47    0.47</time>
   <time name="total">   43.08   43.30</time>
   <energy>
    <i name="e_fr_energy">   -482.44709900 </i>
    <i name="e_wo_entrp">   -482.04256122 </i>
    <i name="e_0_energy">   -482.24483011 </i>
   </energy>
  </scstep>
  <scstep>
   <time name="diag">    2.03    2.04</time>
   <time name="diis">   38.65   38.91</time>
   <time name="orth">    0.46    0.46</time>
   <time name="total">   41.58   41.85</time>
   <energy>
    <i name="e_fr_energy">   -482.45113786 </i>
    <i name="e_wo_entrp">   -482.04557276 </i>
    <i name="e_0_energy">   -482.24835531 </i>
   </energy>
  </scstep>
  <scstep>
   <time name="diag">    1.96    1.98</time>
   <time name="diis">   42.28   42.60</time>
   <time name="orth">    0.46    0.46</time>
   <time name="total">   45.14   45.47</time>
   <energy>
    <i name="e_fr_energy">   -482.45385597 </i>
    <i name="e_wo_entrp">   -482.04763669 </i>
    <i name="e_0_energy">   -482.25074633 </i>
   </energy>
  </scstep>
  <scstep>
   <time name="diag">    2.05    2.06</time>
   <time name="diis">   37.94   39.63</time>
   <time name="orth">    2.70    2.71</time>
   <time name="total">   43.39   45.10</time>
   <energy>
    <i name="e_fr_energy">   -482.45672790 </i>
    <i name="e_wo_entrp">   -482.04976849 </i>
    <i name="e_0_energy">   -482.25324819 </i>
   </energy>
  </scstep>
  <scstep>
   <time name="diag">    9.88    9.92</time>
   <time name="diis">   35.46   36.53</time>
   <time name="orth">    3.15    3.18</time>
   <time name="total">   49.48   50.63</time>
   <energy>
    <i name="e_fr_energy">   -482.45867801 </i>
    <i name="e_wo_entrp">   -482.05092129 </i>
    <i name="e_0_energy">   -482.25479965 </i>
   </energy>
  </scstep>
  <scstep>
   <time name="diag">   11.83   11.92</time>
   <time name="diis">   35.39   35.75</time>
   <time name="orth">    2.45    2.45</time>
   <time name="total">   50.49   50.94</time>
   <energy>
    <i name="e_fr_energy">   -482.46070025 </i>
    <i name="e_wo_entrp">   -482.05250750 </i>
    <i name="e_0_energy">   -482.25660387 </i>
   </energy>
  </scstep>
  <scstep>
   <time name="diag">   11.36   11.38</time>
   <time name="diis">   36.93   37.50</time>
   <time name="orth">    2.50    2.58</time>
   <time name="total">   51.49   52.36</time>
   <energy>
    <i name="e_fr_energy">   -482.46209099 </i>
    <i name="e_wo_entrp">   -482.05344636 </i>
    <i name="e_0_energy">   -482.25776868 </i>
   </energy>
  </scstep>
  <scstep>
   <time name="diag">   14.10   14.60</time>
   <time name="diis">   31.97   32.72</time>
   <time name="orth">    3.32    3.36</time>
   <time name="total">   50.10   51.40</time>
   <energy>
    <i name="e_fr_energy">   -482.46354735 </i>
    <i name="e_wo_entrp">   -482.05450290 </i>
    <i name="e_0_energy">   -482.25902512 </i>
   </energy>
  </scstep>
  <scstep>
   <time name="diag">   12.33   12.40</time>
   <time name="diis">   26.93   28.62</time>
   <time name="orth">    2.59    2.60</time>
   <time name="total">   42.68   44.44</time>
   <energy>
    <i name="e_fr_energy">   -482.46456134 </i>
    <i name="e_wo_entrp">   -482.05507323 </i>
    <i name="e_0_energy">   -482.25981728 </i>
   </energy>
  </scstep>
  <scstep>
   <time name="diag">    2.11    2.12</time>
   <time name="diis">   28.17   29.74</time>
   <time name="orth">    3.78    3.85</time>
   <time name="total">   34.93   36.58</time>
   <energy>
    <i name="e_fr_energy">   -482.46562273 </i>
    <i name="e_wo_entrp">   -482.05574855 </i>
    <i name="e_0_energy">   -482.26068564 </i>
   </energy>
  </scstep>
  <scstep>
   <time name="diag">   10.13   10.18</time>
   <time name="diis">   28.17   28.70</time>
   <time name="orth">    2.62    3.65</time>
   <time name="total">   41.73   43.34</time>
   <energy>
    <i name="e_fr_energy">   -482.46636401 </i>
    <i name="e_wo_entrp">   -482.05613032 </i>
    <i name="e_0_energy">   -482.26124717 </i>
   </energy>
  </scstep>
  <scstep>
   <time name="diag">   10.23   10.68</time>
   <time name="diis">   29.98   30.97</time>
   <time name="orth">    1.53    1.60</time>
   <time name="total">   42.58   44.10</time>
   <energy>
    <i name="e_fr_energy">   -482.46713683 </i>
    <i name="e_wo_entrp">   -482.05658564 </i>
    <i name="e_0_energy">   -482.26186124 </i>
   </energy>
  </scstep>
  <scstep>
   <time name="diag">    2.02    2.02</time>
   <time name="diis">   27.05   27.76</time>
   <time name="orth">    2.59    2.68</time>
   <time name="total">   32.28   33.08</time>
   <energy>
    <i name="e_fr_energy">   -482.46768462 </i>
    <i name="e_wo_entrp">   -482.05690323 </i>
    <i name="e_0_energy">   -482.26229393 </i>
   </energy>
  </scstep>
  <scstep>
   <time name="diag">   11.04   11.31</time>
   <time name="diis">   23.27   24.92</time>
   <time name="orth">    0.50    0.50</time>
   <time name="total">   35.43   37.35</time>
   <energy>
    <i name="e_fr_energy">   -482.46825470 </i>
    <i name="e_wo_entrp">   -482.05723220 </i>
    <i name="e_0_energy">   -482.26274345 </i>
   </energy>
  </scstep>
  <scstep>
   <time name="diag">    2.04    2.04</time>
   <time name="diis">   23.78   24.48</time>
   <time name="orth">    2.88    2.88</time>
   <time name="total">   29.27   30.03</time>
   <energy>
    <i name="e_fr_energy">   -482.46866707 </i>
    <i name="e_wo_entrp">   -482.05740984 </i>
    <i name="e_0_energy">   -482.26303845 </i>
   </energy>
  </scstep>
  <scstep>
   <time name="diag">   11.09   11.88</time>
   <time name="diis">   22.98   23.88</time>
   <time name="orth">    0.47    0.47</time>
   <time name="total">   35.18   37.00</time>
   <energy>
    <i name="e_fr_energy">   -482.46909092 </i>
    <i name="e_wo_entrp">   -482.05762784 </i>
    <i name="e_0_energy">   -482.26335938 </i>
   </energy>
  </scstep>
  <scstep>
   <time name="diag">    6.64    6.86</time>
   <time name="diis">   23.03   23.23</time>
   <time name="orth">    2.58    3.33</time>
   <time name="total">   32.79   33.97</time>
   <energy>
    <i name="e_fr_energy">   -482.46940547 </i>
    <i name="e_wo_entrp">   -482.05772329 </i>
    <i name="e_0_energy">   -482.26356438 </i>
   </energy>
  </scstep>
  <scstep>
   <time name="diag">   10.47   11.49</time>
   <time name="diis">   21.82   22.20</time>
   <time name="orth">    2.69    2.87</time>
   <time name="total">   35.71   37.30</time>
   <energy>
    <i name="e_fr_energy">   -482.46972883 </i>
    <i name="e_wo_entrp">   -482.05781436 </i>
    <i name="e_0_energy">   -482.26377159 </i>
   </energy>
  </scstep>
  <scstep>
   <time name="diag">    9.45   11.34</time>
   <time name="diis">   20.92   22.53</time>
   <time name="orth">    3.05    3.05</time>
   <time name="total">   34.12   37.63</time>
   <energy>
    <i name="e_fr_energy">   -482.46996496 </i>
    <i name="e_wo_entrp">   -482.05789571 </i>
    <i name="e_0_energy">   -482.26393034 </i>
   </energy>
  </scstep>
  <scstep>
   <time name="diag">    2.66    2.66</time>
   <time name="diis">   22.31   23.25</time>
   <time name="orth">    2.82    2.83</time>
   <time name="total">   28.54   29.52</time>
   <energy>
    <i name="e_fr_energy">   -482.47020213 </i>
    <i name="e_wo_entrp">   -482.05798580 </i>
    <i name="e_0_energy">   -482.26409396 </i>
   </energy>
  </scstep>
  <scstep>
   <time name="diag">   10.60   11.92</time>
   <time name="diis">   21.01   21.87</time>
   <time name="orth">    0.46    0.46</time>
   <time name="total">   32.88   35.06</time>
   <energy>
    <i name="e_fr_energy">   -482.47038102 </i>
    <i name="e_wo_entrp">   -482.05803803 </i>
    <i name="e_0_energy">   -482.26420952 </i>
   </energy>
  </scstep>
  <scstep>
   <time name="diag">    2.07    2.07</time>
   <time name="diis">   20.22   21.07</time>
   <time name="orth">    3.11    3.16</time>
   <time name="total">   26.09   27.01</time>
   <energy>
    <i name="e_fr_energy">   -482.47056158 </i>
    <i name="e_wo_entrp">   -482.05809481 </i>
    <i name="e_0_energy">   -482.26432819 </i>
   </energy>
  </scstep>
  <scstep>
   <time name="diag">   14.47   15.47</time>
   <time name="diis">   22.91   23.96</time>
   <time name="orth">    0.62    0.62</time>
   <time name="total">   39.37   41.43</time>
   <energy>
    <i name="e_fr_energy">   -482.47069173 </i>
    <i name="e_wo_entrp">   -482.05813588 </i>
    <i name="e_0_energy">   -482.26441381 </i>
   </energy>
  </scstep>
  <scstep>
   <time name="diag">    2.14    2.15</time>
   <time name="diis">   23.39   23.48</time>
   <time name="orth">    3.24    3.24</time>
   <time name="total">   29.46   29.56</time>
   <energy>
    <i name="e_fr_energy">   -482.47082811 </i>
    <i name="e_wo_entrp">   -482.05816932 </i>
    <i name="e_0_energy">   -482.26449871 </i>
   </energy>
  </scstep>
  <scstep>
   <time name="diag">   12.58   12.70</time>
   <time name="diis">   22.37   22.49</time>
   <time name="orth">    4.59    4.64</time>
   <time name="total">   40.49   40.81</time>
   <energy>
    <i name="e_fr_energy">   -482.47093404 </i>
    <i name="e_wo_entrp">   -482.05817010 </i>
    <i name="e_0_energy">   -482.26455207 </i>
   </energy>
  </scstep>
  <scstep>
   <time name="diag">   12.52   12.60</time>
   <time name="diis">   21.55   21.79</time>
   <time name="orth">    1.71    1.71</time>
   <time name="total">   36.49   36.81</time>
   <energy>
    <i name="e_fr_energy">   -482.47103793 </i>
    <i name="e_wo_entrp">   -482.05818574 </i>
    <i name="e_0_energy">   -482.26461184 </i>
   </energy>
  </scstep>
  <scstep>
   <time name="diag">    1.92    1.92</time>
   <time name="diis">   21.91   22.05</time>
   <time name="orth">    3.18    3.42</time>
   <time name="total">   27.80   28.29</time>
   <energy>
    <i name="e_fr_energy">   -482.47111975 </i>
    <i name="e_wo_entrp">   -482.05818138 </i>
    <i name="e_0_energy">   -482.26465056 </i>
   </energy>
  </scstep>
  <scstep>
   <time name="diag">   16.73   16.77</time>
   <time name="diis">   22.57   22.66</time>
   <time name="orth">    3.64    3.67</time>
   <time name="total">   43.88   44.05</time>
   <energy>
    <i name="e_fr_energy">   -482.47119717 </i>
    <i name="e_wo_entrp">   -482.05818846 </i>
    <i name="e_0_energy">   -482.26469282 </i>
   </energy>
  </scstep>
  <scstep>
   <time name="diag">   12.82   12.84</time>
   <time name="diis">   21.69   21.81</time>
   <time name="orth">    0.46    0.46</time>
   <time name="total">   35.74   35.89</time>
   <energy>
    <i name="e_fr_energy">   -482.47125946 </i>
    <i name="e_wo_entrp">   -482.05818780 </i>
    <i name="e_0_energy">   -482.26472363 </i>
   </energy>
  </scstep>
  <scstep>
   <time name="diag">    1.93    1.94</time>
   <time name="diis">   20.99   21.94</time>
   <time name="orth">    3.64    3.81</time>
   <time name="total">   27.27   28.39</time>
   <energy>
    <i name="e_fr_energy">   -482.47132120 </i>
    <i name="e_wo_entrp">   -482.05817983 </i>
    <i name="e_0_energy">   -482.26475052 </i>
   </energy>
  </scstep>
  <scstep>
   <time name="diag">   14.76   15.61</time>
   <time name="diis">   21.38   21.51</time>
   <time name="orth">    3.07    3.07</time>
   <time name="total">   40.12   41.11</time>
   <energy>
    <i name="e_fr_energy">   -482.47136878 </i>
    <i name="e_wo_entrp">   -482.05817507 </i>
    <i name="e_0_energy">   -482.26477193 </i>
   </energy>
  </scstep>
  <scstep>
   <time name="diag">   13.30   14.73</time>
   <time name="diis">   22.06   22.10</time>
   <time name="orth">    2.70    2.70</time>
   <time name="total">   38.26   39.73</time>
   <energy>
    <i name="alphaZ">   1750.11566466 </i>
    <i name="ewald"> -23815.05943141 </i>
    <i name="hartreedc">  -7464.08558252 </i>
    <i name="XCdc">    479.18620336 </i>
    <i name="pawpsdc">  19024.48525766 </i>
    <i name="pawaedc"> -18127.68800873 </i>
    <i name="eentropy">     -0.41326277 </i>
    <i name="bandstr">  -5382.37552874 </i>
    <i name="atom">  33053.36327190 </i>
    <i name="e_fr_energy">   -482.47141659 </i>
    <i name="e_wo_entrp">   -482.05815383 </i>
    <i name="e_0_energy">   -482.26478521 </i>
   </energy>
  </scstep>
  <structure>
   <crystal>
    <varray name="basis" >
     <v>      11.23999977       0.00000000       0.00000000 </v>
     <v>       0.00000000      11.23999977       0.00000000 </v>
     <v>       0.00000000       0.00000000      11.23999977 </v>
    </varray>
    <i name="volume">   1420.03453724 </i>
    <varray name="rec_basis" >
     <v>       0.08896797       0.00000000       0.00000000 </v>
     <v>       0.00000000       0.08896797       0.00000000 </v>
     <v>       0.00000000       0.00000000       0.08896797 </v>
    </varray>
   </crystal>
   <varray name="positions" >
    <v>       0.00000000       0.00000000       0.00000000 </v>
    <v>       0.25000000       0.00000000       0.25000000 </v>
    <v>       0.25000000       0.50000000       0.25000000 </v>
    <v>       0.50000000       0.50000000       0.00000000 </v>
    <v>       0.50000000       0.25000000       0.75000004 </v>
    <v>       0.00000000       0.50000000       0.50000000 </v>
    <v>       0.50000000       0.75000004       0.75000004 </v>
    <v>       0.00000000       0.25000000       0.25000000 </v>
    <v>       0.75000004       0.75000004       0.00000000 </v>
    <v>       0.00000000       0.25000000       0.75000004 </v>
    <v>       0.75000004       0.25000000       0.50000000 </v>
    <v>       0.00000000       0.75000004       0.75000004 </v>
    <v>       0.25000000       0.50000000       0.75000004 </v>
    <v>       0.25000000       0.25000000       0.00000000 </v>
    <v>       0.50000000       0.25000000       0.25000000 </v>
    <v>       0.75000004       0.00000000       0.25000000 </v>
    <v>       0.75000004       0.25000000       0.00000000 </v>
    <v>       0.25000000       0.75000004       0.00000000 </v>
    <v>       0.25000000       0.25000000       0.50000000 </v>
    <v>       0.25000000       0.25000000       0.25000000 </v>
    <v>       0.25000000       0.00000000       0.00000000 </v>
    <v>       0.00000000       0.25000000       0.00000000 </v>
    <v>       0.75000004       0.25000000       0.25000000 </v>
    <v>       0.75000004       0.00000000       0.00000000 </v>
    <v>       0.50000000       0.00000000       0.25000000 </v>
    <v>       0.00000000       0.50000000       0.25000000 </v>
    <v>       0.50000000       0.75000004       0.00000000 </v>
    <v>       0.00000000       0.00000000       0.75000004 </v>
    <v>       0.75000004       0.25000000       0.75000004 </v>
    <v>       0.75000004       0.00000000       0.50000000 </v>
    <v>       0.50000000       0.25000000       0.50000000 </v>
    <v>       0.50000000       0.00000000       0.75000004 </v>
    <v>       0.00000000       0.00000000       0.25000000 </v>
    <v>       0.50000000       0.25000000       0.00000000 </v>
    <v>       0.25000000       0.75000004       0.25000000 </v>
    <v>       0.25000000       0.50000000       0.00000000 </v>
    <v>       0.00000000       0.75000004       0.00000000 </v>
    <v>       0.75000004       0.75000004       0.25000000 </v>
    <v>       0.75000004       0.50000000       0.00000000 </v>
    <v>       0.50000000       0.50000000       0.25000000 </v>
    <v>       0.25000000       0.25000000       0.75000004 </v>
    <v>       0.25000000       0.00000000       0.50000000 </v>
    <v>       0.00000000       0.25000000       0.50000000 </v>
    <v>       0.25000000       0.75000004       0.75000004 </v>
    <v>       0.25000000       0.50000000       0.50000000 </v>
    <v>       0.00000000       0.75000004       0.50000000 </v>
    <v>       0.00000000       0.50000000       0.75000004 </v>
    <v>       0.75000004       0.75000004       0.75000004 </v>
    <v>       0.75000004       0.50000000       0.50000000 </v>
    <v>       0.50000000       0.75000004       0.50000000 </v>
    <v>       0.50000000       0.50000000       0.75000004 </v>
    <v>       0.50000000       0.00000000       0.00000000 </v>
    <v>       0.00000000       0.50000000       0.00000000 </v>
    <v>       0.50000000       0.75000004       0.25000000 </v>
    <v>       0.25000000       0.00000000       0.75000004 </v>
    <v>       0.50000000       0.00000000       0.50000000 </v>
    <v>       0.75000004       0.00000000       0.75000004 </v>
    <v>       0.25000000       0.75000004       0.50000000 </v>
    <v>       0.00000000       0.75000004       0.25000000 </v>
    <v>       0.75000004       0.50000000       0.25000000 </v>
    <v>       0.00000000       0.00000000       0.50000000 </v>
    <v>       0.50000000       0.50000000       0.50000000 </v>
    <v>       0.75000004       0.50000000       0.75000004 </v>
    <v>       0.75000004       0.75000004       0.50000000 </v>
   </varray>
  </structure>
  <varray name="forces" >
   <v>      -0.06516323      -0.45440833       0.36809855 </v>
   <v>      -0.67526057      -0.40909858       0.43154538 </v>
   <v>       0.33623115       0.42431479       0.05228316 </v>
   <v>       0.14011102      -0.21285719      -0.06346551 </v>
   <v>      -0.27720394       0.55508684       0.19344951 </v>
   <v>       0.03070329       0.01688643       0.25651192 </v>
   <v>       0.08197967      -0.55404562      -0.44475381 </v>
   <v>      -0.21523963      -0.52069817       0.74785589 </v>
   <v>       0.63548130      -0.71819335      -0.04703409 </v>
   <v>       0.36276961       0.53596874      -0.75449585 </v>
   <v>       0.74101152       0.60995788       0.09431860 </v>
   <v>      -0.10299969      -0.55204406      -0.07094193 </v>
   <v>       0.08768892       0.00749877      -0.09596532 </v>
   <v>       0.19402050       0.39898212      -0.35231897 </v>
   <v>       0.07864889       0.66615627      -0.18553030 </v>
   <v>       0.69010804      -0.48801239       0.28831733 </v>
   <v>      -0.24734065       0.57096589      -0.10380614 </v>
   <v>      -0.37758760      -0.38124862       0.04225464 </v>
   <v>      -0.41470846       0.10902900       0.34014180 </v>
   <v>       0.39782704      -0.08111787      -0.03265121 </v>
   <v>       0.42771071       0.07137964      -0.31722119 </v>
   <v>       0.01572211       0.31232081       0.03768574 </v>
   <v>      -0.39233892      -0.39098192      -0.31273774 </v>
   <v>      -0.39542753       0.44889901       0.15064659 </v>
   <v>       0.62990912       0.25702033      -0.07706295 </v>
   <v>      -0.31048074      -0.00732851      -0.30583986 </v>
   <v>      -0.34900843       0.47421863       0.35900102 </v>
   <v>      -0.16722224       0.03408517      -0.16237490 </v>
   <v>       0.11195453      -0.28017648       0.33317377 </v>
   <v>      -0.17145174       0.05697704      -0.16342263 </v>
   <v>      -0.27812013      -0.21098779      -0.57554897 </v>
   <v>       0.18924671       0.02695543       0.07227047 </v>
   <v>      -0.48235768      -0.11117445       0.42876559 </v>
   <v>       0.05646352      -0.45758660       0.52149133 </v>
   <v>      -0.10642814       0.04420216      -0.20019138 </v>
   <v>      -0.33189064      -0.08676686      -0.20972963 </v>
   <v>       0.09014589      -0.22459907       0.13375369 </v>
   <v>       0.13822880       0.00165176       0.15286602 </v>
   <v>       0.26387462      -0.19351591       0.03052569 </v>
   <v>       0.50831151      -0.23823408       0.45742140 </v>
   <v>      -0.25045847      -0.09814504       0.04502668 </v>
   <v>      -0.05527691       0.22130272       0.22410439 </v>
   <v>       0.05250651      -0.39130949      -0.01945614 </v>
   <v>      -0.19856998       0.09232001       0.19406398 </v>
   <v>       0.38212733      -0.22810480       0.23426905 </v>
   <v>      -0.24564797       0.37764902      -0.15385728 </v>
   <v>      -0.22584851      -0.02143963       0.17211020 </v>
   <v>       0.17127582      -0.11460107      -0.15045989 </v>
   <v>      -0.36734178       0.18544578      -0.01895057 </v>
   <v>       0.23503196      -0.12591031      -0.21133900 </v>
   <v>       0.25360273      -0.00573240      -0.47823087 </v>
   <v>       0.02474236       0.23786152      -0.13505743 </v>
   <v>      -0.11747709       0.40800871      -0.11133071 </v>
   <v>       0.03190653      -0.65849915       0.36703939 </v>
   <v>      -0.27029667      -0.01757697      -0.39285368 </v>
   <v>      -0.39348889      -0.44834878       0.13918440 </v>
   <v>       0.26966849      -0.44544295      -0.30919714 </v>
   <v>      -0.10412560      -0.09870063      -0.03305248 </v>
   <v>      -0.10940171       0.62012484       0.04736264 </v>
   <v>      -0.54033542       0.71722065      -0.08955896 </v>
   <v>       0.46103936       0.05865186      -0.55180375 </v>
   <v>       0.06799096       0.65383612       0.07507836 </v>
   <v>      -0.04872165       0.65820314       0.09971218 </v>
   <v>       0.12918008      -0.62629404       0.03991094 </v>
  </varray>
  <varray name="stress" >
   <v>    -425.21963963       0.87087537       0.02167562 </v>
   <v>       0.87087563    -422.06691300       0.16639658 </v>
   <v>       0.02167687       0.16639674    -425.66830795 </v>
  </varray>
  <energy>
   <i name="e_fr_energy">   -482.47141659 </i>
   <i name="e_wo_entrp">   -482.05815383 </i>
   <i name="e_0_energy">   -482.26478521 </i>
  </energy>
  <time name="totalsc"> 2790.08 2841.49</time>
 </calculation>
 <calculation>
  <scstep>
   <time name="dav">  116.55  127.17</time>
   <time name="total">  116.96  128.12</time>
   <energy>
    <i name="alphaZ">   4757.66738475 </i>
    <i name="ewald"> -33208.60663515 </i>
    <i name="hartreedc"> -10441.12247009 </i>
    <i name="XCdc">   1037.08320244 </i>
    <i name="pawpsdc">  19024.50753778 </i>
    <i name="pawaedc"> -18127.70914680 </i>
    <i name="eentropy">     -0.06425065 </i>
    <i name="bandstr">   1415.55113698 </i>
    <i name="atom">  33053.36327190 </i>
    <i name="e_fr_energy">  -2489.32996884 </i>
    <i name="e_wo_entrp">  -2489.26571819 </i>
    <i name="e_0_energy">  -2489.29784351 </i>
   </energy>
  </scstep>
  <scstep>
   <time name="diag">    2.03    2.05</time>
   <time name="diis">   48.60   51.43</time>
   <time name="orth">    2.38    3.84</time>
   <time name="total">   53.59   58.31</time>
   <energy>
    <i name="e_fr_energy">   -901.55751474 </i>
    <i name="e_wo_entrp">   -901.49073187 </i>
    <i name="e_0_energy">   -901.52412330 </i>
   </energy>
  </scstep>
  <scstep>
   <time name="diag">    4.39    4.87</time>
   <time name="diis">   47.63   49.04</time>
   <time name="orth">    2.37    2.37</time>
   <time name="total">   55.51   57.42</time>
   <energy>
    <i name="e_fr_energy">   -557.71727807 </i>
    <i name="e_wo_entrp">   -557.65884179 </i>
    <i name="e_0_energy">   -557.68805993 </i>
   </energy>
  </scstep>
  <scstep>
   <time name="diag">   10.06   10.12</time>
   <time name="diis">   46.68   47.75</time>
   <time name="orth">    2.59    2.61</time>
   <time name="total">   60.17   61.34</time>
   <energy>
    <i name="e_fr_energy">   -558.50210639 </i>
    <i name="e_wo_entrp">   -558.42812461 </i>
    <i name="e_0_energy">   -558.46511550 </i>
   </energy>
  </scstep>
  <scstep>
   <time name="diag">   11.32   11.42</time>
   <time name="diis">   44.56   45.49</time>
   <time name="orth">    3.17    3.23</time>
   <time name="total">   60.00   61.10</time>
   <energy>
    <i name="e_fr_energy">   -561.60507549 </i>
    <i name="e_wo_entrp">   -561.51539696 </i>
    <i name="e_0_energy">   -561.56023622 </i>
   </energy>
  </scstep>
  <scstep>
   <time name="diag">   10.94   11.58</time>
   <time name="diis">   45.70   49.00</time>
   <time name="orth">    2.83    2.88</time>
   <time name="total">   60.15   64.16</time>
   <energy>
    <i name="e_fr_energy">   -563.57459024 </i>
    <i name="e_wo_entrp">   -563.47399776 </i>
    <i name="e_0_energy">   -563.52429400 </i>
   </energy>
  </scstep>
  <scstep>
   <time name="diag">   10.99   11.74</time>
   <time name="diis">   44.15   46.11</time>
   <time name="orth">    2.60    2.65</time>
   <time name="total">   58.42   61.27</time>
   <energy>
    <i name="e_fr_energy">   -563.65239524 </i>
    <i name="e_wo_entrp">   -563.53990837 </i>
    <i name="e_0_energy">   -563.59615180 </i>
   </energy>
  </scstep>
  <scstep>
   <time name="diag">   10.56   11.57</time>
   <time name="diis">   45.50   47.53</time>
   <time name="orth">    2.78    2.79</time>
   <time name="total">   59.55   62.60</time>
   <energy>
    <i name="e_fr_energy">   -563.89964547 </i>
    <i name="e_wo_entrp">   -563.78431176 </i>
    <i name="e_0_energy">   -563.84197862 </i>
   </energy>
  </scstep>
  <scstep>
   <time name="diag">   13.18   13.32</time>
   <time name="diis">   42.24   44.11</time>
   <time name="orth">    4.17    4.49</time>
   <time name="total">   60.42   62.76</time>
   <energy>
    <i name="e_fr_energy">   -563.98477306 </i>
    <i name="e_wo_entrp">   -563.86460709 </i>
    <i name="e_0_energy">   -563.92469008 </i>
   </energy>
  </scstep>
  <scstep>
   <time name="diag">   10.20   11.21</time>
   <time name="diis">   45.29   46.47</time>
   <time name="orth">    2.58    2.60</time>
   <time name="total">   58.79   61.13</time>
   <energy>
    <i name="e_fr_energy">   -564.02463779 </i>
    <i name="e_wo_entrp">   -563.90231481 </i>
    <i name="e_0_energy">   -563.96347630 </i>
   </energy>
  </scstep>
  <scstep>
   <time name="diag">   11.20   11.63</time>
   <time name="diis">   48.24   50.54</time>
   <time name="orth">    3.41    3.42</time>
   <time name="total">   63.64   66.37</time>
   <energy>
    <i name="e_fr_energy">   -564.05327026 </i>
    <i name="e_wo_entrp">   -563.92937048 </i>
    <i name="e_0_energy">   -563.99132037 </i>
   </energy>
  </scstep>
  <scstep>
   <time name="diag">    9.37    9.41</time>
   <time name="diis">   46.29   47.27</time>
   <time name="orth">    3.57    3.59</time>
   <time name="total">   60.42   61.46</time>
   <energy>
    <i name="e_fr_energy">   -564.06533067 </i>
    <i name="e_wo_entrp">   -563.94064109 </i>
    <i name="e_0_energy">   -564.00298588 </i>
   </energy>
  </scstep>
  <scstep>
   <time name="diag">   11.29   11.46</time>
   <time name="diis">   42.31   46.78</time>
   <time name="orth">    3.85    4.25</time>
   <time name="total">   58.63   63.68</time>
   <energy>
    <i name="e_fr_energy">   -564.07012629 </i>
    <i name="e_wo_entrp">   -563.94515224 </i>
    <i name="e_0_energy">   -564.00763926 </i>
   </energy>
  </scstep>
  <scstep>
   <time name="diag">    7.17    8.27</time>
   <time name="diis">   42.93   46.34</time>
   <time name="orth">    5.36    5.38</time>
   <time name="total">   56.84   61.36</time>
   <energy>
    <i name="e_fr_energy">   -564.07277310 </i>
    <i name="e_wo_entrp">   -563.94747704 </i>
    <i name="e_0_energy">   -564.01012507 </i>
   </energy>
  </scstep>
  <scstep>
   <time name="diag">    7.78    7.89</time>
   <time name="diis">   41.51   42.89</time>
   <time name="orth">    4.67    4.69</time>
   <time name="total">   54.82   56.36</time>
   <energy>
    <i name="e_fr_energy">   -564.07401494 </i>
    <i name="e_wo_entrp">   -563.94844658 </i>
    <i name="e_0_energy">   -564.01123076 </i>
   </energy>
  </scstep>
  <scstep>
   <time name="diag">   10.95   11.05</time>
   <time name="diis">   37.29   39.38</time>
   <time name="orth">    2.84    2.91</time>
   <time name="total">   52.03   54.29</time>
   <energy>
    <i name="e_fr_energy">   -564.07462726 </i>
    <i name="e_wo_entrp">   -563.94901157 </i>
    <i name="e_0_energy">   -564.01181941 </i>
   </energy>
  </scstep>
  <scstep>
   <time name="diag">   11.09   11.38</time>
   <time name="diis">   30.78   31.66</time>
   <time name="orth">    2.78    2.80</time>
   <time name="total">   45.38   46.58</time>
   <energy>
    <i name="e_fr_energy">   -564.07494301 </i>
    <i name="e_wo_entrp">   -563.94922924 </i>
    <i name="e_0_energy">   -564.01208613 </i>
   </energy>
  </scstep>
  <scstep>
   <time name="diag">   11.02   11.72</time>
   <time name="diis">   25.51   26.19</time>
   <time name="orth">    0.51    0.51</time>
   <time name="total">   37.59   39.00</time>
   <energy>
    <i name="e_fr_energy">   -564.07510547 </i>
    <i name="e_wo_entrp">   -563.94933065 </i>
    <i name="e_0_energy">   -564.01221806 </i>
   </energy>
  </scstep>
  <scstep>
   <time name="diag">    1.96    1.97</time>
   <time name="diis">   23.26   24.37</time>
   <time name="orth">    2.82    2.85</time>
   <time name="total">   28.69   29.87</time>
   <energy>
    <i name="e_fr_energy">   -564.07519026 </i>
    <i name="e_wo_entrp">   -563.94938354 </i>
    <i name="e_0_energy">   -564.01228690 </i>
   </energy>
  </scstep>
  <scstep>
   <time name="diag">   12.83   13.25</time>
   <time name="diis">   23.33   24.40</time>
   <time name="orth">    0.46    0.46</time>
   <time name="total">   37.52   39.03</time>
   <energy>
    <i name="e_fr_energy">   -564.07523545 </i>
    <i name="e_wo_entrp">   -563.94940987 </i>
    <i name="e_0_energy">   -564.01232266 </i>
   </energy>
  </scstep>
  <scstep>
   <time name="diag">    1.99    2.01</time>
   <time name="diis">   21.98   23.63</time>
   <time name="orth">    3.09    3.14</time>
   <time name="total">   27.64   29.57</time>
   <energy>
    <i name="e_fr_energy">   -564.07525987 </i>
    <i name="e_wo_entrp">   -563.94941714 </i>
    <i name="e_0_energy">   -564.01233851 </i>
   </energy>
  </scstep>
  <scstep>
   <time name="diag">   10.29   11.26</time>
   <time name="diis">   22.30   22.90</time>
   <time name="orth">    3.34    3.66</time>
   <time name="total">   36.93   38.96</time>
   <energy>
    <i name="e_fr_energy">   -564.07527334 </i>
    <i name="e_wo_entrp">   -563.94942017 </i>
    <i name="e_0_energy">   -564.01234676 </i>
   </energy>
  </scstep>
  <scstep>
   <time name="diag">   13.45   14.10</time>
   <time name="diis">   20.53   22.88</time>
   <time name="orth">    2.29    2.50</time>
   <time name="total">   36.49   39.70</time>
   <energy>
    <i name="alphaZ">   4757.66738475 </i>
    <i name="ewald"> -33208.60663515 </i>
    <i name="hartreedc">  -4517.09084597 </i>
    <i name="XCdc">    675.67947009 </i>
    <i name="pawpsdc">  27515.20193662 </i>
    <i name="pawaedc"> -26712.83173891 </i>
    <i name="eentropy">     -0.12585559 </i>
    <i name="bandstr">  -2127.33226816 </i>
    <i name="atom">  33053.36327190 </i>
    <i name="e_fr_energy">   -564.07528041 </i>
    <i name="e_wo_entrp">   -563.94942482 </i>
    <i name="e_0_energy">   -564.01235262 </i>
   </energy>
  </scstep>
  <structure>
   <crystal>
    <varray name="basis" >
     <v>       8.04685094       0.00653976       0.00016277 </v>
     <v>       0.00653976       8.07052606       0.00124954 </v>
     <v>       0.00016278       0.00124954       8.04348171 </v>
    </varray>
    <i name="volume">    522.36200789 </i>
    <varray name="rec_basis" >
     <v>       0.12427230      -0.00010070      -0.00000250 </v>
     <v>      -0.00010070       0.12390774      -0.00001925 </v>
     <v>      -0.00000250      -0.00001925       0.12432427 </v>
    </varray>
   </crystal>
   <varray name="positions" >
    <v>       0.99972032       0.99804966       0.00157990 </v>
    <v>       0.24710175       0.99824413       0.25185221 </v>
    <v>       0.25144312       0.50182118       0.25022440 </v>
    <v>       0.50060136       0.49908641       0.99972760 </v>
    <v>       0.49881023       0.25238246       0.75083034 </v>
    <v>       0.00013178       0.50007248       0.50110096 </v>
    <v>       0.50035186       0.74762205       0.74809114 </v>
    <v>       0.99907618       0.24776514       0.25320984 </v>
    <v>       0.75272756       0.74691752       0.99979813 </v>
    <v>       0.00155703       0.25230041       0.74676171 </v>
    <v>       0.75318050       0.25261797       0.50040482 </v>
    <v>       0.99955792       0.74763064       0.74969556 </v>
    <v>       0.25037637       0.50003219       0.74958815 </v>
    <v>       0.25083275       0.25171245       0.99848783 </v>
    <v>       0.50033757       0.25285918       0.24920369 </v>
    <v>       0.75296202       0.99790543       0.25123747 </v>
    <v>       0.74893844       0.25245061       0.99955446 </v>
    <v>       0.24837937       0.74836370       0.00018136 </v>
    <v>       0.24822005       0.25046796       0.50145991 </v>
    <v>       0.25170749       0.24965184       0.24985986 </v>
    <v>       0.25183576       0.00030637       0.99863847 </v>
    <v>       0.00006748       0.25134050       0.00016175 </v>
    <v>       0.74831610       0.24832189       0.24865771 </v>
    <v>       0.74830285       0.00192670       0.00064658 </v>
    <v>       0.50270360       0.00110314       0.24966924 </v>
    <v>       0.99866740       0.49996855       0.24868732 </v>
    <v>       0.49850204       0.75203541       0.00154085 </v>
    <v>       0.99928227       0.00014630       0.74930312 </v>
    <v>       0.75048056       0.24879747       0.75143004 </v>
    <v>       0.74926416       0.00024455       0.49929858 </v>
    <v>       0.49880629       0.24909443       0.49752971 </v>
    <v>       0.50081226       0.00011569       0.75031023 </v>
    <v>       0.99792970       0.99952283       0.25184028 </v>
    <v>       0.50024234       0.24803601       0.00223827 </v>
    <v>       0.24954320       0.75018976       0.24914077 </v>
    <v>       0.24857551       0.49962759       0.99909983 </v>
    <v>       0.00038691       0.74903605       0.00057408 </v>
    <v>       0.75059333       0.75000713       0.25065611 </v>
    <v>       0.75113261       0.49916942       0.00013102 </v>
    <v>       0.50218170       0.49897749       0.25196328 </v>
    <v>       0.24892502       0.24957876       0.75019330 </v>
    <v>       0.24976275       0.00094984       0.50096187 </v>
    <v>       0.00022536       0.24832048       0.49991649 </v>
    <v>       0.24914773       0.75039628       0.75083297 </v>
    <v>       0.25164011       0.49902096       0.50100549 </v>
    <v>       0.99894567       0.75162093       0.49933964 </v>
    <v>       0.99903065       0.49990798       0.75073875 </v>
    <v>       0.75073517       0.74950817       0.74935426 </v>
    <v>       0.74842339       0.50079594       0.49991866 </v>
    <v>       0.50100877       0.74945963       0.49909292 </v>
    <v>       0.50108848       0.49997540       0.74794745 </v>
    <v>       0.50010620       0.00102091       0.99942033 </v>
    <v>       0.99949578       0.50175119       0.99952216 </v>
    <v>       0.50013694       0.74717373       0.25157535 </v>
    <v>       0.24883987       0.99992456       0.74831389 </v>
    <v>       0.49831113       0.99807566       0.50059739 </v>
    <v>       0.75115747       0.99808814       0.74867295 </v>
    <v>       0.24955309       0.74957641       0.49985814 </v>
    <v>       0.99953044       0.75266165       0.25020328 </v>
    <v>       0.74768089       0.50307835       0.24961561 </v>
    <v>       0.00197880       0.00025174       0.49763163 </v>
    <v>       0.50029182       0.50280630       0.50032224 </v>
    <v>       0.74979093       0.50282504       0.75042801 </v>
    <v>       0.75055449       0.74731196       0.50017130 </v>
   </varray>
  </structure>
  <varray name="forces" >
   <v>       0.16828288       0.18198087       0.95912918 </v>
   <v>      -0.91472415       0.37379618      -0.61736852 </v>
   <v>       0.38555585      -0.53250053      -0.09049197 </v>
   <v>       0.21574282       0.54602443      -0.27486971 </v>
   <v>       0.12784582       0.32537042      -0.17316628 </v>
   <v>       0.15864751      -0.54017093      -0.37700559 </v>
   <v>       0.41328492      -0.51293634       0.56863374 </v>
   <v>       0.49023355      -0.87005021       0.20371025 </v>
   <v>      -1.04740914       0.68445089      -0.23155983 </v>
[...]
      </set>
     </set>
    </set>
   </array>
  </eigenvalues>
  <separator name="orbital magnetization" >
   <v name="MAGDIPOLOUT">      0.00000000      0.00000000      0.00000000</v>
  </separator>
  <dos>
   <i name="efermi">      7.72450940 </i>
   <total>
    <array>
     <dimension dim="1">gridpoints</dimension>
     <dimension dim="2">spin</dimension>
     <field>energy</field>
     <field>total</field>
     <field>integrated</field>
     <set>
      <set comment="spin 1">
       <r>   -33.8563     0.0000     0.0000 </r>
       <r>   -33.7003     0.0000     0.0000 </r>
       <r>   -33.5444     0.0000     0.0000 </r>
       <r>   -33.3884     0.0000     0.0000 </r>
       <r>   -33.2324     0.0000     0.0000 </r>
       <r>   -33.0765     0.0000     0.0000 </r>
       <r>   -32.9205     0.0000     0.0000 </r>
       <r>   -32.7645     0.0000     0.0000 </r>
       <r>   -32.6086     0.0000     0.0000 </r>
       <r>   -32.4526     0.0000     0.0000 </r>
       <r>   -32.2966     0.0000     0.0000 </r>
       <r>   -32.1407     0.0000     0.0000 </r>
       <r>   -31.9847     0.0021     0.0003 </r>
       <r>   -31.8287     1.4706     0.2297 </r>
       <r>   -31.6728    29.7789     4.8742 </r>
       <r>   -31.5168    89.7506    18.8723 </r>
       <r>   -31.3608    97.1012    34.0168 </r>
       <r>   -31.2049    12.6565    35.9908 </r>
       <r>   -31.0489     0.0591    36.0000 </r>
       <r>   -30.8929     0.0000    36.0000 </r>
       <r>   -30.7370     0.0000    36.0000 </r>
       <r>   -30.5810     0.0000    36.0000 </r>
       <r>   -30.4250     0.0000    36.0000 </r>
       <r>   -30.2691     0.0000    36.0000 </r>
       <r>   -30.1131     0.0000    36.0000 </r>
       <r>   -29.9571     0.0000    36.0000 </r>
       <r>   -29.8012     0.0000    36.0000 </r>
       <r>   -29.6452     0.0000    36.0000 </r>
       <r>   -29.4892     0.0000    36.0000 </r>
       <r>   -29.3333     0.0000    36.0000 </r>
       <r>   -29.1773     0.0000    36.0000 </r>
       <r>   -29.0213     0.0000    36.0000 </r>
       <r>   -28.8654     0.0000    36.0000 </r>
       <r>   -28.7094     0.0000    36.0000 </r>
       <r>   -28.5534     0.0000    36.0000 </r>
       <r>   -28.3975     0.0000    36.0000 </r>
       <r>   -28.2415     0.0000    36.0000 </r>
       <r>   -28.0855     0.0000    36.0000 </r>
       <r>   -27.9296     0.0000    36.0000 </r>
       <r>   -27.7736     0.0000    36.0000 </r>
       <r>   -27.6176     0.0000    36.0000 </r>
       <r>   -27.4617     0.0000    36.0000 </r>
       <r>   -27.3057     0.0000    36.0000 </r>
       <r>   -27.1497     0.0000    36.0000 </r>
       <r>   -26.9938     0.0000    36.0000 </r>
       <r>   -26.8378     0.0000    36.0000 </r>
       <r>   -26.6818     0.0048    36.0008 </r>
       <r>   -26.5259     1.6323    36.2553 </r>
       <r>   -26.3699    19.3867    39.2790 </r>
       <r>   -26.2139    74.9299    50.9655 </r>
       <r>   -26.0580   112.2250    68.4689 </r>
       <r>   -25.9020    55.9831    77.2003 </r>
       <r>   -25.7460     5.0947    77.9949 </r>
       <r>   -25.5901     0.0324    78.0000 </r>
       <r>   -25.4341     0.0000    78.0000 </r>
       <r>   -25.2782     0.0000    78.0000 </r>
       <r>   -25.1222     0.0000    78.0000 </r>
       <r>   -24.9662     0.0000    78.0000 </r>
       <r>   -24.8103     0.0608    78.0095 </r>
       <r>   -24.6543     5.9636    78.9396 </r>
       <r>   -24.4983    35.7351    84.5131 </r>
       <r>   -24.3424    48.0280    92.0038 </r>
       <r>   -24.1864    66.0858   102.3110 </r>
       <r>   -24.0304    42.2066   108.8938 </r>
       <r>   -23.8745    27.0712   113.1160 </r>
       <r>   -23.7185     5.8959   114.0356 </r>
       <r>   -23.5625     8.9075   115.4248 </r>
       <r>   -23.4066    35.8985   121.0238 </r>
       <r>   -23.2506    51.0672   128.9885 </r>
       <r>   -23.0946    19.0171   131.9546 </r>
       <r>   -22.9387    18.5438   134.8468 </r>
       <r>   -22.7827    47.9298   142.3222 </r>
       <r>   -22.6267    40.4619   148.6329 </r>
       <r>   -22.4708     8.6905   149.9883 </r>
       <r>   -22.3148     0.0749   150.0000 </r>
       <r>   -22.1588     0.0000   150.0000 </r>
       <r>   -22.0029     0.0000   150.0000 </r>
       <r>   -21.8469     0.0000   150.0000 </r>
       <r>   -21.6909     0.0000   150.0000 </r>
       <r>   -21.5350     0.0000   150.0000 </r>
       <r>   -21.3790     0.0000   150.0000 </r>
       <r>   -21.2230     0.0000   150.0000 </r>
       <r>   -21.0671     0.0000   150.0000 </r>
       <r>   -20.9111     0.0000   150.0000 </r>
       <r>   -20.7551     0.0000   150.0000 </r>
       <r>   -20.5992     0.0000   150.0000 </r>
       <r>   -20.4432     0.0000   150.0000 </r>
       <r>   -20.2872     0.0000   150.0000 </r>
       <r>   -20.1313     0.0000   150.0000 </r>
       <r>   -19.9753     0.0000   150.0000 </r>
       <r>   -19.8193     0.0000   150.0000 </r>
       <r>   -19.6634     0.0000   150.0000 </r>
       <r>   -19.5074     0.0000   150.0000 </r>
       <r>   -19.3514     0.0000   150.0000 </r>
       <r>   -19.1955     0.0000   150.0000 </r>
       <r>   -19.0395     0.0000   150.0000 </r>
       <r>   -18.8835     0.0000   150.0000 </r>
       <r>   -18.7276     0.0000   150.0000 </r>
       <r>   -18.5716     0.0000   150.0000 </r>
       <r>   -18.4156     0.0000   150.0000 </r>
       <r>   -18.2597     0.0000   150.0000 </r>
       <r>   -18.1037     0.0000   150.0000 </r>
       <r>   -17.9477     0.0000   150.0000 </r>
       <r>   -17.7918     0.0000   150.0000 </r>
       <r>   -17.6358     0.0000   150.0000 </r>
       <r>   -17.4798     0.0000   150.0000 </r>
       <r>   -17.3239     0.0000   150.0000 </r>
       <r>   -17.1679     0.0000   150.0000 </r>
       <r>   -17.0119     0.0000   150.0000 </r>
       <r>   -16.8560     0.0000   150.0000 </r>
       <r>   -16.7000     0.0000   150.0000 </r>
       <r>   -16.5440     0.0000   150.0000 </r>
       <r>   -16.3881     0.0000   150.0000 </r>
       <r>   -16.2321     0.0000   150.0000 </r>
       <r>   -16.0761     0.0000   150.0000 </r>
       <r>   -15.9202     0.0000   150.0000 </r>
       <r>   -15.7642     0.0000   150.0000 </r>
       <r>   -15.6082     0.0000   150.0000 </r>
       <r>   -15.4523     0.0000   150.0000 </r>
       <r>   -15.2963     0.0000   150.0000 </r>
       <r>   -15.1403     0.0000   150.0000 </r>
       <r>   -14.9844     0.0000   150.0000 </r>
       <r>   -14.8284     0.0000   150.0000 </r>
       <r>   -14.6724     0.0000   150.0000 </r>
       <r>   -14.5165     0.0000   150.0000 </r>
       <r>   -14.3605     0.0000   150.0000 </r>
       <r>   -14.2045     0.0000   150.0000 </r>
       <r>   -14.0486     0.0000   150.0000 </r>
       <r>   -13.8926     0.0000   150.0000 </r>
       <r>   -13.7366     0.0000   150.0000 </r>
       <r>   -13.5807     0.0000   150.0000 </r>
       <r>   -13.4247     0.0000   150.0000 </r>
       <r>   -13.2687     0.0000   150.0000 </r>
       <r>   -13.1128     0.0000   150.0000 </r>
       <r>   -12.9568     0.0000   150.0000 </r>
       <r>   -12.8008     0.0000   150.0000 </r>
       <r>   -12.6449     0.0000   150.0000 </r>
       <r>   -12.4889     0.0000   150.0000 </r>
       <r>   -12.3329     0.0000   150.0000 </r>
       <r>   -12.1770     0.0000   150.0000 </r>
       <r>   -12.0210     0.0000   150.0000 </r>
       <r>   -11.8650     0.0000   150.0000 </r>
       <r>   -11.7091     0.0000   150.0000 </r>
       <r>   -11.5531     0.0000   150.0000 </r>
       <r>   -11.3971     0.0000   150.0000 </r>
       <r>   -11.2412     0.0000   150.0000 </r>
       <r>   -11.0852     0.0000   150.0000 </r>
       <r>   -10.9292     0.0000   150.0000 </r>
       <r>   -10.7733     0.0000   150.0000 </r>
       <r>   -10.6173     0.0000   150.0000 </r>
       <r>   -10.4613     0.0000   150.0000 </r>
       <r>   -10.3054     0.0000   150.0000 </r>
       <r>   -10.1494     0.0000   150.0000 </r>
       <r>    -9.9934     0.0000   150.0000 </r>
       <r>    -9.8375     0.0000   150.0000 </r>
       <r>    -9.6815     0.0000   150.0000 </r>
       <r>    -9.5255     0.0000   150.0000 </r>
       <r>    -9.3696     0.0000   150.0000 </r>
       <r>    -9.2136     0.0000   150.0000 </r>
       <r>    -9.0577     0.0000   150.0000 </r>
       <r>    -8.9017     0.0000   150.0000 </r>
       <r>    -8.7457     0.0000   150.0000 </r>
       <r>    -8.5898     0.0004   150.0001 </r>
       <r>    -8.4338     0.1477   150.0231 </r>
       <r>    -8.2778     2.5663   150.4233 </r>
       <r>    -8.1219     6.7284   151.4728 </r>
       <r>    -7.9659     3.3838   152.0005 </r>
       <r>    -7.8099     4.3477   152.6786 </r>
       <r>    -7.6540    15.3152   155.0673 </r>
       <r>    -7.4980    18.6977   157.9835 </r>
       <r>    -7.3420    23.5601   161.6581 </r>
       <r>    -7.1861    30.4731   166.4108 </r>
       <r>    -7.0301    36.3754   172.0842 </r>
       <r>    -6.8741    15.9463   174.5713 </r>
       <r>    -6.7182     7.1208   175.6819 </r>
       <r>    -6.5622     1.9895   175.9922 </r>
       <r>    -6.4062     0.0502   176.0000 </r>
       <r>    -6.2503     0.0000   176.0000 </r>
       <r>    -6.0943     0.0000   176.0000 </r>
       <r>    -5.9383     0.0000   176.0000 </r>
       <r>    -5.7824     0.0000   176.0000 </r>
       <r>    -5.6264     0.0000   176.0000 </r>
       <r>    -5.4704     0.0012   176.0002 </r>
       <r>    -5.3145     0.3115   176.0488 </r>
       <r>    -5.1585     3.8193   176.6445 </r>
       <r>    -5.0025     6.8036   177.7056 </r>
       <r>    -4.8466     1.9061   178.0029 </r>
       <r>    -4.6906     3.8685   178.6062 </r>
       <r>    -4.5346     8.3287   179.9052 </r>
       <r>    -4.3787     5.0833   180.6981 </r>
       <r>    -4.2227    12.1131   182.5873 </r>
       <r>    -4.0667    15.8141   185.0538 </r>
       <r>    -3.9108    16.9277   187.6939 </r>
       <r>    -3.7548    22.2585   191.1655 </r>
       <r>    -3.5988    19.8438   194.2605 </r>
       <r>    -3.4429    20.4052   197.4430 </r>
       <r>    -3.2869    21.7676   200.8380 </r>
       <r>    -3.1309    20.2066   203.9896 </r>
       <r>    -2.9750    19.7112   207.0639 </r>
       <r>    -2.8190    15.8491   209.5358 </r>
       <r>    -2.6630    11.6796   211.3574 </r>
       <r>    -2.5071    11.2027   213.1046 </r>
       <r>    -2.3511     4.7673   213.8482 </r>
       <r>    -2.1951     0.8889   213.9868 </r>
       <r>    -2.0392     0.0842   213.9999 </r>
       <r>    -1.8832     0.0004   214.0000 </r>
       <r>    -1.7272     0.0000   214.0000 </r>
       <r>    -1.5713     0.0000   214.0000 </r>
       <r>    -1.4153     0.0000   214.0000 </r>
       <r>    -1.2593     0.0000   214.0000 </r>
       <r>    -1.1034     0.0000   214.0000 </r>
       <r>    -0.9474     0.0000   214.0000 </r>
       <r>    -0.7914     0.0000   214.0000 </r>
       <r>    -0.6355     0.0000   214.0000 </r>
       <r>    -0.4795     0.0001   214.0000 </r>
       <r>    -0.3235     0.0414   214.0065 </r>
       <r>    -0.1676     0.4809   214.0815 </r>
       <r>    -0.0116     1.5526   214.3236 </r>
       <r>     0.1444     3.2823   214.8356 </r>
       <r>     0.3003     8.8198   216.2112 </r>
       <r>     0.4563     9.4250   217.6811 </r>
       <r>     0.6123     9.9655   219.2354 </r>
       <r>     0.7682    14.1259   221.4386 </r>
       <r>     0.9242    15.1802   223.8062 </r>
       <r>     1.0802    21.3382   227.1342 </r>
       <r>     1.2361    24.7491   230.9943 </r>
       <r>     1.3921    30.6215   235.7702 </r>
       <r>     1.5481    27.4557   240.0523 </r>
       <r>     1.7040    23.4510   243.7099 </r>
       <r>     1.8600    26.7931   247.8887 </r>
       <r>     2.0160    38.9512   253.9638 </r>
       <r>     2.1719    35.3053   259.4702 </r>
       <r>     2.3279    35.7263   265.0423 </r>
       <r>     2.4839    41.9564   271.5861 </r>
       <r>     2.6398    52.3488   279.7508 </r>
       <r>     2.7958    63.5946   289.6694 </r>
       <r>     2.9518    66.7941   300.0870 </r>
       <r>     3.1077    66.4158   310.4457 </r>
       <r>     3.2637    64.6032   320.5216 </r>
       <r>     3.4197    61.5406   330.1198 </r>
       <r>     3.5756    57.9104   339.1519 </r>
       <r>     3.7316    59.6511   348.4555 </r>
       <r>     3.8876    53.4776   356.7962 </r>
       <r>     4.0435    52.3380   364.9592 </r>
       <r>     4.1995    44.0621   371.8314 </r>
       <r>     4.3555    37.6438   377.7025 </r>
       <r>     4.5114    33.7326   382.9637 </r>
       <r>     4.6674    25.8417   386.9941 </r>
       <r>     4.8234    27.3803   391.2645 </r>
       <r>     4.9793    28.1916   395.6615 </r>
       <r>     5.1353    22.3536   399.1479 </r>
       <r>     5.2913    15.4068   401.5508 </r>
       <r>     5.4472    14.7119   403.8454 </r>
       <r>     5.6032    11.2450   405.5992 </r>
       <r>     5.7592     5.3675   406.4364 </r>
       <r>     5.9151    11.2453   408.1903 </r>
       <r>     6.0711    12.6865   410.1689 </r>
       <r>     6.2271    14.5613   412.4400 </r>
       <r>     6.3830    20.3915   415.6204 </r>
       <r>     6.5390    16.0945   418.1306 </r>
       <r>     6.6950    11.4624   419.9184 </r>
       <r>     6.8509    12.1031   421.8060 </r>
       <r>     7.0069    17.1898   424.4871 </r>
       <r>     7.1628    14.9813   426.8236 </r>
       <r>     7.3188    17.6728   429.5800 </r>
       <r>     7.4748    18.3659   432.4445 </r>
       <r>     7.6307    16.8638   435.0747 </r>
       <r>     7.7867    21.8778   438.4869 </r>
       <r>     7.9427    25.5863   442.4775 </r>
       <r>     8.0986    26.2309   446.5686 </r>
       <r>     8.2546    24.3729   450.3699 </r>
       <r>     8.4106    26.9807   454.5780 </r>
       <r>     8.5665    36.5245   460.2746 </r>
       <r>     8.7225    39.9669   466.5081 </r>
       <r>     8.8785    40.1110   472.7641 </r>
       <r>     9.0344    43.9354   479.6165 </r>
       <r>     9.1904    45.8255   486.7638 </r>
       <r>     9.3464    47.3898   494.1550 </r>
       <r>     9.5023    51.2482   502.1480 </r>
       <r>     9.6583    50.8738   510.0826 </r>
       <r>     9.8143    53.1856   518.3777 </r>
       <r>     9.9702    53.3532   526.6990 </r>
       <r>    10.1262    48.9903   534.3399 </r>
       <r>    10.2822    46.8967   541.6542 </r>
       <r>    10.4381    49.2148   549.3300 </r>
       <r>    10.5941    40.8484   555.7010 </r>
       <r>    10.7501    20.8894   558.9590 </r>
       <r>    10.9060     6.3656   559.9519 </r>
       <r>    11.0620     0.3082   559.9999 </r>
       <r>    11.2180     0.0004   560.0000 </r>
       <r>    11.3739     0.0000   560.0000 </r>
       <r>    11.5299     0.0000   560.0000 </r>
       <r>    11.6859     0.0000   560.0000 </r>
       <r>    11.8418     0.0000   560.0000 </r>
       <r>    11.9978     0.0000   560.0000 </r>
       <r>    12.1538     0.0000   560.0000 </r>
       <r>    12.3097     0.0000   560.0000 </r>
       <r>    12.4657     0.0000   560.0000 </r>
       <r>    12.6217     0.0000   560.0000 </r>
       <r>    12.7776     0.0000   560.0000 </r>
       <r>    12.9336     0.0000   560.0000 </r>
      </set>
     </set>
    </array>
   </total>
  </dos>
 </calculation>
 <structure name="finalpos" >
  <crystal>
   <varray name="basis" >
    <v>       8.98682039       0.00766612      -0.00054263 </v>
    <v>       0.00768341       9.05440150      -0.00592795 </v>
    <v>      -0.00053385      -0.00591263       8.95962702 </v>
   </varray>
   <i name="volume">    729.04651419 </i>
   <varray name="rec_basis" >
    <v>       0.11127414      -0.00009442       0.00000657 </v>
    <v>      -0.00009421       0.11044365       0.00007288 </v>
    <v>       0.00000668       0.00007307       0.11161184 </v>
   </varray>
  </crystal>
  <varray name="positions" >
   <v>       0.99720912       0.99457772       0.00960654 </v>
   <v>       0.24061809       0.99464102       0.25102803 </v>
   <v>       0.26414216       0.50420705       0.24958771 </v>
   <v>       0.50004602       0.49994526       0.99821390 </v>
   <v>       0.49298439       0.26072165       0.75146762 </v>
   <v>       0.01317592       0.49759475       0.49375732 </v>
   <v>       0.50143362       0.73728515       0.74841813 </v>
   <v>       0.99663986       0.23887353       0.25981332 </v>
   <v>       0.75646267       0.74633349       0.99979012 </v>
   <v>       0.00433434       0.26719421       0.73960096 </v>
   <v>       0.75577929       0.27334620       0.50261225 </v>
   <v>       0.99546372       0.73318269       0.74322580 </v>
   <v>       0.25721252       0.49999411       0.74996234 </v>
   <v>       0.24614081       0.25123390       0.00241155 </v>
   <v>       0.50156296       0.25366831       0.24902503 </v>
   <v>       0.75432416       0.99497666       0.25576815 </v>
   <v>       0.75238787       0.25071439       0.99450550 </v>
   <v>       0.24635894       0.74951440       0.00022847 </v>
   <v>       0.24974647       0.25197290       0.49787435 </v>
   <v>       0.25184616       0.24862220       0.24988583 </v>
   <v>       0.24559547       0.00104284       0.00644854 </v>
   <v>       0.00033671       0.24506110       0.00103673 </v>
   <v>       0.74884432       0.24842477       0.24929277 </v>
   <v>       0.75565597       0.00358778       0.00077138 </v>
   <v>       0.50235083       0.00394886       0.24900795 </v>
   <v>       0.99613795       0.50040684       0.25863036 </v>
   <v>       0.49708464       0.74612584       0.99487884 </v>
   <v>       0.99705060       0.00216390       0.74788083 </v>
   <v>       0.74551653       0.24979057       0.74976486 </v>
   <v>       0.75406238       0.00403209       0.49704969 </v>
   <v>       0.50101948       0.25175155       0.50250673 </v>
   <v>       0.50319987       0.00107136       0.75015945 </v>
   <v>       0.00269454       0.00000802       0.24622243 </v>
   <v>       0.50026793       0.25339747       0.99665229 </v>
   <v>       0.24246688       0.75050366       0.24794792 </v>
   <v>       0.25447276       0.49967214       0.00585482 </v>
   <v>       0.99887404       0.75636457       0.00402407 </v>
   <v>       0.75579353       0.74332900       0.25252956 </v>
   <v>       0.74284182       0.49931886       0.00222980 </v>
   <v>       0.49876115       0.49807149       0.25009055 </v>
   <v>       0.25341609       0.25275918       0.75001132 </v>
   <v>       0.24442459       0.00300300       0.49283330 </v>
   <v>       0.00086969       0.25174897       0.50003965 </v>
   <v>       0.25241107       0.74709058       0.75287098 </v>
   <v>       0.25313760       0.49780724       0.49435053 </v>
   <v>       0.99280544       0.75293234       0.49703385 </v>
   <v>       0.99575667       0.49971750       0.74249679 </v>
   <v>       0.74431923       0.74279211       0.74869200 </v>
   <v>       0.75511866       0.50188025       0.50048366 </v>
   <v>       0.50558247       0.74310202       0.50752306 </v>
   <v>       0.50476996       0.49872942       0.75051144 </v>
   <v>       0.50063673       0.99965286       0.99549672 </v>
   <v>       0.99980768       0.50297504       0.00861634 </v>
   <v>       0.49977559       0.74640746       0.25016566 </v>
   <v>       0.24349138       0.99983851       0.75081159 </v>
   <v>       0.49449750       0.99646589       0.50362743 </v>
   <v>       0.75545224       0.99189741       0.74258358 </v>
   <v>       0.24755118       0.74762189       0.50102470 </v>
   <v>       0.00083349       0.76863141       0.25738904 </v>
   <v>       0.73273836       0.50620197       0.23905228 </v>
   <v>       0.01194801       0.00471513       0.48584724 </v>
   <v>       0.49613915       0.50520804       0.50323477 </v>
   <v>       0.74231886       0.50864333       0.76544928 </v>
   <v>       0.75130256       0.72350677       0.50009297 </v>
  </varray>
 </structure>
</modeling>
