 vasp.5.4.4.18Apr17-6-g9f103f2a35 (build Oct 18 2021 20:38:43) complex          
  
 executed on             LinuxIFC date 2025.11.12  17:08:54
 running on   24 total cores
 distrk:  each k-point on   24 cores,    1 groups
 distr:  one band on NCORES_PER_BAND=   1 cores,   24 groups


--------------------------------------------------------------------------------------------------------


 INCAR:
 POTCAR:   PAW_PBE Hf_pv 06Sep2000                
 POTCAR:   PAW_PBE Nb_sv 17Jan2003                
 POTCAR:   PAW_PBE V_sv 07Sep2000                 
 POTCAR:   PAW_PBE N 08Apr2002                    
 POTCAR:   PAW_PBE C 08Apr2002                    
 POTCAR:   PAW_PBE W_pv 06Sep2000                 
 POTCAR:   PAW_PBE Ta_pv 07Sep2000                

 ----------------------------------------------------------------------------- 
|                                                                             |
|           W    W    AA    RRRRR   N    N  II  N    N   GGGG   !!!           |
|           W    W   A  A   R    R  NN   N  II  NN   N  G    G  !!!           |
|           W    W  A    A  R    R  N N  N  II  N N  N  G       !!!           |
|           W WW W  AAAAAA  RRRRR   N  N N  II  N  N N  G  GGG   !            |
|           WW  WW  A    A  R   R   N   NN  II  N   NN  G    G                |
|           W    W  A    A  R    R  N    N  II  N    N   GGGG   !!!           |
|                                                                             |
|      For optimal performance we recommend to set                            |
|        NCORE= 4 - approx SQRT( number of cores)                             |
|      NCORE specifies how many cores store one orbital (NPAR=cpu/NCORE).     |
|      This setting can  greatly improve the performance of VASP for DFT.     |
|      The default,   NCORE=1            might be grossly inefficient         |
|      on modern multi-core architectures or massively parallel machines.     |
|      Do your own testing !!!!                                               |
|      Unfortunately you need to use the default for GW and RPA calculations. |
|      (for HF NCORE is supported but not extensively tested yet)             |
|                                                                             |
 ----------------------------------------------------------------------------- 

 POTCAR:   PAW_PBE Hf_pv 06Sep2000                
   VRHFIN =Hf: 5p6s5d                                                           
   LEXCH  = PE                                                                  
   EATOM  =   859.6195 eV,   63.1803 Ry                                         
                                                                                
   TITEL  = PAW_PBE Hf_pv 06Sep2000                                             
   LULTRA =        F    use ultrasoft PP ?                                      
   IUNSCR =        1    unscreen: 0-lin 1-nonlin 2-no                           
   RPACOR =    2.500    partial core radius                                     
   POMASS =  178.490; ZVAL   =   10.000    mass and valenz                      
   RCORE  =    2.600    outmost cutoff radius                                   
   RWIGS  =    3.050; RWIGS  =    1.614    wigner-seitz radius (au A)           
   ENMAX  =  220.342; ENMIN  =  165.256 eV                                      
   RCLOC  =    2.212    cutoff for local pot                                    
   LCOR   =        T    correct aug charges                                     
   LPAW   =        T    paw PP                                                  
   EAUG   =  380.878                                                            
   DEXC   =    -.057                                                            
   RMAX   =    3.106    core radius for proj-oper                               
   RAUG   =    1.300    factor for augmentation sphere                          
   RDEP   =    2.681    radius for radial grids                                 
   QCUT   =   -4.024; QGAM   =    8.049    optimization parameters              
                                                                                
   Description                                                                  
     l     E      TYP  RCUT    TYP  RCUT                                        
     1   .000     23  2.500                                                     
     1   .000     23  2.500                                                     
     2   .000     23  2.500                                                     
     2   .000     23  2.500                                                     
     0   .000     23  2.600                                                     
     0   .000     23  2.600                                                     
     3   .000      7   .000                                                     
  local pseudopotential read in
  partial core-charges read in
  atomic valenz-charges read in
  non local Contribution for L=           1  read in
    real space projection operators read in
  non local Contribution for L=           1  read in
    real space projection operators read in
  non local Contribution for L=           2  read in
    real space projection operators read in
  non local Contribution for L=           2  read in
    real space projection operators read in
  non local Contribution for L=           0  read in
    real space projection operators read in
  non local Contribution for L=           0  read in
    real space projection operators read in
    PAW grid and wavefunctions read in
 
   number of l-projection  operators is LMAX  =           6
   number of lm-projection operators is LMMAX =          18
 
 POTCAR:   PAW_PBE Nb_sv 17Jan2003                
   VRHFIN =Nb: 4p5s4d                                                           
   LEXCH  = PE                                                                  
   EATOM  =  1555.1913 eV,  114.3033 Ry                                         
                                                                                
   TITEL  = PAW_PBE Nb_sv 17Jan2003                                             
   LULTRA =        F    use ultrasoft PP ?                                      
   IUNSCR =        1    unscreen: 0-lin 1-nonlin 2-no                           
   RPACOR =    1.800    partial core radius                                     
   POMASS =   92.910; ZVAL   =   13.000    mass and valenz                      
   RCORE  =    2.200    outmost cutoff radius                                   
   RWIGS  =    2.400; RWIGS  =    1.270    wigner-seitz radius (au A)           
   ENMAX  =  293.235; ENMIN  =  219.927 eV                                      
   RCLOC  =    1.411    cutoff for local pot                                    
   LCOR   =        T    correct aug charges                                     
   LPAW   =        T    paw PP                                                  
   EAUG   =  455.659                                                            
   DEXC   =     .000                                                            
   RMAX   =    2.693    core radius for proj-oper                               
   RAUG   =    1.300    factor for augmentation sphere                          
   RDEP   =    2.299    radius for radial grids                                 
   QCUT   =   -4.642; QGAM   =    9.285    optimization parameters              
                                                                                
   Description                                                                  
     l     E      TYP  RCUT    TYP  RCUT                                        
     0   .000     23  2.200                                                     
     0   .000     23  2.200                                                     
     0   .000     23  2.200                                                     
     0   .000     23  2.200                                                     
     1   .000     23  2.200                                                     
     1  1.000     23  2.200                                                     
     2   .000     23  2.200                                                     
     2   .000     23  2.200                                                     
     3   .000      7   .000                                                     
  local pseudopotential read in
  partial core-charges read in
  atomic valenz-charges read in
  non local Contribution for L=           0  read in
    real space projection operators read in
  non local Contribution for L=           0  read in
    real space projection operators read in
  non local Contribution for L=           1  read in
    real space projection operators read in
  non local Contribution for L=           1  read in
    real space projection operators read in
  non local Contribution for L=           2  read in
    real space projection operators read in
  non local Contribution for L=           2  read in
    real space projection operators read in
    PAW grid and wavefunctions read in
 
   number of l-projection  operators is LMAX  =           6
   number of lm-projection operators is LMMAX =          18
 
 POTCAR:   PAW_PBE V_sv 07Sep2000                 
   VRHFIN =V: p6 d4 s1                                                          
   LEXCH  = PE                                                                  
   EATOM  =  1951.3925 eV,  143.4233 Ry                                         
                                                                                
   TITEL  = PAW_PBE V_sv 07Sep2000                                              
   LULTRA =        F    use ultrasoft PP ?                                      
   IUNSCR =        1    unscreen: 0-lin 1-nonlin 2-no                           
   RPACOR =    2.000    partial core radius                                     
   POMASS =   50.941; ZVAL   =   13.000    mass and valenz                      
   RCORE  =    2.300    outmost cutoff radius                                   
   RWIGS  =    2.300; RWIGS  =    1.217    wigner-seitz radius (au A)           
   ENMAX  =  263.675; ENMIN  =  197.756 eV                                      
   RCLOC  =    1.779    cutoff for local pot                                    
   LCOR   =        T    correct aug charges                                     
   LPAW   =        T    paw PP                                                  
   EAUG   =  526.568                                                            
   DEXC   =     .000                                                            
   RMAX   =    2.839    core radius for proj-oper                               
   RAUG   =    1.300    factor for augmentation sphere                          
   RDEP   =    2.430    radius for radial grids                                 
   QCUT   =   -4.402; QGAM   =    8.804    optimization parameters              
                                                                                
   Description                                                                  
     l     E      TYP  RCUT    TYP  RCUT                                        
     0   .000     23  1.800                                                     
     0   .000     23  2.300                                                     
     0   .000     23  1.800                                                     
     0   .000     23  2.300                                                     
     1   .000     23  2.000                                                     
     1   .400     23  2.000                                                     
     2   .000     23  2.300                                                     
     2   .000     23  2.300                                                     
     3   .000      7   .000                                                     
  local pseudopotential read in
  partial core-charges read in
  atomic valenz-charges read in
  non local Contribution for L=           0  read in
    real space projection operators read in
  non local Contribution for L=           0  read in
    real space projection operators read in
  non local Contribution for L=           1  read in
    real space projection operators read in
  non local Contribution for L=           1  read in
    real space projection operators read in
  non local Contribution for L=           2  read in
    real space projection operators read in
  non local Contribution for L=           2  read in
    real space projection operators read in
    PAW grid and wavefunctions read in
 
   number of l-projection  operators is LMAX  =           6
   number of lm-projection operators is LMMAX =          18
 
 POTCAR:   PAW_PBE N 08Apr2002                    
   VRHFIN =N: s2p3                                                              
   LEXCH  = PE                                                                  
   EATOM  =   264.5486 eV,   19.4438 Ry                                         
                                                                                
   TITEL  = PAW_PBE N 08Apr2002                                                 
   LULTRA =        F    use ultrasoft PP ?                                      
   IUNSCR =        0    unscreen: 0-lin 1-nonlin 2-no                           
   RPACOR =     .000    partial core radius                                     
   POMASS =   14.001; ZVAL   =    5.000    mass and valenz                      
   RCORE  =    1.500    outmost cutoff radius                                   
   RWIGS  =    1.400; RWIGS  =     .741    wigner-seitz radius (au A)           
   ENMAX  =  400.000; ENMIN  =  300.000 eV                                      
   ICORE  =        2    local potential                                         
   LCOR   =        T    correct aug charges                                     
   LPAW   =        T    paw PP                                                  
   EAUG   =  627.112                                                            
   DEXC   =     .000                                                            
   RMAX   =    2.247    core radius for proj-oper                               
   RAUG   =    1.300    factor for augmentation sphere                          
   RDEP   =    1.514    radius for radial grids                                 
   QCUT   =   -5.562; QGAM   =   11.124    optimization parameters              
                                                                                
   Description                                                                  
     l     E      TYP  RCUT    TYP  RCUT                                        
     0   .000     23  1.200                                                     
     0   .000     23  1.200                                                     
     1   .000     23  1.500                                                     
     1   .700     23  1.500                                                     
     2   .000      7  1.500                                                     
  local pseudopotential read in
  atomic valenz-charges read in
  non local Contribution for L=           0  read in
    real space projection operators read in
  non local Contribution for L=           0  read in
    real space projection operators read in
  non local Contribution for L=           1  read in
    real space projection operators read in
  non local Contribution for L=           1  read in
    real space projection operators read in
    PAW grid and wavefunctions read in
 
   number of l-projection  operators is LMAX  =           4
   number of lm-projection operators is LMMAX =           8
 
 POTCAR:   PAW_PBE C 08Apr2002                    
   VRHFIN =C: s2p2                                                              
   LEXCH  = PE                                                                  
   EATOM  =   147.1560 eV,   10.8157 Ry                                         
                                                                                
   TITEL  = PAW_PBE C 08Apr2002                                                 
   LULTRA =        F    use ultrasoft PP ?                                      
   IUNSCR =        0    unscreen: 0-lin 1-nonlin 2-no                           
   RPACOR =     .000    partial core radius                                     
   POMASS =   12.011; ZVAL   =    4.000    mass and valenz                      
   RCORE  =    1.500    outmost cutoff radius                                   
   RWIGS  =    1.630; RWIGS  =     .863    wigner-seitz radius (au A)           
   ENMAX  =  400.000; ENMIN  =  300.000 eV                                      
   ICORE  =        2    local potential                                         
   LCOR   =        T    correct aug charges                                     
   LPAW   =        T    paw PP                                                  
   EAUG   =  644.873                                                            
   DEXC   =     .000                                                            
   RMAX   =    2.266    core radius for proj-oper                               
   RAUG   =    1.300    factor for augmentation sphere                          
   RDEP   =    1.501    radius for radial grids                                 
   RDEPT  =    1.300    core radius for aug-charge                              
   QCUT   =   -5.516; QGAM   =   11.032    optimization parameters              
                                                                                
   Description                                                                  
     l     E      TYP  RCUT    TYP  RCUT                                        
     0   .000     23  1.200                                                     
     0   .000     23  1.200                                                     
     1   .000     23  1.500                                                     
     1  2.500     23  1.500                                                     
     2   .000      7  1.500                                                     
  local pseudopotential read in
  atomic valenz-charges read in
  non local Contribution for L=           0  read in
    real space projection operators read in
  non local Contribution for L=           0  read in
    real space projection operators read in
  non local Contribution for L=           1  read in
    real space projection operators read in
  non local Contribution for L=           1  read in
    real space projection operators read in
    PAW grid and wavefunctions read in
 
   number of l-projection  operators is LMAX  =           4
   number of lm-projection operators is LMMAX =           8
 
 POTCAR:   PAW_PBE W_pv 06Sep2000                 
   VRHFIN =W : 5p6s5d                                                           
   LEXCH  = PE                                                                  
   EATOM  =  1260.0376 eV,   92.6101 Ry                                         
                                                                                
   TITEL  = PAW_PBE W_pv 06Sep2000                                              
   LULTRA =        F    use ultrasoft PP ?                                      
   IUNSCR =        1    unscreen: 0-lin 1-nonlin 2-no                           
   RPACOR =    2.330    partial core radius                                     
   POMASS =  183.850; ZVAL   =   12.000    mass and valenz                      
   RCORE  =    2.500    outmost cutoff radius                                   
   RWIGS  =    2.750; RWIGS  =    1.455    wigner-seitz radius (au A)           
   ENMAX  =  223.065; ENMIN  =  167.299 eV                                      
   RCLOC  =    2.147    cutoff for local pot                                    
   LCOR   =        T    correct aug charges                                     
   LPAW   =        T    paw PP                                                  
   EAUG   =  373.438                                                            
   DEXC   =    -.018                                                            
   RMAX   =    3.087    core radius for proj-oper                               
   RAUG   =    1.300    factor for augmentation sphere                          
   RDEP   =    2.539    radius for radial grids                                 
   QCUT   =   -4.049; QGAM   =    8.098    optimization parameters              
                                                                                
   Description                                                                  
     l     E      TYP  RCUT    TYP  RCUT                                        
     1   .000     23  2.500                                                     
     1  -.200     23  2.500                                                     
     2   .000     23  2.500                                                     
     2   .000     23  2.500                                                     
     0   .000     23  2.500                                                     
     0   .000     23  2.500                                                     
     3   .000      7   .000                                                     
  local pseudopotential read in
  partial core-charges read in
  atomic valenz-charges read in
  non local Contribution for L=           1  read in
    real space projection operators read in
  non local Contribution for L=           1  read in
    real space projection operators read in
  non local Contribution for L=           2  read in
    real space projection operators read in
  non local Contribution for L=           2  read in
    real space projection operators read in
  non local Contribution for L=           0  read in
    real space projection operators read in
  non local Contribution for L=           0  read in
    real space projection operators read in
    PAW grid and wavefunctions read in
 
   number of l-projection  operators is LMAX  =           6
   number of lm-projection operators is LMMAX =          18
 
 POTCAR:   PAW_PBE Ta_pv 07Sep2000                
   VRHFIN =Ta:  5p6s5d                                                          
   LEXCH  = PE                                                                  
   EATOM  =  1045.8051 eV,   76.8645 Ry                                         
                                                                                
   TITEL  = PAW_PBE Ta_pv 07Sep2000                                             
   LULTRA =        F    use ultrasoft PP ?                                      
   IUNSCR =        1    unscreen: 0-lin 1-nonlin 2-no                           
   RPACOR =    2.330    partial core radius                                     
   POMASS =  180.948; ZVAL   =   11.000    mass and valenz                      
   RCORE  =    2.500    outmost cutoff radius                                   
   RWIGS  =    2.840; RWIGS  =    1.503    wigner-seitz radius (au A)           
   ENMAX  =  223.675; ENMIN  =  167.756 eV                                      
   RCLOC  =    2.205    cutoff for local pot                                    
   LCOR   =        T    correct aug charges                                     
   LPAW   =        T    paw PP                                                  
   EAUG   =  377.421                                                            
   DEXC   =    -.043                                                            
   RMAX   =    3.083    core radius for proj-oper                               
   RAUG   =    1.300    factor for augmentation sphere                          
   RDEP   =    2.526    radius for radial grids                                 
   QCUT   =   -4.055; QGAM   =    8.109    optimization parameters              
                                                                                
   Description                                                                  
     l     E      TYP  RCUT    TYP  RCUT                                        
     1   .000     23  2.500                                                     
     1   .100     23  2.500                                                     
     2   .000     23  2.500                                                     
     2   .000     23  2.500                                                     
     0   .000     23  2.500                                                     
     0   .000     23  2.500                                                     
     3   .000      7   .000                                                     
  local pseudopotential read in
  partial core-charges read in
  atomic valenz-charges read in
  non local Contribution for L=           1  read in
    real space projection operators read in
  non local Contribution for L=           1  read in
    real space projection operators read in
  non local Contribution for L=           2  read in
    real space projection operators read in
  non local Contribution for L=           2  read in
    real space projection operators read in
  non local Contribution for L=           0  read in
    real space projection operators read in
  non local Contribution for L=           0  read in
    real space projection operators read in
    PAW grid and wavefunctions read in
 
   number of l-projection  operators is LMAX  =           6
   number of lm-projection operators is LMMAX =          18
 

 ----------------------------------------------------------------------------- 
|                                                                             |
|  ADVICE TO THIS USER RUNNING 'VASP/VAMP'   (HEAR YOUR MASTER'S VOICE ...):  |
|                                                                             |
|      You have a (more or less) 'large supercell' and for larger cells       |
|      it might be more efficient to use real space projection operators      |
|      So try LREAL= Auto  in the INCAR   file.                               |
|      Mind: If you want to do a very accurate calculations keep the          |
|      reciprocal projection scheme          (i.e. LREAL=.FALSE.)             |
|                                                                             |
 ----------------------------------------------------------------------------- 

 PAW_PBE Hf_pv 06Sep2000                :
 energy of atom  1       EATOM= -859.6195
 kinetic energy error for atom=    0.0038 (will be added to EATOM!!)
 PAW_PBE Nb_sv 17Jan2003                :
 energy of atom  2       EATOM=-1555.1913
 kinetic energy error for atom=    0.0212 (will be added to EATOM!!)
 PAW_PBE V_sv 07Sep2000                 :
 energy of atom  3       EATOM=-1951.3925
 kinetic energy error for atom=    0.0321 (will be added to EATOM!!)
 PAW_PBE N 08Apr2002                    :
 energy of atom  4       EATOM= -264.5486
 kinetic energy error for atom=    0.0736 (will be added to EATOM!!)
 PAW_PBE C 08Apr2002                    :
 energy of atom  5       EATOM= -147.1560
 kinetic energy error for atom=    0.0288 (will be added to EATOM!!)
 PAW_PBE W_pv 06Sep2000                 :
 energy of atom  6       EATOM=-1260.0376
 kinetic energy error for atom=    0.0051 (will be added to EATOM!!)
 PAW_PBE Ta_pv 07Sep2000                :
 energy of atom  7       EATOM=-1045.8051
 kinetic energy error for atom=    0.0046 (will be added to EATOM!!)
 
 
 POSCAR: 52-HfVNbTaW                             
  positions in direct lattice
  velocities in cartesian coordinates
 exchange correlation table for  LEXCH =        8
   RHO(1)=    0.500       N(1)  =     2000
   RHO(2)=  100.500       N(2)  =     4000
 


--------------------------------------------------------------------------------------------------------


 ion  position               nearest neighbor table
   1  0.006  0.007  0.997-  23 2.18  29 2.21  25 2.21  22 2.23  34 2.27  38 2.29   8 3.06  56 3.06
                            58 3.11   9 3.13  59 3.14  10 3.14  12 3.14   2 3.15  18 3.17  14 3.18
   2  0.261  0.007  0.242-  21 2.14  22 2.21  26 2.23  43 2.26  36 2.26  34 2.31  57 3.01   8 3.11
                            20 3.13  59 3.14  55 3.14   1 3.15  15 3.16  61 3.18  53 3.20  19 3.21
   3  0.248  0.492  0.251-  21 2.15  46 2.21  27 2.22  37 2.23  41 2.23  36 2.28  18 3.05  14 3.08
                            15 3.08   6 3.10  55 3.10  62 3.13   4 3.13   8 3.17  20 3.20  54 3.21
   4  0.499  0.499  1.000-  35 2.22  41 2.24  37 2.24  52 2.25  40 2.25  28 2.28  14 2.98  15 2.98
                            17 3.02  63 3.09  18 3.12  60 3.13  55 3.13   3 3.13  13 3.15   7 3.15
   5  0.500  0.244  0.747-  33 2.15  30 2.21  42 2.23  52 2.26  35 2.27  32 2.28  53 2.98  14 3.02
                            58 3.09  17 3.11  19 3.12   4 3.17  56 3.17  13 3.18  62 3.18  63 3.20
   6  0.002  0.501  0.503-  48 2.19  46 2.23  44 2.23  47 2.24  50 2.26  27 2.27  10 3.07  19 3.08
                             3 3.10  12 3.10  13 3.11  11 3.14  63 3.14  64 3.19   8 3.19  60 3.20
   7  0.493  0.757  0.756-  33 2.16  45 2.19  28 2.21  51 2.25  49 2.25  52 2.27  58 2.95  53 3.05
                            56 3.10  20 3.12  13 3.13   4 3.15  63 3.16  64 3.18  62 3.18  18 3.19
   8  0.996  0.237  0.256-  34 2.10  44 2.18  24 2.22  21 2.25  23 2.26  27 2.32  11 2.92  61 3.03
                             1 3.06   2 3.11   3 3.17  60 3.18   6 3.19
   9  0.760  0.752  0.004-  38 2.15  39 2.20  49 2.24  25 2.27  40 2.29  28 2.34  58 2.91  54 3.07
                            63 3.09  59 3.10  60 3.12  53 3.12   1 3.13   4 3.21  55 3.24   7 3.24
  10  0.002  0.259  0.748-  48 2.16  42 2.17  44 2.18  30 2.22  29 2.25  23 2.25  19 2.88  54 3.02
                             6 3.07  56 3.11  61 3.12  63 3.13   1 3.14
  11  0.757  0.245  0.487-  31 2.18  24 2.19  44 2.19  50 2.25  32 2.27  30 2.34  16 2.87   8 2.92
                            60 3.10  61 3.12   6 3.14  57 3.19   5 3.22  62 3.24  63 3.30
  12  0.002  0.747  0.754-  45 2.16  48 2.16  38 2.22  49 2.24  47 2.25  29 2.28  54 3.02  56 3.05
                            63 3.08   6 3.10   1 3.14  58 3.17  61 3.17  64 3.24
  13  0.249  0.501  0.750-  48 2.21  46 2.21  37 2.21  52 2.22  45 2.24  42 2.25  14 2.92  54 3.03
                            62 3.10   6 3.11   7 3.13   4 3.15   5 3.18
  14  0.253  0.269  0.983-  37 2.03  42 2.07  35 2.12  23 2.27  21 2.34  13 2.92   4 2.98  54 3.02
                             5 3.02   3 3.08   1 3.18   2 3.27
  15  0.511  0.263  0.239-  41 2.06  24 2.07  35 2.11  32 2.24  21 2.31  26 2.33  17 2.74  60 2.96
                             4 2.98   3 3.08  62 3.13  53 3.14   2 3.16
  16  0.748  0.998  0.276-  26 2.11  39 2.16  31 2.17  24 2.21  34 2.23  25 2.28  57 2.76  11 2.87
                            64 2.92  59 3.08  61 3.11  55 3.19   1 3.34
  17  0.726  0.243  0.014-  24 2.02  35 2.09  25 2.09  40 2.22  30 2.34  53 2.74  15 2.74   4 3.02
                            60 3.07  58 3.08   5 3.11   1 3.23
  18  0.231  0.728  0.003-  38 2.01  37 2.03  36 2.18  45 2.23  54 2.85  59 2.98   3 3.05   4 3.12
                             1 3.17   7 3.19   2 3.25
  19  0.235  0.242  0.518-  44 2.04  42 2.07  43 2.14  46 2.26  10 2.88  61 2.89  56 2.93   6 3.08
                             5 3.12   2 3.21   3 3.25
  20  0.260  0.761  0.494-  51 2.08  43 2.14  36 2.21  47 2.27  45 2.30  46 2.33  55 2.94  57 2.96
                            56 3.02  61 3.05  62 3.09   7 3.12   2 3.13  59 3.13   3 3.20   6 3.23
  21  0.250  0.249  0.246-   2 2.14   3 2.15   8 2.25  15 2.31  14 2.34
  22  0.258  0.003  0.992-   2 2.21   1 2.23  56 2.25  53 2.33
  23  0.997  0.254  0.002-   1 2.18  54 2.19  10 2.25   8 2.26  14 2.27
  24  0.745  0.245  0.241-  17 2.02  15 2.07  11 2.19  16 2.21   8 2.22  60 2.24
  25  0.756  0.008  0.019-  53 2.09  17 2.09  58 2.17   1 2.21   9 2.27  16 2.28
  26  0.513  0.999  0.235-  16 2.11  57 2.13  53 2.20   2 2.23  55 2.30  15 2.33
  27  0.997  0.499  0.247-  60 2.20   3 2.22   6 2.27  54 2.29   8 2.32  59 2.32
  28  0.496  0.757  0.005-   7 2.21  55 2.26  53 2.26   4 2.28   9 2.34
  29  0.988  0.005  0.749-  61 2.18   1 2.21  56 2.22  10 2.25  58 2.25  12 2.28
  30  0.751  0.244  0.751-   5 2.21  10 2.22  58 2.29  63 2.32  17 2.34  11 2.34
  31  0.754  0.000  0.520-  16 2.17  11 2.18  64 2.19  57 2.23  58 2.28  61 2.30
  32  0.500  0.243  0.490-  15 2.24  11 2.27  57 2.27   5 2.28  62 2.30
  33  0.494  0.000  0.734-   5 2.15   7 2.16  58 2.17  56 2.25  53 2.26  57 2.31
  34  1.000  0.999  0.253-   8 2.10  59 2.10  16 2.23  61 2.23   1 2.27   2 2.31
  35  0.490  0.247  0.002-  17 2.09  53 2.11  15 2.11  14 2.12   4 2.22   5 2.27
  36  0.254  0.750  0.246-  55 2.14  18 2.18  20 2.21  59 2.21   2 2.26   3 2.28
  37  0.246  0.498  1.000-  18 2.03  14 2.03  54 2.16  13 2.21   3 2.23   4 2.24
  38  0.004  0.748  0.003-  18 2.01   9 2.15  54 2.18  59 2.21  12 2.22   1 2.29
  39  0.750  0.755  0.252-  16 2.16  64 2.17   9 2.20  55 2.25  59 2.25  60 2.26
  40  0.754  0.492  0.001-  54 2.19  60 2.19  63 2.19  17 2.22   4 2.25   9 2.29
  41  0.501  0.495  0.252-  15 2.06  55 2.17  60 2.19  62 2.20   3 2.23   4 2.24
  42  0.248  0.247  0.751-  19 2.07  14 2.07  10 2.17  56 2.20   5 2.23  13 2.25
  43  0.263  0.003  0.497-  19 2.14  20 2.14  57 2.16  56 2.16  61 2.21   2 2.26
  44  0.004  0.249  0.502-  19 2.04  61 2.18   8 2.18  10 2.18  11 2.19   6 2.23
  45  0.246  0.755  0.753-  56 2.15  12 2.16   7 2.19  18 2.23  13 2.24  20 2.30
  46  0.254  0.497  0.501-  62 2.14   3 2.21  13 2.21   6 2.23  19 2.26  20 2.33
  47  0.004  0.755  0.501-  61 2.19  59 2.20   6 2.24  12 2.25  20 2.27  64 2.29
  48  0.999  0.503  0.750-  54 2.12  10 2.16  12 2.16   6 2.19  63 2.20  13 2.21
  49  0.748  0.751  0.752-  58 2.10  63 2.16  12 2.24   9 2.24   7 2.25  64 2.27
  50  0.747  0.499  0.498-  62 2.21  60 2.22  11 2.25  64 2.25   6 2.26  63 2.28
  51  0.495  0.748  0.503-  20 2.08  57 2.12  55 2.16  62 2.16  64 2.20   7 2.25
  52  0.501  0.500  0.746-  62 2.18  63 2.20  13 2.22   4 2.25   5 2.26   7 2.27
  53  0.521  0.011  0.988-  25 2.09  35 2.11  26 2.20  28 2.26  33 2.26  22 2.33  58 2.65  17 2.74
                             5 2.98   7 3.05   9 3.12  15 3.14   2 3.20  56 3.34  55 3.41
  54  0.001  0.502  0.989-  48 2.12  37 2.16  38 2.18  40 2.19  23 2.19  27 2.29  18 2.85  10 3.02
                            12 3.02  14 3.02  13 3.03  63 3.06   9 3.07  60 3.19   3 3.21  59 3.27
  55  0.496  0.740  0.259-  36 2.14  51 2.16  41 2.17  39 2.25  28 2.26  26 2.30  57 2.89  20 2.94
                            62 3.00  64 3.06  60 3.09   3 3.10   4 3.13   2 3.14  16 3.19   9 3.24
  56  0.239  0.998  0.740-  45 2.15  43 2.16  42 2.20  29 2.22  22 2.25  33 2.25  61 2.91  19 2.93
                            20 3.02  12 3.05   1 3.06   7 3.10  10 3.11   5 3.17  57 3.32  53 3.34
  57  0.506  0.986  0.475-  51 2.12  26 2.13  43 2.16  31 2.23  32 2.27  33 2.31  16 2.76  55 2.89
                            64 2.95  20 2.96   2 3.01  11 3.19   7 3.22   5 3.31  56 3.32  58 3.37
  58  0.735  0.987  0.776-  49 2.10  25 2.17  33 2.17  29 2.25  31 2.28  30 2.29  53 2.65   9 2.91
                             7 2.95  17 3.08   5 3.09   1 3.11  12 3.17  64 3.22  57 3.37  61 3.43
  59  0.004  0.762  0.252-  34 2.10  47 2.20  38 2.21  36 2.21  39 2.25  27 2.32  18 2.98  61 3.07
                            16 3.08   9 3.10  20 3.13   2 3.14   1 3.14  64 3.14   6 3.21   3 3.21
  60  0.748  0.499  0.248-  41 2.19  40 2.19  27 2.20  50 2.22  24 2.24  39 2.26  15 2.96  17 3.07
                            55 3.09  11 3.10   9 3.12   4 3.13  62 3.14  64 3.14   8 3.18  54 3.19
  61  0.013  0.002  0.504-  29 2.18  44 2.18  47 2.19  43 2.21  34 2.23  31 2.30  19 2.89  56 2.91
                             8 3.03  20 3.05  59 3.07  16 3.11  11 3.12  10 3.12  12 3.17   2 3.18
  62  0.497  0.503  0.500-  46 2.14  51 2.16  52 2.18  41 2.20  50 2.21  32 2.30  55 3.00  20 3.09
                            13 3.10  64 3.11   3 3.13  15 3.13  60 3.14   7 3.18   5 3.18  63 3.19
  63  0.749  0.506  0.754-  49 2.16  40 2.19  52 2.20  48 2.20  50 2.28  30 2.32  54 3.06  12 3.08
                             4 3.09   9 3.09  10 3.13   6 3.14   7 3.16  64 3.17  62 3.19   5 3.20
  64  0.744  0.754  0.496-  39 2.17  31 2.19  51 2.20  50 2.25  49 2.27  47 2.29  16 2.92  57 2.95
                            55 3.06  62 3.11  60 3.14  59 3.14  63 3.17   7 3.18   6 3.19  58 3.22
 
  LATTYP: Found a triclinic cell.
 ALAT       =     8.8687641184
 B/A-ratio  =     1.4042446471
 C/A-ratio  =     1.7302520360
 COS(alpha) =     0.0002343183
 COS(beta)  =     0.5802570221
 COS(gamma) =     0.7048223221
  
  Lattice vectors:
  
 A1 = (  -0.0615465534,   0.0354293336,  -8.8684797892)
 A2 = (   8.7734782429,   0.0357862082,  -8.8388226722)
 A3 = (  -8.9029371961,  -8.7975778835,  -8.8778042858)


Analysis of symmetry for initial positions (statically):
=====================================================================
 Subroutine PRICEL returns:
 Original cell was already a primitive cell.
 

 Routine SETGRP: Setting up the symmetry group for a 
 triclinic supercell.


 Subroutine GETGRP returns: Found  1 space group operations
 (whereof  1 operations were pure point group operations)
 out of a pool of  2 trial point group operations.


The static configuration has the point symmetry C_1 .


Analysis of symmetry for dynamics (positions and initial velocities):
=====================================================================
 Subroutine PRICEL returns:
 Original cell was already a primitive cell.
 

 Routine SETGRP: Setting up the symmetry group for a 
 triclinic supercell.


 Subroutine GETGRP returns: Found  1 space group operations
 (whereof  1 operations were pure point group operations)
 out of a pool of  2 trial point group operations.


The dynamic configuration has the point symmetry C_1 .


 Subroutine INISYM returns: Found  1 space group operations
 (whereof  1 operations are pure point group operations),
 and found     1 'primitive' translations

 
 
 KPOINTS: HECN                                    

Automatic generation of k-mesh.
Space group operators:
 irot       det(A)        alpha          n_x          n_y          n_z        tau_x        tau_y        tau_z
    1     1.000000     0.000000     1.000000     0.000000     0.000000     0.000000     0.000000     0.000000
 
 Subroutine IBZKPT returns following result:
 ===========================================
 
 Found     14 irreducible k-points:
 
 Following reciprocal coordinates:
            Coordinates               Weight
  0.000000  0.000000  0.000000      1.000000
  0.333333  0.000000  0.000000      2.000000
 -0.000000  0.333333 -0.000000      2.000000
  0.333333  0.333333 -0.000000      2.000000
 -0.333333  0.333333  0.000000      2.000000
  0.000000 -0.000000  0.333333      2.000000
  0.333333 -0.000000  0.333333      2.000000
 -0.333333 -0.000000  0.333333      2.000000
  0.000000  0.333333  0.333333      2.000000
  0.333333  0.333333  0.333333      2.000000
 -0.333333  0.333333  0.333333      2.000000
 -0.000000 -0.333333  0.333333      2.000000
  0.333333 -0.333333  0.333333      2.000000
 -0.333333 -0.333333  0.333333      2.000000
 
 Following cartesian coordinates:
            Coordinates               Weight
  0.000000  0.000000  0.000000      1.000000
  0.037730 -0.000028 -0.000262      2.000000
 -0.000002  0.037739  0.000151      2.000000
  0.037727  0.037711 -0.000111      2.000000
 -0.037732  0.037767  0.000413      2.000000
 -0.000126  0.000087  0.037588      2.000000
  0.037603  0.000059  0.037326      2.000000
 -0.037856  0.000114  0.037849      2.000000
 -0.000128  0.037826  0.037738      2.000000
  0.037601  0.037798  0.037476      2.000000
 -0.037858  0.037854  0.038000      2.000000
 -0.000124 -0.037652  0.037437      2.000000
  0.037605 -0.037680  0.037175      2.000000
 -0.037854 -0.037625  0.037699      2.000000
 


--------------------------------------------------------------------------------------------------------




 Dimension of arrays:
   k-points           NKPTS =     14   k-points in BZ     NKDIM =     14   number of bands    NBANDS=    312
   number of dos      NEDOS =    301   number of ions     NIONS =     64
   non local maximal  LDIM  =      6   non local SUM 2l+1 LMDIM =     18
   total plane-waves  NPLWV = 110592
   max r-space proj   IRMAX =      1   max aug-charges    IRDMAX=   9320
   dimension x,y,z NGX =    48 NGY =   48 NGZ =   48
   dimension x,y,z NGXF=    96 NGYF=   96 NGZF=   96
   support grid    NGXF=    96 NGYF=   96 NGZF=   96
   ions per type =               7   6   7  13  19   6   6
   NGX,Y,Z   is equivalent  to a cutoff of   9.03,  9.03,  9.00 a.u.
   NGXF,Y,Z  is equivalent  to a cutoff of  18.06, 18.07, 18.00 a.u.

 SYSTEM =  HEBCN                                   
 POSCAR =  52-HfVNbTaW                             

 Startparameter for this run:
   NWRITE =      2    write-flag & timer
   PREC   = normal    normal or accurate (medium, high low for compatibility)
   ISTART =      0    job   : 0-new  1-cont  2-samecut
   ICHARG =      2    charge: 1-file 2-atom 10-const
   ISPIN  =      1    spin polarized calculation?
   LNONCOLLINEAR =      F non collinear calculations
   LSORBIT =      F    spin-orbit coupling
   INIWAV =      1    electr: 0-lowe 1-rand  2-diag
   LASPH  =      F    aspherical Exc in radial PAW
   METAGGA=      F    non-selfconsistent MetaGGA calc.

 Electronic Relaxation 1
   ENCUT  =  400.0 eV  29.40 Ry    5.42 a.u.  14.41 14.40 14.46*2*pi/ulx,y,z
   ENINI  =  400.0     initial cutoff
   ENAUG  =  644.9 eV  augmentation charge cutoff
   NELM   =     60;   NELMIN=  2; NELMDL= -5     # of ELM steps 
   EDIFF  = 0.1E-04   stopping-criterion for ELM
   LREAL  =      F    real-space projection
   NLSPLINE    = F    spline interpolate recip. space projectors
   LCOMPAT=      F    compatible to vasp.4.4
   GGA_COMPAT  = T    GGA compatible to vasp.4.4-vasp.4.6
   LMAXPAW     = -100 max onsite density
   LMAXMIX     =    2 max onsite mixed and CHGCAR
   VOSKOWN=      0    Vosko Wilk Nusair interpolation
   ROPT   =    0.00000   0.00000   0.00000   0.00000
   ROPT   =    0.00000   0.00000   0.00000
 Ionic relaxation
   EDIFFG = -.1E-01   stopping-criterion for IOM
   NSW    =      0    number of steps for IOM
   NBLOCK =      1;   KBLOCK =      1    inner block; outer block 
   IBRION =     -1    ionic relax: 0-MD 1-quasi-New 2-CG
   NFREE  =      0    steps in history (QN), initial steepest desc. (CG)
   ISIF   =      2    stress and relaxation
   IWAVPR =     10    prediction:  0-non 1-charg 2-wave 3-comb
   ISYM   =      2    0-nonsym 1-usesym 2-fastsym
   LCORR  =      T    Harris-Foulkes like correction to forces

   POTIM  = 0.5000    time-step for ionic-motion
   TEIN   =    0.0    initial temperature
   TEBEG  =    0.0;   TEEND  =   0.0 temperature during run
   SMASS  =  -3.00    Nose mass-parameter (am)
   estimated Nose-frequenzy (Omega)   =  0.10E-29 period in steps =****** mass=  -0.178E-26a.u.
   SCALEE = 1.0000    scale energy and forces
   NPACO  =    256;   APACO  = 16.0  distance and # of slots for P.C.
   PSTRESS=    0.0 pullay stress

  Mass of Ions in am
   POMASS = 178.49 92.91 50.94 14.00 12.01183.85180.95
  Ionic Valenz
   ZVAL   =  10.00 13.00 13.00  5.00  4.00 12.00 11.00
  Atomic Wigner-Seitz radii
   RWIGS  =  -1.00 -1.00 -1.00 -1.00 -1.00 -1.00 -1.00
  virtual crystal weights 
   VCA    =   1.00  1.00  1.00  1.00  1.00  1.00  1.00
   NELECT =     518.0000    total number of electrons
   NUPDOWN=      -1.0000    fix difference up-down

 DOS related values:
   EMIN   =  10.00;   EMAX   =-10.00  energy-range for DOS
   EFERMI =   0.00
   ISMEAR =     0;   SIGMA  =   0.10  broadening in eV -4-tet -1-fermi 0-gaus

 Electronic relaxation 2 (details)
   IALGO  =     68    algorithm
   LDIAG  =      T    sub-space diagonalisation (order eigenvalues)
   LSUBROT=      F    optimize rotation matrix (better conditioning)
   TURBO    =      0    0=normal 1=particle mesh
   IRESTART =      0    0=no restart 2=restart with 2 vectors
   NREBOOT  =      0    no. of reboots
   NMIN     =      0    reboot dimension
   EREF     =   0.00    reference energy to select bands
   IMIX   =      4    mixing-type and parameters
     AMIX     =   0.40;   BMIX     =  1.00
     AMIX_MAG =   1.60;   BMIX_MAG =  1.00
     AMIN     =   0.10
     WC   =   100.;   INIMIX=   1;  MIXPRE=   1;  MAXMIX= -45

 Intra band minimization:
   WEIMIN = 0.0000     energy-eigenvalue tresh-hold
   EBREAK =  0.80E-08  absolut break condition
   DEPER  =   0.30     relativ break condition  

   TIME   =   0.40     timestep for ELM

  volume/ion in A,a.u.               =      10.81        72.97
  Fermi-wavevector in a.u.,A,eV,Ry     =   1.486415  2.808917 30.061121  2.209430
  Thomas-Fermi vector in A             =   2.599704
 
 Write flags
   LWAVE        =      T    write WAVECAR
   LDOWNSAMPLE  =      F    k-point downsampling of WAVECAR
   LCHARG       =      T    write CHGCAR
   LVTOT        =      F    write LOCPOT, total local potential
   LVHAR        =      F    write LOCPOT, Hartree potential only
   LELF         =      F    write electronic localiz. function (ELF)
   LORBIT       =      0    0 simple, 1 ext, 2 COOP (PROOUT), +10 PAW based schemes


 Dipole corrections
   LMONO  =      F    monopole corrections only (constant potential shift)
   LDIPOL =      F    correct potential (dipole corrections)
   IDIPOL =      0    1-x, 2-y, 3-z, 4-all directions 
   EPSILON=  1.0000000 bulk dielectric constant

 Exchange correlation treatment:
   GGA     =    --    GGA type
   LEXCH   =     8    internal setting for exchange type
   VOSKOWN=      0    Vosko Wilk Nusair interpolation
   LHFCALC =     F    Hartree Fock is set to
   LHFONE  =     F    Hartree Fock one center treatment
   AEXX    =    0.0000 exact exchange contribution

 Linear response parameters
   LEPSILON=     F    determine dielectric tensor
   LRPA    =     F    only Hartree local field effects (RPA)
   LNABLA  =     F    use nabla operator in PAW spheres
   LVEL    =     F    velocity operator in full k-point grid
   LINTERFAST=   F  fast interpolation
   KINTER  =     0    interpolate to denser k-point grid
   CSHIFT  =0.1000    complex shift for real part using Kramers Kronig
   OMEGAMAX=  -1.0    maximum frequency
   DEG_THRESHOLD= 0.2000000E-02 threshold for treating states as degnerate
   RTIME   =   -0.100 relaxation time in fs
  (WPLASMAI=    0.000 imaginary part of plasma frequency in eV, 0.658/RTIME)
   DFIELD  = 0.0000000 0.0000000 0.0000000 field for delta impulse in time
 
 Orbital magnetization related:
   ORBITALMAG=     F  switch on orbital magnetization
   LCHIMAG   =     F  perturbation theory with respect to B field
   DQ        =  0.001000  dq finite difference perturbation B field
   LLRAUG    =     F  two centre corrections for induced B field



--------------------------------------------------------------------------------------------------------


 Static calculation
 charge density and potential will be updated during run
 non-spin polarized calculation
 RMM-DIIS sequential band-by-band and
  variant of blocked Davidson during initial phase
 perform sub-space diagonalisation
    before iterative eigenvector-optimisation
 modified Broyden-mixing scheme, WC =      100.0
 initial mixing is a Kerker type mixing with AMIX =  0.4000 and BMIX =      1.0000
 Hartree-type preconditioning will be used
 using additional bands           53
 reciprocal scheme for non local part
 use partial core corrections
 calculate Harris-corrections to forces 
   (improved forces if not selfconsistent)
 use gradient corrections 
 use of overlap-Matrix (Vanderbilt PP)
 Gauss-broadening in eV      SIGMA  =   0.10


--------------------------------------------------------------------------------------------------------


  energy-cutoff  :      400.00
  volume of cell :      692.04
      direct lattice vectors                 reciprocal lattice vectors
     8.835024796  0.000356875  0.029657117     0.113188515 -0.000083386 -0.000785853
     0.006365846  8.832650343 -0.020332620    -0.000006092  0.113217347  0.000452342
     0.061546553 -0.035429334  8.868479789    -0.000378528  0.000259850  0.112762562

  length of vectors
     8.835074579  8.832676039  8.868764118     0.113191274  0.113218250  0.112763497


 
 k-points in units of 2pi/SCALE and weight: HECN                                    
   0.00000000  0.00000000  0.00000000       0.037
   0.03772950 -0.00002780 -0.00026195       0.074
  -0.00000203  0.03773912  0.00015078       0.074
   0.03772747  0.03771132 -0.00011117       0.074
  -0.03773154  0.03776691  0.00041273       0.074
  -0.00012618  0.00008662  0.03758752       0.074
   0.03760333  0.00005882  0.03732557       0.074
  -0.03785568  0.00011441  0.03784947       0.074
  -0.00012821  0.03782573  0.03773830       0.074
   0.03760130  0.03779794  0.03747635       0.074
  -0.03785771  0.03785353  0.03800025       0.074
  -0.00012415 -0.03765250  0.03743674       0.074
   0.03760536 -0.03768029  0.03717479       0.074
  -0.03785365 -0.03762470  0.03769869       0.074
 
 k-points in reciprocal lattice and weights: HECN                                    
   0.00000000  0.00000000  0.00000000       0.037
   0.33333333  0.00000000  0.00000000       0.074
  -0.00000000  0.33333333 -0.00000000       0.074
   0.33333333  0.33333333 -0.00000000       0.074
  -0.33333333  0.33333333  0.00000000       0.074
   0.00000000 -0.00000000  0.33333333       0.074
   0.33333333 -0.00000000  0.33333333       0.074
  -0.33333333 -0.00000000  0.33333333       0.074
   0.00000000  0.33333333  0.33333333       0.074
   0.33333333  0.33333333  0.33333333       0.074
  -0.33333333  0.33333333  0.33333333       0.074
  -0.00000000 -0.33333333  0.33333333       0.074
   0.33333333 -0.33333333  0.33333333       0.074
  -0.33333333 -0.33333333  0.33333333       0.074
 
 position of ions in fractional coordinates (direct lattice) 
   0.00569294  0.00715938  0.99748049
   0.26133502  0.00665462  0.24192133
   0.24802694  0.49226052  0.25136280
   0.49929622  0.49877476  0.99978952
   0.50045951  0.24353440  0.74698068
   0.00241189  0.50149229  0.50293900
   0.49338730  0.75702206  0.75578242
   0.99556065  0.23685388  0.25640234
   0.76016089  0.75153434  0.00393717
   0.00204717  0.25854609  0.74837325
   0.75697765  0.24497468  0.48719145
   0.00172812  0.74718667  0.75365423
   0.24899665  0.50098412  0.74997789
   0.25250076  0.26895233  0.98319493
   0.51132509  0.26303233  0.23904580
   0.74844408  0.99791606  0.27606275
   0.72586914  0.24322106  0.01387108
   0.23072908  0.72769871  0.00268394
   0.23451288  0.24230944  0.51825524
   0.26006337  0.76056027  0.49425769
   0.24990477  0.24873809  0.24629349
   0.25825772  0.00288620  0.99238241
   0.99650320  0.25425760  0.00220231
   0.74479323  0.24539655  0.24113687
   0.75572421  0.00832040  0.01909830
   0.51347633  0.99908273  0.23514369
   0.99719923  0.49890826  0.24689266
   0.49554841  0.75700276  0.00508750
   0.98798053  0.00471567  0.74909841
   0.75087823  0.24400514  0.75105485
   0.75371115  0.00028523  0.52044409
   0.50015120  0.24323217  0.49004838
   0.49415933  0.00049122  0.73412734
   0.99969037  0.99945738  0.25317340
   0.49010438  0.24748585  0.00230470
   0.25427681  0.75038145  0.24573927
   0.24564187  0.49841468  0.99964332
   0.00367199  0.74841095  0.00347218
   0.74959151  0.75463588  0.25196179
   0.75422159  0.49222679  0.00106586
   0.50093314  0.49524253  0.25201512
   0.24781696  0.24658141  0.75090600
   0.26337660  0.00280998  0.49696629
   0.00400390  0.24922133  0.50218330
   0.24563376  0.75460986  0.75299991
   0.25424919  0.49661041  0.50059471
   0.00370375  0.75523382  0.50057398
   0.99881238  0.50280632  0.75039198
   0.74839122  0.75075484  0.75180850
   0.74715600  0.49906018  0.49773603
   0.49512587  0.74801023  0.50257564
   0.50062638  0.49974953  0.74582882
   0.52146397  0.01112403  0.98752730
   0.00142453  0.50157854  0.98888885
   0.49573245  0.74025985  0.25930551
   0.23934902  0.99769275  0.74000367
   0.50624333  0.98629295  0.47465723
   0.73512293  0.98664377  0.77648416
   0.00416174  0.76199404  0.25230275
   0.74831179  0.49893031  0.24784490
   0.01312496  0.00243900  0.50424350
   0.49654074  0.50332167  0.49982729
   0.74938016  0.50647179  0.75437020
   0.74430414  0.75355758  0.49642965
 
 position of ions in cartesian coordinates  (Angst):
   0.11173430  0.02789826  8.84615884
   2.32383318  0.05030011  2.15308960
   2.20992832  4.33914792  2.22655275
   4.47600325  4.37025938  8.87127940
   4.46909653  2.12476779  6.63447356
   0.05545570  4.41168809  4.45017924
   4.41042390  6.65991033  6.70188128
   8.81309149  2.08331861  2.29860860
   6.72106677  6.63817186  0.04218025
   0.06579250  2.25713360  6.63173687
   6.71946076  2.14678498  4.33811635
   0.06640932  6.57293778  6.66862628
   2.24923932  4.39853518  6.64836198
   2.29307482  2.34081802  8.72146432
   4.53395668  2.31498588  2.12978910
   6.63586529  8.80472998  2.45016334
   6.41547391  2.14805415  0.13959729
   2.04329472  6.42749551  0.01584923
   2.10536644  2.12195682  4.59816429
   2.33292782  6.70034453  4.37556288
   2.22465678  2.18837979  2.18660278
   2.34280948 -0.00957450  8.80852380
   8.80588461  2.24604608  0.04391486
   6.59666993  2.15922440  2.15561634
   6.67807053  0.07308428  0.19161629
   4.55740844  8.81640067  2.08028132
   8.82865129  4.39829089  2.20899249
   4.38331459  6.68633726  0.04442305
   8.77496695  0.01546439  6.67256887
   6.68180591  2.12887065  6.67802238
   6.69109009 -0.01565064  4.63789498
   4.45055742  2.13120107  4.35587167
   4.41109610 -0.02149453  6.52523884
   8.85423354  8.81924455  2.25458951
   4.33180164  2.18604925  0.02994224
   2.26644317  6.61924130  2.17161768
   2.23494945  4.36699359  8.86246755
   0.03742010  6.61033057  0.01568474
   6.64297090  6.65677553  2.24140504
   6.66676550  4.34789852  0.02181232
   4.44442003  4.36555413  2.23977765
   2.23725438  2.15145175  6.66173055
   2.35754324  0.00730637  4.41508940
   0.06786872  2.18349427  4.44865391
   2.22132863  6.63861443  6.66990607
   2.28026917  4.36874115  4.43695697
   0.06833900  6.65298254  4.42408421
   8.87391700  4.41488302  6.67423467
   6.66310537  6.60478604  6.67432878
   6.63495266  4.39065628  4.42617317
   4.41014289  6.58928360  4.45655688
   4.47213098  4.38786731  6.61905374
   4.66799686  0.06345335  8.77310485
   0.07664145  4.39523273  8.75978465
   4.40048026  6.52944631  2.29929624
   2.16655039  8.78613875  6.54952028
   4.50816452  8.69494461  4.20444788
   6.54890003  8.68743148  6.88797466
   0.05714820  6.72148946  2.22217193
   6.62978332  4.39836302  2.21005567
   0.14700935  0.00368253  4.47221299
   4.42091647  4.42813302  4.43720037
   6.67044534  4.44702884  6.70204341
   6.61129609  6.63858808  4.40932846
 


--------------------------------------------------------------------------------------------------------


 k-point  1 :   0.0000 0.0000 0.0000  plane waves:   12591
 k-point  2 :   0.3333 0.0000 0.0000  plane waves:   12587
 k-point  3 :  -0.0000 0.3333-0.0000  plane waves:   12587
 k-point  4 :   0.3333 0.3333-0.0000  plane waves:   12575
 k-point  5 :  -0.3333 0.3333 0.0000  plane waves:   12568
 k-point  6 :   0.0000-0.0000 0.3333  plane waves:   12583
 k-point  7 :   0.3333-0.0000 0.3333  plane waves:   12570
 k-point  8 :  -0.3333-0.0000 0.3333  plane waves:   12565
 k-point  9 :   0.0000 0.3333 0.3333  plane waves:   12559
 k-point 10 :   0.3333 0.3333 0.3333  plane waves:   12566
 k-point 11 :  -0.3333 0.3333 0.3333  plane waves:   12563
 k-point 12 :  -0.0000-0.3333 0.3333  plane waves:   12573
 k-point 13 :   0.3333-0.3333 0.3333  plane waves:   12582
 k-point 14 :  -0.3333-0.3333 0.3333  plane waves:   12565

 maximum and minimum number of plane-waves per node :     12591    12559

 maximum number of plane-waves:     12591
 maximum index in each direction: 
   IXMAX=   14   IYMAX=   14   IZMAX=   14
   IXMIN=  -14   IYMIN=  -14   IZMIN=  -14


 serial   3D FFT for wavefunctions
 parallel 3D FFT for charge:
    minimum data exchange during FFTs selected (reduces bandwidth)


 total amount of memory used by VASP MPI-rank0   270631. kBytes
=======================================================================

   base      :      30000. kBytes
   nonl-proj :     190713. kBytes
   fftplans  :       1726. kBytes
   grid      :       8060. kBytes
   one-center:        995. kBytes
   wavefun   :      39137. kBytes
 
     INWAV:  cpu time    0.0000: real time    0.0000
 Broyden mixing: mesh for mixing (old mesh)
   NGX = 29   NGY = 29   NGZ = 29
  (NGX  = 96   NGY  = 96   NGZ  = 96)
  gives a total of  24389 points

 initial charge density was supplied:
 charge density of overlapping atoms calculated
 number of electron     518.0000000 magnetization 
 keeping initial charge density in first step


--------------------------------------------------------------------------------------------------------


 Maximum index for augmentation-charges          515 (set IRDMAX)


--------------------------------------------------------------------------------------------------------


 First call to EWALD:  gamma=   0.200
 Maximum number of real-space cells 3x 3x 3
 Maximum number of reciprocal cells 3x 3x 3

    FEWALD:  cpu time    0.0032: real time    0.0032


--------------------------------------- Iteration      1(   1)  ---------------------------------------


    POTLOK:  cpu time    0.0355: real time    0.0417
    SETDIJ:  cpu time    0.0083: real time    0.0084
     EDDAV:  cpu time   29.7613: real time   30.1364
       DOS:  cpu time    0.0014: real time    0.0014
    --------------------------------------------
      LOOP:  cpu time   29.8066: real time   30.1879

 eigenvalue-minimisations  :  8736
 total energy-change (2. order) : 0.5764401E+04  (-0.2368323E+05)
 number of electron     518.0000000 magnetization 
 augmentation part      518.0000000 magnetization 

 Free energy of the ion-electron system (eV)
  ---------------------------------------------------
  alpha Z        PSCENC =      4656.34983046
  Ewald energy   TEWEN  =    -43578.25302768
  -Hartree energ DENC   =     -7853.99247634
  -exchange      EXHF   =         0.00000000
  -V(xc)+E(xc)   XCENC  =      1879.17646920
  PAW double counting   =     30280.91784812   -30048.82752361
  entropy T*S    EENTRO =        -0.07494261
  eigenvalues    EBANDS =      1352.66118563
  atomic energy  EATOM  =     49076.44327936
  Solvation  Ediel_sol  =         0.00000000
  ---------------------------------------------------
  free energy    TOTEN  =      5764.40064253 eV

  energy without entropy =     5764.47558514  energy(sigma->0) =     5764.43811384


--------------------------------------------------------------------------------------------------------




--------------------------------------- Iteration      1(   2)  ---------------------------------------


     EDDAV:  cpu time   30.4314: real time   30.7077
       DOS:  cpu time    0.0013: real time    0.0013
    --------------------------------------------
      LOOP:  cpu time   30.4326: real time   30.7090

 eigenvalue-minimisations  :  9000
 total energy-change (2. order) :-0.5724782E+04  (-0.5513104E+04)
 number of electron     518.0000000 magnetization 
 augmentation part      518.0000000 magnetization 

 Free energy of the ion-electron system (eV)
  ---------------------------------------------------
  alpha Z        PSCENC =      4656.34983046
  Ewald energy   TEWEN  =    -43578.25302768
  -Hartree energ DENC   =     -7853.99247634
  -exchange      EXHF   =         0.00000000
  -V(xc)+E(xc)   XCENC  =      1879.17646920
  PAW double counting   =     30280.91784812   -30048.82752361
  entropy T*S    EENTRO =        -0.11973706
  eigenvalues    EBANDS =     -4372.07585627
  atomic energy  EATOM  =     49076.44327936
  Solvation  Ediel_sol  =         0.00000000
  ---------------------------------------------------
  free energy    TOTEN  =        39.61880619 eV

  energy without entropy =       39.73854324  energy(sigma->0) =       39.67867472


--------------------------------------------------------------------------------------------------------




--------------------------------------- Iteration      1(   3)  ---------------------------------------


     EDDAV:  cpu time   43.2772: real time   43.7300
       DOS:  cpu time    0.0013: real time    0.0013
    --------------------------------------------
      LOOP:  cpu time   43.2785: real time   43.7313

 eigenvalue-minimisations  : 13752
 total energy-change (2. order) :-0.7763101E+03  (-0.7441746E+03)
 number of electron     518.0000000 magnetization 
 augmentation part      518.0000000 magnetization 

 Free energy of the ion-electron system (eV)
  ---------------------------------------------------
  alpha Z        PSCENC =      4656.34983046
  Ewald energy   TEWEN  =    -43578.25302768
  -Hartree energ DENC   =     -7853.99247634
  -exchange      EXHF   =         0.00000000
  -V(xc)+E(xc)   XCENC  =      1879.17646920
  PAW double counting   =     30280.91784812   -30048.82752361
  entropy T*S    EENTRO =        -0.07766677
  eigenvalues    EBANDS =     -5148.42800631
  atomic energy  EATOM  =     49076.44327936
  Solvation  Ediel_sol  =         0.00000000
  ---------------------------------------------------
  free energy    TOTEN  =      -736.69127357 eV

  energy without entropy =     -736.61360680  energy(sigma->0) =     -736.65244019


--------------------------------------------------------------------------------------------------------




--------------------------------------- Iteration      1(   4)  ---------------------------------------


     EDDAV:  cpu time   44.5998: real time   44.9672
       DOS:  cpu time    0.0012: real time    0.0012
    --------------------------------------------
      LOOP:  cpu time   44.6010: real time   44.9684

 eigenvalue-minimisations  : 14352
 total energy-change (2. order) :-0.6090842E+02  (-0.5938011E+02)
 number of electron     518.0000000 magnetization 
 augmentation part      518.0000000 magnetization 

 Free energy of the ion-electron system (eV)
  ---------------------------------------------------
  alpha Z        PSCENC =      4656.34983046
  Ewald energy   TEWEN  =    -43578.25302768
  -Hartree energ DENC   =     -7853.99247634
  -exchange      EXHF   =         0.00000000
  -V(xc)+E(xc)   XCENC  =      1879.17646920
  PAW double counting   =     30280.91784812   -30048.82752361
  entropy T*S    EENTRO =        -0.09083301
  eigenvalues    EBANDS =     -5209.32326164
  atomic energy  EATOM  =     49076.44327936
  Solvation  Ediel_sol  =         0.00000000
  ---------------------------------------------------
  free energy    TOTEN  =      -797.59969514 eV

  energy without entropy =     -797.50886213  energy(sigma->0) =     -797.55427863


--------------------------------------------------------------------------------------------------------




--------------------------------------- Iteration      1(   5)  ---------------------------------------


     EDDAV:  cpu time   50.7291: real time   51.3904
       DOS:  cpu time    0.0012: real time    0.0012
    CHARGE:  cpu time    0.3767: real time    0.3806
    MIXING:  cpu time    0.0017: real time    0.0017
    --------------------------------------------
      LOOP:  cpu time   51.1087: real time   51.7739

 eigenvalue-minimisations  : 16656
 total energy-change (2. order) :-0.5217441E+01  (-0.5159927E+01)
 number of electron     517.9999998 magnetization 
 augmentation part      100.9048160 magnetization 

 Broyden mixing:
  rms(total) = 0.65216E+01    rms(broyden)= 0.65203E+01
  rms(prec ) = 0.10355E+02
  weight for this iteration     100.00

 Free energy of the ion-electron system (eV)
  ---------------------------------------------------
  alpha Z        PSCENC =      4656.34983046
  Ewald energy   TEWEN  =    -43578.25302768
  -Hartree energ DENC   =     -7853.99247634
  -exchange      EXHF   =         0.00000000
  -V(xc)+E(xc)   XCENC  =      1879.17646920
  PAW double counting   =     30280.91784812   -30048.82752361
  entropy T*S    EENTRO =        -0.09749469
  eigenvalues    EBANDS =     -5214.53404124
  atomic energy  EATOM  =     49076.44327936
  Solvation  Ediel_sol  =         0.00000000
  ---------------------------------------------------
  free energy    TOTEN  =      -802.81713642 eV

  energy without entropy =     -802.71964173  energy(sigma->0) =     -802.76838907


--------------------------------------------------------------------------------------------------------




--------------------------------------- Iteration      1(   6)  ---------------------------------------


    POTLOK:  cpu time    0.0291: real time    0.0324
    SETDIJ:  cpu time    0.0080: real time    0.0080
    EDDIAG:  cpu time    2.0629: real time    2.0727
  RMM-DIIS:  cpu time   32.6871: real time   33.0909
    ORTHCH:  cpu time    0.4639: real time    0.4681
       DOS:  cpu time    0.0012: real time    0.0012
    CHARGE:  cpu time    0.3724: real time    0.3757
    MIXING:  cpu time    0.0017: real time    0.0017
    --------------------------------------------
      LOOP:  cpu time   35.6263: real time   36.0507

 eigenvalue-minimisations  : 13467
 total energy-change (2. order) : 0.3071719E+02  (-0.1582360E+03)
 number of electron     517.9999998 magnetization 
 augmentation part      123.5198696 magnetization 

 Broyden mixing:
  rms(total) = 0.73619E+01    rms(broyden)= 0.73592E+01
  rms(prec ) = 0.12205E+02
  weight for this iteration     100.00

 eigenvalues of (default mixing * dielectric matrix)
  average eigenvalue GAMMA=   0.4623
  0.4623

 Free energy of the ion-electron system (eV)
  ---------------------------------------------------
  alpha Z        PSCENC =      4656.34983046
  Ewald energy   TEWEN  =    -43578.25302768
  -Hartree energ DENC   =     -7209.03203355
  -exchange      EXHF   =         0.00000000
  -V(xc)+E(xc)   XCENC  =      1868.10750085
  PAW double counting   =     29367.23726928   -29184.98752268
  entropy T*S    EENTRO =        -0.13341720
  eigenvalues    EBANDS =     -5767.83182050
  atomic energy  EATOM  =     49076.44327936
  Solvation  Ediel_sol  =         0.00000000
  ---------------------------------------------------
  free energy    TOTEN  =      -772.09994166 eV

  energy without entropy =     -771.96652446  energy(sigma->0) =     -772.03323306


--------------------------------------------------------------------------------------------------------




--------------------------------------- Iteration      1(   7)  ---------------------------------------


    POTLOK:  cpu time    0.0288: real time    0.0323
    SETDIJ:  cpu time    0.0079: real time    0.0080
    EDDIAG:  cpu time    2.0996: real time    2.1451
  RMM-DIIS:  cpu time   25.4201: real time   25.7386
    ORTHCH:  cpu time    0.4545: real time    0.4586
       DOS:  cpu time    0.0012: real time    0.0012
    CHARGE:  cpu time    0.3687: real time    0.3854
    MIXING:  cpu time    0.0016: real time    0.0018
    --------------------------------------------
      LOOP:  cpu time   28.3822: real time   28.7709

 eigenvalue-minimisations  : 10596
 total energy-change (2. order) : 0.8308994E+02  (-0.2080559E+02)
 number of electron     517.9999985 magnetization 
 augmentation part      104.9252912 magnetization 

 Broyden mixing:
  rms(total) = 0.32550E+01    rms(broyden)= 0.32498E+01
  rms(prec ) = 0.56445E+01
  weight for this iteration     100.00

 eigenvalues of (default mixing * dielectric matrix)
  average eigenvalue GAMMA=   0.5847
  0.8536  0.3157

 Free energy of the ion-electron system (eV)
  ---------------------------------------------------
  alpha Z        PSCENC =      4656.34983046
  Ewald energy   TEWEN  =    -43578.25302768
  -Hartree energ DENC   =     -7541.56141607
  -exchange      EXHF   =         0.00000000
  -V(xc)+E(xc)   XCENC  =      1878.62775666
  PAW double counting   =     30374.43235485   -30205.83807689
  entropy T*S    EENTRO =        -0.10800748
  eigenvalues    EBANDS =     -5349.10269508
  atomic energy  EATOM  =     49076.44327936
  Solvation  Ediel_sol  =         0.00000000
  ---------------------------------------------------
  free energy    TOTEN  =      -689.01000186 eV

  energy without entropy =     -688.90199438  energy(sigma->0) =     -688.95599812


--------------------------------------------------------------------------------------------------------




--------------------------------------- Iteration      1(   8)  ---------------------------------------


    POTLOK:  cpu time    0.0283: real time    0.0320
    SETDIJ:  cpu time    0.0080: real time    0.0080
    EDDIAG:  cpu time    2.0601: real time    2.0835
  RMM-DIIS:  cpu time   33.0171: real time   33.5062
    ORTHCH:  cpu time    0.4531: real time    0.4569
       DOS:  cpu time    0.0012: real time    0.0012
    CHARGE:  cpu time    0.3802: real time    0.3838
    MIXING:  cpu time    0.0014: real time    0.0014
    --------------------------------------------
      LOOP:  cpu time   35.9494: real time   36.4731

 eigenvalue-minimisations  : 13562
 total energy-change (2. order) : 0.1851770E+02  (-0.2926898E+01)
 number of electron     517.9999986 magnetization 
 augmentation part      108.2395069 magnetization 

 Broyden mixing:
  rms(total) = 0.10382E+01    rms(broyden)= 0.10370E+01
  rms(prec ) = 0.14438E+01
  weight for this iteration     100.00

 eigenvalues of (default mixing * dielectric matrix)
  average eigenvalue GAMMA=   0.7210
  0.3246  0.9192  0.9192

 Free energy of the ion-electron system (eV)
  ---------------------------------------------------
  alpha Z        PSCENC =      4656.34983046
  Ewald energy   TEWEN  =    -43578.25302768
  -Hartree energ DENC   =     -7415.29395956
  -exchange      EXHF   =         0.00000000
  -V(xc)+E(xc)   XCENC  =      1872.94947035
  PAW double counting   =     30619.05828163   -30457.37483894
  entropy T*S    EENTRO =        -0.08497184
  eigenvalues    EBANDS =     -5444.28636511
  atomic energy  EATOM  =     49076.44327936
  Solvation  Ediel_sol  =         0.00000000
  ---------------------------------------------------
  free energy    TOTEN  =      -670.49230132 eV

  energy without entropy =     -670.40732948  energy(sigma->0) =     -670.44981540


--------------------------------------------------------------------------------------------------------




--------------------------------------- Iteration      1(   9)  ---------------------------------------


    POTLOK:  cpu time    0.0293: real time    0.0332
    SETDIJ:  cpu time    0.0079: real time    0.0079
    EDDIAG:  cpu time    2.2172: real time    2.2703
  RMM-DIIS:  cpu time   31.1658: real time   31.5393
    ORTHCH:  cpu time    0.4653: real time    0.4689
       DOS:  cpu time    0.0011: real time    0.0011
    CHARGE:  cpu time    0.3757: real time    0.3777
    MIXING:  cpu time    0.0016: real time    0.0016
    --------------------------------------------
      LOOP:  cpu time   34.2639: real time   34.7001

 eigenvalue-minimisations  : 13437
 total energy-change (2. order) : 0.4593793E+00  (-0.8511459E+00)
 number of electron     517.9999987 magnetization 
 augmentation part      109.2969310 magnetization 

 Broyden mixing:
  rms(total) = 0.91808E+00    rms(broyden)= 0.91739E+00
  rms(prec ) = 0.14550E+01
  weight for this iteration     100.00

 eigenvalues of (default mixing * dielectric matrix)
  average eigenvalue GAMMA=   0.7109
  1.1101  1.1101  0.3264  0.2972

 Free energy of the ion-electron system (eV)
  ---------------------------------------------------
  alpha Z        PSCENC =      4656.34983046
  Ewald energy   TEWEN  =    -43578.25302768
  -Hartree energ DENC   =     -7366.98542318
  -exchange      EXHF   =         0.00000000
  -V(xc)+E(xc)   XCENC  =      1869.91943969
  PAW double counting   =     30892.19001197   -30731.41026652
  entropy T*S    EENTRO =        -0.08896066
  eigenvalues    EBANDS =     -5488.19780545
  atomic energy  EATOM  =     49076.44327936
  Solvation  Ediel_sol  =         0.00000000
  ---------------------------------------------------
  free energy    TOTEN  =      -670.03292200 eV

  energy without entropy =     -669.94396134  energy(sigma->0) =     -669.98844167


--------------------------------------------------------------------------------------------------------




--------------------------------------- Iteration      1(  10)  ---------------------------------------


    POTLOK:  cpu time    0.0318: real time    0.0323
    SETDIJ:  cpu time    0.0080: real time    0.0081
    EDDIAG:  cpu time    2.0798: real time    2.0985
  RMM-DIIS:  cpu time   35.0739: real time   35.3873
    ORTHCH:  cpu time    0.4667: real time    0.4705
       DOS:  cpu time    0.0012: real time    0.0012
    CHARGE:  cpu time    0.3784: real time    0.3790
    MIXING:  cpu time    0.0015: real time    0.0015
    --------------------------------------------
      LOOP:  cpu time   38.0414: real time   38.3784

 eigenvalue-minimisations  : 14546
 total energy-change (2. order) : 0.2254258E+00  (-0.3568654E+00)
 number of electron     517.9999986 magnetization 
 augmentation part      109.4068153 magnetization 

 Broyden mixing:
  rms(total) = 0.72158E+00    rms(broyden)= 0.72029E+00
  rms(prec ) = 0.11866E+01
  weight for this iteration     100.00

 eigenvalues of (default mixing * dielectric matrix)
  average eigenvalue GAMMA=   0.8611
  1.9670  1.0743  0.7442  0.3255  0.1944

 Free energy of the ion-electron system (eV)
  ---------------------------------------------------
  alpha Z        PSCENC =      4656.34983046
  Ewald energy   TEWEN  =    -43578.25302768
  -Hartree energ DENC   =     -7352.11423090
  -exchange      EXHF   =         0.00000000
  -V(xc)+E(xc)   XCENC  =      1868.81309376
  PAW double counting   =     31068.18069156   -30907.60272537
  entropy T*S    EENTRO =        -0.10129578
  eigenvalues    EBANDS =     -5501.52311166
  atomic energy  EATOM  =     49076.44327936
  Solvation  Ediel_sol  =         0.00000000
  ---------------------------------------------------
  free energy    TOTEN  =      -669.80749624 eV

  energy without entropy =     -669.70620046  energy(sigma->0) =     -669.75684835


--------------------------------------------------------------------------------------------------------




--------------------------------------- Iteration      1(  11)  ---------------------------------------


    POTLOK:  cpu time    0.0296: real time    0.0337
    SETDIJ:  cpu time    0.0079: real time    0.0080
    EDDIAG:  cpu time    2.0596: real time    2.0830
  RMM-DIIS:  cpu time   35.2454: real time   35.6386
    ORTHCH:  cpu time    0.4552: real time    0.4574
       DOS:  cpu time    0.0012: real time    0.0012
    CHARGE:  cpu time    0.3749: real time    0.3769
    MIXING:  cpu time    0.0016: real time    0.0016
    --------------------------------------------
      LOOP:  cpu time   38.1754: real time   38.6004

 eigenvalue-minimisations  : 14413
 total energy-change (2. order) : 0.3577332E+00  (-0.2365937E+00)
 number of electron     517.9999987 magnetization 
 augmentation part      109.3027349 magnetization 

 Broyden mixing:
  rms(total) = 0.28296E+00    rms(broyden)= 0.28242E+00
  rms(prec ) = 0.47408E+00
  weight for this iteration     100.00

 eigenvalues of (default mixing * dielectric matrix)
  average eigenvalue GAMMA=   0.8261
  2.2100  0.8838  0.8838  0.4602  0.3248  0.1939

 Free energy of the ion-electron system (eV)
  ---------------------------------------------------
  alpha Z        PSCENC =      4656.34983046
  Ewald energy   TEWEN  =    -43578.25302768
  -Hartree energ DENC   =     -7329.46951637
  -exchange      EXHF   =         0.00000000
  -V(xc)+E(xc)   XCENC  =      1866.82218014
  PAW double counting   =     31538.92624260   -31377.76464058
  entropy T*S    EENTRO =        -0.09022691
  eigenvalues    EBANDS =     -5522.41388410
  atomic energy  EATOM  =     49076.44327936
  Solvation  Ediel_sol  =         0.00000000
  ---------------------------------------------------
  free energy    TOTEN  =      -669.44976308 eV

  energy without entropy =     -669.35953616  energy(sigma->0) =     -669.40464962


--------------------------------------------------------------------------------------------------------




--------------------------------------- Iteration      1(  12)  ---------------------------------------


    POTLOK:  cpu time    0.0289: real time    0.0324
    SETDIJ:  cpu time    0.0080: real time    0.0080
    EDDIAG:  cpu time    2.0795: real time    2.1084
  RMM-DIIS:  cpu time   34.9131: real time   35.4428
    ORTHCH:  cpu time    0.4515: real time    0.4555
       DOS:  cpu time    0.0011: real time    0.0011
    CHARGE:  cpu time    0.3744: real time    0.3776
    MIXING:  cpu time    0.0018: real time    0.0018
    --------------------------------------------
      LOOP:  cpu time   37.8584: real time   38.4278

 eigenvalue-minimisations  : 14425
 total energy-change (2. order) :-0.1121807E+00  (-0.7880332E-01)
 number of electron     517.9999987 magnetization 
 augmentation part      109.2886075 magnetization 

 Broyden mixing:
  rms(total) = 0.46136E+00    rms(broyden)= 0.46077E+00
  rms(prec ) = 0.80592E+00
  weight for this iteration     100.00

 eigenvalues of (default mixing * dielectric matrix)
  average eigenvalue GAMMA=   0.8059
  2.3685  0.9654  0.9654  0.6582  0.3249  0.1963  0.1625

 Free energy of the ion-electron system (eV)
  ---------------------------------------------------
  alpha Z        PSCENC =      4656.34983046
  Ewald energy   TEWEN  =    -43578.25302768
  -Hartree energ DENC   =     -7326.89104396
  -exchange      EXHF   =         0.00000000
  -V(xc)+E(xc)   XCENC  =      1866.70440090
  PAW double counting   =     31643.61877229   -31482.40426635
  entropy T*S    EENTRO =        -0.09828535
  eigenvalues    EBANDS =     -5525.03160342
  atomic energy  EATOM  =     49076.44327936
  Solvation  Ediel_sol  =         0.00000000
  ---------------------------------------------------
  free energy    TOTEN  =      -669.56194374 eV

  energy without entropy =     -669.46365840  energy(sigma->0) =     -669.51280107


--------------------------------------------------------------------------------------------------------




--------------------------------------- Iteration      1(  13)  ---------------------------------------


    POTLOK:  cpu time    0.0286: real time    0.0325
    SETDIJ:  cpu time    0.0079: real time    0.0080
    EDDIAG:  cpu time    2.1364: real time    2.1714
  RMM-DIIS:  cpu time   34.3031: real time   34.7890
    ORTHCH:  cpu time    0.4544: real time    0.4585
       DOS:  cpu time    0.0011: real time    0.0012
    CHARGE:  cpu time    0.3841: real time    0.3875
    MIXING:  cpu time    0.0018: real time    0.0018
    --------------------------------------------
      LOOP:  cpu time   37.3174: real time   37.8498

 eigenvalue-minimisations  : 14569
 total energy-change (2. order) : 0.1553101E+00  (-0.3430293E-01)
 number of electron     517.9999986 magnetization 
 augmentation part      109.2683907 magnetization 

 Broyden mixing:
  rms(total) = 0.11292E+00    rms(broyden)= 0.11209E+00
  rms(prec ) = 0.16277E+00
  weight for this iteration     100.00

 eigenvalues of (default mixing * dielectric matrix)
  average eigenvalue GAMMA=   0.8187
  2.4263  1.0851  1.0851  0.7703  0.5034  0.3258  0.1947  0.1586

 Free energy of the ion-electron system (eV)
  ---------------------------------------------------
[...]
  0.001  -0.008   0.003   0.001   0.038  -0.010  -0.002  -0.002   0.558   0.013   0.020   0.003   0.004  -1.115  -0.039  -0.020
  0.000  -0.000  -0.003   0.000   0.009  -0.000  -0.001  -0.000   0.013   0.406   0.005  -0.004  -0.001  -0.040  -0.568   0.011
  0.003  -0.001  -0.004  -0.003   0.005   0.018   0.000  -0.002   0.020   0.005   0.538  -0.002  -0.001  -0.020   0.012  -1.107
 -0.005  -0.000  -0.001   0.043   0.004   0.024  -0.527  -0.002   0.003  -0.004  -0.002   0.898   0.004   0.006   0.008   0.012
  0.000  -0.002  -0.000  -0.029   0.012   0.004  -0.002  -0.613   0.004  -0.001  -0.001   0.004   0.993  -0.015   0.005   0.004
 -0.007  -0.015   0.001   0.033   0.037  -0.009   0.003   0.004  -1.115  -0.040  -0.020   0.006  -0.015   2.628   0.124   0.004
 -0.000  -0.005  -0.002   0.004   0.017   0.008  -0.004  -0.001  -0.039  -0.568   0.012   0.008   0.005   0.124   0.972  -0.060
 -0.012   0.000  -0.003   0.066   0.009  -0.000  -0.002  -0.000  -0.020   0.011  -1.107   0.012   0.004   0.004  -0.060   2.677
 -0.002  -0.013  -0.001   0.006   0.038   0.007   0.003   0.007   0.014   0.014  -0.015  -0.008  -0.004  -0.027  -0.016   0.033
 -0.000  -0.043  -0.006  -0.004   0.008   0.008   0.003   0.003  -0.011   0.003   0.015  -0.007  -0.005   0.020  -0.002  -0.022


------------------------ aborting loop because EDIFF is reached ----------------------------------------


    CHARGE:  cpu time    0.3738: real time    0.3746
    FORLOC:  cpu time    0.0168: real time    0.0168
    FORNL :  cpu time   29.8533: real time   30.0888
    STRESS:  cpu time   40.4536: real time   40.9909
    FORCOR:  cpu time    0.0334: real time    0.0337
    FORHAR:  cpu time    0.0217: real time    0.0219
    MIXING:  cpu time    0.0037: real time    0.0037
    OFIELD:  cpu time    0.0000: real time    0.0000

  FORCE on cell =-STRESS in cart. coord.  units (eV):
  Direction    XX          YY          ZZ          XY          YZ          ZX
  --------------------------------------------------------------------------------------
  Alpha Z  4656.34983  4656.34983  4656.34983
  Ewald  -14465.46822-14586.21204-14526.81362   -12.46901    28.01666   -43.06121
  Hartree  2495.58289  2348.00303  2497.96825     2.69631     8.74117   -46.12103
  E(xc)   -2310.54672 -2310.49356 -2310.78803    -0.07703     0.07395     0.12740
  Local    2340.60268  2608.99872  2396.59884    12.41481   -39.02794    85.91138
  n-local -1409.58806 -1402.62040 -1409.43568    -0.42806    -2.98768    -1.14584
  augment   942.55431   939.66507   942.04295    -0.79286     0.67953     1.20413
  Kinetic  7748.22360  7741.42646  7752.00271    -1.18998     4.32069     3.00346
  Fock        0.00000     0.00000     0.00000     0.00000     0.00000     0.00000
  -------------------------------------------------------------------------------------
  Total      -2.28968    -4.88289    -2.07476     0.15418    -0.18362    -0.08171
  in kB      -5.30093   -11.30455    -4.80334     0.35694    -0.42511    -0.18918
  external pressure =       -7.14 kB  Pullay stress =        0.00 kB


 VOLUME and BASIS-vectors are now :
 -----------------------------------------------------------------------------
  energy-cutoff  :      400.00
  volume of cell :      692.04
      direct lattice vectors                 reciprocal lattice vectors
     8.835024796  0.000356875  0.029657117     0.113188515 -0.000083386 -0.000785853
     0.006365846  8.832650343 -0.020332620    -0.000006092  0.113217347  0.000452342
     0.061546553 -0.035429334  8.868479789    -0.000378528  0.000259850  0.112762562

  length of vectors
     8.835074579  8.832676039  8.868764118     0.113191274  0.113218250  0.112763497


 FORCES acting on ions
    electron-ion (+dipol)            ewald-force                    non-local-force                 convergence-correction
 -----------------------------------------------------------------------------------------------
   -.595E+02 0.491E+02 -.430E+02   0.596E+02 -.492E+02 0.442E+02   -.226E+00 0.721E-01 -.122E+01   -.298E-03 -.685E-03 0.305E-03
   0.517E+02 0.528E+02 0.234E+02   -.526E+02 -.526E+02 -.230E+02   0.855E+00 -.209E+00 -.268E+00   -.266E-03 -.291E-03 0.187E-03
   0.830E+01 -.565E+02 -.542E+02   -.736E+01 0.562E+02 0.549E+02   -.870E+00 0.212E+00 -.605E+00   0.248E-03 0.316E-03 0.306E-03
   -.236E+02 -.807E+02 0.480E+02   0.235E+02 0.794E+02 -.486E+02   0.910E-01 0.142E+01 0.528E+00   0.204E-03 0.371E-03 -.233E-03
   -.163E+02 -.963E+02 0.484E+02   0.157E+02 0.974E+02 -.476E+02   0.649E+00 -.115E+01 -.818E+00   -.263E-04 -.223E-03 0.701E-04
   0.314E+02 -.821E+02 0.510E+02   -.306E+02 0.824E+02 -.500E+02   -.832E+00 -.339E+00 -.984E+00   -.182E-03 -.224E-03 0.309E-03
   -.181E+02 0.998E+02 0.106E+02   0.173E+02 -.101E+03 -.108E+02   0.809E+00 0.132E+01 0.111E+00   0.329E-03 0.133E-03 0.883E-05
   -.110E+03 -.689E+02 0.942E+01   0.110E+03 0.687E+02 -.977E+01   -.333E+00 0.287E+00 0.327E+00   -.579E-03 -.136E-02 0.973E-03
   0.442E+02 0.112E+03 -.181E+02   -.440E+02 -.112E+03 0.185E+02   -.285E+00 0.110E+00 -.299E+00   0.174E-03 0.376E-03 0.234E-03
   0.885E+02 -.219E+02 0.991E+01   -.888E+02 0.220E+02 -.991E+01   0.245E+00 -.137E+00 -.116E-01   0.101E-03 0.322E-03 -.134E-02
   0.208E+02 -.155E+03 -.155E+03   -.211E+02 0.155E+03 0.156E+03   0.263E+00 0.470E-01 -.151E+00   0.670E-03 -.313E-03 -.247E-03
   0.537E+02 0.948E+01 0.977E+02   -.533E+02 -.976E+01 -.978E+02   -.379E+00 0.240E+00 0.143E+00   -.196E-03 0.784E-04 0.331E-03
   -.117E+03 -.628E+02 0.896E+02   0.117E+03 0.629E+02 -.898E+02   -.983E-01 -.106E+00 0.898E-01   0.269E-03 0.245E-03 -.442E-03
   -.242E+02 0.591E+02 -.741E+02   0.266E+02 -.578E+02 0.731E+02   -.237E+01 -.125E+01 0.104E+01   0.669E-03 -.637E-03 -.442E-03
   0.185E+03 -.749E+02 -.822E+02   -.186E+03 0.771E+02 0.814E+02   0.829E+00 -.212E+01 0.821E+00   0.402E-03 -.412E-03 -.162E-03
   -.108E+03 0.140E+03 0.163E+02   0.109E+03 -.141E+03 -.176E+02   -.649E+00 0.146E+01 0.127E+01   0.586E-03 -.229E-03 -.403E-03
   -.855E+02 -.158E+03 0.166E+03   0.839E+02 0.159E+03 -.166E+03   0.153E+01 -.105E+01 -.962E+00   -.550E-03 -.729E-03 0.202E-03
   -.113E+03 -.965E+02 -.627E+02   0.113E+03 0.955E+02 0.632E+02   0.437E+00 0.991E+00 -.450E+00   -.288E-03 0.526E-03 -.201E-03
   -.106E+03 -.832E+02 0.106E+03   0.105E+03 0.837E+02 -.106E+03   0.642E+00 -.491E+00 -.926E+00   -.492E-03 -.489E-03 0.374E-03
   0.745E+02 0.105E+03 0.251E+02   -.756E+02 -.106E+03 -.252E+02   0.108E+01 0.487E+00 0.180E+00   0.261E-03 0.551E-03 0.162E-03
   -.154E+01 -.744E+01 -.166E+02   0.329E+01 0.722E+01 0.171E+02   -.175E+01 0.216E+00 -.537E+00   0.185E-03 -.328E-03 0.224E-03
   -.188E+01 0.329E+02 -.254E+02   0.223E+01 -.341E+02 0.265E+02   -.342E+00 0.117E+01 -.111E+01   -.289E-04 -.241E-03 0.349E-04
   0.108E+02 0.113E+02 -.158E+02   -.121E+02 -.129E+02 0.166E+02   0.130E+01 0.162E+01 -.797E+00   -.141E-03 -.326E-03 -.141E-03
   -.484E+02 -.582E+02 -.314E+02   0.485E+02 0.559E+02 0.299E+02   -.364E-01 0.231E+01 0.148E+01   -.222E-03 -.565E-03 0.151E-03
   -.704E+02 0.537E+02 -.887E+01   0.749E+02 -.528E+02 0.150E+02   -.436E+01 -.936E+00 -.623E+01   0.540E-04 -.272E-03 0.342E-03
   0.847E+02 0.345E+02 0.304E+02   -.837E+02 -.326E+02 -.332E+02   -.991E+00 -.186E+01 0.280E+01   0.401E-03 0.935E-04 -.364E-04
   -.119E+02 -.439E+02 -.361E+02   0.129E+02 0.437E+02 0.374E+02   -.979E+00 0.196E+00 -.125E+01   -.200E-03 0.130E-03 0.303E-03
   0.177E+02 0.356E+02 0.824E+01   -.197E+02 -.355E+02 -.913E+01   0.203E+01 -.123E+00 0.915E+00   0.961E-04 0.792E-04 -.234E-03
   0.205E+02 0.183E+02 -.675E+01   -.230E+02 -.176E+02 0.637E+01   0.230E+01 -.815E+00 0.413E+00   -.910E-04 -.605E-04 -.311E-04
   0.293E+02 -.437E+02 0.239E+02   -.286E+02 0.438E+02 -.232E+02   -.669E+00 -.121E+00 -.640E+00   -.179E-04 -.121E-03 -.143E-03
   -.266E+02 0.366E+02 -.750E+02   0.284E+02 -.352E+02 0.773E+02   -.171E+01 -.138E+01 -.230E+01   0.876E-04 0.370E-04 -.335E-03
   0.267E+02 -.388E+02 -.521E+02   -.294E+02 0.393E+02 0.508E+02   0.267E+01 -.431E+00 0.138E+01   0.190E-04 -.746E-04 -.224E-04
   0.273E+02 0.900E+01 0.282E+02   -.292E+02 -.859E+01 -.313E+02   0.187E+01 -.409E+00 0.319E+01   0.101E-03 -.125E-03 0.712E-04
   -.504E+02 0.427E+02 0.164E+02   0.503E+02 -.427E+02 -.172E+02   0.647E-01 -.330E-02 0.867E+00   -.290E-03 -.736E-04 -.173E-04
   0.396E+02 -.384E+02 0.488E+02   -.406E+02 0.400E+02 -.488E+02   0.100E+01 -.155E+01 -.162E-01   0.128E-03 -.162E-03 0.350E-04
   0.206E+02 0.553E+01 -.913E+00   -.212E+02 -.541E+01 0.470E+00   0.570E+00 -.181E+00 0.397E+00   -.200E-04 0.214E-03 -.625E-04
   -.421E+02 -.133E+02 -.423E+02   0.439E+02 0.134E+02 0.430E+02   -.182E+01 -.513E-01 -.704E+00   0.111E-03 0.327E-03 -.154E-03
   0.200E+02 -.296E+02 -.347E+02   -.195E+02 0.312E+02 0.347E+02   -.482E+00 -.162E+01 -.774E-01   -.187E-04 0.245E-03 -.166E-04
   -.185E+02 0.571E+02 -.946E+01   0.191E+02 -.562E+02 0.874E+01   -.557E+00 -.100E+01 0.775E+00   0.346E-04 0.376E-03 -.108E-03
   0.244E+02 -.254E+02 0.125E+02   -.258E+02 0.244E+02 -.127E+02   0.136E+01 0.944E+00 0.215E+00   -.904E-04 0.221E-03 -.320E-05
   0.209E+02 -.469E+02 -.243E+01   -.220E+02 0.454E+02 0.163E+01   0.109E+01 0.153E+01 0.805E+00   0.127E-03 -.863E-04 -.702E-06
   -.507E+02 0.408E+01 0.155E+01   0.515E+02 -.329E+01 -.137E+01   -.802E+00 -.769E+00 -.154E+00   0.244E-04 -.993E-04 -.209E-03
   0.164E-01 0.551E+01 0.341E+02   0.809E-01 -.505E+01 -.353E+02   -.399E-01 -.431E+00 0.134E+01   -.273E-04 -.238E-04 -.132E-04
   0.204E+02 -.386E+02 0.867E+01   -.199E+02 0.397E+02 -.877E+01   -.430E+00 -.108E+01 0.351E-01   -.556E-04 -.141E-04 0.121E-03
   -.408E+02 0.387E+01 0.982E+01   0.415E+02 -.480E+01 -.953E+01   -.655E+00 0.943E+00 -.287E+00   0.110E-03 0.523E-04 0.688E-04
   0.737E+01 -.192E+02 0.331E+02   -.807E+01 0.191E+02 -.336E+02   0.643E+00 0.122E+00 0.623E+00   -.764E-04 0.197E-04 0.127E-03
   0.208E+02 0.369E+02 0.206E+02   -.201E+02 -.379E+02 -.203E+02   -.736E+00 0.972E+00 -.252E+00   -.116E-04 0.498E-04 0.887E-05
   0.374E+02 -.138E+02 0.486E+02   -.369E+02 0.140E+02 -.507E+02   -.503E+00 -.164E+00 0.220E+01   -.145E-04 -.747E-05 -.205E-03
   0.280E+02 0.440E+02 0.407E+02   -.284E+02 -.451E+02 -.408E+02   0.387E+00 0.109E+01 0.713E-01   -.140E-03 0.158E-03 0.107E-03
   -.773E+01 -.322E+02 -.221E+02   0.853E+01 0.319E+02 0.223E+02   -.775E+00 0.210E+00 -.158E+00   0.916E-04 -.618E-05 0.311E-05
   -.319E+02 0.456E+02 -.451E+02   0.309E+02 -.468E+02 0.475E+02   0.103E+01 0.113E+01 -.242E+01   -.164E-04 0.797E-04 0.158E-03
   -.304E+02 -.980E+01 0.431E+00   0.299E+02 0.986E+01 0.568E+00   0.482E+00 -.766E-01 -.969E+00   -.948E-05 0.139E-03 0.205E-04
   0.184E+03 0.110E+03 0.214E+02   -.184E+03 -.109E+03 -.201E+02   0.598E+00 -.105E+01 -.123E+01   0.351E-03 -.201E-04 -.129E-03
   0.705E+02 -.203E+02 -.854E+02   -.707E+02 0.204E+02 0.848E+02   0.207E+00 -.934E-01 0.502E+00   -.375E-03 0.854E-03 -.641E-03
   0.172E+02 0.873E+02 0.562E+02   -.184E+02 -.885E+02 -.567E+02   0.120E+01 0.127E+01 0.461E+00   0.508E-03 0.127E-03 0.887E-04
   -.530E+02 0.491E+02 -.522E+02   0.535E+02 -.497E+02 0.516E+02   -.615E+00 0.632E+00 0.510E+00   0.156E-03 0.966E-04 -.317E-03
   0.621E+02 -.298E+01 -.102E+03   -.637E+02 0.302E+01 0.101E+03   0.167E+01 0.530E-01 0.452E+00   -.136E-03 -.327E-03 0.587E-04
   -.363E+02 0.270E+02 0.111E+03   0.365E+02 -.279E+02 -.111E+03   -.169E+00 0.967E+00 0.191E+00   -.214E-03 -.560E-03 0.184E-03
   -.206E+02 0.608E+02 -.524E+02   0.213E+02 -.591E+02 0.528E+02   -.720E+00 -.165E+01 -.385E+00   -.481E-03 0.960E-03 -.292E-03
   -.311E+02 -.128E+03 -.501E+02   0.304E+02 0.129E+03 0.500E+02   0.630E+00 -.887E+00 0.126E+00   -.237E-03 0.577E-03 0.160E-03
   0.476E+01 0.941E+02 0.407E+02   -.350E+01 -.946E+02 -.417E+02   -.112E+01 0.544E+00 0.972E+00   -.341E-04 0.207E-03 -.392E-03
   -.315E+02 -.794E+01 -.536E+02   0.304E+02 0.821E+01 0.540E+02   0.114E+01 -.269E+00 -.434E+00   0.202E-03 0.318E-03 0.150E-03
   0.843E+02 -.151E+02 0.664E+02   -.852E+02 0.159E+02 -.662E+02   0.908E+00 -.893E+00 -.246E+00   0.159E-04 0.340E-03 -.107E-03
   -.530E+02 0.139E+03 -.523E+02   0.538E+02 -.140E+03 0.519E+02   -.745E+00 0.102E+01 0.315E+00   -.146E-03 0.155E-03 -.156E-04
 -----------------------------------------------------------------------------------------------
   -.352E+01 0.111E+01 0.136E+01   0.107E-12 -.256E-12 0.625E-12   0.352E+01 -.111E+01 -.136E+01   0.742E-03 -.316E-03 -.122E-02
 
 
 POSITION                                       TOTAL-FORCE (eV/Angst)
 -----------------------------------------------------------------------------------
      0.11173      0.02790      8.84616        -0.033171     -0.034443      0.038288
      2.32383      0.05030      2.15309         0.036115      0.029938      0.059726
      2.20993      4.33915      2.22655         0.073912     -0.033996      0.080472
      4.47600      4.37026      8.87128         0.018432      0.040822     -0.028766
      4.46910      2.12477      6.63447        -0.021914     -0.119086      0.007357
      0.05546      4.41169      4.45018        -0.004720      0.029769      0.024127
      4.41042      6.65991      6.70188        -0.031974      0.060304     -0.043315
      8.81309      2.08332      2.29861        -0.046877      0.014988     -0.016761
      6.72107      6.63817      0.04218        -0.042034     -0.019688      0.050038
      0.06579      2.25713      6.63174        -0.029037     -0.013985     -0.003871
      6.71946      2.14678      4.33812        -0.031512      0.034160      0.049804
      0.06641      6.57294      6.66863         0.022417     -0.039736     -0.026040
      2.24924      4.39854      6.64836        -0.076754      0.019183     -0.063576
      2.29307      2.34082      8.72146         0.031816      0.019937      0.023319
      4.53396      2.31499      2.12979         0.009792      0.055962     -0.031510
      6.63587      8.80473      2.45016        -0.096504     -0.032877     -0.029560
      6.41547      2.14805      0.13960        -0.032951      0.076861     -0.049880
      2.04329      6.42750      0.01585        -0.059130      0.029343     -0.032338
      2.10537      2.12196      4.59816        -0.016667      0.014168     -0.076728
      2.33293      6.70034      4.37556        -0.045426     -0.038645      0.028158
      2.22466      2.18838      2.18660        -0.008738     -0.006114     -0.015056
      2.34281     -0.00957      8.80852         0.007134     -0.020211      0.007070
      8.80588      2.24605      0.04391         0.045281      0.022450      0.046504
      6.59667      2.15922      2.15562         0.047804     -0.057376      0.001260
      6.67807      0.07308      0.19162         0.091798     -0.045938     -0.058775
      4.55741      8.81640      2.08028        -0.006979      0.027852     -0.009268
      8.82865      4.39829      2.20899         0.014864      0.024048      0.016091
      4.38331      6.68634      0.04442        -0.017548     -0.063475      0.029413
      8.77497      0.01546      6.67257        -0.155238     -0.047038      0.038882
      6.68181      2.12887      6.67802        -0.005606      0.049696     -0.000761
      6.69109     -0.01565      4.63789         0.078825      0.016178     -0.002979
      4.45056      2.13120      4.35587        -0.005746      0.100625      0.096898
      4.41110     -0.02149      6.52524        -0.066743     -0.003236      0.016930
      8.85423      8.81924      2.25459        -0.078491     -0.016025      0.032594
      4.33180      2.18605      0.02994        -0.002440     -0.026918     -0.026387
      2.26644      6.61924      2.17162        -0.026362     -0.055683     -0.045834
      2.23495      4.36699      8.86247         0.002231     -0.019057     -0.029338
      0.03742      6.61033      0.01568         0.040427     -0.028993     -0.030129
      6.64297      6.65678      2.24141         0.004164     -0.074010      0.053067
      6.66677      4.34790      0.02181         0.014153      0.007970      0.007940
      4.44442      4.36555      2.23978         0.053935     -0.030022      0.004583
      2.23725      2.15145      6.66173         0.010249      0.022419      0.023108
      2.35754      0.00731      4.41509         0.057380      0.028748      0.065403
      0.06787      2.18349      4.44865         0.011284     -0.027282     -0.062814
      2.22133      6.63861      6.66991        -0.032399      0.009197     -0.004396
      2.28027      4.36874      4.43696        -0.061493      0.002379      0.056079
      0.06834      6.65298      4.42408        -0.032169     -0.045614      0.017596
      8.87392      4.41488      6.67423        -0.008053     -0.011979      0.015530
      6.66311      6.60479      6.67433         0.014662     -0.008155     -0.041841
      6.63495      4.39066      4.42617         0.022268     -0.074271      0.022625
      4.41014      6.58928      4.45656         0.021791     -0.034946     -0.017706
      4.47213      4.38787      6.61905         0.011207     -0.010066      0.029772
      4.66800      0.06345      8.77310         0.021534     -0.005121      0.045292
      0.07664      4.39523      8.75978         0.003963      0.017317     -0.018233
      4.40048      6.52945      2.29930         0.065179      0.009144      0.023266
      2.16655      8.78614      6.54952        -0.023865      0.027911     -0.079779
      4.50816      8.69494      4.20445         0.059150      0.098927     -0.001957
      6.54890      8.68743      6.88797        -0.034343      0.057874     -0.003748
      0.05715      6.72149      2.22217         0.045304      0.096776     -0.005793
      6.62978      4.39836      2.21006        -0.036229      0.038453      0.018684
      0.14701      0.00368      4.47221         0.144083     -0.009504     -0.005881
      4.42092      4.42813      4.43720         0.054797     -0.002389     -0.029144
      6.67045      4.44703      6.70204         0.017920     -0.042365     -0.084219
      6.61130      6.63859      4.40933         0.017246      0.014846     -0.053493
 -----------------------------------------------------------------------------------
    total drift:                                0.000928     -0.001850      0.001346


--------------------------------------------------------------------------------------------------------



  FREE ENERGIE OF THE ION-ELECTRON SYSTEM (eV)
  ---------------------------------------------------
  free  energy   TOTEN  =      -669.41813444 eV

  energy  without entropy=     -669.32758806  energy(sigma->0) =     -669.37286125
 


--------------------------------------------------------------------------------------------------------


    POTLOK:  cpu time    0.0374: real time    0.0377


--------------------------------------------------------------------------------------------------------


 writing wavefunctions
     LOOP+:  cpu time 1070.6587: real time 1085.1895
    4ORBIT:  cpu time    0.0000: real time    0.0000

 total amount of memory used by VASP MPI-rank0   270631. kBytes
=======================================================================

   base      :      30000. kBytes
   nonl-proj :     190713. kBytes
   fftplans  :       1726. kBytes
   grid      :       8060. kBytes
   one-center:        995. kBytes
   wavefun   :      39137. kBytes
 
  
  
 General timing and accounting informations for this job:
 ========================================================
  
                  Total CPU time used (sec):     1080.458
                            User time (sec):     1059.647
                          System time (sec):       20.812
                         Elapsed time (sec):     1095.461
  
                   Maximum memory used (kb):      355248.
                   Average memory used (kb):           0.
  
                          Minor page faults:       248887
                          Major page faults:            0
                 Voluntary context switches:         1642
