<?xml version="1.0" encoding="ISO-8859-1"?>
<modeling>
 <generator>
  <i name="program" type="string">vasp </i>
  <i name="version" type="string">5.4.4.18Apr17-6-g9f103f2a35  </i>
  <i name="subversion" type="string">(build Oct 18 2021 20:38:43) complex            parallel </i>
  <i name="platform" type="string">LinuxIFC </i>
  <i name="date" type="string">2025 11 12 </i>
  <i name="time" type="string">17:08:54 </i>
 </generator>
 <incar>
  <i type="string" name="SYSTEM">HEBCN</i>
  <i type="int" name="ISTART">     0</i>
  <i type="string" name="PREC">normal</i>
  <i type="string" name="ALGO">Fast</i>
  <i type="int" name="ICHARG">     2</i>
  <i type="int" name="NELM">    60</i>
  <i type="int" name="IBRION">    -1</i>
  <i name="EDIFF">      0.00001000</i>
  <i name="EDIFFG">     -0.01000000</i>
  <i type="int" name="NSW">     0</i>
  <i type="int" name="ISIF">     2</i>
  <i name="ENCUT">    400.00000000</i>
  <i name="POTIM">      0.50000000</i>
  <i type="logical" name="LREAL"> F  </i>
  <i type="int" name="ISMEAR">     0</i>
  <i name="SIGMA">      0.10000000</i>
  <i type="logical" name="LWAVE"> T  </i>
  <i type="logical" name="LCHARG"> T  </i>
  <v type="int" name="KPOINT_BSE">    -1     0     0     0</v>
  <i type="int" name="NELM">    60</i>
 </incar>
 <structure name="primitive_cell" >
  <crystal>
   <varray name="basis" >
    <v>       8.83502480       0.00035687       0.02965712 </v>
    <v>       0.00636585       8.83265034      -0.02033262 </v>
    <v>       0.06154655      -0.03542933       8.86847979 </v>
   </varray>
   <i name="volume">    692.04424795 </i>
   <varray name="rec_basis" >
    <v>       0.11318851      -0.00008339      -0.00078585 </v>
    <v>      -0.00000609       0.11321735       0.00045234 </v>
    <v>      -0.00037853       0.00025985       0.11276256 </v>
   </varray>
  </crystal>
  <varray name="positions" >
   <v>       0.00569294       0.00715938      -0.00251951 </v>
   <v>      -0.00349680       0.25425760       0.00220231 </v>
   <v>      -0.01201947       0.00471567      -0.25090159 </v>
   <v>      -0.24427579       0.00832040       0.01909830 </v>
   <v>       0.25825772       0.00288620      -0.00761759 </v>
   <v>      -0.00030963      -0.00054262       0.25317340 </v>
   <v>       0.00367199      -0.25158905       0.00347218 </v>
   <v>      -0.00443935       0.23685388       0.25640234 </v>
   <v>       0.23934902      -0.00230725      -0.25999633 </v>
   <v>      -0.26487707      -0.01335623      -0.22351584 </v>
   <v>      -0.23983911      -0.24846566       0.00393717 </v>
   <v>       0.00416174      -0.23800596       0.25230275 </v>
   <v>       0.00204717       0.25854609      -0.25162675 </v>
   <v>       0.00172812      -0.25281333      -0.24634577 </v>
   <v>       0.26133502       0.00665462       0.24192133 </v>
   <v>       0.23072908      -0.27230129       0.00268394 </v>
   <v>       0.25250076       0.26895233      -0.01680507 </v>
   <v>      -0.27413086       0.24322106       0.01387108 </v>
   <v>      -0.25155592      -0.00208394       0.27606275 </v>
   <v>       0.24781696       0.24658141      -0.24909400 </v>
   <v>       0.24563376      -0.24539014      -0.24700009 </v>
   <v>       0.24990477       0.24873809       0.24629349 </v>
   <v>      -0.25520677       0.24539655       0.24113687 </v>
   <v>      -0.24912177       0.24400514      -0.24894515 </v>
   <v>       0.25427681      -0.24961855       0.24573927 </v>
   <v>      -0.25160878      -0.24924516      -0.24819150 </v>
   <v>      -0.25040849      -0.24536412       0.25196179 </v>
   <v>      -0.47853603       0.01112403      -0.01247270 </v>
   <v>       0.00142453      -0.49842146      -0.01111115 </v>
   <v>       0.01312496       0.00243900      -0.49575650 </v>
   <v>       0.49010438       0.24748585       0.00230470 </v>
   <v>      -0.24628885       0.00028523      -0.47955591 </v>
   <v>      -0.48652367      -0.00091727       0.23514369 </v>
   <v>      -0.24577841       0.49222679       0.00106586 </v>
   <v>       0.24564187       0.49841468      -0.00035668 </v>
   <v>       0.49554841      -0.24299724       0.00508750 </v>
   <v>      -0.00280077       0.49890826       0.24689266 </v>
   <v>       0.49415933       0.00049122      -0.26587266 </v>
   <v>       0.00400390       0.24922133      -0.49781670 </v>
   <v>      -0.00118762      -0.49719368      -0.24960802 </v>
   <v>       0.00370375      -0.24476618      -0.49942602 </v>
   <v>       0.26337660       0.00280998       0.49696629 </v>
   <v>       0.23451288       0.24230944      -0.48174476 </v>
   <v>       0.49338730      -0.24297794      -0.24421758 </v>
   <v>      -0.24302235       0.24497468       0.48719145 </v>
   <v>       0.24802694       0.49226052       0.25136280 </v>
   <v>      -0.49954049       0.24353440      -0.25301932 </v>
   <v>       0.24899665      -0.49901588      -0.25002211 </v>
   <v>      -0.48867491       0.26303233       0.23904580 </v>
   <v>      -0.25168821       0.49893031       0.24784490 </v>
   <v>      -0.25061984      -0.49352821      -0.24562980 </v>
   <v>       0.26006337      -0.23943973       0.49425769 </v>
   <v>      -0.25569586      -0.24644242       0.49642965 </v>
   <v>       0.49573245      -0.25974015       0.25930551 </v>
   <v>      -0.49375667      -0.01370705       0.47465723 </v>
   <v>       0.49929622       0.49877476      -0.00021048 </v>
   <v>       0.00241189      -0.49850771      -0.49706100 </v>
   <v>       0.49512587      -0.25198977      -0.49742436 </v>
   <v>      -0.49984880       0.24323217       0.49004838 </v>
   <v>      -0.49906686       0.49524253       0.25201512 </v>
   <v>      -0.49937362       0.49974953      -0.25417118 </v>
   <v>       0.25424919       0.49661041      -0.49940529 </v>
   <v>      -0.25284400       0.49906018       0.49773603 </v>
   <v>       0.49654074      -0.49667833       0.49982729 </v>
  </varray>
 </structure>
 <varray name="primitive_index" >
  <v type="int" >        1 </v>
  <v type="int" >       23 </v>
  <v type="int" >       29 </v>
  <v type="int" >       25 </v>
  <v type="int" >       22 </v>
  <v type="int" >       34 </v>
  <v type="int" >       38 </v>
  <v type="int" >        8 </v>
  <v type="int" >       56 </v>
  <v type="int" >       58 </v>
  <v type="int" >        9 </v>
  <v type="int" >       59 </v>
  <v type="int" >       10 </v>
  <v type="int" >       12 </v>
  <v type="int" >        2 </v>
  <v type="int" >       18 </v>
  <v type="int" >       14 </v>
  <v type="int" >       17 </v>
  <v type="int" >       16 </v>
  <v type="int" >       42 </v>
  <v type="int" >       45 </v>
  <v type="int" >       21 </v>
  <v type="int" >       24 </v>
  <v type="int" >       30 </v>
  <v type="int" >       36 </v>
  <v type="int" >       49 </v>
  <v type="int" >       39 </v>
  <v type="int" >       53 </v>
  <v type="int" >       54 </v>
  <v type="int" >       61 </v>
  <v type="int" >       35 </v>
  <v type="int" >       31 </v>
  <v type="int" >       26 </v>
  <v type="int" >       40 </v>
  <v type="int" >       37 </v>
  <v type="int" >       28 </v>
  <v type="int" >       27 </v>
  <v type="int" >       33 </v>
  <v type="int" >       44 </v>
  <v type="int" >       48 </v>
  <v type="int" >       47 </v>
  <v type="int" >       43 </v>
  <v type="int" >       19 </v>
  <v type="int" >        7 </v>
  <v type="int" >       11 </v>
  <v type="int" >        3 </v>
  <v type="int" >        5 </v>
  <v type="int" >       13 </v>
  <v type="int" >       15 </v>
  <v type="int" >       60 </v>
  <v type="int" >       63 </v>
  <v type="int" >       20 </v>
  <v type="int" >       64 </v>
  <v type="int" >       55 </v>
  <v type="int" >       57 </v>
  <v type="int" >        4 </v>
  <v type="int" >        6 </v>
  <v type="int" >       51 </v>
  <v type="int" >       32 </v>
  <v type="int" >       41 </v>
  <v type="int" >       52 </v>
  <v type="int" >       46 </v>
  <v type="int" >       50 </v>
  <v type="int" >       62 </v>
 </varray>
 <kpoints>
  <generation param="Gamma">
   <v type="int" name="divisions">       3        3        3 </v>
   <v name="usershift">      0.00000000       0.00000000       0.00000000 </v>
   <v name="genvec1">      0.33333333       0.00000000       0.00000000 </v>
   <v name="genvec2">      0.00000000       0.33333333      -0.00000000 </v>
   <v name="genvec3">      0.00000000       0.00000000       0.33333333 </v>
   <v name="shift">      0.00000000       0.00000000       0.00000000 </v>
  </generation>
  <varray name="kpointlist" >
   <v>       0.00000000       0.00000000       0.00000000 </v>
   <v>       0.33333333       0.00000000       0.00000000 </v>
   <v>      -0.00000000       0.33333333      -0.00000000 </v>
   <v>       0.33333333       0.33333333      -0.00000000 </v>
   <v>      -0.33333333       0.33333333       0.00000000 </v>
   <v>       0.00000000      -0.00000000       0.33333333 </v>
   <v>       0.33333333      -0.00000000       0.33333333 </v>
   <v>      -0.33333333      -0.00000000       0.33333333 </v>
   <v>       0.00000000       0.33333333       0.33333333 </v>
   <v>       0.33333333       0.33333333       0.33333333 </v>
   <v>      -0.33333333       0.33333333       0.33333333 </v>
   <v>      -0.00000000      -0.33333333       0.33333333 </v>
   <v>       0.33333333      -0.33333333       0.33333333 </v>
   <v>      -0.33333333      -0.33333333       0.33333333 </v>
  </varray>
  <varray name="weights" >
   <v>       0.03703704 </v>
   <v>       0.07407407 </v>
   <v>       0.07407407 </v>
   <v>       0.07407407 </v>
   <v>       0.07407407 </v>
   <v>       0.07407407 </v>
   <v>       0.07407407 </v>
   <v>       0.07407407 </v>
   <v>       0.07407407 </v>
   <v>       0.07407407 </v>
   <v>       0.07407407 </v>
   <v>       0.07407407 </v>
   <v>       0.07407407 </v>
   <v>       0.07407407 </v>
  </varray>
 </kpoints>
 <parameters>
  <separator name="general" >
   <i type="string" name="SYSTEM">HEBCN</i>
   <i type="logical" name="LCOMPAT"> F  </i>
  </separator>
  <separator name="electronic" >
   <i type="string" name="PREC">normal</i>
   <i name="ENMAX">    400.00000000</i>
   <i name="ENAUG">    644.87300000</i>
   <i name="EDIFF">      0.00001000</i>
   <i type="int" name="IALGO">    68</i>
   <i type="int" name="IWAVPR">    10</i>
   <i type="int" name="NBANDS">   312</i>
   <i name="NELECT">    518.00000000</i>
   <i type="int" name="TURBO">     0</i>
   <i type="int" name="IRESTART">     0</i>
   <i type="int" name="NREBOOT">     0</i>
   <i type="int" name="NMIN">     0</i>
   <i name="EREF">      0.00000000</i>
   <separator name="electronic smearing" >
    <i type="int" name="ISMEAR">     0</i>
    <i name="SIGMA">      0.10000000</i>
    <i name="KSPACING">      0.50000000</i>
    <i type="logical" name="KGAMMA"> T  </i>
   </separator>
   <separator name="electronic projectors" >
    <i type="logical" name="LREAL"> F  </i>
    <v name="ROPT">      0.00000000      0.00000000      0.00000000      0.00000000      0.00000000      0.00000000      0.00000000</v>
    <i type="int" name="LMAXPAW">  -100</i>
    <i type="int" name="LMAXMIX">     2</i>
    <i type="logical" name="NLSPLINE"> F  </i>
   </separator>
   <separator name="electronic startup" >
    <i type="int" name="ISTART">     0</i>
    <i type="int" name="ICHARG">     2</i>
    <i type="int" name="INIWAV">     1</i>
   </separator>
   <separator name="electronic spin" >
    <i type="int" name="ISPIN">     1</i>
    <i type="logical" name="LNONCOLLINEAR"> F  </i>
    <v name="MAGMOM">      1.00000000      1.00000000      1.00000000      1.00000000      1.00000000      1.00000000      1.00000000      1.00000000      1.00000000      1.00000000      1.00000000      1.00000000      1.00000000      1.00000000      1.00000000      1.00000000      1.00000000      1.00000000      1.00000000      1.00000000
      1.00000000      1.00000000      1.00000000      1.00000000      1.00000000      1.00000000      1.00000000      1.00000000      1.00000000      1.00000000      1.00000000      1.00000000      1.00000000      1.00000000      1.00000000      1.00000000      1.00000000      1.00000000      1.00000000      1.00000000
      1.00000000      1.00000000      1.00000000      1.00000000      1.00000000      1.00000000      1.00000000      1.00000000      1.00000000      1.00000000      1.00000000      1.00000000      1.00000000      1.00000000      1.00000000      1.00000000      1.00000000      1.00000000      1.00000000      1.00000000
      1.00000000      1.00000000      1.00000000      1.00000000</v>
    <i name="NUPDOWN">     -1.00000000</i>
    <i type="logical" name="LSORBIT"> F  </i>
    <v name="SAXIS">      0.00000000      0.00000000      1.00000000</v>
    <i type="logical" name="LSPIRAL"> F  </i>
    <v name="QSPIRAL">      0.00000000      0.00000000      0.00000000</v>
    <i type="logical" name="LZEROZ"> F  </i>
   </separator>
   <separator name="electronic exchange-correlation" >
    <i type="logical" name="LASPH"> F  </i>
    <i type="logical" name="LMETAGGA"> F  </i>
   </separator>
   <separator name="electronic convergence" >
    <i type="int" name="NELM">    60</i>
    <i type="int" name="NELMDL">    -5</i>
    <i type="int" name="NELMIN">     2</i>
    <i name="ENINI">    400.00000000</i>
    <separator name="electronic convergence detail" >
     <i type="logical" name="LDIAG"> T  </i>
     <i type="logical" name="LSUBROT"> F  </i>
     <i name="WEIMIN">      0.00000000</i>
     <i name="EBREAK">      0.00000001</i>
     <i name="DEPER">      0.30000000</i>
     <i type="int" name="NRMM">     4</i>
     <i name="TIME">      0.40000000</i>
    </separator>
   </separator>
   <separator name="electronic mixer" >
    <i name="AMIX">      0.40000000</i>
    <i name="BMIX">      1.00000000</i>
    <i name="AMIN">      0.10000000</i>
    <i name="AMIX_MAG">      1.60000000</i>
    <i name="BMIX_MAG">      1.00000000</i>
    <separator name="electronic mixer details" >
     <i type="int" name="IMIX">     4</i>
     <i type="logical" name="MIXFIRST"> F  </i>
     <i type="int" name="MAXMIX">   -45</i>
     <i name="WC">    100.00000000</i>
     <i type="int" name="INIMIX">     1</i>
     <i type="int" name="MIXPRE">     1</i>
     <i type="int" name="MREMOVE">     5</i>
    </separator>
   </separator>
   <separator name="electronic dipolcorrection" >
    <i type="logical" name="LDIPOL"> F  </i>
    <i type="logical" name="LMONO"> F  </i>
    <i type="int" name="IDIPOL">     0</i>
    <i name="EPSILON">      1.00000000</i>
    <v name="DIPOL">   -100.00000000   -100.00000000   -100.00000000</v>
    <i name="EFIELD">      0.00000000</i>
   </separator>
  </separator>
  <separator name="grids" >
   <i type="int" name="NGX">    48</i>
   <i type="int" name="NGY">    48</i>
   <i type="int" name="NGZ">    48</i>
   <i type="int" name="NGXF">    96</i>
   <i type="int" name="NGYF">    96</i>
   <i type="int" name="NGZF">    96</i>
   <i type="logical" name="ADDGRID"> F  </i>
  </separator>
  <separator name="ionic" >
   <i type="int" name="NSW">     0</i>
   <i type="int" name="IBRION">    -1</i>
   <i type="int" name="MDALGO">     0</i>
   <i type="int" name="ISIF">     2</i>
   <i name="PSTRESS">      0.00000000</i>
   <i name="EDIFFG">     -0.01000000</i>
   <i type="int" name="NFREE">     0</i>
   <i name="POTIM">      0.50000000</i>
   <i name="SMASS">     -3.00000000</i>
   <i name="SCALEE">      1.00000000</i>
  </separator>
  <separator name="ionic md" >
   <i name="TEBEG">      0.00010000</i>
   <i name="TEEND">      0.00010000</i>
   <i type="int" name="NBLOCK">     1</i>
   <i type="int" name="KBLOCK">     1</i>
   <i type="int" name="NPACO">   256</i>
   <i name="APACO">     16.00000000</i>
  </separator>
  <separator name="symmetry" >
   <i type="int" name="ISYM">     2</i>
   <i name="SYMPREC">      0.00001000</i>
  </separator>
  <separator name="dos" >
   <i type="int" name="LORBIT">     0</i>
   <v name="RWIGS">     -1.00000000     -1.00000000     -1.00000000     -1.00000000     -1.00000000     -1.00000000     -1.00000000</v>
   <i type="int" name="NEDOS">   301</i>
   <i name="EMIN">     10.00000000</i>
   <i name="EMAX">    -10.00000000</i>
   <i name="EFERMI">      0.00000000</i>
  </separator>
  <separator name="writing" >
   <i type="int" name="NWRITE">     2</i>
   <i type="logical" name="LWAVE"> T  </i>
   <i type="logical" name="LDOWNSAMPLE"> F  </i>
   <i type="logical" name="LCHARG"> T  </i>
   <i type="logical" name="LPARD"> F  </i>
   <i type="logical" name="LVTOT"> F  </i>
   <i type="logical" name="LVHAR"> F  </i>
   <i type="logical" name="LELF"> F  </i>
   <i type="logical" name="LOPTICS"> F  </i>
   <v name="STM">      0.00000000      0.00000000      0.00000000      0.00000000      0.00000000      0.00000000      0.00000000</v>
  </separator>
  <separator name="performance" >
   <i type="int" name="NPAR">    24</i>
   <i type="int" name="NSIM">     4</i>
   <i type="int" name="NBLK">    -1</i>
   <i type="logical" name="LPLANE"> T  </i>
   <i type="logical" name="LSCALAPACK"> T  </i>
   <i type="logical" name="LSCAAWARE"> F  </i>
   <i type="logical" name="LSCALU"> F  </i>
   <i type="logical" name="LASYNC"> F  </i>
   <i type="logical" name="LORBITALREAL"> F  </i>
  </separator>
  <separator name="miscellaneous" >
   <i type="int" name="IDIOT">     3</i>
   <i type="int" name="ISPECIAL">     0</i>
   <i type="logical" name="LMUSIC"> F  </i>
   <v name="POMASS">    178.49000000     92.91000000     50.94100000     14.00100000     12.01100000    183.85000000    180.94800000</v>
   <v name="DARWINR">      0.00000000      0.00000000      0.00000000      0.00000000      0.00000000      0.00000000      0.00000000</v>
   <v name="DARWINV">      1.00000000      1.00000000      1.00000000      1.00000000      1.00000000      1.00000000      1.00000000</v>
   <i type="logical" name="LCORR"> T  </i>
  </separator>
  <i type="logical" name="GGA_COMPAT"> T  </i>
  <i type="logical" name="LBERRY"> F  </i>
  <i type="int" name="ICORELEVEL">     0</i>
  <i type="logical" name="LDAU"> F  </i>
  <i type="int" name="I_CONSTRAINED_M">     0</i>
  <separator name="electronic exchange-correlation" >
   <i type="string" name="GGA">--</i>
   <i type="int" name="VOSKOWN">     0</i>
   <i type="logical" name="LHFCALC"> F  </i>
   <i type="string" name="PRECFOCK"></i>
   <i type="logical" name="LSYMGRAD"> F  </i>
   <i type="logical" name="LHFONE"> F  </i>
   <i type="logical" name="LRHFCALC"> F  </i>
   <i type="logical" name="LTHOMAS"> F  </i>
   <i type="logical" name="LMODELHF"> F  </i>
   <i name="ENCUT4O">     -1.00000000</i>
   <i type="int" name="EXXOEP">     0</i>
   <i type="int" name="FOURORBIT">     0</i>
   <i name="AEXX">      0.00000000</i>
   <i name="HFALPHA">      0.00000000</i>
   <i name="MCALPHA">      0.00000000</i>
   <i name="ALDAX">      1.00000000</i>
   <i name="AGGAX">      1.00000000</i>
   <i name="ALDAC">      1.00000000</i>
   <i name="AGGAC">      1.00000000</i>
   <i type="int" name="NKREDX">     1</i>
   <i type="int" name="NKREDY">     1</i>
   <i type="int" name="NKREDZ">     1</i>
   <i type="logical" name="SHIFTRED"> F  </i>
   <i type="logical" name="ODDONLY"> F  </i>
   <i type="logical" name="EVENONLY"> F  </i>
   <i type="int" name="LMAXFOCK">     0</i>
   <i type="int" name="NMAXFOCKAE">     0</i>
   <i type="logical" name="LFOCKAEDFT"> F  </i>
   <i name="HFSCREEN">      0.00000000</i>
   <i name="HFSCREENC">      0.00000000</i>
   <i type="int" name="NBANDSGWLOW">     0</i>
  </separator>
  <separator name="vdW DFT" >
   <i type="logical" name="LUSE_VDW"> F  </i>
   <i name="Zab_VDW">     -0.84910000</i>
   <i name="PARAM1">      0.12340000</i>
   <i name="PARAM2">      1.00000000</i>
   <i name="PARAM3">      0.00000000</i>
  </separator>
  <separator name="model GW" >
   <i type="int" name="MODEL_GW">     0</i>
   <i name="MODEL_EPS0">      6.48791482</i>
   <i name="MODEL_ALPHA">      1.00000000</i>
  </separator>
  <separator name="linear response parameters" >
   <i type="logical" name="LEPSILON"> F  </i>
   <i type="logical" name="LRPA"> F  </i>
   <i type="logical" name="LNABLA"> F  </i>
   <i type="logical" name="LVEL"> F  </i>
   <i type="int" name="KINTER">     0</i>
   <i name="CSHIFT">      0.10000000</i>
   <i name="OMEGAMAX">     -1.00000000</i>
   <i name="DEG_THRESHOLD">      0.00200000</i>
   <i name="RTIME">     -0.10000000</i>
   <i name="WPLASMAI">      0.00000000</i>
   <v name="DFIELD">      0.00000000      0.00000000      0.00000000</v>
   <v name="WPLASMA">      0.00000000      0.00000000      0.00000000      0.00000000      0.00000000      0.00000000      0.00000000      0.00000000      0.00000000</v>
  </separator>
  <separator name="orbital magnetization" >
   <i type="logical" name="NUCIND"> F  </i>
   <v name="MAGPOS">      0.00000000      0.00000000      0.00000000</v>
   <i type="logical" name="LNICSALL"> T  </i>
   <i type="logical" name="ORBITALMAG"> F  </i>
   <i type="logical" name="LMAGBLOCH"> F  </i>
   <i type="logical" name="LCHIMAG"> F  </i>
   <i type="logical" name="LGAUGE"> T  </i>
   <i type="int" name="MAGATOM">     0</i>
   <v name="MAGDIPOL">      0.00000000      0.00000000      0.00000000</v>
   <v name="AVECCONST">      0.00000000      0.00000000      0.00000000</v>
  </separator>
  <separator name="response functions" >
   <i type="logical" name="LADDER"> F  </i>
   <i type="logical" name="LRPAFORCE"> F  </i>
   <i type="logical" name="LFXC"> F  </i>
   <i type="logical" name="LHARTREE"> T  </i>
   <i type="int" name="IBSE">     0</i>
   <v type="int" name="KPOINT">    -1     0     0     0</v>
   <i type="logical" name="LTCTE"> F  </i>
   <i type="logical" name="LTETE"> F  </i>
   <i type="logical" name="LTRIPLET"> F  </i>
   <i type="logical" name="LFXCEPS"> F  </i>
   <i type="logical" name="LFXHEG"> F  </i>
   <i type="int" name="NATURALO">     2</i>
   <i type="logical" name="L2ORDER"> F  </i>
   <i type="logical" name="LMP2LT"> F  </i>
   <i type="logical" name="LUSEW"> F  </i>
   <i name="ENCUTGW">     -2.00000000</i>
   <i name="ENCUTGWSOFT">     -2.00000000</i>
   <i name="ENCUTLF">     -1.00000000</i>
   <i type="int" name="LMAXMP2">    -1</i>
   <i name="SCISSOR">      0.00000000</i>
   <i type="int" name="NOMEGA">     0</i>
   <i type="int" name="NOMEGAR">     0</i>
   <i type="int" name="NBANDSGW">    -1</i>
   <i type="int" name="NBANDSO">    -1</i>
   <i type="int" name="NBANDSV">    -1</i>
   <i type="int" name="NELM">    60</i>
   <i type="int" name="NELMHF">     1</i>
   <i type="int" name="DIM">     3</i>
   <i type="int" name="ANTIRES">     0</i>
   <i name="OMEGAMAX">    -30.00000000</i>
   <i name="OMEGAMIN">    -30.00000000</i>
   <i name="OMEGATL">   -200.00000000</i>
   <i type="int" name="OMEGAGRID">   140</i>
   <i name="CSHIFT">     -0.10000000</i>
   <i type="logical" name="SELFENERGY"> F  </i>
   <i type="logical" name="LSPECTRAL"> F  </i>
   <i type="logical" name="LSPECTRALGW"> F  </i>
   <i type="logical" name="LSINGLES"> F  </i>
   <i type="logical" name="LFERMIGW"> F  </i>
   <i type="logical" name="ODDONLYGW"> F  </i>
   <i type="logical" name="EVENONLYGW"> F  </i>
   <i type="int" name="NKREDLFX">     1</i>
   <i type="int" name="NKREDLFY">     1</i>
   <i type="int" name="NKREDLFZ">     1</i>
   <i type="int" name="MAXMEM">  2800</i>
   <i type="int" name="TELESCOPE">     0</i>
   <i type="int" name="TAUPAR">     1</i>
   <i type="int" name="OMEGAPAR">    -1</i>
   <i name="LAMBDA">      1.00000000</i>
  </separator>
  <separator name="External order field" >
   <i name="OFIELD_KAPPA">      0.00000000</i>
   <v name="OFIELD_K">      0.00000000      0.00000000      0.00000000</v>
   <i name="OFIELD_Q6_NEAR">      0.00000000</i>
   <i name="OFIELD_Q6_FAR">      0.00000000</i>
   <i name="OFIELD_A">      0.00000000</i>
  </separator>
 </parameters>
 <atominfo>
  <atoms>      64 </atoms>
  <types>       7 </types>
  <array name="atoms" >
   <dimension dim="1">ion</dimension>
   <field type="string">element</field>
   <field type="int">atomtype</field>
   <set>
    <rc><c>Hf</c><c>   1</c></rc>
    <rc><c>Hf</c><c>   1</c></rc>
    <rc><c>Hf</c><c>   1</c></rc>
    <rc><c>Hf</c><c>   1</c></rc>
    <rc><c>Hf</c><c>   1</c></rc>
    <rc><c>Hf</c><c>   1</c></rc>
    <rc><c>Hf</c><c>   1</c></rc>
    <rc><c>Nb</c><c>   2</c></rc>
    <rc><c>Nb</c><c>   2</c></rc>
    <rc><c>Nb</c><c>   2</c></rc>
    <rc><c>Nb</c><c>   2</c></rc>
    <rc><c>Nb</c><c>   2</c></rc>
    <rc><c>Nb</c><c>   2</c></rc>
    <rc><c>V </c><c>   3</c></rc>
    <rc><c>V </c><c>   3</c></rc>
    <rc><c>V </c><c>   3</c></rc>
    <rc><c>V </c><c>   3</c></rc>
    <rc><c>V </c><c>   3</c></rc>
    <rc><c>V </c><c>   3</c></rc>
    <rc><c>V </c><c>   3</c></rc>
    <rc><c>N </c><c>   4</c></rc>
    <rc><c>N </c><c>   4</c></rc>
    <rc><c>N </c><c>   4</c></rc>
    <rc><c>N </c><c>   4</c></rc>
    <rc><c>N </c><c>   4</c></rc>
    <rc><c>N </c><c>   4</c></rc>
    <rc><c>N </c><c>   4</c></rc>
    <rc><c>N </c><c>   4</c></rc>
    <rc><c>N </c><c>   4</c></rc>
    <rc><c>N </c><c>   4</c></rc>
    <rc><c>N </c><c>   4</c></rc>
    <rc><c>N </c><c>   4</c></rc>
    <rc><c>N </c><c>   4</c></rc>
    <rc><c>C </c><c>   5</c></rc>
    <rc><c>C </c><c>   5</c></rc>
    <rc><c>C </c><c>   5</c></rc>
    <rc><c>C </c><c>   5</c></rc>
    <rc><c>C </c><c>   5</c></rc>
    <rc><c>C </c><c>   5</c></rc>
    <rc><c>C </c><c>   5</c></rc>
    <rc><c>C </c><c>   5</c></rc>
    <rc><c>C </c><c>   5</c></rc>
    <rc><c>C </c><c>   5</c></rc>
    <rc><c>C </c><c>   5</c></rc>
    <rc><c>C </c><c>   5</c></rc>
    <rc><c>C </c><c>   5</c></rc>
    <rc><c>C </c><c>   5</c></rc>
    <rc><c>C </c><c>   5</c></rc>
    <rc><c>C </c><c>   5</c></rc>
    <rc><c>C </c><c>   5</c></rc>
    <rc><c>C </c><c>   5</c></rc>
    <rc><c>C </c><c>   5</c></rc>
    <rc><c>W </c><c>   6</c></rc>
    <rc><c>W </c><c>   6</c></rc>
    <rc><c>W </c><c>   6</c></rc>
    <rc><c>W </c><c>   6</c></rc>
    <rc><c>W </c><c>   6</c></rc>
    <rc><c>W </c><c>   6</c></rc>
    <rc><c>Ta</c><c>   7</c></rc>
    <rc><c>Ta</c><c>   7</c></rc>
    <rc><c>Ta</c><c>   7</c></rc>
    <rc><c>Ta</c><c>   7</c></rc>
    <rc><c>Ta</c><c>   7</c></rc>
    <rc><c>Ta</c><c>   7</c></rc>
   </set>
  </array>
  <array name="atomtypes" >
   <dimension dim="1">type</dimension>
   <field type="int">atomspertype</field>
   <field type="string">element</field>
   <field>mass</field>
   <field>valence</field>
   <field type="string">pseudopotential</field>
   <set>
    <rc><c>   7</c><c>Hf</c><c>    178.49000000</c><c>     10.00000000</c><c> PAW_PBE Hf_pv 06Sep2000                </c></rc>
    <rc><c>   6</c><c>Nb</c><c>     92.91000000</c><c>     13.00000000</c><c> PAW_PBE Nb_sv 17Jan2003                </c></rc>
    <rc><c>   7</c><c>V </c><c>     50.94100000</c><c>     13.00000000</c><c> PAW_PBE V_sv 07Sep2000                 </c></rc>
    <rc><c>  13</c><c>N </c><c>     14.00100000</c><c>      5.00000000</c><c> PAW_PBE N 08Apr2002                    </c></rc>
    <rc><c>  19</c><c>C </c><c>     12.01100000</c><c>      4.00000000</c><c> PAW_PBE C 08Apr2002                    </c></rc>
    <rc><c>   6</c><c>W </c><c>    183.85000000</c><c>     12.00000000</c><c> PAW_PBE W_pv 06Sep2000                 </c></rc>
    <rc><c>   6</c><c>Ta</c><c>    180.94800000</c><c>     11.00000000</c><c> PAW_PBE Ta_pv 07Sep2000                </c></rc>
   </set>
  </array>
 </atominfo>
 <structure name="initialpos" >
  <crystal>
   <varray name="basis" >
    <v>       8.83502480       0.00035687       0.02965712 </v>
    <v>       0.00636585       8.83265034      -0.02033262 </v>
    <v>       0.06154655      -0.03542933       8.86847979 </v>
   </varray>
   <i name="volume">    692.04424795 </i>
   <varray name="rec_basis" >
    <v>       0.11318851      -0.00008339      -0.00078585 </v>
    <v>      -0.00000609       0.11321735       0.00045234 </v>
    <v>      -0.00037853       0.00025985       0.11276256 </v>
   </varray>
  </crystal>
  <varray name="positions" >
   <v>       0.00569294       0.00715938       0.99748049 </v>
   <v>       0.26133502       0.00665462       0.24192133 </v>
   <v>       0.24802694       0.49226052       0.25136280 </v>
   <v>       0.49929622       0.49877476       0.99978952 </v>
   <v>       0.50045951       0.24353440       0.74698068 </v>
   <v>       0.00241189       0.50149229       0.50293900 </v>
   <v>       0.49338730       0.75702206       0.75578242 </v>
   <v>       0.99556065       0.23685388       0.25640234 </v>
   <v>       0.76016089       0.75153434       0.00393717 </v>
   <v>       0.00204717       0.25854609       0.74837325 </v>
   <v>       0.75697765       0.24497468       0.48719145 </v>
   <v>       0.00172812       0.74718667       0.75365423 </v>
   <v>       0.24899665       0.50098412       0.74997789 </v>
   <v>       0.25250076       0.26895233       0.98319493 </v>
   <v>       0.51132509       0.26303233       0.23904580 </v>
   <v>       0.74844408       0.99791606       0.27606275 </v>
   <v>       0.72586914       0.24322106       0.01387108 </v>
   <v>       0.23072908       0.72769871       0.00268394 </v>
   <v>       0.23451288       0.24230944       0.51825524 </v>
   <v>       0.26006337       0.76056027       0.49425769 </v>
   <v>       0.24990477       0.24873809       0.24629349 </v>
   <v>       0.25825772       0.00288620       0.99238241 </v>
   <v>       0.99650320       0.25425760       0.00220231 </v>
   <v>       0.74479323       0.24539655       0.24113687 </v>
   <v>       0.75572421       0.00832040       0.01909830 </v>
   <v>       0.51347633       0.99908273       0.23514369 </v>
   <v>       0.99719923       0.49890826       0.24689266 </v>
   <v>       0.49554841       0.75700276       0.00508750 </v>
   <v>       0.98798053       0.00471567       0.74909841 </v>
   <v>       0.75087823       0.24400514       0.75105485 </v>
   <v>       0.75371115       0.00028523       0.52044409 </v>
   <v>       0.50015120       0.24323217       0.49004838 </v>
   <v>       0.49415933       0.00049122       0.73412734 </v>
   <v>       0.99969037       0.99945738       0.25317340 </v>
   <v>       0.49010438       0.24748585       0.00230470 </v>
   <v>       0.25427681       0.75038145       0.24573927 </v>
   <v>       0.24564187       0.49841468       0.99964332 </v>
   <v>       0.00367199       0.74841095       0.00347218 </v>
   <v>       0.74959151       0.75463588       0.25196179 </v>
   <v>       0.75422159       0.49222679       0.00106586 </v>
   <v>       0.50093314       0.49524253       0.25201512 </v>
   <v>       0.24781696       0.24658141       0.75090600 </v>
   <v>       0.26337660       0.00280998       0.49696629 </v>
   <v>       0.00400390       0.24922133       0.50218330 </v>
   <v>       0.24563376       0.75460986       0.75299991 </v>
   <v>       0.25424919       0.49661041       0.50059471 </v>
   <v>       0.00370375       0.75523382       0.50057398 </v>
   <v>       0.99881238       0.50280632       0.75039198 </v>
   <v>       0.74839122       0.75075484       0.75180850 </v>
   <v>       0.74715600       0.49906018       0.49773603 </v>
   <v>       0.49512587       0.74801023       0.50257564 </v>
   <v>       0.50062638       0.49974953       0.74582882 </v>
   <v>       0.52146397       0.01112403       0.98752730 </v>
   <v>       0.00142453       0.50157854       0.98888885 </v>
   <v>       0.49573245       0.74025985       0.25930551 </v>
   <v>       0.23934902       0.99769275       0.74000367 </v>
   <v>       0.50624333       0.98629295       0.47465723 </v>
   <v>       0.73512293       0.98664377       0.77648416 </v>
   <v>       0.00416174       0.76199404       0.25230275 </v>
   <v>       0.74831179       0.49893031       0.24784490 </v>
   <v>       0.01312496       0.00243900       0.50424350 </v>
   <v>       0.49654074       0.50332167       0.49982729 </v>
   <v>       0.74938016       0.50647179       0.75437020 </v>
   <v>       0.74430414       0.75355758       0.49642965 </v>
  </varray>
 </structure>
 <calculation>
  <scstep>
   <time name="dav">   29.76   30.14</time>
   <time name="total">   29.81   30.19</time>
   <energy>
    <i name="alphaZ">   4656.34983046 </i>
    <i name="ewald"> -43578.25302768 </i>
    <i name="hartreedc">  -7853.99247634 </i>
    <i name="XCdc">   1879.17646920 </i>
    <i name="pawpsdc">  30280.91784812 </i>
    <i name="pawaedc"> -30048.82752361 </i>
    <i name="eentropy">     -0.07494261 </i>
    <i name="bandstr">   1352.66118563 </i>
    <i name="atom">  49076.44327936 </i>
    <i name="e_fr_energy">   5764.40064253 </i>
    <i name="e_wo_entrp">   5764.47558514 </i>
    <i name="e_0_energy">   5764.43811384 </i>
   </energy>
  </scstep>
  <scstep>
   <time name="dav">   30.43   30.71</time>
   <time name="total">   30.43   30.71</time>
   <energy>
    <i name="e_fr_energy">     39.61880619 </i>
    <i name="e_wo_entrp">     39.73854324 </i>
    <i name="e_0_energy">     39.67867472 </i>
   </energy>
  </scstep>
  <scstep>
   <time name="dav">   43.28   43.73</time>
   <time name="total">   43.28   43.73</time>
   <energy>
    <i name="e_fr_energy">   -736.69127357 </i>
    <i name="e_wo_entrp">   -736.61360680 </i>
    <i name="e_0_energy">   -736.65244019 </i>
   </energy>
  </scstep>
  <scstep>
   <time name="dav">   44.60   44.97</time>
   <time name="total">   44.60   44.97</time>
   <energy>
    <i name="e_fr_energy">   -797.59969514 </i>
    <i name="e_wo_entrp">   -797.50886213 </i>
    <i name="e_0_energy">   -797.55427863 </i>
   </energy>
  </scstep>
  <scstep>
   <time name="dav">   50.73   51.39</time>
   <time name="total">   51.11   51.77</time>
   <energy>
    <i name="e_fr_energy">   -802.81713642 </i>
    <i name="e_wo_entrp">   -802.71964173 </i>
    <i name="e_0_energy">   -802.76838907 </i>
   </energy>
  </scstep>
  <scstep>
   <time name="diag">    2.06    2.07</time>
   <time name="diis">   32.69   33.09</time>
   <time name="orth">    0.46    0.47</time>
   <time name="total">   35.63   36.05</time>
   <energy>
    <i name="e_fr_energy">   -772.09994166 </i>
    <i name="e_wo_entrp">   -771.96652446 </i>
    <i name="e_0_energy">   -772.03323306 </i>
   </energy>
  </scstep>
  <scstep>
   <time name="diag">    2.10    2.15</time>
   <time name="diis">   25.42   25.74</time>
   <time name="orth">    0.45    0.46</time>
   <time name="total">   28.38   28.77</time>
   <energy>
    <i name="e_fr_energy">   -689.01000186 </i>
    <i name="e_wo_entrp">   -688.90199438 </i>
    <i name="e_0_energy">   -688.95599812 </i>
   </energy>
  </scstep>
  <scstep>
   <time name="diag">    2.06    2.08</time>
   <time name="diis">   33.02   33.51</time>
   <time name="orth">    0.45    0.46</time>
   <time name="total">   35.95   36.47</time>
   <energy>
    <i name="e_fr_energy">   -670.49230132 </i>
    <i name="e_wo_entrp">   -670.40732948 </i>
    <i name="e_0_energy">   -670.44981540 </i>
   </energy>
  </scstep>
  <scstep>
   <time name="diag">    2.22    2.27</time>
   <time name="diis">   31.17   31.54</time>
   <time name="orth">    0.47    0.47</time>
   <time name="total">   34.26   34.70</time>
   <energy>
    <i name="e_fr_energy">   -670.03292200 </i>
    <i name="e_wo_entrp">   -669.94396134 </i>
    <i name="e_0_energy">   -669.98844167 </i>
   </energy>
  </scstep>
  <scstep>
   <time name="diag">    2.08    2.10</time>
   <time name="diis">   35.07   35.39</time>
   <time name="orth">    0.47    0.47</time>
   <time name="total">   38.04   38.38</time>
   <energy>
    <i name="e_fr_energy">   -669.80749624 </i>
    <i name="e_wo_entrp">   -669.70620046 </i>
    <i name="e_0_energy">   -669.75684835 </i>
   </energy>
  </scstep>
  <scstep>
   <time name="diag">    2.06    2.08</time>
   <time name="diis">   35.25   35.64</time>
   <time name="orth">    0.46    0.46</time>
   <time name="total">   38.18   38.60</time>
   <energy>
    <i name="e_fr_energy">   -669.44976308 </i>
    <i name="e_wo_entrp">   -669.35953616 </i>
    <i name="e_0_energy">   -669.40464962 </i>
   </energy>
  </scstep>
  <scstep>
   <time name="diag">    2.08    2.11</time>
   <time name="diis">   34.91   35.44</time>
   <time name="orth">    0.45    0.46</time>
   <time name="total">   37.86   38.43</time>
   <energy>
    <i name="e_fr_energy">   -669.56194374 </i>
    <i name="e_wo_entrp">   -669.46365840 </i>
    <i name="e_0_energy">   -669.51280107 </i>
   </energy>
  </scstep>
  <scstep>
   <time name="diag">    2.14    2.17</time>
   <time name="diis">   34.30   34.79</time>
   <time name="orth">    0.45    0.46</time>
   <time name="total">   37.32   37.85</time>
   <energy>
    <i name="e_fr_energy">   -669.40663363 </i>
    <i name="e_wo_entrp">   -669.31632766 </i>
    <i name="e_0_energy">   -669.36148065 </i>
   </energy>
  </scstep>
  <scstep>
   <time name="diag">    2.07    2.11</time>
   <time name="diis">   36.41   36.88</time>
   <time name="orth">    0.48    0.49</time>
   <time name="total">   39.39   39.91</time>
   <energy>
    <i name="e_fr_energy">   -669.42418720 </i>
    <i name="e_wo_entrp">   -669.33237616 </i>
    <i name="e_0_energy">   -669.37828168 </i>
   </energy>
  </scstep>
  <scstep>
   <time name="diag">    2.06    2.08</time>
   <time name="diis">   36.36   36.89</time>
   <time name="orth">    0.45    0.46</time>
   <time name="total">   39.30   39.86</time>
   <energy>
    <i name="e_fr_energy">   -669.41501714 </i>
    <i name="e_wo_entrp">   -669.32377438 </i>
    <i name="e_0_energy">   -669.36939576 </i>
   </energy>
  </scstep>
  <scstep>
   <time name="diag">    2.05    2.07</time>
   <time name="diis">   33.19   33.74</time>
   <time name="orth">    0.47    0.47</time>
   <time name="total">   36.13   36.72</time>
   <energy>
    <i name="e_fr_energy">   -669.41784619 </i>
    <i name="e_wo_entrp">   -669.32786301 </i>
    <i name="e_0_energy">   -669.37285460 </i>
   </energy>
  </scstep>
  <scstep>
   <time name="diag">    2.06    2.08</time>
   <time name="diis">   35.52   35.98</time>
   <time name="orth">    0.45    0.46</time>
   <time name="total">   38.46   38.95</time>
   <energy>
    <i name="e_fr_energy">   -669.41803915 </i>
    <i name="e_wo_entrp">   -669.32803831 </i>
    <i name="e_0_energy">   -669.37303873 </i>
   </energy>
  </scstep>
  <scstep>
   <time name="diag">    2.06    2.08</time>
   <time name="diis">   35.63   36.12</time>
   <time name="orth">    0.46    0.47</time>
   <time name="total">   38.57   39.09</time>
   <energy>
    <i name="e_fr_energy">   -669.41717400 </i>
    <i name="e_wo_entrp">   -669.32691845 </i>
    <i name="e_0_energy">   -669.37204623 </i>
   </energy>
  </scstep>
  <scstep>
   <time name="diag">    2.07    2.11</time>
   <time name="diis">   35.17   35.64</time>
   <time name="orth">    0.45    0.46</time>
   <time name="total">   38.12   38.64</time>
   <energy>
    <i name="e_fr_energy">   -669.41778334 </i>
    <i name="e_wo_entrp">   -669.32699077 </i>
    <i name="e_0_energy">   -669.37238705 </i>
   </energy>
  </scstep>
  <scstep>
   <time name="diag">    2.10    2.13</time>
   <time name="diis">   35.02   35.43</time>
   <time name="orth">    0.45    0.46</time>
   <time name="total">   37.99   38.44</time>
   <energy>
    <i name="e_fr_energy">   -669.41771665 </i>
    <i name="e_wo_entrp">   -669.32718603 </i>
    <i name="e_0_energy">   -669.37245134 </i>
   </energy>
  </scstep>
  <scstep>
   <time name="diag">    2.06    2.08</time>
   <time name="diis">   34.38   34.90</time>
   <time name="orth">    0.46    0.47</time>
   <time name="total">   37.32   37.87</time>
   <energy>
    <i name="e_fr_energy">   -669.41783707 </i>
    <i name="e_wo_entrp">   -669.32733420 </i>
    <i name="e_0_energy">   -669.37258564 </i>
   </energy>
  </scstep>
  <scstep>
   <time name="diag">    2.05    2.07</time>
   <time name="diis">   32.61   32.96</time>
   <time name="orth">    0.45    0.46</time>
   <time name="total">   35.54   35.93</time>
   <energy>
    <i name="e_fr_energy">   -669.41797635 </i>
    <i name="e_wo_entrp">   -669.32729308 </i>
    <i name="e_0_energy">   -669.37263471 </i>
   </energy>
  </scstep>
  <scstep>
   <time name="diag">    2.09    2.13</time>
   <time name="diis">   30.16   30.59</time>
   <time name="orth">    0.45    0.46</time>
   <time name="total">   33.13   33.61</time>
   <energy>
    <i name="e_fr_energy">   -669.41802779 </i>
    <i name="e_wo_entrp">   -669.32749984 </i>
    <i name="e_0_energy">   -669.37276382 </i>
   </energy>
  </scstep>
  <scstep>
   <time name="diag">    2.05    2.08</time>
   <time name="diis">   27.93   28.43</time>
   <time name="orth">    0.47    0.47</time>
   <time name="total">   30.87   31.40</time>
   <energy>
    <i name="e_fr_energy">   -669.41806493 </i>
    <i name="e_wo_entrp">   -669.32751401 </i>
    <i name="e_0_energy">   -669.37278947 </i>
   </energy>
  </scstep>
  <scstep>
   <time name="diag">    2.12    2.15</time>
   <time name="diis">   28.16   28.53</time>
   <time name="orth">    0.46    0.47</time>
   <time name="total">   31.17   31.59</time>
   <energy>
    <i name="e_fr_energy">   -669.41809875 </i>
    <i name="e_wo_entrp">   -669.32755093 </i>
    <i name="e_0_energy">   -669.37282484 </i>
   </energy>
  </scstep>
  <scstep>
   <time name="diag">    2.12    2.17</time>
   <time name="diis">   23.11   23.81</time>
   <time name="orth">    0.45    0.46</time>
   <time name="total">   26.10   26.88</time>
   <energy>
    <i name="e_fr_energy">   -669.41811563 </i>
    <i name="e_wo_entrp">   -669.32756733 </i>
    <i name="e_0_energy">   -669.37284148 </i>
   </energy>
  </scstep>
  <scstep>
   <time name="diag">    2.07    2.08</time>
   <time name="diis">   22.54   22.75</time>
   <time name="orth">    0.46    0.46</time>
   <time name="total">   25.49   25.72</time>
   <energy>
    <i name="e_fr_energy">   -669.41812757 </i>
    <i name="e_wo_entrp">   -669.32757845 </i>
    <i name="e_0_energy">   -669.37285301 </i>
   </energy>
  </scstep>
  <scstep>
   <time name="diag">    2.06    2.11</time>
   <time name="diis">   20.64   21.23</time>
   <time name="orth">    0.46    0.47</time>
   <time name="total">   23.19   23.86</time>
   <energy>
    <i name="alphaZ">   4656.34983046 </i>
    <i name="ewald"> -43578.25302768 </i>
    <i name="hartreedc">  -7341.55094664 </i>
    <i name="XCdc">   1867.73662312 </i>
    <i name="pawpsdc">  31791.36128920 </i>
    <i name="pawaedc"> -31625.17248570 </i>
    <i name="eentropy">     -0.09054639 </i>
    <i name="bandstr">  -5516.24215018 </i>
    <i name="atom">  49076.44327936 </i>
    <i name="e_fr_energy">   -669.41813444 </i>
    <i name="e_wo_entrp">   -669.32758806 </i>
    <i name="e_0_energy">   -669.37286125 </i>
   </energy>
  </scstep>
  <structure>
   <crystal>
    <varray name="basis" >
     <v>       8.83502480       0.00035687       0.02965712 </v>
     <v>       0.00636585       8.83265034      -0.02033262 </v>
     <v>       0.06154655      -0.03542933       8.86847979 </v>
    </varray>
    <i name="volume">    692.04424795 </i>
    <varray name="rec_basis" >
     <v>       0.11318851      -0.00008339      -0.00078585 </v>
     <v>      -0.00000609       0.11321735       0.00045234 </v>
     <v>      -0.00037853       0.00025985       0.11276256 </v>
    </varray>
   </crystal>
   <varray name="positions" >
    <v>       0.00569294       0.00715938       0.99748049 </v>
    <v>       0.26133502       0.00665462       0.24192133 </v>
    <v>       0.24802694       0.49226052       0.25136280 </v>
    <v>       0.49929622       0.49877476       0.99978952 </v>
    <v>       0.50045951       0.24353440       0.74698068 </v>
    <v>       0.00241189       0.50149229       0.50293900 </v>
    <v>       0.49338730       0.75702206       0.75578242 </v>
    <v>       0.99556065       0.23685388       0.25640234 </v>
    <v>       0.76016089       0.75153434       0.00393717 </v>
    <v>       0.00204717       0.25854609       0.74837325 </v>
    <v>       0.75697765       0.24497468       0.48719145 </v>
    <v>       0.00172812       0.74718667       0.75365423 </v>
    <v>       0.24899665       0.50098412       0.74997789 </v>
    <v>       0.25250076       0.26895233       0.98319493 </v>
    <v>       0.51132509       0.26303233       0.23904580 </v>
    <v>       0.74844408       0.99791606       0.27606275 </v>
    <v>       0.72586914       0.24322106       0.01387108 </v>
    <v>       0.23072908       0.72769871       0.00268394 </v>
    <v>       0.23451288       0.24230944       0.51825524 </v>
    <v>       0.26006337       0.76056027       0.49425769 </v>
    <v>       0.24990477       0.24873809       0.24629349 </v>
    <v>       0.25825772       0.00288620       0.99238241 </v>
    <v>       0.99650320       0.25425760       0.00220231 </v>
    <v>       0.74479323       0.24539655       0.24113687 </v>
    <v>       0.75572421       0.00832040       0.01909830 </v>
    <v>       0.51347633       0.99908273       0.23514369 </v>
    <v>       0.99719923       0.49890826       0.24689266 </v>
    <v>       0.49554841       0.75700276       0.00508750 </v>
    <v>       0.98798053       0.00471567       0.74909841 </v>
    <v>       0.75087823       0.24400514       0.75105485 </v>
    <v>       0.75371115       0.00028523       0.52044409 </v>
    <v>       0.50015120       0.24323217       0.49004838 </v>
    <v>       0.49415933       0.00049122       0.73412734 </v>
    <v>       0.99969037       0.99945738       0.25317340 </v>
    <v>       0.49010438       0.24748585       0.00230470 </v>
    <v>       0.25427681       0.75038145       0.24573927 </v>
    <v>       0.24564187       0.49841468       0.99964332 </v>
    <v>       0.00367199       0.74841095       0.00347218 </v>
    <v>       0.74959151       0.75463588       0.25196179 </v>
    <v>       0.75422159       0.49222679       0.00106586 </v>
    <v>       0.50093314       0.49524253       0.25201512 </v>
    <v>       0.24781696       0.24658141       0.75090600 </v>
    <v>       0.26337660       0.00280998       0.49696629 </v>
    <v>       0.00400390       0.24922133       0.50218330 </v>
    <v>       0.24563376       0.75460986       0.75299991 </v>
    <v>       0.25424919       0.49661041       0.50059471 </v>
    <v>       0.00370375       0.75523382       0.50057398 </v>
    <v>       0.99881238       0.50280632       0.75039198 </v>
    <v>       0.74839122       0.75075484       0.75180850 </v>
    <v>       0.74715600       0.49906018       0.49773603 </v>
    <v>       0.49512587       0.74801023       0.50257564 </v>
    <v>       0.50062638       0.49974953       0.74582882 </v>
    <v>       0.52146397       0.01112403       0.98752730 </v>
    <v>       0.00142453       0.50157854       0.98888885 </v>
    <v>       0.49573245       0.74025985       0.25930551 </v>
    <v>       0.23934902       0.99769275       0.74000367 </v>
    <v>       0.50624333       0.98629295       0.47465723 </v>
    <v>       0.73512293       0.98664377       0.77648416 </v>
    <v>       0.00416174       0.76199404       0.25230275 </v>
    <v>       0.74831179       0.49893031       0.24784490 </v>
    <v>       0.01312496       0.00243900       0.50424350 </v>
    <v>       0.49654074       0.50332167       0.49982729 </v>
    <v>       0.74938016       0.50647179       0.75437020 </v>
    <v>       0.74430414       0.75355758       0.49642965 </v>
   </varray>
  </structure>
  <varray name="forces" >
   <v>      -0.03317127      -0.03444348       0.03828788 </v>
   <v>       0.03611519       0.02993812       0.05972639 </v>
   <v>       0.07391240      -0.03399612       0.08047173 </v>
   <v>       0.01843161       0.04082207      -0.02876617 </v>
   <v>      -0.02191393      -0.11908648       0.00735707 </v>
   <v>      -0.00471966       0.02976907       0.02412733 </v>
   <v>      -0.03197414       0.06030411      -0.04331515 </v>
   <v>      -0.04687722       0.01498791      -0.01676097 </v>
   <v>      -0.04203447      -0.01968834       0.05003765 </v>
   <v>      -0.02903654      -0.01398504      -0.00387113 </v>
   <v>      -0.03151175       0.03415994       0.04980354 </v>
   <v>       0.02241662      -0.03973635      -0.02603996 </v>
   <v>      -0.07675411       0.01918337      -0.06357563 </v>
   <v>       0.03181584       0.01993671       0.02331907 </v>
   <v>       0.00979242       0.05596173      -0.03150967 </v>
   <v>      -0.09650436      -0.03287659      -0.02955968 </v>
   <v>      -0.03295127       0.07686097      -0.04987994 </v>
   <v>      -0.05913024       0.02934349      -0.03233767 </v>
   <v>      -0.01666739       0.01416844      -0.07672759 </v>
   <v>      -0.04542594      -0.03864480       0.02815785 </v>
   <v>      -0.00873831      -0.00611358      -0.01505632 </v>
   <v>       0.00713389      -0.02021072       0.00706959 </v>
   <v>       0.04528122       0.02245007       0.04650412 </v>
   <v>       0.04780369      -0.05737630       0.00126027 </v>
   <v>       0.09179757      -0.04593792      -0.05877469 </v>
   <v>      -0.00697915       0.02785249      -0.00926793 </v>
   <v>       0.01486385       0.02404807       0.01609093 </v>
   <v>      -0.01754802      -0.06347495       0.02941332 </v>
   <v>      -0.15523778      -0.04703802       0.03888153 </v>
   <v>      -0.00560634       0.04969607      -0.00076150 </v>
   <v>       0.07882524       0.01617826      -0.00297947 </v>
   <v>      -0.00574604       0.10062520       0.09689756 </v>
   <v>      -0.06674296      -0.00323650       0.01693014 </v>
   <v>      -0.07849123      -0.01602474       0.03259430 </v>
   <v>      -0.00244028      -0.02691784      -0.02638733 </v>
   <v>      -0.02636200      -0.05568342      -0.04583450 </v>
   <v>       0.00223064      -0.01905733      -0.02933823 </v>
   <v>       0.04042711      -0.02899321      -0.03012929 </v>
   <v>       0.00416418      -0.07401013       0.05306730 </v>
   <v>       0.01415321       0.00796956       0.00794006 </v>
   <v>       0.05393453      -0.03002170       0.00458348 </v>
   <v>       0.01024881       0.02241909       0.02310844 </v>
   <v>       0.05738041       0.02874763       0.06540266 </v>
   <v>       0.01128389      -0.02728181      -0.06281362 </v>
   <v>      -0.03239875       0.00919659      -0.00439647 </v>
   <v>      -0.06149326       0.00237887       0.05607913 </v>
   <v>      -0.03216915      -0.04561416       0.01759606 </v>
   <v>      -0.00805279      -0.01197943       0.01552950 </v>
   <v>       0.01466219      -0.00815457      -0.04184064 </v>
   <v>       0.02226786      -0.07427101       0.02262548 </v>
   <v>       0.02179069      -0.03494640      -0.01770572 </v>
   <v>       0.01120743      -0.01006595       0.02977239 </v>
   <v>       0.02153407      -0.00512080       0.04529248 </v>
   <v>       0.00396254       0.01731704      -0.01823346 </v>
   <v>       0.06517850       0.00914382       0.02326580 </v>
   <v>      -0.02386511       0.02791069      -0.07977888 </v>
   <v>       0.05914999       0.09892693      -0.00195726 </v>
   <v>      -0.03434329       0.05787404      -0.00374830 </v>
   <v>       0.04530444       0.09677570      -0.00579309 </v>
   <v>      -0.03622940       0.03845296       0.01868364 </v>
   <v>       0.14408291      -0.00950399      -0.00588053 </v>
   <v>       0.05479669      -0.00238855      -0.02914371 </v>
   <v>       0.01792043      -0.04236521      -0.08421907 </v>
   <v>       0.01724607       0.01484642      -0.05349311 </v>
  </varray>
  <varray name="stress" >
   <v>      -5.30092677       0.35693712      -0.18918131 </v>
   <v>       0.35693691     -11.30455273      -0.42511273 </v>
   <v>      -0.18918080      -0.42511307      -4.80334408 </v>
  </varray>
  <energy>
   <i name="e_fr_energy">   -669.41813444 </i>
   <i name="e_wo_entrp">   -669.37286125 </i>
   <i name="e_0_energy">     -0.09054639 </i>
  </energy>
  <time name="totalsc"> 1070.66 1085.19</time>
  <eigenvalues>
   <array>
    <dimension dim="1">band</dimension>
    <dimension dim="2">kpoint</dimension>
    <dimension dim="3">spin</dimension>
    <field>eigene</field>
    <field>occ</field>
    <set>
     <set comment="spin 1">
      <set comment="kpoint 1">
       <r>  -56.0087    1.0000 </r>
       <r>  -55.9757    1.0000 </r>
       <r>  -55.9179    1.0000 </r>
       <r>  -55.8862    1.0000 </r>
       <r>  -55.8161    1.0000 </r>
       <r>  -55.7930    1.0000 </r>
       <r>  -55.7867    1.0000 </r>
       <r>  -46.9471    1.0000 </r>
       <r>  -46.8424    1.0000 </r>
       <r>  -46.8364    1.0000 </r>
       <r>  -46.7605    1.0000 </r>
       <r>  -46.6342    1.0000 </r>
       <r>  -46.4707    1.0000 </r>
       <r>  -30.5880    1.0000 </r>
       <r>  -30.5187    1.0000 </r>
       <r>  -30.4054    1.0000 </r>
       <r>  -30.3708    1.0000 </r>
       <r>  -30.3291    1.0000 </r>
       <r>  -30.2777    1.0000 </r>
       <r>  -30.2623    1.0000 </r>
       <r>  -30.2575    1.0000 </r>
       <r>  -30.2563    1.0000 </r>
       <r>  -30.2439    1.0000 </r>
       <r>  -30.2237    1.0000 </r>
       <r>  -30.2159    1.0000 </r>
       <r>  -30.1904    1.0000 </r>
       <r>  -30.1819    1.0000 </r>
       <r>  -30.1618    1.0000 </r>
       <r>  -30.1395    1.0000 </r>
       <r>  -30.1107    1.0000 </r>
       <r>  -30.0769    1.0000 </r>
       <r>  -30.0109    1.0000 </r>
       <r>  -29.9590    1.0000 </r>
       <r>  -29.9285    1.0000 </r>
       <r>  -29.9131    1.0000 </r>
       <r>  -29.8922    1.0000 </r>
       <r>  -29.8904    1.0000 </r>
       <r>  -29.8802    1.0000 </r>
       <r>  -29.8519    1.0000 </r>
       <r>  -29.8265    1.0000 </r>
       <r>  -29.8263    1.0000 </r>
       <r>  -29.8215    1.0000 </r>
       <r>  -29.7876    1.0000 </r>
       <r>  -29.7808    1.0000 </r>
       <r>  -29.7792    1.0000 </r>
       <r>  -29.7675    1.0000 </r>
       <r>  -29.7621    1.0000 </r>
       <r>  -29.7549    1.0000 </r>
       <r>  -29.7383    1.0000 </r>
       <r>  -29.7199    1.0000 </r>
       <r>  -29.6996    1.0000 </r>
       <r>  -29.6916    1.0000 </r>
       <r>  -26.4411    1.0000 </r>
       <r>  -26.4109    1.0000 </r>
       <r>  -26.3613    1.0000 </r>
       <r>  -26.3309    1.0000 </r>
       <r>  -26.2894    1.0000 </r>
       <r>  -26.2334    1.0000 </r>
       <r>  -26.2119    1.0000 </r>
       <r>  -26.1712    1.0000 </r>
       <r>  -26.1691    1.0000 </r>
       <r>  -26.1374    1.0000 </r>
       <r>  -26.1047    1.0000 </r>
       <r>  -26.0666    1.0000 </r>
       <r>  -26.0542    1.0000 </r>
       <r>  -26.0320    1.0000 </r>
       <r>  -26.0177    1.0000 </r>
       <r>  -26.0054    1.0000 </r>
       <r>  -25.9852    1.0000 </r>
       <r>  -25.9258    1.0000 </r>
       <r>  -23.3005    1.0000 </r>
       <r>  -23.1624    1.0000 </r>
       <r>  -23.1102    1.0000 </r>
       <r>  -23.0953    1.0000 </r>
       <r>  -23.0507    1.0000 </r>
       <r>  -23.0308    1.0000 </r>
       <r>  -23.0106    1.0000 </r>
       <r>  -23.0078    1.0000 </r>
       <r>  -22.9653    1.0000 </r>
       <r>  -22.9328    1.0000 </r>
       <r>  -22.9105    1.0000 </r>
       <r>  -22.9080    1.0000 </r>
       <r>  -22.8693    1.0000 </r>
       <r>  -22.8149    1.0000 </r>
       <r>  -22.7278    1.0000 </r>
       <r>  -22.6537    1.0000 </r>
       <r>  -22.6203    1.0000 </r>
       <r>  -22.5772    1.0000 </r>
       <r>  -22.1541    1.0000 </r>
       <r>  -22.0623    1.0000 </r>
       <r>  -22.0399    1.0000 </r>
       <r>  -21.8327    1.0000 </r>
       <r>  -21.8088    1.0000 </r>
       <r>  -21.7973    1.0000 </r>
       <r>  -21.7779    1.0000 </r>
       <r>  -21.7744    1.0000 </r>
       <r>  -21.7567    1.0000 </r>
       <r>  -21.7481    1.0000 </r>
       <r>  -21.7037    1.0000 </r>
       <r>  -21.6648    1.0000 </r>
       <r>  -21.6212    1.0000 </r>
       <r>  -21.5559    1.0000 </r>
       <r>  -21.5049    1.0000 </r>
       <r>  -21.4723    1.0000 </r>
       <r>  -21.4546    1.0000 </r>
       <r>  -21.4201    1.0000 </r>
       <r>  -21.4137    1.0000 </r>
       <r>  -21.3902    1.0000 </r>
       <r>  -21.2673    1.0000 </r>
       <r>   -7.7872    1.0000 </r>
       <r>   -7.1434    1.0000 </r>
       <r>   -6.9820    1.0000 </r>
       <r>   -6.8736    1.0000 </r>
       <r>   -6.7664    1.0000 </r>
       <r>   -6.6414    1.0000 </r>
       <r>   -6.5634    1.0000 </r>
       <r>   -6.3296    1.0000 </r>
       <r>   -6.2198    1.0000 </r>
       <r>   -6.1313    1.0000 </r>
       <r>   -6.0919    1.0000 </r>
       <r>   -5.8753    1.0000 </r>
       <r>   -5.6586    1.0000 </r>
       <r>   -4.0160    1.0000 </r>
       <r>   -3.4755    1.0000 </r>
       <r>   -3.1530    1.0000 </r>
       <r>   -3.1162    1.0000 </r>
       <r>   -3.0051    1.0000 </r>
       <r>   -2.8687    1.0000 </r>
       <r>   -2.7730    1.0000 </r>
       <r>   -2.7608    1.0000 </r>
       <r>   -2.5715    1.0000 </r>
       <r>   -2.4326    1.0000 </r>
       <r>   -2.3947    1.0000 </r>
       <r>   -2.3615    1.0000 </r>
       <r>   -2.2143    1.0000 </r>
       <r>   -2.1729    1.0000 </r>
       <r>   -1.9815    1.0000 </r>
       <r>   -1.6285    1.0000 </r>
       <r>   -1.5854    1.0000 </r>
       <r>   -1.5072    1.0000 </r>
       <r>   -1.2469    1.0000 </r>
       <r>    0.4217    1.0000 </r>
       <r>    0.4444    1.0000 </r>
       <r>    0.7441    1.0000 </r>
       <r>    0.8687    1.0000 </r>
       <r>    1.2674    1.0000 </r>
       <r>    1.5256    1.0000 </r>
       <r>    1.7191    1.0000 </r>
       <r>    1.8004    1.0000 </r>
       <r>    1.8163    1.0000 </r>
       <r>    1.8647    1.0000 </r>
       <r>    1.9045    1.0000 </r>
       <r>    2.0789    1.0000 </r>
       <r>    2.0846    1.0000 </r>
       <r>    2.2185    1.0000 </r>
       <r>    2.2931    1.0000 </r>
       <r>    2.3963    1.0000 </r>
       <r>    2.5236    1.0000 </r>
       <r>    2.6786    1.0000 </r>
       <r>    2.7419    1.0000 </r>
       <r>    2.8387    1.0000 </r>
       <r>    2.8727    1.0000 </r>
       <r>    2.9472    1.0000 </r>
       <r>    2.9681    1.0000 </r>
       <r>    3.0571    1.0000 </r>
       <r>    3.1575    1.0000 </r>
       <r>    3.2256    1.0000 </r>
       <r>    3.2738    1.0000 </r>
       <r>    3.3167    1.0000 </r>
       <r>    3.3585    1.0000 </r>
       <r>    3.4039    1.0000 </r>
       <r>    3.4356    1.0000 </r>
       <r>    3.4386    1.0000 </r>
       <r>    3.4610    1.0000 </r>
       <r>    3.5187    1.0000 </r>
       <r>    3.5386    1.0000 </r>
       <r>    3.5864    1.0000 </r>
       <r>    3.6247    1.0000 </r>
       <r>    3.6541    1.0000 </r>
       <r>    3.6924    1.0000 </r>
       <r>    3.7384    1.0000 </r>
       <r>    3.7915    1.0000 </r>
       <r>    3.8106    1.0000 </r>
       <r>    3.8701    1.0000 </r>
       <r>    3.8801    1.0000 </r>
       <r>    3.9024    1.0000 </r>
       <r>    3.9198    1.0000 </r>
       <r>    3.9477    1.0000 </r>
       <r>    3.9944    1.0000 </r>
       <r>    3.9988    1.0000 </r>
       <r>    4.0398    1.0000 </r>
       <r>    4.0771    1.0000 </r>
       <r>    4.1309    1.0000 </r>
       <r>    4.1689    1.0000 </r>
       <r>    4.1852    1.0000 </r>
       <r>    4.2070    1.0000 </r>
       <r>    4.2447    1.0000 </r>
       <r>    4.2675    1.0000 </r>
       <r>    4.2998    1.0000 </r>
       <r>    4.3125    1.0000 </r>
       <r>    4.3158    1.0000 </r>
       <r>    4.3512    1.0000 </r>
       <r>    4.4364    1.0000 </r>
       <r>    4.4557    1.0000 </r>
       <r>    4.4865    1.0000 </r>
       <r>    4.5269    1.0000 </r>
       <r>    4.5576    1.0000 </r>
       <r>    4.6493    1.0000 </r>
       <r>    4.6719    1.0000 </r>
       <r>    4.7398    1.0000 </r>
       <r>    4.7576    1.0000 </r>
       <r>    4.8174    1.0000 </r>
       <r>    4.8360    1.0000 </r>
       <r>    4.8639    1.0000 </r>
       <r>    4.9633    1.0000 </r>
       <r>    5.0474    1.0000 </r>
       <r>    5.0531    1.0000 </r>
       <r>    5.1607    1.0000 </r>
       <r>    5.1771    1.0000 </r>
       <r>    5.6906    1.0000 </r>
       <r>    5.8178    1.0000 </r>
       <r>    5.8687    1.0000 </r>
       <r>    5.9846    1.0000 </r>
       <r>    6.0103    1.0000 </r>
       <r>    6.0621    1.0000 </r>
       <r>    6.1208    1.0000 </r>
       <r>    6.1424    1.0000 </r>
       <r>    6.1970    1.0000 </r>
       <r>    6.2206    1.0000 </r>
       <r>    6.2995    1.0000 </r>
       <r>    6.3654    1.0000 </r>
       <r>    6.3894    1.0000 </r>
       <r>    6.4086    1.0000 </r>
       <r>    6.4843    1.0000 </r>
       <r>    6.5292    1.0000 </r>
       <r>    6.5508    1.0000 </r>
       <r>    6.6591    1.0000 </r>
       <r>    6.7057    1.0000 </r>
       <r>    6.7435    1.0000 </r>
       <r>    6.8119    1.0000 </r>
       <r>    6.9961    1.0000 </r>
       <r>    7.1400    1.0000 </r>
       <r>    7.2136    1.0000 </r>
       <r>    7.6513    1.0000 </r>
       <r>    7.6990    1.0000 </r>
       <r>    7.7535    1.0000 </r>
       <r>    7.8110    1.0000 </r>
       <r>    7.8249    1.0000 </r>
       <r>    7.9596    1.0000 </r>
       <r>    8.2916    1.0000 </r>
       <r>    8.6368    1.0000 </r>
       <r>    8.7170    1.0000 </r>
       <r>    8.7348    0.9999 </r>
       <r>    9.0024    0.5011 </r>
       <r>    9.0616    0.2018 </r>
       <r>    9.1452    0.0218 </r>
       <r>    9.1955    0.0032 </r>
       <r>    9.2696    0.0001 </r>
       <r>    9.2850    0.0000 </r>
       <r>    9.3347    0.0000 </r>
       <r>    9.3862    0.0000 </r>
       <r>    9.3942    0.0000 </r>
       <r>    9.4460    0.0000 </r>
       <r>    9.5268    0.0000 </r>
       <r>    9.5359    0.0000 </r>
       <r>    9.6347    0.0000 </r>
       <r>    9.6553    0.0000 </r>
       <r>    9.6817    0.0000 </r>
       <r>    9.7098    0.0000 </r>
       <r>    9.8355    0.0000 </r>
       <r>    9.8562    0.0000 </r>
       <r>    9.8773    0.0000 </r>
       <r>    9.9167    0.0000 </r>
       <r>    9.9743    0.0000 </r>
       <r>   10.0166    0.0000 </r>
       <r>   10.0525    0.0000 </r>
       <r>   10.1269    0.0000 </r>
       <r>   10.1714    0.0000 </r>
       <r>   10.1920    0.0000 </r>
       <r>   10.2293    0.0000 </r>
       <r>   10.2768    0.0000 </r>
       <r>   10.2979    0.0000 </r>
       <r>   10.3341    0.0000 </r>
       <r>   10.3784    0.0000 </r>
       <r>   10.4471    0.0000 </r>
       <r>   10.5260    0.0000 </r>
       <r>   10.5452    0.0000 </r>
       <r>   10.6325    0.0000 </r>
       <r>   10.6426    0.0000 </r>
       <r>   10.6902    0.0000 </r>
       <r>   10.7423    0.0000 </r>
       <r>   10.7593    0.0000 </r>
       <r>   10.7931    0.0000 </r>
       <r>   10.8397    0.0000 </r>
       <r>   10.8472    0.0000 </r>
       <r>   10.9061    0.0000 </r>
       <r>   10.9624    0.0000 </r>
       <r>   11.0027    0.0000 </r>
       <r>   11.0524    0.0000 </r>
       <r>   11.1035    0.0000 </r>
       <r>   11.1332    0.0000 </r>
       <r>   11.2277    0.0000 </r>
       <r>   11.2415    0.0000 </r>
       <r>   11.2908    0.0000 </r>
       <r>   11.3910    0.0000 </r>
       <r>   11.4420    0.0000 </r>
       <r>   11.4711    0.0000 </r>
       <r>   11.5113    0.0000 </r>
       <r>   11.5937    0.0000 </r>
       <r>   11.6342    0.0000 </r>
       <r>   11.7324    0.0000 </r>
       <r>   11.7968    0.0000 </r>
      </set>
      <set comment="kpoint 2">
       <r>  -56.0087    1.0000 </r>
       <r>  -55.9757    1.0000 </r>
       <r>  -55.9179    1.0000 </r>
       <r>  -55.8862    1.0000 </r>
       <r>  -55.8161    1.0000 </r>
       <r>  -55.7930    1.0000 </r>
       <r>  -55.7867    1.0000 </r>
       <r>  -46.9471    1.0000 </r>
       <r>  -46.8424    1.0000 </r>
       <r>  -46.8364    1.0000 </r>
       <r>  -46.7605    1.0000 </r>
       <r>  -46.6342    1.0000 </r>
       <r>  -46.4707    1.0000 </r>
       <r>  -30.5879    1.0000 </r>
       <r>  -30.5187    1.0000 </r>
       <r>  -30.4051    1.0000 </r>
       <r>  -30.3708    1.0000 </r>
       <r>  -30.3290    1.0000 </r>
       <r>  -30.2774    1.0000 </r>
       <r>  -30.2622    1.0000 </r>
       <r>  -30.2591    1.0000 </r>
       <r>  -30.2529    1.0000 </r>
       <r>  -30.2459    1.0000 </r>
       <r>  -30.2233    1.0000 </r>
       <r>  -30.2176    1.0000 </r>
       <r>  -30.1905    1.0000 </r>
       <r>  -30.1822    1.0000 </r>
       <r>  -30.1615    1.0000 </r>
       <r>  -30.1392    1.0000 </r>
       <r>  -30.1106    1.0000 </r>
       <r>  -30.0770    1.0000 </r>
       <r>  -30.0109    1.0000 </r>
       <r>  -29.9593    1.0000 </r>
       <r>  -29.9285    1.0000 </r>
       <r>  -29.9131    1.0000 </r>
       <r>  -29.8923    1.0000 </r>
       <r>  -29.8891    1.0000 </r>
       <r>  -29.8807    1.0000 </r>
       <r>  -29.8520    1.0000 </r>
       <r>  -29.8266    1.0000 </r>
       <r>  -29.8263    1.0000 </r>
       <r>  -29.8215    1.0000 </r>
       <r>  -29.7862    1.0000 </r>
       <r>  -29.7809    1.0000 </r>
       <r>  -29.7792    1.0000 </r>
       <r>  -29.7688    1.0000 </r>
       <r>  -29.7621    1.0000 </r>
       <r>  -29.7547    1.0000 </r>
       <r>  -29.7383    1.0000 </r>
       <r>  -29.7201    1.0000 </r>
       <r>  -29.6996    1.0000 </r>
       <r>  -29.6916    1.0000 </r>
       <r>  -26.4413    1.0000 </r>
       <r>  -26.4110    1.0000 </r>
       <r>  -26.3613    1.0000 </r>
       <r>  -26.3311    1.0000 </r>
       <r>  -26.2894    1.0000 </r>
       <r>  -26.2335    1.0000 </r>
       <r>  -26.2115    1.0000 </r>
       <r>  -26.1705    1.0000 </r>
       <r>  -26.1693    1.0000 </r>
       <r>  -26.1378    1.0000 </r>
       <r>  -26.1047    1.0000 </r>
       <r>  -26.0662    1.0000 </r>
       <r>  -26.0540    1.0000 </r>
       <r>  -26.0310    1.0000 </r>
       <r>  -26.0181    1.0000 </r>
       <r>  -26.0062    1.0000 </r>
       <r>  -25.9853    1.0000 </r>
       <r>  -25.9259    1.0000 </r>
       <r>  -23.3007    1.0000 </r>
       <r>  -23.1625    1.0000 </r>
       <r>  -23.1108    1.0000 </r>
       <r>  -23.0950    1.0000 </r>
       <r>  -23.0506    1.0000 </r>
       <r>  -23.0306    1.0000 </r>
       <r>  -23.0104    1.0000 </r>
       <r>  -23.0078    1.0000 </r>
       <r>  -22.9649    1.0000 </r>
       <r>  -22.9325    1.0000 </r>
       <r>  -22.9118    1.0000 </r>
       <r>  -22.9079    1.0000 </r>
       <r>  -22.8684    1.0000 </r>
       <r>  -22.8154    1.0000 </r>
       <r>  -22.7288    1.0000 </r>
       <r>  -22.6539    1.0000 </r>
       <r>  -22.6199    1.0000 </r>
       <r>  -22.5761    1.0000 </r>
       <r>  -22.1542    1.0000 </r>
       <r>  -22.0621    1.0000 </r>
       <r>  -22.0399    1.0000 </r>
       <r>  -21.8328    1.0000 </r>
       <r>  -21.8094    1.0000 </r>
       <r>  -21.7975    1.0000 </r>
       <r>  -21.7778    1.0000 </r>
       <r>  -21.7742    1.0000 </r>
       <r>  -21.7571    1.0000 </r>
       <r>  -21.7486    1.0000 </r>
       <r>  -21.7050    1.0000 </r>
       <r>  -21.6642    1.0000 </r>
       <r>  -21.6212    1.0000 </r>
       <r>  -21.5565    1.0000 </r>
       <r>  -21.5045    1.0000 </r>
       <r>  -21.4692    1.0000 </r>
       <r>  -21.4498    1.0000 </r>
       <r>  -21.4216    1.0000 </r>
       <r>  -21.4123    1.0000 </r>
       <r>  -21.3919    1.0000 </r>
       <r>  -21.2715    1.0000 </r>
       <r>   -7.6768    1.0000 </r>
       <r>   -7.1855    1.0000 </r>
       <r>   -7.0151    1.0000 </r>
       <r>   -6.8270    1.0000 </r>
       <r>   -6.7342    1.0000 </r>
       <r>   -6.6638    1.0000 </r>
       <r>   -6.5850    1.0000 </r>
       <r>   -6.3188    1.0000 </r>
       <r>   -6.2581    1.0000 </r>
       <r>   -6.1315    1.0000 </r>
       <r>   -6.0736    1.0000 </r>
       <r>   -5.9130    1.0000 </r>
       <r>   -5.7015    1.0000 </r>
       <r>   -3.8822    1.0000 </r>
       <r>   -3.4871    1.0000 </r>
       <r>   -3.3110    1.0000 </r>
       <r>   -3.0492    1.0000 </r>
       <r>   -2.9658    1.0000 </r>
       <r>   -2.9126    1.0000 </r>
       <r>   -2.7796    1.0000 </r>
       <r>   -2.7261    1.0000 </r>
       <r>   -2.5348    1.0000 </r>
       <r>   -2.4895    1.0000 </r>
       <r>   -2.4173    1.0000 </r>
       <r>   -2.3263    1.0000 </r>
       <r>   -2.2662    1.0000 </r>
       <r>   -2.1864    1.0000 </r>
       <r>   -2.0229    1.0000 </r>
       <r>   -1.8660    1.0000 </r>
       <r>   -1.7477    1.0000 </r>
       <r>   -1.6681    1.0000 </r>
       <r>   -1.5287    1.0000 </r>
       <r>    0.7071    1.0000 </r>
       <r>    0.8309    1.0000 </r>
       <r>    1.0637    1.0000 </r>
       <r>    1.1622    1.0000 </r>
       <r>    1.2629    1.0000 </r>
       <r>    1.5955    1.0000 </r>
       <r>    1.6577    1.0000 </r>
       <r>    1.8633    1.0000 </r>
       <r>    1.8949    1.0000 </r>
       <r>    1.9736    1.0000 </r>
       <r>    2.0160    1.0000 </r>
       <r>    2.1284    1.0000 </r>
       <r>    2.2207    1.0000 </r>
       <r>    2.3135    1.0000 </r>
       <r>    2.3916    1.0000 </r>
       <r>    2.5365    1.0000 </r>
       <r>    2.5859    1.0000 </r>
       <r>    2.6109    1.0000 </r>
       <r>    2.6946    1.0000 </r>
       <r>    2.7569    1.0000 </r>
       <r>    2.8001    1.0000 </r>
       <r>    2.9264    1.0000 </r>
       <r>    2.9971    1.0000 </r>
       <r>    3.0373    1.0000 </r>
       <r>    3.0974    1.0000 </r>
       <r>    3.1594    1.0000 </r>
       <r>    3.1961    1.0000 </r>
       <r>    3.2777    1.0000 </r>
       <r>    3.3137    1.0000 </r>
       <r>    3.3886    1.0000 </r>
       <r>    3.4172    1.0000 </r>
       <r>    3.4440    1.0000 </r>
       <r>    3.4704    1.0000 </r>
       <r>    3.5423    1.0000 </r>
       <r>    3.5845    1.0000 </r>
       <r>    3.6114    1.0000 </r>
       <r>    3.6465    1.0000 </r>
       <r>    3.7009    1.0000 </r>
       <r>    3.7243    1.0000 </r>
       <r>    3.7747    1.0000 </r>
       <r>    3.8286    1.0000 </r>
       <r>    3.8456    1.0000 </r>
       <r>    3.8847    1.0000 </r>
       <r>    3.9156    1.0000 </r>
       <r>    3.9639    1.0000 </r>
       <r>    3.9878    1.0000 </r>
       <r>    4.0312    1.0000 </r>
       <r>    4.0586    1.0000 </r>
       <r>    4.0769    1.0000 </r>
       <r>    4.0984    1.0000 </r>
       <r>    4.1339    1.0000 </r>
       <r>    4.2070    1.0000 </r>
       <r>    4.2261    1.0000 </r>
       <r>    4.2788    1.0000 </r>
       <r>    4.2878    1.0000 </r>
       <r>    4.3331    1.0000 </r>
       <r>    4.3758    1.0000 </r>
       <r>    4.3942    1.0000 </r>
       <r>    4.4123    1.0000 </r>
       <r>    4.4597    1.0000 </r>
       <r>    4.4680    1.0000 </r>
       <r>    4.5107    1.0000 </r>
       <r>    4.5631    1.0000 </r>
       <r>    4.6071    1.0000 </r>
       <r>    4.6317    1.0000 </r>
       <r>    4.6615    1.0000 </r>
       <r>    4.7086    1.0000 </r>
       <r>    4.7263    1.0000 </r>
       <r>    4.7439    1.0000 </r>
       <r>    4.7764    1.0000 </r>
       <r>    4.8368    1.0000 </r>
       <r>    4.8603    1.0000 </r>
       <r>    4.9570    1.0000 </r>
       <r>    4.9722    1.0000 </r>
       <r>    5.0006    1.0000 </r>
       <r>    5.0808    1.0000 </r>
       <r>    5.1413    1.0000 </r>
       <r>    5.1736    1.0000 </r>
       <r>    5.2051    1.0000 </r>
       <r>    5.3516    1.0000 </r>
       <r>    5.3914    1.0000 </r>
       <r>    5.4242    1.0000 </r>
       <r>    5.5432    1.0000 </r>
       <r>    5.5667    1.0000 </r>
       <r>    5.6864    1.0000 </r>
       <r>    5.7110    1.0000 </r>
       <r>    5.7672    1.0000 </r>
       <r>    5.9140    1.0000 </r>
       <r>    6.2342    1.0000 </r>
       <r>    6.2455    1.0000 </r>
       <r>    6.3163    1.0000 </r>
       <r>    6.3567    1.0000 </r>
       <r>    6.4023    1.0000 </r>
       <r>    6.4993    1.0000 </r>
       <r>    6.6412    1.0000 </r>
       <r>    6.7501    1.0000 </r>
       <r>    6.8428    1.0000 </r>
       <r>    6.9244    1.0000 </r>
       <r>    7.0277    1.0000 </r>
       <r>    7.1001    1.0000 </r>
       <r>    7.2813    1.0000 </r>
       <r>    7.3842    1.0000 </r>
       <r>    7.4639    1.0000 </r>
       <r>    7.5416    1.0000 </r>
       <r>    7.6694    1.0000 </r>
       <r>    7.7683    1.0000 </r>
       <r>    7.9608    1.0000 </r>
       <r>    8.2190    1.0000 </r>
       <r>    8.3581    1.0000 </r>
       <r>    8.4527    1.0000 </r>
       <r>    8.5932    1.0000 </r>
       <r>    8.6282    1.0000 </r>
       <r>    8.7077    1.0000 </r>
       <r>    8.7494    0.9998 </r>
       <r>    8.8193    0.9952 </r>
       <r>    8.9150    0.8923 </r>
       <r>    9.2043    0.0022 </r>
       <r>    9.2441    0.0003 </r>
       <r>    9.3214    0.0000 </r>
       <r>    9.3399    0.0000 </r>
       <r>    9.4182    0.0000 </r>
       <r>    9.4612    0.0000 </r>
       <r>    9.4944    0.0000 </r>
       <r>    9.5664    0.0000 </r>
       <r>    9.6030    0.0000 </r>
       <r>    9.7100    0.0000 </r>
       <r>    9.7270    0.0000 </r>
       <r>    9.7830    0.0000 </r>
       <r>    9.8186    0.0000 </r>
       <r>    9.8549    0.0000 </r>
       <r>    9.8853    0.0000 </r>
       <r>    9.9228    0.0000 </r>
       <r>    9.9862    0.0000 </r>
       <r>   10.0022    0.0000 </r>
       <r>   10.0332    0.0000 </r>
       <r>   10.0623    0.0000 </r>
       <r>   10.1234    0.0000 </r>
       <r>   10.1559    0.0000 </r>
       <r>   10.2116    0.0000 </r>
       <r>   10.2273    0.0000 </r>
       <r>   10.2656    0.0000 </r>
       <r>   10.3342    0.0000 </r>
       <r>   10.3911    0.0000 </r>
       <r>   10.4338    0.0000 </r>
       <r>   10.4503    0.0000 </r>
       <r>   10.4887    0.0000 </r>
       <r>   10.5070    0.0000 </r>
       <r>   10.5628    0.0000 </r>
       <r>   10.6353    0.0000 </r>
       <r>   10.6644    0.0000 </r>
       <r>   10.7273    0.0000 </r>
       <r>   10.7648    0.0000 </r>
       <r>   10.8094    0.0000 </r>
       <r>   10.8463    0.0000 </r>
       <r>   10.9302    0.0000 </r>
       <r>   10.9629    0.0000 </r>
       <r>   10.9914    0.0000 </r>
       <r>   11.0272    0.0000 </r>
       <r>   11.0533    0.0000 </r>
       <r>   11.1253    0.0000 </r>
       <r>   11.1422    0.0000 </r>
       <r>   11.2189    0.0000 </r>
       <r>   11.2500    0.0000 </r>
       <r>   11.3395    0.0000 </r>
       <r>   11.3669    0.0000 </r>
       <r>   11.4074    0.0000 </r>
       <r>   11.4584    0.0000 </r>
       <r>   11.5294    0.0000 </r>
       <r>   11.6830    0.0000 </r>
       <r>   11.7169    0.0000 </r>
       <r>   11.8286    0.0000 </r>
      </set>
      <set comment="kpoint 3">
       <r>  -56.0087    1.0000 </r>
       <r>  -55.9757    1.0000 </r>
       <r>  -55.9179    1.0000 </r>
       <r>  -55.8862    1.0000 </r>
       <r>  -55.8161    1.0000 </r>
       <r>  -55.7930    1.0000 </r>
       <r>  -55.7867    1.0000 </r>
       <r>  -46.9471    1.0000 </r>
       <r>  -46.8424    1.0000 </r>
       <r>  -46.8364    1.0000 </r>
       <r>  -46.7605    1.0000 </r>
       <r>  -46.6342    1.0000 </r>
       <r>  -46.4707    1.0000 </r>
       <r>  -30.5879    1.0000 </r>
       <r>  -30.5187    1.0000 </r>
       <r>  -30.4054    1.0000 </r>
       <r>  -30.3707    1.0000 </r>
       <r>  -30.3290    1.0000 </r>
       <r>  -30.2774    1.0000 </r>
       <r>  -30.2622    1.0000 </r>
       <r>  -30.2587    1.0000 </r>
       <r>  -30.2534    1.0000 </r>
       <r>  -30.2459    1.0000 </r>
       <r>  -30.2233    1.0000 </r>
       <r>  -30.2171    1.0000 </r>
       <r>  -30.1904    1.0000 </r>
       <r>  -30.1819    1.0000 </r>
       <r>  -30.1617    1.0000 </r>
       <r>  -30.1396    1.0000 </r>
       <r>  -30.1107    1.0000 </r>
       <r>  -30.0769    1.0000 </r>
       <r>  -30.0109    1.0000 </r>
       <r>  -29.9590    1.0000 </r>
       <r>  -29.9285    1.0000 </r>
       <r>  -29.9131    1.0000 </r>
       <r>  -29.8922    1.0000 </r>
       <r>  -29.8900    1.0000 </r>
       <r>  -29.8800    1.0000 </r>
       <r>  -29.8520    1.0000 </r>
       <r>  -29.8267    1.0000 </r>
       <r>  -29.8262    1.0000 </r>
       <r>  -29.8214    1.0000 </r>
       <r>  -29.7861    1.0000 </r>
       <r>  -29.7810    1.0000 </r>
       <r>  -29.7794    1.0000 </r>
       <r>  -29.7688    1.0000 </r>
       <r>  -29.7620    1.0000 </r>
       <r>  -29.7549    1.0000 </r>
       <r>  -29.7383    1.0000 </r>
       <r>  -29.7198    1.0000 </r>
       <r>  -29.6997    1.0000 </r>
       <r>  -29.6916    1.0000 </r>
       <r>  -26.4411    1.0000 </r>
       <r>  -26.4109    1.0000 </r>
       <r>  -26.3613    1.0000 </r>
       <r>  -26.3309    1.0000 </r>
       <r>  -26.2895    1.0000 </r>
       <r>  -26.2333    1.0000 </r>
       <r>  -26.2122    1.0000 </r>
       <r>  -26.1718    1.0000 </r>
       <r>  -26.1692    1.0000 </r>
       <r>  -26.1362    1.0000 </r>
       <r>  -26.1049    1.0000 </r>
       <r>  -26.0664    1.0000 </r>
       <r>  -26.0539    1.0000 </r>
       <r>  -26.0316    1.0000 </r>
       <r>  -26.0176    1.0000 </r>
       <r>  -26.0060    1.0000 </r>
       <r>  -25.9856    1.0000 </r>
       <r>  -25.9258    1.0000 </r>
       <r>  -23.3004    1.0000 </r>
       <r>  -23.1621    1.0000 </r>
       <r>  -23.1096    1.0000 </r>
       <r>  -23.0940    1.0000 </r>
       <r>  -23.0492    1.0000 </r>
       <r>  -23.0311    1.0000 </r>
       <r>  -23.0113    1.0000 </r>
       <r>  -23.0077    1.0000 </r>
       <r>  -22.9665    1.0000 </r>
       <r>  -22.9308    1.0000 </r>
       <r>  -22.9145    1.0000 </r>
       <r>  -22.9095    1.0000 </r>
       <r>  -22.8686    1.0000 </r>
       <r>  -22.8167    1.0000 </r>
       <r>  -22.7280    1.0000 </r>
       <r>  -22.6535    1.0000 </r>
       <r>  -22.6190    1.0000 </r>
       <r>  -22.5770    1.0000 </r>
       <r>  -22.1539    1.0000 </r>
       <r>  -22.0613    1.0000 </r>
       <r>  -22.0379    1.0000 </r>
       <r>  -21.8326    1.0000 </r>
       <r>  -21.8065    1.0000 </r>
       <r>  -21.7972    1.0000 </r>
       <r>  -21.7780    1.0000 </r>
       <r>  -21.7749    1.0000 </r>
       <r>  -21.7576    1.0000 </r>
       <r>  -21.7489    1.0000 </r>
       <r>  -21.7034    1.0000 </r>
       <r>  -21.6663    1.0000 </r>
       <r>  -21.6215    1.0000 </r>
       <r>  -21.5560    1.0000 </r>
       <r>  -21.5054    1.0000 </r>
       <r>  -21.4721    1.0000 </r>
       <r>  -21.4540    1.0000 </r>
       <r>  -21.4206    1.0000 </r>
       <r>  -21.4157    1.0000 </r>
       <r>  -21.3892    1.0000 </r>
       <r>  -21.2671    1.0000 </r>
       <r>   -7.7482    1.0000 </r>
       <r>   -7.1321    1.0000 </r>
       <r>   -6.9676    1.0000 </r>
       <r>   -6.8959    1.0000 </r>
       <r>   -6.7516    1.0000 </r>
       <r>   -6.6298    1.0000 </r>
       <r>   -6.5614    1.0000 </r>
       <r>   -6.3091    1.0000 </r>
       <r>   -6.2188    1.0000 </r>
       <r>   -6.1305    1.0000 </r>
       <r>   -6.0928    1.0000 </r>
       <r>   -5.8610    1.0000 </r>
       <r>   -5.6510    1.0000 </r>
       <r>   -4.1064    1.0000 </r>
       <r>   -3.4386    1.0000 </r>
       <r>   -3.2316    1.0000 </r>
       <r>   -3.1167    1.0000 </r>
       <r>   -3.0350    1.0000 </r>
       <r>   -2.8759    1.0000 </r>
       <r>   -2.8384    1.0000 </r>
       <r>   -2.7401    1.0000 </r>
       <r>   -2.5891    1.0000 </r>
       <r>   -2.5265    1.0000 </r>
       <r>   -2.4631    1.0000 </r>
       <r>   -2.3669    1.0000 </r>
       <r>   -2.2226    1.0000 </r>
       <r>   -2.1841    1.0000 </r>
       <r>   -1.9854    1.0000 </r>
       <r>   -1.8421    1.0000 </r>
       <r>   -1.7348    1.0000 </r>
       <r>   -1.7021    1.0000 </r>
[...]
      </set>
     </set>
    </set>
   </array>
  </eigenvalues>
  <separator name="orbital magnetization" >
   <v name="MAGDIPOLOUT">      0.00000000      0.00000000      0.00000000</v>
  </separator>
  <dos>
   <i name="efermi">      9.00255785 </i>
   <total>
    <array>
     <dimension dim="1">gridpoints</dimension>
     <dimension dim="2">spin</dimension>
     <field>energy</field>
     <field>total</field>
     <field>integrated</field>
     <set>
      <set comment="spin 1">
       <r>   -59.4132     0.0000     0.0000 </r>
       <r>   -59.1635     0.0000     0.0000 </r>
       <r>   -58.9139     0.0000     0.0000 </r>
       <r>   -58.6642     0.0000     0.0000 </r>
       <r>   -58.4145     0.0000     0.0000 </r>
       <r>   -58.1649     0.0000     0.0000 </r>
       <r>   -57.9152     0.0000     0.0000 </r>
       <r>   -57.6655     0.0000     0.0000 </r>
       <r>   -57.4159     0.0000     0.0000 </r>
       <r>   -57.1662     0.0000     0.0000 </r>
       <r>   -56.9165     0.0000     0.0000 </r>
       <r>   -56.6669     0.0000     0.0000 </r>
       <r>   -56.4172     0.0000     0.0000 </r>
       <r>   -56.1675     0.1273     0.0318 </r>
       <r>   -55.9179    21.2298     5.3322 </r>
       <r>   -55.6682    33.8744    13.7895 </r>
       <r>   -55.4185     0.8431    14.0000 </r>
       <r>   -55.1689     0.0000    14.0000 </r>
       <r>   -54.9192     0.0000    14.0000 </r>
       <r>   -54.6695     0.0000    14.0000 </r>
       <r>   -54.4199     0.0000    14.0000 </r>
       <r>   -54.1702     0.0000    14.0000 </r>
       <r>   -53.9205     0.0000    14.0000 </r>
       <r>   -53.6709     0.0000    14.0000 </r>
       <r>   -53.4212     0.0000    14.0000 </r>
       <r>   -53.1715     0.0000    14.0000 </r>
       <r>   -52.9219     0.0000    14.0000 </r>
       <r>   -52.6722     0.0000    14.0000 </r>
       <r>   -52.4225     0.0000    14.0000 </r>
       <r>   -52.1729     0.0000    14.0000 </r>
       <r>   -51.9232     0.0000    14.0000 </r>
       <r>   -51.6735     0.0000    14.0000 </r>
       <r>   -51.4239     0.0000    14.0000 </r>
       <r>   -51.1742     0.0000    14.0000 </r>
       <r>   -50.9245     0.0000    14.0000 </r>
       <r>   -50.6749     0.0000    14.0000 </r>
       <r>   -50.4252     0.0000    14.0000 </r>
       <r>   -50.1755     0.0000    14.0000 </r>
       <r>   -49.9259     0.0000    14.0000 </r>
       <r>   -49.6762     0.0000    14.0000 </r>
       <r>   -49.4265     0.0000    14.0000 </r>
       <r>   -49.1769     0.0000    14.0000 </r>
       <r>   -48.9272     0.0000    14.0000 </r>
       <r>   -48.6775     0.0000    14.0000 </r>
       <r>   -48.4279     0.0000    14.0000 </r>
       <r>   -48.1782     0.0000    14.0000 </r>
       <r>   -47.9285     0.0000    14.0000 </r>
       <r>   -47.6788     0.0000    14.0000 </r>
       <r>   -47.4292     0.0000    14.0000 </r>
       <r>   -47.1795     0.0041    14.0010 </r>
       <r>   -46.9298     6.4513    15.6117 </r>
       <r>   -46.6802    26.4428    22.2136 </r>
       <r>   -46.4305    12.8668    25.4260 </r>
       <r>   -46.1808     2.2988    26.0000 </r>
       <r>   -45.9312     0.0002    26.0000 </r>
       <r>   -45.6815     0.0000    26.0000 </r>
       <r>   -45.4318     0.0000    26.0000 </r>
       <r>   -45.1822     0.0000    26.0000 </r>
       <r>   -44.9325     0.0000    26.0000 </r>
       <r>   -44.6828     0.0000    26.0000 </r>
       <r>   -44.4332     0.0000    26.0000 </r>
       <r>   -44.1835     0.0000    26.0000 </r>
       <r>   -43.9338     0.0000    26.0000 </r>
       <r>   -43.6842     0.0000    26.0000 </r>
       <r>   -43.4345     0.0000    26.0000 </r>
       <r>   -43.1848     0.0000    26.0000 </r>
       <r>   -42.9352     0.0000    26.0000 </r>
       <r>   -42.6855     0.0000    26.0000 </r>
       <r>   -42.4358     0.0000    26.0000 </r>
       <r>   -42.1862     0.0000    26.0000 </r>
       <r>   -41.9365     0.0000    26.0000 </r>
       <r>   -41.6868     0.0000    26.0000 </r>
       <r>   -41.4372     0.0000    26.0000 </r>
       <r>   -41.1875     0.0000    26.0000 </r>
       <r>   -40.9378     0.0000    26.0000 </r>
       <r>   -40.6882     0.0000    26.0000 </r>
       <r>   -40.4385     0.0000    26.0000 </r>
       <r>   -40.1888     0.0000    26.0000 </r>
       <r>   -39.9392     0.0000    26.0000 </r>
       <r>   -39.6895     0.0000    26.0000 </r>
       <r>   -39.4398     0.0000    26.0000 </r>
       <r>   -39.1902     0.0000    26.0000 </r>
       <r>   -38.9405     0.0000    26.0000 </r>
       <r>   -38.6908     0.0000    26.0000 </r>
       <r>   -38.4412     0.0000    26.0000 </r>
       <r>   -38.1915     0.0000    26.0000 </r>
       <r>   -37.9418     0.0000    26.0000 </r>
       <r>   -37.6922     0.0000    26.0000 </r>
       <r>   -37.4425     0.0000    26.0000 </r>
       <r>   -37.1928     0.0000    26.0000 </r>
       <r>   -36.9432     0.0000    26.0000 </r>
       <r>   -36.6935     0.0000    26.0000 </r>
       <r>   -36.4438     0.0000    26.0000 </r>
       <r>   -36.1941     0.0000    26.0000 </r>
       <r>   -35.9445     0.0000    26.0000 </r>
       <r>   -35.6948     0.0000    26.0000 </r>
       <r>   -35.4451     0.0000    26.0000 </r>
       <r>   -35.1955     0.0000    26.0000 </r>
       <r>   -34.9458     0.0000    26.0000 </r>
       <r>   -34.6961     0.0000    26.0000 </r>
       <r>   -34.4465     0.0000    26.0000 </r>
       <r>   -34.1968     0.0000    26.0000 </r>
       <r>   -33.9471     0.0000    26.0000 </r>
       <r>   -33.6975     0.0000    26.0000 </r>
       <r>   -33.4478     0.0000    26.0000 </r>
       <r>   -33.1981     0.0000    26.0000 </r>
       <r>   -32.9485     0.0000    26.0000 </r>
       <r>   -32.6988     0.0000    26.0000 </r>
       <r>   -32.4491     0.0000    26.0000 </r>
       <r>   -32.1995     0.0000    26.0000 </r>
       <r>   -31.9498     0.0000    26.0000 </r>
       <r>   -31.7001     0.0000    26.0000 </r>
       <r>   -31.4505     0.0000    26.0000 </r>
       <r>   -31.2008     0.0000    26.0000 </r>
       <r>   -30.9511     0.0000    26.0000 </r>
       <r>   -30.7015     0.4708    26.1175 </r>
       <r>   -30.4518    17.4875    30.4836 </r>
       <r>   -30.2021    74.4187    49.0635 </r>
       <r>   -29.9525    73.3607    67.3793 </r>
       <r>   -29.7028   123.0010    98.0887 </r>
       <r>   -29.4531    23.6708   103.9985 </r>
       <r>   -29.2035     0.0060   104.0000 </r>
       <r>   -28.9538     0.0000   104.0000 </r>
       <r>   -28.7041     0.0000   104.0000 </r>
       <r>   -28.4545     0.0000   104.0000 </r>
       <r>   -28.2048     0.0000   104.0000 </r>
       <r>   -27.9551     0.0000   104.0000 </r>
       <r>   -27.7055     0.0000   104.0000 </r>
       <r>   -27.4558     0.0000   104.0000 </r>
       <r>   -27.2061     0.0000   104.0000 </r>
       <r>   -26.9565     0.0000   104.0000 </r>
       <r>   -26.7068     0.0008   104.0002 </r>
       <r>   -26.4571     6.4134   105.6014 </r>
       <r>   -26.2075    48.6389   117.7450 </r>
       <r>   -25.9578    74.7631   136.4109 </r>
       <r>   -25.7081    14.3667   139.9978 </r>
       <r>   -25.4585     0.0089   140.0000 </r>
       <r>   -25.2088     0.0000   140.0000 </r>
       <r>   -24.9591     0.0000   140.0000 </r>
       <r>   -24.7094     0.0000   140.0000 </r>
       <r>   -24.4598     0.0000   140.0000 </r>
       <r>   -24.2101     0.0000   140.0000 </r>
       <r>   -23.9604     0.0000   140.0000 </r>
       <r>   -23.7108     0.0000   140.0000 </r>
       <r>   -23.4611     0.0924   140.0231 </r>
       <r>   -23.2114    10.1594   142.5595 </r>
       <r>   -22.9618    58.8821   157.2605 </r>
       <r>   -22.7121    49.6474   169.6558 </r>
       <r>   -22.4624    24.8478   175.8595 </r>
       <r>   -22.2128     2.3731   176.4520 </r>
       <r>   -21.9631    20.9343   181.6786 </r>
       <r>   -21.7134    54.1727   195.2038 </r>
       <r>   -21.4638    53.1203   208.4662 </r>
       <r>   -21.2141    36.3815   217.5495 </r>
       <r>   -20.9644     1.8045   218.0000 </r>
       <r>   -20.7148     0.0001   218.0000 </r>
       <r>   -20.4651     0.0000   218.0000 </r>
       <r>   -20.2154     0.0000   218.0000 </r>
       <r>   -19.9658     0.0000   218.0000 </r>
       <r>   -19.7161     0.0000   218.0000 </r>
       <r>   -19.4664     0.0000   218.0000 </r>
       <r>   -19.2168     0.0000   218.0000 </r>
       <r>   -18.9671     0.0000   218.0000 </r>
       <r>   -18.7174     0.0000   218.0000 </r>
       <r>   -18.4678     0.0000   218.0000 </r>
       <r>   -18.2181     0.0000   218.0000 </r>
       <r>   -17.9684     0.0000   218.0000 </r>
       <r>   -17.7188     0.0000   218.0000 </r>
       <r>   -17.4691     0.0000   218.0000 </r>
       <r>   -17.2194     0.0000   218.0000 </r>
       <r>   -16.9698     0.0000   218.0000 </r>
       <r>   -16.7201     0.0000   218.0000 </r>
       <r>   -16.4704     0.0000   218.0000 </r>
       <r>   -16.2208     0.0000   218.0000 </r>
       <r>   -15.9711     0.0000   218.0000 </r>
       <r>   -15.7214     0.0000   218.0000 </r>
       <r>   -15.4718     0.0000   218.0000 </r>
       <r>   -15.2221     0.0000   218.0000 </r>
       <r>   -14.9724     0.0000   218.0000 </r>
       <r>   -14.7228     0.0000   218.0000 </r>
       <r>   -14.4731     0.0000   218.0000 </r>
       <r>   -14.2234     0.0000   218.0000 </r>
       <r>   -13.9738     0.0000   218.0000 </r>
       <r>   -13.7241     0.0000   218.0000 </r>
       <r>   -13.4744     0.0000   218.0000 </r>
       <r>   -13.2248     0.0000   218.0000 </r>
       <r>   -12.9751     0.0000   218.0000 </r>
       <r>   -12.7254     0.0000   218.0000 </r>
       <r>   -12.4757     0.0000   218.0000 </r>
       <r>   -12.2261     0.0000   218.0000 </r>
       <r>   -11.9764     0.0000   218.0000 </r>
       <r>   -11.7267     0.0000   218.0000 </r>
       <r>   -11.4771     0.0000   218.0000 </r>
       <r>   -11.2274     0.0000   218.0000 </r>
       <r>   -10.9777     0.0000   218.0000 </r>
       <r>   -10.7281     0.0000   218.0000 </r>
       <r>   -10.4784     0.0000   218.0000 </r>
       <r>   -10.2287     0.0000   218.0000 </r>
       <r>    -9.9791     0.0000   218.0000 </r>
       <r>    -9.7294     0.0000   218.0000 </r>
       <r>    -9.4797     0.0000   218.0000 </r>
       <r>    -9.2301     0.0000   218.0000 </r>
       <r>    -8.9804     0.0000   218.0000 </r>
       <r>    -8.7307     0.0000   218.0000 </r>
       <r>    -8.4811     0.0000   218.0000 </r>
       <r>    -8.2314     0.0000   218.0000 </r>
       <r>    -7.9817     0.0012   218.0003 </r>
       <r>    -7.7321     1.0043   218.2510 </r>
       <r>    -7.4824     5.9567   219.7382 </r>
       <r>    -7.2327     3.2440   220.5481 </r>
       <r>    -6.9831    11.0227   223.3001 </r>
       <r>    -6.7334    16.9742   227.5381 </r>
       <r>    -6.4837    17.2667   231.8490 </r>
       <r>    -6.2341    12.1162   234.8740 </r>
       <r>    -5.9844    20.3785   239.9618 </r>
       <r>    -5.7347     9.9190   242.4383 </r>
       <r>    -5.4851     6.2245   243.9923 </r>
       <r>    -5.2354     0.0307   244.0000 </r>
       <r>    -4.9857     0.0000   244.0000 </r>
       <r>    -4.7361     0.0000   244.0000 </r>
       <r>    -4.4864     0.0000   244.0000 </r>
       <r>    -4.2367     0.0210   244.0052 </r>
       <r>    -3.9871     2.4138   244.6079 </r>
       <r>    -3.7374     5.3168   245.9353 </r>
       <r>    -3.4877     5.2821   247.2541 </r>
       <r>    -3.2381     9.0631   249.5168 </r>
       <r>    -2.9884    14.0556   253.0261 </r>
       <r>    -2.7387    20.5191   258.1490 </r>
       <r>    -2.4891    25.3092   264.4679 </r>
       <r>    -2.2394    24.4767   270.5789 </r>
       <r>    -1.9897    18.1941   275.1214 </r>
       <r>    -1.7401    15.7184   279.0458 </r>
       <r>    -1.4904     9.0187   281.2974 </r>
       <r>    -1.2407     2.5801   281.9416 </r>
       <r>    -0.9910     0.2339   282.0000 </r>
       <r>    -0.7414     0.0000   282.0000 </r>
       <r>    -0.4917     0.0000   282.0000 </r>
       <r>    -0.2420     0.0000   282.0000 </r>
       <r>     0.0076     0.0000   282.0000 </r>
       <r>     0.2573     0.0042   282.0010 </r>
       <r>     0.5070     0.5050   282.1271 </r>
       <r>     0.7566     2.3127   282.7046 </r>
       <r>     1.0063     6.6520   284.3653 </r>
       <r>     1.2560     9.0524   286.6254 </r>
       <r>     1.5056    11.6821   289.5421 </r>
       <r>     1.7553    17.0486   293.7985 </r>
       <r>     2.0050    22.8019   299.4914 </r>
       <r>     2.2546    26.4862   306.1042 </r>
       <r>     2.5043    26.6273   312.7521 </r>
       <r>     2.7540    30.1009   320.2673 </r>
       <r>     3.0036    32.3635   328.3475 </r>
       <r>     3.2533    29.9045   335.8136 </r>
       <r>     3.5030    39.5163   345.6796 </r>
       <r>     3.7526    49.1962   357.9623 </r>
       <r>     4.0023    57.1024   372.2189 </r>
       <r>     4.2520    63.2440   388.0088 </r>
       <r>     4.5016    61.2011   403.2888 </r>
       <r>     4.7513    59.1176   418.0485 </r>
       <r>     5.0010    52.7452   431.2172 </r>
       <r>     5.2506    42.3453   441.7895 </r>
       <r>     5.5003    32.0294   449.7862 </r>
       <r>     5.7500    31.2890   457.5980 </r>
       <r>     5.9996    25.4214   463.9449 </r>
       <r>     6.2493    17.7188   468.3687 </r>
       <r>     6.4990    16.0082   472.3654 </r>
       <r>     6.7486     6.1769   473.9076 </r>
       <r>     6.9983    11.0155   476.6578 </r>
       <r>     7.2480    15.6240   480.5586 </r>
       <r>     7.4976    15.9141   484.5319 </r>
       <r>     7.7473    20.3292   489.6074 </r>
       <r>     7.9970    18.7333   494.2845 </r>
       <r>     8.2466    18.3841   498.8744 </r>
       <r>     8.4963    25.1427   505.1517 </r>
       <r>     8.7460    26.5155   511.7718 </r>
       <r>     8.9956    24.4418   517.8741 </r>
       <r>     9.2453    21.9931   523.3651 </r>
       <r>     9.4950    32.6710   531.5220 </r>
       <r>     9.7446    36.9327   540.7429 </r>
       <r>     9.9943    44.2377   551.7876 </r>
       <r>    10.2440    45.9378   563.2567 </r>
       <r>    10.4937    42.2819   573.8132 </r>
       <r>    10.7433    44.0038   584.7995 </r>
       <r>    10.9930    43.2174   595.5894 </r>
       <r>    11.2427    39.3285   605.4085 </r>
       <r>    11.4923    33.2696   613.7148 </r>
       <r>    11.7420    25.9307   620.1889 </r>
       <r>    11.9917    12.5633   623.3255 </r>
       <r>    12.2413     2.6870   623.9963 </r>
       <r>    12.4910     0.0147   624.0000 </r>
       <r>    12.7407     0.0000   624.0000 </r>
       <r>    12.9903     0.0000   624.0000 </r>
       <r>    13.2400     0.0000   624.0000 </r>
       <r>    13.4897     0.0000   624.0000 </r>
       <r>    13.7393     0.0000   624.0000 </r>
       <r>    13.9890     0.0000   624.0000 </r>
       <r>    14.2387     0.0000   624.0000 </r>
       <r>    14.4883     0.0000   624.0000 </r>
       <r>    14.7380     0.0000   624.0000 </r>
       <r>    14.9877     0.0000   624.0000 </r>
       <r>    15.2373     0.0000   624.0000 </r>
       <r>    15.4870     0.0000   624.0000 </r>
      </set>
     </set>
    </array>
   </total>
  </dos>
 </calculation>
 <structure name="finalpos" >
  <crystal>
   <varray name="basis" >
    <v>       8.83502480       0.00035687       0.02965712 </v>
    <v>       0.00636585       8.83265034      -0.02033262 </v>
    <v>       0.06154655      -0.03542933       8.86847979 </v>
   </varray>
   <i name="volume">    692.04424795 </i>
   <varray name="rec_basis" >
    <v>       0.11318851      -0.00008339      -0.00078585 </v>
    <v>      -0.00000609       0.11321735       0.00045234 </v>
    <v>      -0.00037853       0.00025985       0.11276256 </v>
   </varray>
  </crystal>
  <varray name="positions" >
   <v>       0.00569294       0.00715938       0.99748049 </v>
   <v>       0.26133502       0.00665462       0.24192133 </v>
   <v>       0.24802694       0.49226052       0.25136280 </v>
   <v>       0.49929622       0.49877476       0.99978952 </v>
   <v>       0.50045951       0.24353440       0.74698068 </v>
   <v>       0.00241189       0.50149229       0.50293900 </v>
   <v>       0.49338730       0.75702206       0.75578242 </v>
   <v>       0.99556065       0.23685388       0.25640234 </v>
   <v>       0.76016089       0.75153434       0.00393717 </v>
   <v>       0.00204717       0.25854609       0.74837325 </v>
   <v>       0.75697765       0.24497468       0.48719145 </v>
   <v>       0.00172812       0.74718667       0.75365423 </v>
   <v>       0.24899665       0.50098412       0.74997789 </v>
   <v>       0.25250076       0.26895233       0.98319493 </v>
   <v>       0.51132509       0.26303233       0.23904580 </v>
   <v>       0.74844408       0.99791606       0.27606275 </v>
   <v>       0.72586914       0.24322106       0.01387108 </v>
   <v>       0.23072908       0.72769871       0.00268394 </v>
   <v>       0.23451288       0.24230944       0.51825524 </v>
   <v>       0.26006337       0.76056027       0.49425769 </v>
   <v>       0.24990477       0.24873809       0.24629349 </v>
   <v>       0.25825772       0.00288620       0.99238241 </v>
   <v>       0.99650320       0.25425760       0.00220231 </v>
   <v>       0.74479323       0.24539655       0.24113687 </v>
   <v>       0.75572421       0.00832040       0.01909830 </v>
   <v>       0.51347633       0.99908273       0.23514369 </v>
   <v>       0.99719923       0.49890826       0.24689266 </v>
   <v>       0.49554841       0.75700276       0.00508750 </v>
   <v>       0.98798053       0.00471567       0.74909841 </v>
   <v>       0.75087823       0.24400514       0.75105485 </v>
   <v>       0.75371115       0.00028523       0.52044409 </v>
   <v>       0.50015120       0.24323217       0.49004838 </v>
   <v>       0.49415933       0.00049122       0.73412734 </v>
   <v>       0.99969037       0.99945738       0.25317340 </v>
   <v>       0.49010438       0.24748585       0.00230470 </v>
   <v>       0.25427681       0.75038145       0.24573927 </v>
   <v>       0.24564187       0.49841468       0.99964332 </v>
   <v>       0.00367199       0.74841095       0.00347218 </v>
   <v>       0.74959151       0.75463588       0.25196179 </v>
   <v>       0.75422159       0.49222679       0.00106586 </v>
   <v>       0.50093314       0.49524253       0.25201512 </v>
   <v>       0.24781696       0.24658141       0.75090600 </v>
   <v>       0.26337660       0.00280998       0.49696629 </v>
   <v>       0.00400390       0.24922133       0.50218330 </v>
   <v>       0.24563376       0.75460986       0.75299991 </v>
   <v>       0.25424919       0.49661041       0.50059471 </v>
   <v>       0.00370375       0.75523382       0.50057398 </v>
   <v>       0.99881238       0.50280632       0.75039198 </v>
   <v>       0.74839122       0.75075484       0.75180850 </v>
   <v>       0.74715600       0.49906018       0.49773603 </v>
   <v>       0.49512587       0.74801023       0.50257564 </v>
   <v>       0.50062638       0.49974953       0.74582882 </v>
   <v>       0.52146397       0.01112403       0.98752730 </v>
   <v>       0.00142453       0.50157854       0.98888885 </v>
   <v>       0.49573245       0.74025985       0.25930551 </v>
   <v>       0.23934902       0.99769275       0.74000367 </v>
   <v>       0.50624333       0.98629295       0.47465723 </v>
   <v>       0.73512293       0.98664377       0.77648416 </v>
   <v>       0.00416174       0.76199404       0.25230275 </v>
   <v>       0.74831179       0.49893031       0.24784490 </v>
   <v>       0.01312496       0.00243900       0.50424350 </v>
   <v>       0.49654074       0.50332167       0.49982729 </v>
   <v>       0.74938016       0.50647179       0.75437020 </v>
   <v>       0.74430414       0.75355758       0.49642965 </v>
  </varray>
 </structure>
</modeling>
