HEBCN                                   
           1
     8.835025    0.000357    0.029657
     0.006366    8.832650   -0.020333
     0.061547   -0.035429    8.868480
   Hf   Nb   V    N    C    W    Ta
   7   6   7  13  19   6   6
Direct configuration=     1
   0.00569294  0.00715938  0.99748049
   0.26133502  0.00665462  0.24192133
   0.24802694  0.49226052  0.25136280
   0.49929622  0.49877476  0.99978952
   0.50045951  0.24353440  0.74698068
   0.00241189  0.50149229  0.50293900
   0.49338730  0.75702206  0.75578242
   0.99556065  0.23685388  0.25640234
   0.76016089  0.75153434  0.00393717
   0.00204717  0.25854609  0.74837325
   0.75697765  0.24497468  0.48719145
   0.00172812  0.74718667  0.75365423
   0.24899665  0.50098412  0.74997789
   0.25250076  0.26895233  0.98319493
   0.51132509  0.26303233  0.23904580
   0.74844408  0.99791606  0.27606275
   0.72586914  0.24322106  0.01387108
   0.23072908  0.72769871  0.00268394
   0.23451288  0.24230944  0.51825524
   0.26006337  0.76056027  0.49425769
   0.24990477  0.24873809  0.24629349
   0.25825772  0.00288620  0.99238241
   0.99650320  0.25425760  0.00220231
   0.74479323  0.24539655  0.24113687
   0.75572421  0.00832040  0.01909830
   0.51347633  0.99908273  0.23514369
   0.99719923  0.49890826  0.24689266
   0.49554841  0.75700276  0.00508750
   0.98798053  0.00471567  0.74909841
   0.75087823  0.24400514  0.75105485
   0.75371115  0.00028523  0.52044409
   0.50015120  0.24323217  0.49004838
   0.49415933  0.00049122  0.73412734
   0.99969037  0.99945738  0.25317340
   0.49010438  0.24748585  0.00230470
   0.25427681  0.75038145  0.24573927
   0.24564187  0.49841468  0.99964332
   0.00367199  0.74841095  0.00347218
   0.74959151  0.75463588  0.25196179
   0.75422159  0.49222679  0.00106586
   0.50093314  0.49524253  0.25201512
   0.24781696  0.24658141  0.75090600
   0.26337660  0.00280998  0.49696629
   0.00400390  0.24922133  0.50218330
   0.24563376  0.75460986  0.75299991
   0.25424919  0.49661041  0.50059471
   0.00370375  0.75523382  0.50057398
   0.99881238  0.50280632  0.75039198
   0.74839122  0.75075484  0.75180850
   0.74715600  0.49906018  0.49773603
   0.49512587  0.74801023  0.50257564
   0.50062638  0.49974953  0.74582882
   0.52146397  0.01112403  0.98752730
   0.00142453  0.50157854  0.98888885
   0.49573245  0.74025985  0.25930551
   0.23934902  0.99769275  0.74000367
   0.50624333  0.98629295  0.47465723
   0.73512293  0.98664377  0.77648416
   0.00416174  0.76199404  0.25230275
   0.74831179  0.49893031  0.24784490
   0.01312496  0.00243900  0.50424350
   0.49654074  0.50332167  0.49982729
   0.74938016  0.50647179  0.75437020
   0.74430414  0.75355758  0.49642965
