  64  64   1   0
  0.1139878E+02  0.8981741E-09  0.9040843E-09  0.8983983E-09  0.5000000E-15
  1.000000000000000E-004
  CAR 
 HEBCN                                   
     12.00000000    -50.00000000 1000      8.52627576      1.00000000
    -50.000  0.0000E+00  0.0000E+00
    -49.938  0.0000E+00  0.0000E+00
    -49.876  0.0000E+00  0.0000E+00
    -49.814  0.0000E+00  0.0000E+00
    -49.752  0.0000E+00  0.0000E+00
    -49.690  0.1789E-14  0.1110E-15
    -49.628  0.1061E-11  0.6596E-13
    -49.566  0.5858E-09  0.3642E-10
    -49.504  0.1518E-06  0.9456E-08
    -49.441  0.1854E-04  0.1160E-05
    -49.379  0.1072E-02  0.6772E-04
    -49.317  0.2961E-01  0.1905E-02
    -49.255  0.3947E+00  0.2640E-01
    -49.193  0.2604E+01  0.1880E+00
    -49.131  0.8984E+01  0.7456E+00
    -49.069  0.1836E+02  0.1885E+01
    -49.007  0.2753E+02  0.3594E+01
    -48.945  0.3672E+02  0.5873E+01
    -48.883  0.4302E+02  0.8543E+01
    -48.821  0.3709E+02  0.1084E+02
    -48.759  0.2339E+02  0.1230E+02
    -48.697  0.1491E+02  0.1322E+02
    -48.635  0.8816E+01  0.1377E+02
    -48.573  0.3121E+01  0.1396E+02
    -48.511  0.5563E+00  0.1400E+02
    -48.448  0.4802E-01  0.1400E+02
    -48.386  0.1985E-02  0.1400E+02
    -48.324  0.3906E-04  0.1400E+02
    -48.262  0.3638E-06  0.1400E+02
    -48.200  0.1598E-08  0.1400E+02
    -48.138  0.3297E-11  0.1400E+02
    -48.076  0.3578E-14  0.1400E+02
    -48.014  0.0000E+00  0.1400E+02
    -47.952  0.1073E-13  0.1400E+02
    -47.890  0.1002E-10  0.1400E+02
    -47.828  0.4265E-08  0.1400E+02
    -47.766  0.8538E-06  0.1400E+02
    -47.704  0.8064E-04  0.1400E+02
    -47.642  0.3611E-02  0.1400E+02
    -47.580  0.7712E-01  0.1401E+02
    -47.518  0.7936E+00  0.1405E+02
    -47.455  0.4022E+01  0.1430E+02
    -47.393  0.1068E+02  0.1497E+02
    -47.331  0.1771E+02  0.1607E+02
    -47.269  0.2454E+02  0.1759E+02
    -47.207  0.3094E+02  0.1951E+02
    -47.145  0.3120E+02  0.2145E+02
    -47.083  0.2480E+02  0.2298E+02
    -47.021  0.1794E+02  0.2410E+02
    -46.959  0.1451E+02  0.2500E+02
    -46.897  0.1049E+02  0.2565E+02
    -46.835  0.4539E+01  0.2593E+02
    -46.773  0.9981E+00  0.2599E+02
    -46.711  0.1068E+00  0.2600E+02
    -46.649  0.5493E-02  0.2600E+02
    -46.587  0.1346E-03  0.2600E+02
    -46.525  0.1565E-05  0.2600E+02
    -46.462  0.8584E-08  0.2600E+02
    -46.400  0.2215E-10  0.2600E+02
    -46.338  0.2862E-13  0.2600E+02
    -46.276  0.0000E+00  0.2600E+02
    -46.214  0.0000E+00  0.2600E+02
    -46.152  0.0000E+00  0.2600E+02
    -46.090  0.0000E+00  0.2600E+02
    -46.028  0.0000E+00  0.2600E+02
    -45.966  0.0000E+00  0.2600E+02
    -45.904  0.0000E+00  0.2600E+02
    -45.842  0.0000E+00  0.2600E+02
    -45.780  0.0000E+00  0.2600E+02
    -45.718  0.0000E+00  0.2600E+02
    -45.656  0.0000E+00  0.2600E+02
    -45.594  0.0000E+00  0.2600E+02
    -45.532  0.0000E+00  0.2600E+02
    -45.469  0.0000E+00  0.2600E+02
    -45.407  0.0000E+00  0.2600E+02
    -45.345  0.0000E+00  0.2600E+02
    -45.283  0.0000E+00  0.2600E+02
    -45.221  0.0000E+00  0.2600E+02
    -45.159  0.0000E+00  0.2600E+02
    -45.097  0.0000E+00  0.2600E+02
    -45.035  0.0000E+00  0.2600E+02
    -44.973  0.0000E+00  0.2600E+02
    -44.911  0.0000E+00  0.2600E+02
    -44.849  0.0000E+00  0.2600E+02
    -44.787  0.0000E+00  0.2600E+02
    -44.725  0.0000E+00  0.2600E+02
    -44.663  0.0000E+00  0.2600E+02
    -44.601  0.0000E+00  0.2600E+02
    -44.539  0.0000E+00  0.2600E+02
    -44.476  0.0000E+00  0.2600E+02
    -44.414  0.0000E+00  0.2600E+02
    -44.352  0.0000E+00  0.2600E+02
    -44.290  0.0000E+00  0.2600E+02
    -44.228  0.0000E+00  0.2600E+02
    -44.166  0.0000E+00  0.2600E+02
    -44.104  0.0000E+00  0.2600E+02
    -44.042  0.0000E+00  0.2600E+02
    -43.980  0.0000E+00  0.2600E+02
    -43.918  0.0000E+00  0.2600E+02
    -43.856  0.0000E+00  0.2600E+02
    -43.794  0.0000E+00  0.2600E+02
    -43.732  0.0000E+00  0.2600E+02
    -43.670  0.0000E+00  0.2600E+02
    -43.608  0.0000E+00  0.2600E+02
    -43.546  0.0000E+00  0.2600E+02
    -43.483  0.0000E+00  0.2600E+02
    -43.421  0.0000E+00  0.2600E+02
    -43.359  0.0000E+00  0.2600E+02
    -43.297  0.0000E+00  0.2600E+02
    -43.235  0.0000E+00  0.2600E+02
    -43.173  0.0000E+00  0.2600E+02
    -43.111  0.0000E+00  0.2600E+02
    -43.049  0.0000E+00  0.2600E+02
    -42.987  0.0000E+00  0.2600E+02
    -42.925  0.0000E+00  0.2600E+02
    -42.863  0.0000E+00  0.2600E+02
    -42.801  0.0000E+00  0.2600E+02
    -42.739  0.0000E+00  0.2600E+02
    -42.677  0.0000E+00  0.2600E+02
    -42.615  0.0000E+00  0.2600E+02
    -42.553  0.0000E+00  0.2600E+02
    -42.490  0.0000E+00  0.2600E+02
    -42.428  0.0000E+00  0.2600E+02
    -42.366  0.0000E+00  0.2600E+02
    -42.304  0.0000E+00  0.2600E+02
    -42.242  0.0000E+00  0.2600E+02
    -42.180  0.0000E+00  0.2600E+02
    -42.118  0.0000E+00  0.2600E+02
    -42.056  0.0000E+00  0.2600E+02
    -41.994  0.0000E+00  0.2600E+02
    -41.932  0.0000E+00  0.2600E+02
    -41.870  0.0000E+00  0.2600E+02
    -41.808  0.0000E+00  0.2600E+02
    -41.746  0.0000E+00  0.2600E+02
    -41.684  0.0000E+00  0.2600E+02
    -41.622  0.0000E+00  0.2600E+02
    -41.560  0.0000E+00  0.2600E+02
    -41.497  0.0000E+00  0.2600E+02
    -41.435  0.0000E+00  0.2600E+02
    -41.373  0.7153E-12  0.2600E+02
    -41.311  0.4121E-09  0.2600E+02
    -41.249  0.1116E-06  0.2600E+02
    -41.187  0.1424E-04  0.2600E+02
    -41.125  0.8596E-03  0.2600E+02
    -41.063  0.2468E-01  0.2600E+02
    -41.001  0.3398E+00  0.2602E+02
    -40.939  0.2276E+01  0.2616E+02
    -40.877  0.7674E+01  0.2664E+02
    -40.815  0.1418E+02  0.2752E+02
    -40.753  0.1682E+02  0.2856E+02
    -40.691  0.1486E+02  0.2949E+02
    -40.629  0.1187E+02  0.3022E+02
    -40.567  0.1197E+02  0.3097E+02
    -40.505  0.1097E+02  0.3165E+02
    -40.442  0.8404E+01  0.3217E+02
    -40.380  0.1109E+02  0.3286E+02
    -40.318  0.1702E+02  0.3391E+02
    -40.256  0.2072E+02  0.3520E+02
    -40.194  0.2072E+02  0.3649E+02
    -40.132  0.1533E+02  0.3744E+02
    -40.070  0.7052E+01  0.3787E+02
    -40.008  0.1778E+01  0.3798E+02
    -39.946  0.2414E+00  0.3800E+02
    -39.884  0.2234E+00  0.3801E+02
    -39.822  0.1600E+01  0.3811E+02
    -39.760  0.5907E+01  0.3848E+02
    -39.698  0.1057E+02  0.3914E+02
    -39.636  0.9184E+01  0.3971E+02
    -39.574  0.3872E+01  0.3995E+02
    -39.512  0.7900E+00  0.3999E+02
    -39.449  0.7761E-01  0.4000E+02
    -39.387  0.3652E-02  0.4000E+02
    -39.325  0.8182E-04  0.4000E+02
    -39.263  0.8687E-06  0.4000E+02
    -39.201  0.4352E-08  0.4000E+02
    -39.139  0.1025E-10  0.4000E+02
    -39.077  0.1073E-13  0.4000E+02
    -39.015  0.0000E+00  0.4000E+02
    -38.953  0.0000E+00  0.4000E+02
    -38.891  0.0000E+00  0.4000E+02
    -38.829  0.0000E+00  0.4000E+02
    -38.767  0.0000E+00  0.4000E+02
    -38.705  0.0000E+00  0.4000E+02
    -38.643  0.0000E+00  0.4000E+02
    -38.581  0.0000E+00  0.4000E+02
    -38.519  0.0000E+00  0.4000E+02
    -38.456  0.0000E+00  0.4000E+02
    -38.394  0.0000E+00  0.4000E+02
    -38.332  0.0000E+00  0.4000E+02
    -38.270  0.0000E+00  0.4000E+02
    -38.208  0.0000E+00  0.4000E+02
    -38.146  0.0000E+00  0.4000E+02
    -38.084  0.0000E+00  0.4000E+02
    -38.022  0.0000E+00  0.4000E+02
    -37.960  0.0000E+00  0.4000E+02
    -37.898  0.0000E+00  0.4000E+02
    -37.836  0.0000E+00  0.4000E+02
    -37.774  0.0000E+00  0.4000E+02
    -37.712  0.0000E+00  0.4000E+02
    -37.650  0.0000E+00  0.4000E+02
    -37.588  0.0000E+00  0.4000E+02
    -37.526  0.0000E+00  0.4000E+02
    -37.463  0.0000E+00  0.4000E+02
    -37.401  0.0000E+00  0.4000E+02
    -37.339  0.0000E+00  0.4000E+02
    -37.277  0.0000E+00  0.4000E+02
    -37.215  0.0000E+00  0.4000E+02
    -37.153  0.0000E+00  0.4000E+02
    -37.091  0.0000E+00  0.4000E+02
    -37.029  0.0000E+00  0.4000E+02
    -36.967  0.0000E+00  0.4000E+02
    -36.905  0.0000E+00  0.4000E+02
    -36.843  0.0000E+00  0.4000E+02
    -36.781  0.0000E+00  0.4000E+02
    -36.719  0.0000E+00  0.4000E+02
    -36.657  0.0000E+00  0.4000E+02
    -36.595  0.0000E+00  0.4000E+02
    -36.533  0.0000E+00  0.4000E+02
    -36.470  0.0000E+00  0.4000E+02
    -36.408  0.0000E+00  0.4000E+02
    -36.346  0.0000E+00  0.4000E+02
    -36.284  0.0000E+00  0.4000E+02
    -36.222  0.0000E+00  0.4000E+02
    -36.160  0.0000E+00  0.4000E+02
    -36.098  0.0000E+00  0.4000E+02
    -36.036  0.0000E+00  0.4000E+02
    -35.974  0.0000E+00  0.4000E+02
    -35.912  0.0000E+00  0.4000E+02
    -35.850  0.0000E+00  0.4000E+02
    -35.788  0.0000E+00  0.4000E+02
    -35.726  0.0000E+00  0.4000E+02
    -35.664  0.0000E+00  0.4000E+02
    -35.602  0.0000E+00  0.4000E+02
    -35.540  0.0000E+00  0.4000E+02
    -35.477  0.0000E+00  0.4000E+02
    -35.415  0.0000E+00  0.4000E+02
    -35.353  0.0000E+00  0.4000E+02
    -35.291  0.0000E+00  0.4000E+02
    -35.229  0.0000E+00  0.4000E+02
    -35.167  0.0000E+00  0.4000E+02
    -35.105  0.0000E+00  0.4000E+02
    -35.043  0.0000E+00  0.4000E+02
    -34.981  0.0000E+00  0.4000E+02
    -34.919  0.0000E+00  0.4000E+02
    -34.857  0.0000E+00  0.4000E+02
    -34.795  0.0000E+00  0.4000E+02
    -34.733  0.0000E+00  0.4000E+02
    -34.671  0.0000E+00  0.4000E+02
    -34.609  0.0000E+00  0.4000E+02
    -34.547  0.0000E+00  0.4000E+02
    -34.484  0.0000E+00  0.4000E+02
    -34.422  0.0000E+00  0.4000E+02
    -34.360  0.0000E+00  0.4000E+02
    -34.298  0.0000E+00  0.4000E+02
    -34.236  0.0000E+00  0.4000E+02
    -34.174  0.0000E+00  0.4000E+02
    -34.112  0.0000E+00  0.4000E+02
    -34.050  0.0000E+00  0.4000E+02
    -33.988  0.0000E+00  0.4000E+02
    -33.926  0.0000E+00  0.4000E+02
    -33.864  0.0000E+00  0.4000E+02
    -33.802  0.0000E+00  0.4000E+02
    -33.740  0.0000E+00  0.4000E+02
    -33.678  0.0000E+00  0.4000E+02
    -33.616  0.0000E+00  0.4000E+02
    -33.554  0.0000E+00  0.4000E+02
    -33.491  0.0000E+00  0.4000E+02
    -33.429  0.0000E+00  0.4000E+02
    -33.367  0.0000E+00  0.4000E+02
    -33.305  0.0000E+00  0.4000E+02
    -33.243  0.0000E+00  0.4000E+02
    -33.181  0.0000E+00  0.4000E+02
    -33.119  0.0000E+00  0.4000E+02
    -33.057  0.0000E+00  0.4000E+02
    -32.995  0.0000E+00  0.4000E+02
    -32.933  0.0000E+00  0.4000E+02
    -32.871  0.0000E+00  0.4000E+02
    -32.809  0.0000E+00  0.4000E+02
    -32.747  0.0000E+00  0.4000E+02
    -32.685  0.0000E+00  0.4000E+02
    -32.623  0.0000E+00  0.4000E+02
    -32.561  0.0000E+00  0.4000E+02
    -32.498  0.0000E+00  0.4000E+02
    -32.436  0.0000E+00  0.4000E+02
    -32.374  0.0000E+00  0.4000E+02
    -32.312  0.0000E+00  0.4000E+02
    -32.250  0.0000E+00  0.4000E+02
    -32.188  0.0000E+00  0.4000E+02
    -32.126  0.0000E+00  0.4000E+02
    -32.064  0.0000E+00  0.4000E+02
    -32.002  0.0000E+00  0.4000E+02
    -31.940  0.0000E+00  0.4000E+02
    -31.878  0.0000E+00  0.4000E+02
    -31.816  0.0000E+00  0.4000E+02
    -31.754  0.0000E+00  0.4000E+02
    -31.692  0.0000E+00  0.4000E+02
    -31.630  0.0000E+00  0.4000E+02
    -31.568  0.0000E+00  0.4000E+02
    -31.506  0.0000E+00  0.4000E+02
    -31.443  0.0000E+00  0.4000E+02
    -31.381  0.0000E+00  0.4000E+02
    -31.319  0.0000E+00  0.4000E+02
    -31.257  0.0000E+00  0.4000E+02
    -31.195  0.0000E+00  0.4000E+02
    -31.133  0.0000E+00  0.4000E+02
    -31.071  0.0000E+00  0.4000E+02
    -31.009  0.0000E+00  0.4000E+02
    -30.947  0.0000E+00  0.4000E+02
    -30.885  0.0000E+00  0.4000E+02
    -30.823  0.0000E+00  0.4000E+02
    -30.761  0.0000E+00  0.4000E+02
    -30.699  0.0000E+00  0.4000E+02
    -30.637  0.0000E+00  0.4000E+02
    -30.575  0.0000E+00  0.4000E+02
    -30.513  0.0000E+00  0.4000E+02
    -30.450  0.0000E+00  0.4000E+02
    -30.388  0.0000E+00  0.4000E+02
    -30.326  0.0000E+00  0.4000E+02
    -30.264  0.0000E+00  0.4000E+02
    -30.202  0.0000E+00  0.4000E+02
    -30.140  0.0000E+00  0.4000E+02
    -30.078  0.0000E+00  0.4000E+02
    -30.016  0.0000E+00  0.4000E+02
    -29.954  0.0000E+00  0.4000E+02
    -29.892  0.0000E+00  0.4000E+02
    -29.830  0.0000E+00  0.4000E+02
    -29.768  0.0000E+00  0.4000E+02
    -29.706  0.0000E+00  0.4000E+02
    -29.644  0.0000E+00  0.4000E+02
    -29.582  0.0000E+00  0.4000E+02
    -29.520  0.0000E+00  0.4000E+02
    -29.457  0.0000E+00  0.4000E+02
    -29.395  0.0000E+00  0.4000E+02
    -29.333  0.0000E+00  0.4000E+02
    -29.271  0.0000E+00  0.4000E+02
    -29.209  0.0000E+00  0.4000E+02
    -29.147  0.0000E+00  0.4000E+02
    -29.085  0.0000E+00  0.4000E+02
    -29.023  0.0000E+00  0.4000E+02
    -28.961  0.0000E+00  0.4000E+02
    -28.899  0.0000E+00  0.4000E+02
    -28.837  0.0000E+00  0.4000E+02
    -28.775  0.0000E+00  0.4000E+02
    -28.713  0.0000E+00  0.4000E+02
    -28.651  0.0000E+00  0.4000E+02
    -28.589  0.0000E+00  0.4000E+02
    -28.527  0.0000E+00  0.4000E+02
    -28.464  0.0000E+00  0.4000E+02
    -28.402  0.0000E+00  0.4000E+02
    -28.340  0.0000E+00  0.4000E+02
    -28.278  0.0000E+00  0.4000E+02
    -28.216  0.0000E+00  0.4000E+02
    -28.154  0.0000E+00  0.4000E+02
    -28.092  0.0000E+00  0.4000E+02
    -28.030  0.0000E+00  0.4000E+02
    -27.968  0.0000E+00  0.4000E+02
    -27.906  0.0000E+00  0.4000E+02
    -27.844  0.0000E+00  0.4000E+02
    -27.782  0.0000E+00  0.4000E+02
    -27.720  0.0000E+00  0.4000E+02
    -27.658  0.0000E+00  0.4000E+02
    -27.596  0.0000E+00  0.4000E+02
    -27.534  0.0000E+00  0.4000E+02
    -27.471  0.0000E+00  0.4000E+02
    -27.409  0.4464E-13  0.4000E+02
    -27.347  0.3502E-10  0.4000E+02
    -27.285  0.1318E-07  0.4000E+02
    -27.223  0.2358E-05  0.4000E+02
    -27.161  0.2024E-03  0.4000E+02
    -27.099  0.8439E-02  0.4000E+02
    -27.037  0.1740E+00  0.4001E+02
    -26.975  0.1820E+01  0.4012E+02
    -26.913  0.1002E+02  0.4075E+02
    -26.851  0.3082E+02  0.4266E+02
    -26.789  0.5825E+02  0.4627E+02
    -26.727  0.7664E+02  0.5103E+02
    -26.665  0.7892E+02  0.5593E+02
    -26.603  0.7246E+02  0.6042E+02
    -26.541  0.6936E+02  0.6473E+02
    -26.478  0.6761E+02  0.6893E+02
    -26.416  0.5687E+02  0.7245E+02
    -26.354  0.3643E+02  0.7472E+02
    -26.292  0.1586E+02  0.7570E+02
    -26.230  0.4179E+01  0.7596E+02
    -26.168  0.6061E+00  0.7600E+02
    -26.106  0.4547E-01  0.7600E+02
    -26.044  0.1699E-02  0.7600E+02
    -25.982  0.3091E-04  0.7600E+02
    -25.920  0.4474E-06  0.7600E+02
    -25.858  0.2132E-04  0.7600E+02
    -25.796  0.1216E-02  0.7600E+02
    -25.734  0.3347E-01  0.7600E+02
    -25.672  0.4549E+00  0.7603E+02
    -25.610  0.3196E+01  0.7623E+02
    -25.548  0.1260E+02  0.7701E+02
    -25.485  0.3160E+02  0.7897E+02
    -25.423  0.5834E+02  0.8259E+02
    -25.361  0.8880E+02  0.8810E+02
    -25.299  0.1142E+03  0.9519E+02
    -25.237  0.1182E+03  0.1025E+03
    -25.175  0.9570E+02  0.1085E+03
    -25.113  0.6623E+02  0.1126E+03
    -25.051  0.4572E+02  0.1154E+03
    -24.989  0.2776E+02  0.1171E+03
    -24.927  0.1110E+02  0.1178E+03
    -24.865  0.2491E+01  0.1180E+03
    -24.803  0.2940E+00  0.1180E+03
    -24.741  0.1759E-01  0.1180E+03
    -24.679  0.5205E-03  0.1180E+03
    -24.617  0.7470E-05  0.1180E+03
    -24.555  0.5133E-07  0.1180E+03
    -24.492  0.1673E-09  0.1180E+03
    -24.430  0.2549E-12  0.1180E+03
    -24.368  0.0000E+00  0.1180E+03
    -24.306  0.0000E+00  0.1180E+03
    -24.244  0.0000E+00  0.1180E+03
    -24.182  0.2912E-12  0.1180E+03
    -24.120  0.1880E-09  0.1180E+03
    -24.058  0.5730E-07  0.1180E+03
    -23.996  0.8289E-05  0.1180E+03
    -23.934  0.5730E-03  0.1180E+03
    -23.872  0.1910E-01  0.1180E+03
    -23.810  0.3109E+00  0.1180E+03
    -23.748  0.2510E+01  0.1182E+03
    -23.686  0.1031E+02  0.1188E+03
    -23.624  0.2268E+02  0.1202E+03
    -23.562  0.3067E+02  0.1221E+03
    -23.499  0.3675E+02  0.1244E+03
    -23.437  0.5452E+02  0.1278E+03
    -23.375  0.7804E+02  0.1326E+03
    -23.313  0.8732E+02  0.1381E+03
    -23.251  0.7419E+02  0.1427E+03
    -23.189  0.5121E+02  0.1458E+03
    -23.127  0.3987E+02  0.1483E+03
    -23.065  0.3838E+02  0.1507E+03
    -23.003  0.3122E+02  0.1526E+03
    -22.941  0.1640E+02  0.1536E+03
    -22.879  0.4900E+01  0.1540E+03
    -22.817  0.1326E+01  0.1540E+03
    -22.755  0.3283E+01  0.1542E+03
    -22.693  0.9281E+01  0.1548E+03
    -22.631  0.1679E+02  0.1559E+03
    -22.569  0.2827E+02  0.1576E+03
    -22.507  0.4592E+02  0.1605E+03
    -22.444  0.5668E+02  0.1640E+03
    -22.382  0.5448E+02  0.1674E+03
    -22.320  0.4296E+02  0.1700E+03
    -22.258  0.2405E+02  0.1715E+03
    -22.196  0.1213E+02  0.1723E+03
    -22.134  0.1841E+02  0.1734E+03
    -22.072  0.3264E+02  0.1754E+03
    -22.010  0.4014E+02  0.1779E+03
    -21.948  0.4900E+02  0.1810E+03
    -21.886  0.5945E+02  0.1847E+03
    -21.824  0.5040E+02  0.1878E+03
    -21.762  0.2613E+02  0.1894E+03
    -21.700  0.7992E+01  0.1899E+03
    -21.638  0.1376E+01  0.1900E+03
    -21.576  0.1262E+00  0.1900E+03
    -21.514  0.5878E-02  0.1900E+03
    -21.451  0.1350E-03  0.1900E+03
    -21.389  0.1499E-05  0.1900E+03
    -21.327  0.7947E-08  0.1900E+03
    -21.265  0.1996E-10  0.1900E+03
    -21.203  0.2206E-13  0.1900E+03
    -21.141  0.0000E+00  0.1900E+03
    -21.079  0.0000E+00  0.1900E+03
    -21.017  0.0000E+00  0.1900E+03
    -20.955  0.0000E+00  0.1900E+03
    -20.893  0.0000E+00  0.1900E+03
    -20.831  0.0000E+00  0.1900E+03
    -20.769  0.0000E+00  0.1900E+03
    -20.707  0.0000E+00  0.1900E+03
    -20.645  0.0000E+00  0.1900E+03
    -20.583  0.0000E+00  0.1900E+03
    -20.521  0.0000E+00  0.1900E+03
    -20.458  0.0000E+00  0.1900E+03
    -20.396  0.0000E+00  0.1900E+03
    -20.334  0.0000E+00  0.1900E+03
    -20.272  0.0000E+00  0.1900E+03
    -20.210  0.0000E+00  0.1900E+03
    -20.148  0.0000E+00  0.1900E+03
    -20.086  0.0000E+00  0.1900E+03
    -20.024  0.0000E+00  0.1900E+03
    -19.962  0.0000E+00  0.1900E+03
    -19.900  0.0000E+00  0.1900E+03
    -19.838  0.3730E-13  0.1900E+03
    -19.776  0.2972E-10  0.1900E+03
    -19.714  0.1110E-07  0.1900E+03
    -19.652  0.1958E-05  0.1900E+03
    -19.590  0.1640E-03  0.1900E+03
    -19.528  0.6572E-02  0.1900E+03
    -19.465  0.1277E+00  0.1900E+03
    -19.403  0.1226E+01  0.1901E+03
    -19.341  0.5983E+01  0.1905E+03
    -19.279  0.1556E+02  0.1914E+03
    -19.217  0.2407E+02  0.1929E+03
    -19.155  0.2830E+02  0.1947E+03
    -19.093  0.3192E+02  0.1967E+03
    -19.031  0.3486E+02  0.1988E+03
    -18.969  0.3869E+02  0.2012E+03
    -18.907  0.3967E+02  0.2037E+03
    -18.845  0.3190E+02  0.2057E+03
    -18.783  0.2259E+02  0.2071E+03
    -18.721  0.2092E+02  0.2084E+03
    -18.659  0.3250E+02  0.2104E+03
    -18.597  0.5461E+02  0.2138E+03
    -18.535  0.6944E+02  0.2181E+03
    -18.472  0.6283E+02  0.2220E+03
    -18.410  0.4060E+02  0.2245E+03
    -18.348  0.1820E+02  0.2256E+03
    -18.286  0.5204E+01  0.2259E+03
    -18.224  0.1295E+01  0.2260E+03
    -18.162  0.3141E+01  0.2262E+03
    -18.100  0.1111E+02  0.2269E+03
    -18.038  0.2323E+02  0.2284E+03
    -17.976  0.2887E+02  0.2301E+03
    -17.914  0.2049E+02  0.2314E+03
    -17.852  0.7771E+01  0.2319E+03
    -17.790  0.1495E+01  0.2320E+03
    -17.728  0.1416E+00  0.2320E+03
    -17.666  0.6486E-02  0.2320E+03
    -17.604  0.1423E-03  0.2320E+03
    -17.542  0.1484E-05  0.2320E+03
    -17.479  0.7326E-08  0.2320E+03
    -17.417  0.1703E-10  0.2320E+03
    -17.355  0.2147E-13  0.2320E+03
    -17.293  0.0000E+00  0.2320E+03
    -17.231  0.0000E+00  0.2320E+03
    -17.169  0.0000E+00  0.2320E+03
    -17.107  0.0000E+00  0.2320E+03
    -17.045  0.0000E+00  0.2320E+03
    -16.983  0.0000E+00  0.2320E+03
    -16.921  0.0000E+00  0.2320E+03
    -16.859  0.0000E+00  0.2320E+03
    -16.797  0.0000E+00  0.2320E+03
    -16.735  0.0000E+00  0.2320E+03
    -16.673  0.0000E+00  0.2320E+03
    -16.611  0.0000E+00  0.2320E+03
    -16.549  0.0000E+00  0.2320E+03
    -16.486  0.0000E+00  0.2320E+03
    -16.424  0.0000E+00  0.2320E+03
    -16.362  0.0000E+00  0.2320E+03
    -16.300  0.0000E+00  0.2320E+03
    -16.238  0.0000E+00  0.2320E+03
    -16.176  0.0000E+00  0.2320E+03
    -16.114  0.0000E+00  0.2320E+03
    -16.052  0.0000E+00  0.2320E+03
    -15.990  0.0000E+00  0.2320E+03
    -15.928  0.0000E+00  0.2320E+03
    -15.866  0.0000E+00  0.2320E+03
    -15.804  0.0000E+00  0.2320E+03
    -15.742  0.0000E+00  0.2320E+03
    -15.680  0.0000E+00  0.2320E+03
    -15.618  0.0000E+00  0.2320E+03
    -15.556  0.0000E+00  0.2320E+03
    -15.493  0.0000E+00  0.2320E+03
    -15.431  0.0000E+00  0.2320E+03
    -15.369  0.0000E+00  0.2320E+03
    -15.307  0.0000E+00  0.2320E+03
    -15.245  0.0000E+00  0.2320E+03
    -15.183  0.0000E+00  0.2320E+03
    -15.121  0.0000E+00  0.2320E+03
    -15.059  0.0000E+00  0.2320E+03
    -14.997  0.0000E+00  0.2320E+03
    -14.935  0.0000E+00  0.2320E+03
    -14.873  0.0000E+00  0.2320E+03
    -14.811  0.0000E+00  0.2320E+03
    -14.749  0.0000E+00  0.2320E+03
    -14.687  0.0000E+00  0.2320E+03
    -14.625  0.0000E+00  0.2320E+03
    -14.563  0.0000E+00  0.2320E+03
    -14.501  0.0000E+00  0.2320E+03
    -14.438  0.0000E+00  0.2320E+03
    -14.376  0.0000E+00  0.2320E+03
    -14.314  0.0000E+00  0.2320E+03
    -14.252  0.0000E+00  0.2320E+03
    -14.190  0.0000E+00  0.2320E+03
    -14.128  0.0000E+00  0.2320E+03
    -14.066  0.0000E+00  0.2320E+03
    -14.004  0.0000E+00  0.2320E+03
    -13.942  0.0000E+00  0.2320E+03
    -13.880  0.0000E+00  0.2320E+03
    -13.818  0.0000E+00  0.2320E+03
    -13.756  0.0000E+00  0.2320E+03
    -13.694  0.0000E+00  0.2320E+03
    -13.632  0.0000E+00  0.2320E+03
    -13.570  0.0000E+00  0.2320E+03
    -13.508  0.0000E+00  0.2320E+03
    -13.445  0.0000E+00  0.2320E+03
    -13.383  0.0000E+00  0.2320E+03
    -13.321  0.0000E+00  0.2320E+03
    -13.259  0.0000E+00  0.2320E+03
    -13.197  0.0000E+00  0.2320E+03
    -13.135  0.0000E+00  0.2320E+03
    -13.073  0.0000E+00  0.2320E+03
    -13.011  0.0000E+00  0.2320E+03
    -12.949  0.0000E+00  0.2320E+03
    -12.887  0.0000E+00  0.2320E+03
    -12.825  0.0000E+00  0.2320E+03
    -12.763  0.0000E+00  0.2320E+03
    -12.701  0.0000E+00  0.2320E+03
    -12.639  0.0000E+00  0.2320E+03
    -12.577  0.0000E+00  0.2320E+03
    -12.515  0.0000E+00  0.2320E+03
    -12.452  0.0000E+00  0.2320E+03
    -12.390  0.0000E+00  0.2320E+03
    -12.328  0.0000E+00  0.2320E+03
    -12.266  0.0000E+00  0.2320E+03
    -12.204  0.0000E+00  0.2320E+03
    -12.142  0.0000E+00  0.2320E+03
    -12.080  0.0000E+00  0.2320E+03
    -12.018  0.0000E+00  0.2320E+03
    -11.956  0.0000E+00  0.2320E+03
    -11.894  0.0000E+00  0.2320E+03
    -11.832  0.0000E+00  0.2320E+03
    -11.770  0.0000E+00  0.2320E+03
    -11.708  0.0000E+00  0.2320E+03
    -11.646  0.0000E+00  0.2320E+03
    -11.584  0.0000E+00  0.2320E+03
    -11.522  0.0000E+00  0.2320E+03
    -11.459  0.0000E+00  0.2320E+03
    -11.397  0.0000E+00  0.2320E+03
    -11.335  0.0000E+00  0.2320E+03
    -11.273  0.0000E+00  0.2320E+03
    -11.211  0.0000E+00  0.2320E+03
    -11.149  0.0000E+00  0.2320E+03
    -11.087  0.0000E+00  0.2320E+03
    -11.025  0.0000E+00  0.2320E+03
    -10.963  0.0000E+00  0.2320E+03
    -10.901  0.0000E+00  0.2320E+03
    -10.839  0.0000E+00  0.2320E+03
    -10.777  0.0000E+00  0.2320E+03
    -10.715  0.0000E+00  0.2320E+03
    -10.653  0.0000E+00  0.2320E+03
    -10.591  0.0000E+00  0.2320E+03
    -10.529  0.0000E+00  0.2320E+03
    -10.466  0.0000E+00  0.2320E+03
    -10.404  0.0000E+00  0.2320E+03
    -10.342  0.0000E+00  0.2320E+03
    -10.280  0.0000E+00  0.2320E+03
    -10.218  0.0000E+00  0.2320E+03
    -10.156  0.0000E+00  0.2320E+03
    -10.094  0.0000E+00  0.2320E+03
    -10.032  0.0000E+00  0.2320E+03
     -9.970  0.0000E+00  0.2320E+03
     -9.908  0.0000E+00  0.2320E+03
     -9.846  0.0000E+00  0.2320E+03
     -9.784  0.0000E+00  0.2320E+03
     -9.722  0.0000E+00  0.2320E+03
     -9.660  0.0000E+00  0.2320E+03
     -9.598  0.0000E+00  0.2320E+03
     -9.536  0.0000E+00  0.2320E+03
     -9.473  0.0000E+00  0.2320E+03
     -9.411  0.0000E+00  0.2320E+03
     -9.349  0.0000E+00  0.2320E+03
     -9.287  0.0000E+00  0.2320E+03
     -9.225  0.0000E+00  0.2320E+03
     -9.163  0.0000E+00  0.2320E+03
     -9.101  0.0000E+00  0.2320E+03
     -9.039  0.0000E+00  0.2320E+03
     -8.977  0.0000E+00  0.2320E+03
     -8.915  0.0000E+00  0.2320E+03
     -8.853  0.0000E+00  0.2320E+03
     -8.791  0.0000E+00  0.2320E+03
     -8.729  0.0000E+00  0.2320E+03
     -8.667  0.0000E+00  0.2320E+03
     -8.605  0.0000E+00  0.2320E+03
     -8.543  0.0000E+00  0.2320E+03
     -8.480  0.0000E+00  0.2320E+03
     -8.418  0.0000E+00  0.2320E+03
     -8.356  0.0000E+00  0.2320E+03
     -8.294  0.0000E+00  0.2320E+03
     -8.232  0.0000E+00  0.2320E+03
     -8.170  0.0000E+00  0.2320E+03
     -8.108  0.0000E+00  0.2320E+03
     -8.046  0.2874E-14  0.2320E+03
     -7.984  0.1980E-11  0.2320E+03
     -7.922  0.6612E-09  0.2320E+03
     -7.860  0.1079E-06  0.2320E+03
     -7.798  0.8727E-05  0.2320E+03
     -7.736  0.3566E-03  0.2320E+03
     -7.674  0.7519E-02  0.2320E+03
     -7.612  0.8400E-01  0.2320E+03
     -7.550  0.5139E+00  0.2320E+03
     -7.487  0.1807E+01  0.2321E+03
     -7.425  0.3934E+01  0.2324E+03
     -7.363  0.5840E+01  0.2328E+03
     -7.301  0.6461E+01  0.2332E+03
     -7.239  0.5676E+01  0.2335E+03
     -7.177  0.4166E+01  0.2338E+03
     -7.115  0.3109E+01  0.2340E+03
     -7.053  0.4127E+01  0.2342E+03
     -6.991  0.7498E+01  0.2347E+03
     -6.929  0.1079E+02  0.2354E+03
     -6.867  0.1284E+02  0.2361E+03
     -6.805  0.1513E+02  0.2371E+03
     -6.743  0.1792E+02  0.2382E+03
     -6.681  0.2131E+02  0.2395E+03
     -6.619  0.2524E+02  0.2411E+03
     -6.557  0.2712E+02  0.2428E+03
     -6.494  0.2722E+02  0.2445E+03
     -6.432  0.3121E+02  0.2464E+03
     -6.370  0.3925E+02  0.2488E+03
     -6.308  0.4288E+02  0.2515E+03
     -6.246  0.3584E+02  0.2537E+03
     -6.184  0.2264E+02  0.2551E+03
     -6.122  0.1104E+02  0.2558E+03
     -6.060  0.4791E+01  0.2561E+03
     -5.998  0.3358E+01  0.2563E+03
     -5.936  0.4272E+01  0.2566E+03
     -5.874  0.5817E+01  0.2569E+03
     -5.812  0.6560E+01  0.2573E+03
     -5.750  0.5521E+01  0.2577E+03
     -5.688  0.3314E+01  0.2579E+03
     -5.626  0.1310E+01  0.2580E+03
     -5.564  0.3082E+00  0.2580E+03
     -5.502  0.4011E-01  0.2580E+03
     -5.439  0.2759E-02  0.2580E+03
     -5.377  0.9736E-04  0.2580E+03
     -5.315  0.1724E-05  0.2580E+03
     -5.253  0.1504E-07  0.2580E+03
     -5.191  0.6369E-10  0.2580E+03
     -5.129  0.1292E-12  0.2580E+03
     -5.067  0.1491E-15  0.2580E+03
     -5.005  0.0000E+00  0.2580E+03
     -4.943  0.0000E+00  0.2580E+03
     -4.881  0.0000E+00  0.2580E+03
     -4.819  0.0000E+00  0.2580E+03
     -4.757  0.0000E+00  0.2580E+03
     -4.695  0.0000E+00  0.2580E+03
     -4.633  0.4729E-14  0.2580E+03
     -4.571  0.2986E-11  0.2580E+03
     -4.509  0.9153E-09  0.2580E+03
     -4.446  0.1377E-06  0.2580E+03
     -4.384  0.1031E-04  0.2580E+03
     -4.322  0.3911E-03  0.2580E+03
     -4.260  0.7679E-02  0.2580E+03
     -4.198  0.8041E-01  0.2580E+03
     -4.136  0.4697E+00  0.2580E+03
     -4.074  0.1635E+01  0.2581E+03
     -4.012  0.3687E+01  0.2584E+03
     -3.950  0.5823E+01  0.2587E+03
     -3.888  0.6786E+01  0.2591E+03
     -3.826  0.6013E+01  0.2595E+03
     -3.764  0.4157E+01  0.2598E+03
     -3.702  0.2298E+01  0.2599E+03
     -3.640  0.1246E+01  0.2600E+03
     -3.578  0.1948E+01  0.2601E+03
     -3.516  0.5303E+01  0.2604E+03
     -3.453  0.9283E+01  0.2610E+03
     -3.391  0.9331E+01  0.2616E+03
     -3.329  0.6471E+01  0.2620E+03
     -3.267  0.6371E+01  0.2624E+03
     -3.205  0.9331E+01  0.2630E+03
     -3.143  0.1149E+02  0.2637E+03
     -3.081  0.1274E+02  0.2645E+03
     -3.019  0.1441E+02  0.2654E+03
     -2.957  0.1563E+02  0.2663E+03
     -2.895  0.1720E+02  0.2674E+03
     -2.833  0.1942E+02  0.2686E+03
     -2.771  0.2109E+02  0.2699E+03
     -2.709  0.2273E+02  0.2713E+03
     -2.647  0.2467E+02  0.2729E+03
     -2.585  0.2579E+02  0.2745E+03
     -2.523  0.2582E+02  0.2761E+03
     -2.460  0.2542E+02  0.2777E+03
     -2.398  0.2506E+02  0.2792E+03
     -2.336  0.2465E+02  0.2807E+03
     -2.274  0.2383E+02  0.2822E+03
     -2.212  0.2267E+02  0.2836E+03
     -2.150  0.2210E+02  0.2850E+03
     -2.088  0.2272E+02  0.2864E+03
     -2.026  0.2361E+02  0.2879E+03
     -1.964  0.2330E+02  0.2893E+03
     -1.902  0.2121E+02  0.2906E+03
     -1.840  0.1764E+02  0.2917E+03
     -1.778  0.1459E+02  0.2926E+03
     -1.716  0.1323E+02  0.2935E+03
     -1.654  0.1203E+02  0.2942E+03
     -1.592  0.1009E+02  0.2948E+03
     -1.530  0.7767E+01  0.2953E+03
     -1.467  0.5355E+01  0.2956E+03
     -1.405  0.3217E+01  0.2958E+03
     -1.343  0.1652E+01  0.2959E+03
     -1.281  0.6749E+00  0.2960E+03
     -1.219  0.1963E+00  0.2960E+03
     -1.157  0.3713E-01  0.2960E+03
     -1.095  0.4258E-02  0.2960E+03
     -1.033  0.2771E-03  0.2960E+03
     -0.971  0.9619E-05  0.2960E+03
     -0.909  0.1697E-06  0.2960E+03
     -0.847  0.1471E-08  0.2960E+03
     -0.785  0.6136E-11  0.2960E+03
     -0.723  0.1219E-13  0.2960E+03
     -0.661  0.0000E+00  0.2960E+03
     -0.599  0.0000E+00  0.2960E+03
     -0.537  0.0000E+00  0.2960E+03
     -0.474  0.0000E+00  0.2960E+03
     -0.412  0.0000E+00  0.2960E+03
     -0.350  0.0000E+00  0.2960E+03
     -0.288  0.0000E+00  0.2960E+03
     -0.226  0.0000E+00  0.2960E+03
     -0.164  0.0000E+00  0.2960E+03
     -0.102  0.0000E+00  0.2960E+03
     -0.040  0.0000E+00  0.2960E+03
      0.022  0.0000E+00  0.2960E+03
      0.084  0.0000E+00  0.2960E+03
      0.146  0.0000E+00  0.2960E+03
      0.208  0.1656E-16  0.2960E+03
      0.270  0.1464E-13  0.2960E+03
      0.332  0.7171E-11  0.2960E+03
      0.394  0.1659E-08  0.2960E+03
      0.456  0.1826E-06  0.2960E+03
      0.519  0.9700E-05  0.2960E+03
      0.581  0.2549E-03  0.2960E+03
      0.643  0.3463E-02  0.2960E+03
      0.705  0.2632E-01  0.2960E+03
      0.767  0.1258E+00  0.2960E+03
      0.829  0.4241E+00  0.2960E+03
      0.891  0.1057E+01  0.2961E+03
      0.953  0.1968E+01  0.2962E+03
      1.015  0.2957E+01  0.2964E+03
      1.077  0.4120E+01  0.2967E+03
      1.139  0.5599E+01  0.2970E+03
      1.201  0.6814E+01  0.2974E+03