<?xml version="1.0" encoding="ISO-8859-1"?>
<modeling>
 <generator>
  <i name="program" type="string">vasp </i>
  <i name="version" type="string">6.4.3  </i>
  <i name="subversion" type="string">19Mar24 (build Sep 18 2024 11:30:23) complex                          parallel </i>
  <i name="platform" type="string">LinuxIFC </i>
  <i name="date" type="string">2026 07 08 </i>
  <i name="time" type="string">10:36:16 </i>
 </generator>
 <incar>
  <i type="string" name="SYSTEM">HECN</i>
  <i type="int" name="ISTART">     0</i>
  <i type="string" name="PREC">Normal</i>
  <i type="string" name="ALGO">Fast</i>
  <i type="int" name="ICHARG">     2</i>
  <i type="int" name="NELM">    60</i>
  <i type="int" name="IBRION">     2</i>
  <i name="EDIFF">      0.00001000</i>
  <i name="EDIFFG">     -0.01000000</i>
  <i type="int" name="NSW">   100</i>
  <i type="int" name="ISIF">     3</i>
  <i name="ENCUT">    400.00000000</i>
  <i name="POTIM">      0.50000000</i>
  <i type="logical" name="LREAL"> F  </i>
  <i type="int" name="ISMEAR">     0</i>
  <i name="SIGMA">      0.10000000</i>
  <i type="logical" name="LWAVE"> F  </i>
  <i type="logical" name="LCHARG"> F  </i>
 </incar>
 <primitive_cell>
  <structure name="primitive_cell" >
   <crystal>
    <varray name="basis" >
     <v>       8.86660383      -0.00607856       0.00144315 </v>
     <v>      -0.00606544       8.86400034      -0.00883999 </v>
     <v>       0.00145580      -0.00884304       8.81798385 </v>
    </varray>
    <i name="volume">    693.03587709 </i>
    <varray name="rec_basis" >
     <v>       0.11278281       0.00007716      -0.00001854 </v>
     <v>       0.00007732       0.11281605       0.00011312 </v>
     <v>      -0.00001838       0.00011308       0.11340472 </v>
    </varray>
   </crystal>
   <varray name="positions" >
    <v>       0.00031420       0.00402217       0.01041479 </v>
    <v>       0.24289953       0.00913938       0.24600816 </v>
    <v>       0.26311740       0.48594185       0.25203244 </v>
    <v>       0.50001364       0.49918879       0.99879337 </v>
    <v>       0.49928745       0.25690613       0.75485568 </v>
    <v>       0.01026893       0.49406473       0.49629615 </v>
    <v>       0.50097023       0.74355008       0.75218821 </v>
    <v>       0.00267142       0.24164162       0.25332810 </v>
    <v>       0.76193875       0.74798223       0.00308198 </v>
    <v>       0.00329485       0.26079781       0.74676587 </v>
    <v>       0.75650158       0.26515588       0.49229512 </v>
    <v>       0.99743204       0.73678383       0.74725872 </v>
    <v>       0.25665038       0.49775923       0.74984738 </v>
    <v>       0.26765292       0.26387390       0.98881454 </v>
    <v>       0.50690121       0.26069597       0.23929149 </v>
    <v>       0.76403084       0.99312314       0.23723458 </v>
    <v>       0.72437646       0.25081110       0.01946242 </v>
    <v>       0.23116244       0.72860832       0.00397193 </v>
    <v>       0.23476705       0.24886185       0.51531339 </v>
    <v>       0.25411073       0.24893181       0.24831475 </v>
    <v>       0.24472969       0.00973181       0.00833457 </v>
    <v>       0.99839021       0.24069049       0.00082085 </v>
    <v>       0.74453893       0.24227813       0.24632913 </v>
    <v>       0.75681723       0.00692430       0.00539241 </v>
    <v>       0.50289473       0.00931924       0.24836479 </v>
    <v>       0.99907907       0.49865667       0.25784044 </v>
    <v>       0.49904160       0.74627999       0.99263879 </v>
    <v>       0.99917282       0.00218984       0.75137922 </v>
    <v>       0.74487260       0.25315399       0.75214960 </v>
    <v>       0.75712972       0.00069342       0.49461187 </v>
    <v>       0.49810019       0.25735298       0.49993646 </v>
    <v>       0.50223426       0.00448398       0.75033172 </v>
    <v>       0.00089206       0.99972818       0.24582194 </v>
    <v>       0.49635189       0.25857906       0.00084567 </v>
    <v>       0.24167177       0.74783220       0.23872619 </v>
    <v>       0.25550309       0.49963032       0.00482929 </v>
    <v>       0.00660199       0.75383870       0.00296736 </v>
    <v>       0.75482567       0.74723484       0.25511512 </v>
    <v>       0.74136545       0.49056243       0.00010714 </v>
    <v>       0.49569791       0.49253645       0.24730494 </v>
    <v>       0.25455933       0.25243233       0.75131739 </v>
    <v>       0.24465148       0.00964924       0.49367130 </v>
    <v>       0.00393847       0.25365274       0.50088238 </v>
    <v>       0.25341190       0.74615406       0.76266573 </v>
    <v>       0.25288104       0.48747337       0.49536444 </v>
    <v>       0.99247024       0.75434452       0.49749043 </v>
    <v>       0.99738758       0.49845484       0.74354884 </v>
    <v>       0.74427787       0.74555379       0.74968459 </v>
    <v>       0.75674491       0.50052289       0.49672412 </v>
    <v>       0.50505694       0.74672031       0.50639274 </v>
    <v>       0.50345765       0.49997135       0.74991526 </v>
    <v>       0.49777978       0.00282390       0.00397507 </v>
    <v>       0.99870570       0.49298983       0.00593224 </v>
    <v>       0.49673917       0.74792300       0.24537586 </v>
    <v>       0.24617055       0.00014835       0.75752425 </v>
    <v>       0.49875649       0.00883224       0.49434805 </v>
    <v>       0.75335381       0.00010920       0.75183263 </v>
    <v>       0.24988802       0.74841479       0.49822275 </v>
    <v>       0.00097520       0.76541265       0.25252308 </v>
    <v>       0.73022907       0.49422272       0.24163738 </v>
    <v>       0.00898022       0.01105988       0.48381399 </v>
    <v>       0.50120636       0.50121018       0.49869590 </v>
    <v>       0.74356560       0.50380673       0.75836480 </v>
    <v>       0.74654041       0.72858091       0.50068089 </v>
   </varray>
  </structure>
  <varray name="primitive_index" >
   <v type="int" >        1 </v>
   <v type="int" >        2 </v>
   <v type="int" >        3 </v>
   <v type="int" >        4 </v>
   <v type="int" >        5 </v>
   <v type="int" >        6 </v>
   <v type="int" >        7 </v>
   <v type="int" >        8 </v>
   <v type="int" >        9 </v>
   <v type="int" >       10 </v>
   <v type="int" >       11 </v>
   <v type="int" >       12 </v>
   <v type="int" >       13 </v>
   <v type="int" >       14 </v>
   <v type="int" >       15 </v>
   <v type="int" >       16 </v>
   <v type="int" >       17 </v>
   <v type="int" >       18 </v>
   <v type="int" >       19 </v>
   <v type="int" >       20 </v>
   <v type="int" >       21 </v>
   <v type="int" >       22 </v>
   <v type="int" >       23 </v>
   <v type="int" >       24 </v>
   <v type="int" >       25 </v>
   <v type="int" >       26 </v>
   <v type="int" >       27 </v>
   <v type="int" >       28 </v>
   <v type="int" >       29 </v>
   <v type="int" >       30 </v>
   <v type="int" >       31 </v>
   <v type="int" >       32 </v>
   <v type="int" >       33 </v>
   <v type="int" >       34 </v>
   <v type="int" >       35 </v>
   <v type="int" >       36 </v>
   <v type="int" >       37 </v>
   <v type="int" >       38 </v>
   <v type="int" >       39 </v>
   <v type="int" >       40 </v>
   <v type="int" >       41 </v>
   <v type="int" >       42 </v>
   <v type="int" >       43 </v>
   <v type="int" >       44 </v>
   <v type="int" >       45 </v>
   <v type="int" >       46 </v>
   <v type="int" >       47 </v>
   <v type="int" >       48 </v>
   <v type="int" >       49 </v>
   <v type="int" >       50 </v>
   <v type="int" >       51 </v>
   <v type="int" >       52 </v>
   <v type="int" >       53 </v>
   <v type="int" >       54 </v>
   <v type="int" >       55 </v>
   <v type="int" >       56 </v>
   <v type="int" >       57 </v>
   <v type="int" >       58 </v>
   <v type="int" >       59 </v>
   <v type="int" >       60 </v>
   <v type="int" >       61 </v>
   <v type="int" >       62 </v>
   <v type="int" >       63 </v>
   <v type="int" >       64 </v>
  </varray>
 </primitive_cell>
 <kpoints>
  <generation param="Gamma">
   <v type="int" name="divisions">       3        3        3 </v>
   <v name="usershift">      0.00000000       0.00000000       0.00000000 </v>
   <v name="genvec1">      0.33333333      -0.00000000      -0.00000000 </v>
   <v name="genvec2">      0.00000000       0.33333333       0.00000000 </v>
   <v name="genvec3">      0.00000000       0.00000000       0.33333333 </v>
   <v name="shift">      0.00000000       0.00000000       0.00000000 </v>
  </generation>
  <varray name="kpointlist" >
   <v>       0.00000000       0.00000000       0.00000000 </v>
   <v>       0.33333333      -0.00000000       0.00000000 </v>
   <v>       0.00000000       0.33333333      -0.00000000 </v>
   <v>       0.33333333       0.33333333      -0.00000000 </v>
   <v>      -0.33333333       0.33333333      -0.00000000 </v>
   <v>      -0.00000000      -0.00000000       0.33333333 </v>
   <v>       0.33333333      -0.00000000       0.33333333 </v>
   <v>      -0.33333333      -0.00000000       0.33333333 </v>
   <v>       0.00000000       0.33333333       0.33333333 </v>
   <v>       0.33333333       0.33333333       0.33333333 </v>
   <v>      -0.33333333       0.33333333       0.33333333 </v>
   <v>      -0.00000000      -0.33333333       0.33333333 </v>
   <v>       0.33333333      -0.33333333       0.33333333 </v>
   <v>      -0.33333333      -0.33333333       0.33333333 </v>
  </varray>
  <varray name="weights" >
   <v>       0.03703704 </v>
   <v>       0.07407407 </v>
   <v>       0.07407407 </v>
   <v>       0.07407407 </v>
   <v>       0.07407407 </v>
   <v>       0.07407407 </v>
   <v>       0.07407407 </v>
   <v>       0.07407407 </v>
   <v>       0.07407407 </v>
   <v>       0.07407407 </v>
   <v>       0.07407407 </v>
   <v>       0.07407407 </v>
   <v>       0.07407407 </v>
   <v>       0.07407407 </v>
  </varray>
 </kpoints>
 <parameters>
  <separator name="general" >
   <i type="string" name="SYSTEM">HECN</i>
   <i type="logical" name="LCOMPAT"> F  </i>
  </separator>
  <separator name="electronic" >
   <i type="string" name="PREC">normal</i>
   <i name="ENMAX">    400.00000000</i>
   <i name="ENAUG">    644.87300000</i>
   <i name="EDIFF">      0.00001000</i>
   <i type="int" name="IALGO">    68</i>
   <i type="int" name="IWAVPR">    11</i>
   <i type="int" name="NBANDS">   280</i>
   <i type="int" name="NBANDSLOW">    -1</i>
   <i type="int" name="NBANDSHIGH">    -1</i>
   <i name="NELECT">    443.00000000</i>
   <i type="int" name="TURBO">     0</i>
   <i type="int" name="IRESTART">     0</i>
   <i type="int" name="NREBOOT">     0</i>
   <i type="int" name="NMIN">     0</i>
   <i name="EREF">      0.00000000</i>
   <separator name="electronic smearing" >
    <i type="int" name="ISMEAR">     0</i>
    <i name="SIGMA">      0.10000000</i>
    <i name="KSPACING">      0.50000000</i>
    <i type="logical" name="KGAMMA"> T  </i>
    <i type="logical" name="KBLOWUP"> T  </i>
   </separator>
   <separator name="electronic projectors" >
    <i type="logical" name="LREAL"> F  </i>
    <v name="ROPT">      0.00000000      0.00000000      0.00000000      0.00000000      0.00000000      0.00000000      0.00000000</v>
    <i type="int" name="LMAXPAW">  -100</i>
    <i type="int" name="LMAXMIX">     2</i>
    <i type="logical" name="NLSPLINE"> F  </i>
   </separator>
   <separator name="electronic startup" >
    <i type="int" name="ISTART">     0</i>
    <i type="int" name="ICHARG">     2</i>
    <i type="int" name="INIWAV">     1</i>
   </separator>
   <separator name="electronic spin" >
    <i type="int" name="ISPIN">     1</i>
    <i type="logical" name="LNONCOLLINEAR"> F  </i>
    <v name="MAGMOM">      1.00000000      1.00000000      1.00000000      1.00000000      1.00000000      1.00000000      1.00000000      1.00000000      1.00000000      1.00000000      1.00000000      1.00000000      1.00000000      1.00000000      1.00000000      1.00000000      1.00000000      1.00000000      1.00000000      1.00000000
      1.00000000      1.00000000      1.00000000      1.00000000      1.00000000      1.00000000      1.00000000      1.00000000      1.00000000      1.00000000      1.00000000      1.00000000      1.00000000      1.00000000      1.00000000      1.00000000      1.00000000      1.00000000      1.00000000      1.00000000
      1.00000000      1.00000000      1.00000000      1.00000000      1.00000000      1.00000000      1.00000000      1.00000000      1.00000000      1.00000000      1.00000000      1.00000000      1.00000000      1.00000000      1.00000000      1.00000000      1.00000000      1.00000000      1.00000000      1.00000000
      1.00000000      1.00000000      1.00000000      1.00000000</v>
    <i name="NUPDOWN">     -1.00000000</i>
    <i type="logical" name="LSORBIT"> F  </i>
    <v name="SAXIS">      0.00000000      0.00000000      1.00000000</v>
    <i type="logical" name="LSPIRAL"> F  </i>
    <v name="QSPIRAL">      0.00000000      0.00000000      0.00000000</v>
    <i type="logical" name="LZEROZ"> F  </i>
   </separator>
   <separator name="electronic exchange-correlation" >
    <i type="logical" name="LASPH"> F  </i>
   </separator>
   <separator name="electronic convergence" >
    <i type="int" name="NELM">    60</i>
    <i type="int" name="NELMDL">    -5</i>
    <i type="int" name="NELMIN">     2</i>
    <i name="ENINI">    400.00000000</i>
    <separator name="electronic convergence detail" >
     <i type="logical" name="LDIAG"> T  </i>
     <i type="logical" name="LSUBROT"> F  </i>
     <i name="WEIMIN">      0.00100000</i>
     <i name="EBREAK">      0.00000001</i>
     <i name="DEPER">      0.30000000</i>
     <i type="int" name="NRMM">     4</i>
     <i name="TIME">      0.40000000</i>
    </separator>
   </separator>
   <separator name="electronic mixer" >
    <i name="AMIX">      0.40000000</i>
    <i name="BMIX">      1.00000000</i>
    <i name="AMIN">      0.10000000</i>
    <i name="AMIX_MAG">      1.60000000</i>
    <i name="BMIX_MAG">      1.00000000</i>
    <separator name="electronic mixer details" >
     <i type="int" name="IMIX">     4</i>
     <i type="logical" name="MIXFIRST"> F  </i>
     <i type="int" name="MAXMIX">   -45</i>
     <i name="WC">    100.00000000</i>
     <i type="int" name="INIMIX">     1</i>
     <i type="int" name="MIXPRE">     1</i>
     <i type="int" name="MREMOVE">     5</i>
    </separator>
   </separator>
   <separator name="electronic dipolcorrection" >
    <i type="logical" name="LDIPOL"> F  </i>
    <i type="logical" name="LMONO"> F  </i>
    <i type="int" name="IDIPOL">     0</i>
    <i name="EPSILON">      1.00000000</i>
    <v name="DIPOL">   -100.00000000   -100.00000000   -100.00000000</v>
    <i name="EFIELD">      0.00000000</i>
    <i type="logical" name="LVACPOTAV"> F  </i>
   </separator>
  </separator>
  <separator name="grids" >
   <i type="int" name="NGX">    48</i>
   <i type="int" name="NGY">    48</i>
   <i type="int" name="NGZ">    48</i>
   <i type="int" name="NGXF">    96</i>
   <i type="int" name="NGYF">    96</i>
   <i type="int" name="NGZF">    96</i>
   <i type="logical" name="ADDGRID"> F  </i>
  </separator>
  <separator name="ionic" >
   <i type="int" name="NSW">   100</i>
   <i type="int" name="IBRION">     2</i>
   <i type="int" name="MDALGO">     0</i>
   <i type="int" name="ISIF">     3</i>
   <i name="PSTRESS">      0.00000000</i>
   <i name="EDIFFG">     -0.01000000</i>
   <i type="int" name="NFREE">     1</i>
   <i name="POTIM">      0.50000000</i>
   <i name="SMASS">     -3.00000000</i>
   <i name="SCALEE">      1.00000000</i>
  </separator>
  <separator name="ionic md" >
   <i name="TEBEG">      0.00010000</i>
   <i name="TEEND">      0.00010000</i>
   <i type="int" name="NBLOCK">     1</i>
   <i type="int" name="KBLOCK">   100</i>
   <i type="int" name="NPACO">   256</i>
   <i name="APACO">     10.00000000</i>
  </separator>
  <separator name="symmetry" >
   <i type="int" name="ISYM">     2</i>
   <i name="SYMPREC">      0.00001000</i>
  </separator>
  <separator name="dos" >
   <i type="int" name="LORBIT">     0</i>
   <v name="RWIGS">     -1.00000000     -1.00000000     -1.00000000     -1.00000000     -1.00000000     -1.00000000     -1.00000000</v>
   <i type="int" name="NEDOS">   301</i>
   <i name="EMIN">     10.00000000</i>
   <i name="EMAX">    -10.00000000</i>
   <i name="EFERMI">      0.00000000</i>
  </separator>
  <separator name="writing" >
   <i type="int" name="NWRITE">     2</i>
   <i type="logical" name="LWAVE"> F  </i>
   <i type="logical" name="LDOWNSAMPLE"> F  </i>
   <i type="logical" name="LCHARG"> F  </i>
   <i type="logical" name="LPARD"> F  </i>
   <i type="logical" name="LVTOT"> F  </i>
   <i type="logical" name="LVHAR"> F  </i>
   <i type="logical" name="LELF"> F  </i>
   <i type="logical" name="LOPTICS"> F  </i>
   <v name="STM">      0.00000000      0.00000000      0.00000000      0.00000000      0.00000000      0.00000000      0.00000000</v>
  </separator>
  <separator name="performance" >
   <i type="int" name="NPAR">    28</i>
   <i type="int" name="NSIM">     4</i>
   <i type="int" name="NBLK">    -1</i>
   <i type="logical" name="LPLANE"> T  </i>
   <i type="logical" name="LSCALAPACK"> T  </i>
   <i type="logical" name="LSCAAWARE"> F  </i>
   <i type="logical" name="LSCALU"> F  </i>
   <i type="logical" name="LASYNC"> F  </i>
   <i type="logical" name="LORBITALREAL"> F  </i>
  </separator>
  <separator name="miscellaneous" >
   <i type="int" name="IDIOT">     3</i>
   <i type="int" name="PHON_NSTRUCT">    -1</i>
   <i type="logical" name="LMUSIC"> F  </i>
   <v name="POMASS">     47.88000000     92.00000000     50.94100000     14.00100000     12.01100000     91.22400000    183.85000000</v>
   <v name="DARWINR">      0.00000000      0.00000000      0.00000000      0.00000000      0.00000000      0.00000000      0.00000000</v>
   <v name="DARWINV">      1.00000000      1.00000000      1.00000000      1.00000000      1.00000000      1.00000000      1.00000000</v>
   <i type="logical" name="LCORR"> T  </i>
  </separator>
  <i type="logical" name="GGA_COMPAT"> T  </i>
  <i type="logical" name="LBERRY"> F  </i>
  <i type="int" name="ICORELEVEL">     0</i>
  <i type="logical" name="LDAU"> F  </i>
  <i type="int" name="I_CONSTRAINED_M">     0</i>
  <separator name="electronic exchange-correlation" >
   <i type="string" name="GGA    ">PE</i>
   <i type="string" name="XC_C">1</i>
   <i type="int" name="VOSKOWN">     0</i>
   <i type="logical" name="LHFCALC"> F  </i>
   <i type="string" name="PRECFOCK"></i>
   <i type="logical" name="LSYMGRAD"> F  </i>
   <i type="logical" name="LHFONE"> F  </i>
   <i type="logical" name="LRHFCALC"> F  </i>
   <i type="logical" name="LTHOMAS"> F  </i>
   <i type="logical" name="LMODELHF"> F  </i>
   <i type="logical" name="LFOCKACE"> F  </i>
   <i name="ENCUT4O">     -1.00000000</i>
   <i type="int" name="EXXOEP">     0</i>
   <i type="int" name="FOURORBIT">     0</i>
   <i name="AEXX">      0.00000000</i>
   <i name="HFALPHA">      0.00000000</i>
   <i name="MCALPHA">      0.00000000</i>
   <i name="ALDAX">      1.00000000</i>
   <i name="AGGAX">      1.00000000</i>
   <i name="AMGGAX">      1.00000000</i>
   <i name="ALDAC">      1.00000000</i>
   <i name="AGGAC">      1.00000000</i>
   <i name="AMGGAC">      1.00000000</i>
   <i type="int" name="NKREDX">     1</i>
   <i type="int" name="NKREDY">     1</i>
   <i type="int" name="NKREDZ">     1</i>
   <i type="logical" name="SHIFTRED"> F  </i>
   <i type="logical" name="ODDONLY"> F  </i>
   <i type="logical" name="EVENONLY"> F  </i>
   <i type="int" name="LMAXFOCK">     0</i>
   <i type="int" name="NMAXFOCKAE">     0</i>
   <i type="logical" name="LFOCKAEDFT"> F  </i>
   <i name="HFSCREEN">      0.00000000</i>
   <i name="HFSCREENC">      0.00000000</i>
   <i type="int" name="NBANDSGWLOW">     0</i>
  </separator>
  <separator name="vdW DFT" >
   <i type="logical" name="LUSE_VDW"> F  </i>
   <i type="int" name="IVDW_NL">    -1</i>
   <i type="logical" name="LSPIN_VDW"> F  </i>
   <i name="ZAB_VDW">     -0.84910000</i>
   <i name="GAMMA_VDW">      1.39626340</i>
   <i name="ALPHA_VDW">      0.00000000</i>
   <i name="PARAM1">      0.12340000</i>
   <i name="PARAM2">      1.00000000</i>
   <i name="BPARAM">      6.30000000</i>
   <i name="CPARAM">      0.00930000</i>
  </separator>
  <separator name="model GW" >
   <i type="int" name="MODEL_GW">     0</i>
   <i name="MODEL_EPS0">      6.49721135</i>
   <i name="MODEL_ALPHA">      1.00000000</i>
  </separator>
  <separator name="linear response parameters" >
   <i type="logical" name="LEPSILON"> F  </i>
   <i type="logical" name="LRPA"> F  </i>
   <i type="logical" name="LNABLA"> F  </i>
   <i type="logical" name="LVEL"> F  </i>
   <i name="CSHIFT">      0.10000000</i>
   <i name="OMEGAMAX">     -1.00000000</i>
   <i name="DEG_THRESHOLD">      0.00200000</i>
   <i name="RTIME">     -0.10000000</i>
   <i name="WPLASMAI">      0.00000000</i>
   <v name="DFIELD">      0.00000000      0.00000000      0.00000000</v>
   <v name="WPLASMA">      0.00000000      0.00000000      0.00000000      0.00000000      0.00000000      0.00000000      0.00000000      0.00000000      0.00000000</v>
  </separator>
  <separator name="orbital magnetization" >
   <i type="logical" name="NUCIND"> F  </i>
   <v name="MAGPOS">      0.00000000      0.00000000      0.00000000</v>
   <i type="logical" name="LNICSALL"> T  </i>
   <i type="logical" name="ORBITALMAG"> F  </i>
   <i type="logical" name="LMAGBLOCH"> F  </i>
   <i type="logical" name="LCHIMAG"> F  </i>
   <i type="logical" name="LGAUGE"> T  </i>
   <i type="int" name="MAGATOM">     0</i>
   <v name="MAGDIPOL">      0.00000000      0.00000000      0.00000000</v>
   <v name="AVECCONST">      0.00000000      0.00000000      0.00000000</v>
  </separator>
  <separator name="response functions" >
   <i type="logical" name="LALL_IN_ONE"> F  </i>
   <i type="int" name="IALL_IN_ONE">    -1</i>
   <i type="int" name="NBANDS_WAVE">    -1</i>
   <i type="logical" name="LFINITE_TEMPERATURE"> F  </i>
   <i type="logical" name="LADDER"> F  </i>
   <i type="logical" name="LRPAFORCE"> F  </i>
   <i type="logical" name="LFXC"> F  </i>
   <i type="logical" name="LHARTREE"> T  </i>
   <i type="int" name="IBSE">     0</i>
   <v type="int" name="KPOINT">    -1     0     0     0</v>
   <i type="logical" name="LTCTC"> F  </i>
   <i type="logical" name="LTCTE"> F  </i>
   <i type="logical" name="LTETE"> F  </i>
   <i type="logical" name="LTRIPLET"> F  </i>
   <i type="logical" name="LFXCEPS"> F  </i>
   <i type="logical" name="LFXHEG"> F  </i>
   <i type="int" name="NATURALO">     2</i>
   <i type="logical" name="LHOLEGF"> F  </i>
   <i type="logical" name="L2ORDER"> F  </i>
   <i type="logical" name="LDMP1"> F  </i>
   <i type="logical" name="LMP2LT"> F  </i>
   <i type="logical" name="LSMP2LT"> F  </i>
   <i type="logical" name="LGWLF"> F  </i>
   <i name="ENCUTGW">     -1.60000002</i>
   <i name="ENCUTGWSOFT">     -1.60000002</i>
   <i name="ENCUTLF">     -1.00000000</i>
   <i type="logical" name="ESF_SPLINES"> F  </i>
   <i name="ESF_CONV">      0.01000000</i>
   <i type="int" name="ESF_NINTER">    15</i>
   <i type="int" name="LMAXMP2">    -1</i>
   <i name="SCISSOR">      0.00000000</i>
   <i type="int" name="NOMEGA">     0</i>
   <i type="int" name="NOMEGAR">     0</i>
   <i type="int" name="NBANDSGW">    -1</i>
   <i type="int" name="NBANDSO">    -1</i>
   <i type="int" name="NBANDSV">    -1</i>
   <i type="int" name="NELMGW">     1</i>
   <i type="int" name="NELMHF">     1</i>
   <i type="int" name="DIM">     3</i>
   <i type="int" name="IESPILON">     4</i>
   <i type="int" name="ANTIRES">     0</i>
   <i name="OMEGAMAX">    -30.00000000</i>
   <i name="OMEGAMIN">    -30.00000000</i>
   <i name="OMEGATL">   -200.00000000</i>
   <i type="int" name="OMEGAGRID">     0</i>
   <i name="CSHIFT">     -0.10000000</i>
   <i type="logical" name="LSELFENERGY"> F  </i>
   <i type="logical" name="LSPECTRAL"> F  </i>
   <i type="logical" name="LSPECTRALGW"> F  </i>
   <i type="logical" name="LSINGLES"> F  </i>
   <i type="logical" name="LFERMIGW"> F  </i>
   <i type="logical" name="ODDONLYGW"> F  </i>
   <i type="logical" name="EVENONLYGW"> F  </i>
   <i type="int" name="NKREDLFX">     1</i>
   <i type="int" name="NKREDLFY">     1</i>
   <i type="int" name="NKREDLFZ">     1</i>
   <i type="int" name="MAXMEM">  2800</i>
   <i type="int" name="TELESCOPE">     0</i>
   <i type="int" name="NTAUPAR">    -1</i>
   <i type="int" name="NOMEGAPAR">    -1</i>
   <i name="DAMP_NEWTON">      0.80000001</i>
   <i name="LAMBDA">      1.00000000</i>
  </separator>
  <separator name="External order field" >
   <i name="OFIELD_KAPPA">      0.00000000</i>
   <v name="OFIELD_K">      0.00000000      0.00000000      0.00000000</v>
   <i name="OFIELD_Q6_NEAR">      0.00000000</i>
   <i name="OFIELD_Q6_FAR">      0.00000000</i>
   <i name="OFIELD_A">      0.00000000</i>
  </separator>
  <separator name="optional k-points parameters" >
   <i type="int" name="KPOINTS_OPT_MODE">     1</i>
   <i type="logical" name="LKPOINTS_OPT"> F  </i>
  </separator>
  <separator name="solvation model" >
   <i type="logical" name="LSOL"> F  </i>
  </separator>
 </parameters>
 <atominfo>
  <atoms>      64 </atoms>
  <types>       7 </types>
  <array name="atoms" >
   <dimension dim="1">ion</dimension>
   <field type="string">element</field>
   <field type="int">atomtype</field>
   <set>
    <rc><c>Ti</c><c>   1</c></rc>
    <rc><c>Ti</c><c>   1</c></rc>
    <rc><c>Ti</c><c>   1</c></rc>
    <rc><c>Ti</c><c>   1</c></rc>
    <rc><c>Ti</c><c>   1</c></rc>
    <rc><c>Ti</c><c>   1</c></rc>
    <rc><c>Ti</c><c>   1</c></rc>
    <rc><c>Nb</c><c>   2</c></rc>
    <rc><c>Nb</c><c>   2</c></rc>
    <rc><c>Nb</c><c>   2</c></rc>
    <rc><c>Nb</c><c>   2</c></rc>
    <rc><c>Nb</c><c>   2</c></rc>
    <rc><c>Nb</c><c>   2</c></rc>
    <rc><c>V </c><c>   3</c></rc>
    <rc><c>V </c><c>   3</c></rc>
    <rc><c>V </c><c>   3</c></rc>
    <rc><c>V </c><c>   3</c></rc>
    <rc><c>V </c><c>   3</c></rc>
    <rc><c>V </c><c>   3</c></rc>
    <rc><c>N </c><c>   4</c></rc>
    <rc><c>N </c><c>   4</c></rc>
    <rc><c>N </c><c>   4</c></rc>
    <rc><c>N </c><c>   4</c></rc>
    <rc><c>N </c><c>   4</c></rc>
    <rc><c>N </c><c>   4</c></rc>
    <rc><c>N </c><c>   4</c></rc>
    <rc><c>N </c><c>   4</c></rc>
    <rc><c>N </c><c>   4</c></rc>
    <rc><c>N </c><c>   4</c></rc>
    <rc><c>N </c><c>   4</c></rc>
    <rc><c>N </c><c>   4</c></rc>
    <rc><c>N </c><c>   4</c></rc>
    <rc><c>C </c><c>   5</c></rc>
    <rc><c>C </c><c>   5</c></rc>
    <rc><c>C </c><c>   5</c></rc>
    <rc><c>C </c><c>   5</c></rc>
    <rc><c>C </c><c>   5</c></rc>
    <rc><c>C </c><c>   5</c></rc>
    <rc><c>C </c><c>   5</c></rc>
    <rc><c>C </c><c>   5</c></rc>
    <rc><c>C </c><c>   5</c></rc>
    <rc><c>C </c><c>   5</c></rc>
    <rc><c>C </c><c>   5</c></rc>
    <rc><c>C </c><c>   5</c></rc>
    <rc><c>C </c><c>   5</c></rc>
    <rc><c>C </c><c>   5</c></rc>
    <rc><c>C </c><c>   5</c></rc>
    <rc><c>C </c><c>   5</c></rc>
    <rc><c>C </c><c>   5</c></rc>
    <rc><c>C </c><c>   5</c></rc>
    <rc><c>C </c><c>   5</c></rc>
    <rc><c>Zr</c><c>   6</c></rc>
    <rc><c>Zr</c><c>   6</c></rc>
    <rc><c>Zr</c><c>   6</c></rc>
    <rc><c>Zr</c><c>   6</c></rc>
    <rc><c>Zr</c><c>   6</c></rc>
    <rc><c>Zr</c><c>   6</c></rc>
    <rc><c>Zr</c><c>   6</c></rc>
    <rc><c>W </c><c>   7</c></rc>
    <rc><c>W </c><c>   7</c></rc>
    <rc><c>W </c><c>   7</c></rc>
    <rc><c>W </c><c>   7</c></rc>
    <rc><c>W </c><c>   7</c></rc>
    <rc><c>W </c><c>   7</c></rc>
   </set>
  </array>
  <array name="atomtypes" >
   <dimension dim="1">type</dimension>
   <field type="int">atomspertype</field>
   <field type="string">element</field>
   <field>mass</field>
   <field>valence</field>
   <field type="string">pseudopotential</field>
   <set>
    <rc><c>   7</c><c>Ti</c><c>     47.88000000</c><c>     10.00000000</c><c> PAW_PBE Ti_pv 07Sep2000                </c></rc>
    <rc><c>   6</c><c>Nb</c><c>     92.00000000</c><c>     11.00000000</c><c> PAW_PBE Nb_pv 08Apr2002                </c></rc>
    <rc><c>   6</c><c>V </c><c>     50.94100000</c><c>     11.00000000</c><c> PAW_PBE V_pv 07Sep2000                 </c></rc>
    <rc><c>  13</c><c>N </c><c>     14.00100000</c><c>      5.00000000</c><c> PAW_PBE N 08Apr2002                    </c></rc>
    <rc><c>  19</c><c>C </c><c>     12.01100000</c><c>      4.00000000</c><c> PAW_PBE C 08Apr2002                    </c></rc>
    <rc><c>   7</c><c>Zr</c><c>     91.22400000</c><c>      4.00000000</c><c> PAW_PBE Zr 08Apr2002                   </c></rc>
    <rc><c>   6</c><c>W </c><c>    183.85000000</c><c>     12.00000000</c><c> PAW_PBE W_pv 06Sep2000                 </c></rc>
   </set>
  </array>
 </atominfo>
 <structure name="initialpos" >
  <crystal>
   <varray name="basis" >
    <v>       8.86660383      -0.00607856       0.00144315 </v>
    <v>      -0.00606544       8.86400034      -0.00883999 </v>
    <v>       0.00145580      -0.00884304       8.81798385 </v>
   </varray>
   <i name="volume">    693.03587709 </i>
   <varray name="rec_basis" >
    <v>       0.11278281       0.00007716      -0.00001854 </v>
    <v>       0.00007732       0.11281605       0.00011312 </v>
    <v>      -0.00001838       0.00011308       0.11340472 </v>
   </varray>
  </crystal>
  <varray name="positions" >
   <v>       0.00031420       0.00402217       0.01041479 </v>
   <v>       0.24289953       0.00913938       0.24600816 </v>
   <v>       0.26311740       0.48594185       0.25203244 </v>
   <v>       0.50001364       0.49918879       0.99879337 </v>
   <v>       0.49928745       0.25690613       0.75485568 </v>
   <v>       0.01026893       0.49406473       0.49629615 </v>
   <v>       0.50097023       0.74355008       0.75218821 </v>
   <v>       0.00267142       0.24164162       0.25332810 </v>
   <v>       0.76193875       0.74798223       0.00308198 </v>
   <v>       0.00329485       0.26079781       0.74676587 </v>
   <v>       0.75650158       0.26515588       0.49229512 </v>
   <v>       0.99743204       0.73678383       0.74725872 </v>
   <v>       0.25665038       0.49775923       0.74984738 </v>
   <v>       0.26765292       0.26387390       0.98881454 </v>
   <v>       0.50690121       0.26069597       0.23929149 </v>
   <v>       0.76403084       0.99312314       0.23723458 </v>
   <v>       0.72437646       0.25081110       0.01946242 </v>
   <v>       0.23116244       0.72860832       0.00397193 </v>
   <v>       0.23476705       0.24886185       0.51531339 </v>
   <v>       0.25411073       0.24893181       0.24831475 </v>
   <v>       0.24472969       0.00973181       0.00833457 </v>
   <v>       0.99839021       0.24069049       0.00082085 </v>
   <v>       0.74453893       0.24227813       0.24632913 </v>
   <v>       0.75681723       0.00692430       0.00539241 </v>
   <v>       0.50289473       0.00931924       0.24836479 </v>
   <v>       0.99907907       0.49865667       0.25784044 </v>
   <v>       0.49904160       0.74627999       0.99263879 </v>
   <v>       0.99917282       0.00218984       0.75137922 </v>
   <v>       0.74487260       0.25315399       0.75214960 </v>
   <v>       0.75712972       0.00069342       0.49461187 </v>
   <v>       0.49810019       0.25735298       0.49993646 </v>
   <v>       0.50223426       0.00448398       0.75033172 </v>
   <v>       0.00089206       0.99972818       0.24582194 </v>
   <v>       0.49635189       0.25857906       0.00084567 </v>
   <v>       0.24167177       0.74783220       0.23872619 </v>
   <v>       0.25550309       0.49963032       0.00482929 </v>
   <v>       0.00660199       0.75383870       0.00296736 </v>
   <v>       0.75482567       0.74723484       0.25511512 </v>
   <v>       0.74136545       0.49056243       0.00010714 </v>
   <v>       0.49569791       0.49253645       0.24730494 </v>
   <v>       0.25455933       0.25243233       0.75131739 </v>
   <v>       0.24465148       0.00964924       0.49367130 </v>
   <v>       0.00393847       0.25365274       0.50088238 </v>
   <v>       0.25341190       0.74615406       0.76266573 </v>
   <v>       0.25288104       0.48747337       0.49536444 </v>
   <v>       0.99247024       0.75434452       0.49749043 </v>
   <v>       0.99738758       0.49845484       0.74354884 </v>
   <v>       0.74427787       0.74555379       0.74968459 </v>
   <v>       0.75674491       0.50052289       0.49672412 </v>
   <v>       0.50505694       0.74672031       0.50639274 </v>
   <v>       0.50345765       0.49997135       0.74991526 </v>
   <v>       0.49777978       0.00282390       0.00397507 </v>
   <v>       0.99870570       0.49298983       0.00593224 </v>
   <v>       0.49673917       0.74792300       0.24537586 </v>
   <v>       0.24617055       0.00014835       0.75752425 </v>
   <v>       0.49875649       0.00883224       0.49434805 </v>
   <v>       0.75335381       0.00010920       0.75183263 </v>
   <v>       0.24988802       0.74841479       0.49822275 </v>
   <v>       0.00097520       0.76541265       0.25252308 </v>
   <v>       0.73022907       0.49422272       0.24163738 </v>
   <v>       0.00898022       0.01105988       0.48381399 </v>
   <v>       0.50120636       0.50121018       0.49869590 </v>
   <v>       0.74356560       0.50380673       0.75836480 </v>
   <v>       0.74654041       0.72858091       0.50068089 </v>
  </varray>
 </structure>
 <calculation>
  <scstep>
   <time name="dav">   16.66   16.76</time>
   <time name="total">   16.70   16.84</time>
   <energy>
    <i name="alphaZ">   3388.70457681 </i>
    <i name="ewald"> -30655.43246091 </i>
    <i name="hartreedc">  -7475.16076062 </i>
    <i name="XCdc">    634.76696044 </i>
    <i name="pawpsdc">  23071.23012372 </i>
    <i name="pawaedc"> -22067.72975376 </i>
    <i name="eentropy">     -0.09779777 </i>
    <i name="bandstr">   2537.68256119 </i>
    <i name="atom">  35823.54679465 </i>
    <i name="e_fr_energy">   5257.51024374 </i>
    <i name="e_wo_entrp">   5257.60804151 </i>
    <i name="e_0_energy">   5257.55914263 </i>
   </energy>
  </scstep>
  <scstep>
   <time name="dav">   16.64   17.12</time>
   <time name="total">   16.65   17.12</time>
   <energy>
    <i name="e_fr_energy">    163.39865448 </i>
    <i name="e_wo_entrp">    163.53949306 </i>
    <i name="e_0_energy">    163.46907377 </i>
   </energy>
  </scstep>
  <scstep>
   <time name="dav">   24.59   24.84</time>
   <time name="total">   24.59   24.84</time>
   <energy>
    <i name="e_fr_energy">   -708.86250925 </i>
    <i name="e_wo_entrp">   -708.76969908 </i>
    <i name="e_0_energy">   -708.81610416 </i>
   </energy>
  </scstep>
  <scstep>
   <time name="dav">   24.24   24.52</time>
   <time name="total">   24.24   24.52</time>
   <energy>
    <i name="e_fr_energy">   -784.40379693 </i>
    <i name="e_wo_entrp">   -784.31958629 </i>
    <i name="e_0_energy">   -784.36169161 </i>
   </energy>
  </scstep>
  <scstep>
   <time name="dav">   24.30   24.56</time>
   <time name="total">   24.46   24.74</time>
   <energy>
    <i name="e_fr_energy">   -788.69388434 </i>
    <i name="e_wo_entrp">   -788.60927505 </i>
    <i name="e_0_energy">   -788.65157969 </i>
   </energy>
  </scstep>
  <scstep>
   <time name="diag">    1.23    1.24</time>
   <time name="diis">   15.13   15.38</time>
   <time name="orth">    0.28    0.28</time>
   <time name="total">   16.83   17.11</time>
   <energy>
    <i name="e_fr_energy">   -679.39440442 </i>
    <i name="e_wo_entrp">   -679.28426004 </i>
    <i name="e_0_energy">   -679.33933223 </i>
   </energy>
  </scstep>
  <scstep>
   <time name="diag">    1.18    1.19</time>
   <time name="diis">   13.24   13.51</time>
   <time name="orth">    0.28    0.28</time>
   <time name="total">   14.89   15.17</time>
   <energy>
    <i name="e_fr_energy">   -653.06924057 </i>
    <i name="e_wo_entrp">   -652.93850859 </i>
    <i name="e_0_energy">   -653.00387458 </i>
   </energy>
  </scstep>
  <scstep>
   <time name="diag">    1.16    1.17</time>
   <time name="diis">   14.61   14.96</time>
   <time name="orth">    0.29    0.29</time>
   <time name="total">   16.25   16.61</time>
   <energy>
    <i name="e_fr_energy">   -641.02888948 </i>
    <i name="e_wo_entrp">   -640.91817228 </i>
    <i name="e_0_energy">   -640.97353088 </i>
   </energy>
  </scstep>
  <scstep>
   <time name="diag">    1.26    1.27</time>
   <time name="diis">   15.37   15.73</time>
   <time name="orth">    0.28    0.32</time>
   <time name="total">   17.10   17.51</time>
   <energy>
    <i name="e_fr_energy">   -640.94388178 </i>
    <i name="e_wo_entrp">   -640.84199920 </i>
    <i name="e_0_energy">   -640.89294049 </i>
   </energy>
  </scstep>
  <scstep>
   <time name="diag">    1.17    1.18</time>
   <time name="diis">   14.21   14.44</time>
   <time name="orth">    0.29    0.29</time>
   <time name="total">   15.86   16.11</time>
   <energy>
    <i name="e_fr_energy">   -640.32092786 </i>
    <i name="e_wo_entrp">   -640.21030632 </i>
    <i name="e_0_energy">   -640.26561709 </i>
   </energy>
  </scstep>
  <scstep>
   <time name="diag">    1.19    1.20</time>
   <time name="diis">   14.37   14.59</time>
   <time name="orth">    0.30    0.31</time>
   <time name="total">   16.05   16.28</time>
   <energy>
    <i name="e_fr_energy">   -639.74002792 </i>
    <i name="e_wo_entrp">   -639.64693508 </i>
    <i name="e_0_energy">   -639.69348150 </i>
   </energy>
  </scstep>
  <scstep>
   <time name="diag">    1.25    1.25</time>
   <time name="diis">   14.87   15.19</time>
   <time name="orth">    0.29    0.29</time>
   <time name="total">   16.59   16.92</time>
   <energy>
    <i name="e_fr_energy">   -640.01411749 </i>
    <i name="e_wo_entrp">   -639.91051781 </i>
    <i name="e_0_energy">   -639.96231765 </i>
   </energy>
  </scstep>
  <scstep>
   <time name="diag">    1.21    1.26</time>
   <time name="diis">   12.25   12.47</time>
   <time name="orth">    0.28    0.29</time>
   <time name="total">   13.95   14.21</time>
   <energy>
    <i name="e_fr_energy">   -639.53481327 </i>
    <i name="e_wo_entrp">   -639.43595034 </i>
    <i name="e_0_energy">   -639.48538180 </i>
   </energy>
  </scstep>
  <scstep>
   <time name="diag">    1.22    1.23</time>
   <time name="diis">   14.42   14.64</time>
   <time name="orth">    0.29    0.29</time>
   <time name="total">   16.13   16.35</time>
   <energy>
    <i name="e_fr_energy">   -639.41423657 </i>
    <i name="e_wo_entrp">   -639.31344094 </i>
    <i name="e_0_energy">   -639.36383876 </i>
   </energy>
  </scstep>
  <scstep>
   <time name="diag">    1.25    1.26</time>
   <time name="diis">   15.46   15.64</time>
   <time name="orth">    0.28    0.29</time>
   <time name="total">   17.18   17.38</time>
   <energy>
    <i name="e_fr_energy">   -639.41140138 </i>
    <i name="e_wo_entrp">   -639.30992376 </i>
    <i name="e_0_energy">   -639.36066257 </i>
   </energy>
  </scstep>
  <scstep>
   <time name="diag">    1.17    1.17</time>
   <time name="diis">   15.54   15.70</time>
   <time name="orth">    0.28    0.29</time>
   <time name="total">   17.19   17.35</time>
   <energy>
    <i name="e_fr_energy">   -639.43544210 </i>
    <i name="e_wo_entrp">   -639.33430939 </i>
    <i name="e_0_energy">   -639.38487574 </i>
   </energy>
  </scstep>
  <scstep>
   <time name="diag">    1.18    1.18</time>
   <time name="diis">   15.41   15.52</time>
   <time name="orth">    0.37    0.38</time>
   <time name="total">   17.14   17.26</time>
   <energy>
    <i name="e_fr_energy">   -639.44144864 </i>
    <i name="e_wo_entrp">   -639.34034424 </i>
    <i name="e_0_energy">   -639.39089644 </i>
   </energy>
  </scstep>
  <scstep>
   <time name="diag">    1.20    1.22</time>
   <time name="diis">   14.23   14.47</time>
   <time name="orth">    0.29    0.29</time>
   <time name="total">   15.91   16.17</time>
   <energy>
    <i name="e_fr_energy">   -639.43962132 </i>
    <i name="e_wo_entrp">   -639.33825120 </i>
    <i name="e_0_energy">   -639.38893626 </i>
   </energy>
  </scstep>
  <scstep>
   <time name="diag">    1.17    1.18</time>
   <time name="diis">   15.72   16.06</time>
   <time name="orth">    0.31    0.31</time>
   <time name="total">   17.39   17.74</time>
   <energy>
    <i name="e_fr_energy">   -639.44046098 </i>
    <i name="e_wo_entrp">   -639.33945111 </i>
    <i name="e_0_energy">   -639.38995604 </i>
   </energy>
  </scstep>
  <scstep>
   <time name="diag">    1.17    1.21</time>
   <time name="diis">   16.23   16.47</time>
   <time name="orth">    0.28    0.29</time>
   <time name="total">   17.88   18.16</time>
   <energy>
    <i name="e_fr_energy">   -639.44276357 </i>
    <i name="e_wo_entrp">   -639.34162626 </i>
    <i name="e_0_energy">   -639.39219492 </i>
   </energy>
  </scstep>
  <scstep>
   <time name="diag">    1.20    1.21</time>
   <time name="diis">   15.10   15.32</time>
   <time name="orth">    0.28    0.29</time>
   <time name="total">   16.78   17.01</time>
   <energy>
    <i name="e_fr_energy">   -639.44400844 </i>
    <i name="e_wo_entrp">   -639.34284149 </i>
    <i name="e_0_energy">   -639.39342497 </i>
   </energy>
  </scstep>
  <scstep>
   <time name="diag">    1.19    1.21</time>
   <time name="diis">   13.59   13.88</time>
   <time name="orth">    0.29    0.29</time>
   <time name="total">   15.25   15.57</time>
   <energy>
    <i name="e_fr_energy">   -639.44476004 </i>
    <i name="e_wo_entrp">   -639.34353589 </i>
    <i name="e_0_energy">   -639.39414797 </i>
   </energy>
  </scstep>
  <scstep>
   <time name="diag">    1.17    1.18</time>
   <time name="diis">   12.87   13.18</time>
   <time name="orth">    0.29    0.29</time>
   <time name="total">   14.52   14.84</time>
   <energy>
    <i name="e_fr_energy">   -639.44531469 </i>
    <i name="e_wo_entrp">   -639.34404974 </i>
    <i name="e_0_energy">   -639.39468222 </i>
   </energy>
  </scstep>
  <scstep>
   <time name="diag">    1.18    1.20</time>
   <time name="diis">    9.92   10.14</time>
   <time name="orth">    0.31    0.32</time>
   <time name="total">   11.60   11.85</time>
   <energy>
    <i name="e_fr_energy">   -639.44562154 </i>
    <i name="e_wo_entrp">   -639.34431588 </i>
    <i name="e_0_energy">   -639.39496871 </i>
   </energy>
  </scstep>
  <scstep>
   <time name="diag">    1.27    1.29</time>
   <time name="diis">   11.43   11.63</time>
   <time name="orth">    0.29    0.30</time>
   <time name="total">   13.18   13.42</time>
   <energy>
    <i name="e_fr_energy">   -639.44582172 </i>
    <i name="e_wo_entrp">   -639.34453088 </i>
    <i name="e_0_energy">   -639.39517630 </i>
   </energy>
  </scstep>
  <scstep>
   <time name="diag">    1.19    1.20</time>
   <time name="diis">    8.97    9.10</time>
   <time name="orth">    0.28    0.29</time>
   <time name="total">   10.63   10.78</time>
   <energy>
    <i name="e_fr_energy">   -639.44595355 </i>
    <i name="e_wo_entrp">   -639.34465392 </i>
    <i name="e_0_energy">   -639.39530374 </i>
   </energy>
  </scstep>
  <scstep>
   <time name="diag">    1.16    1.18</time>
   <time name="diis">    8.20    8.34</time>
   <time name="orth">    0.28    0.29</time>
   <time name="total">    9.84   10.01</time>
   <energy>
    <i name="e_fr_energy">   -639.44604082 </i>
    <i name="e_wo_entrp">   -639.34472590 </i>
    <i name="e_0_energy">   -639.39538336 </i>
   </energy>
  </scstep>
  <scstep>
   <time name="diag">    1.16    1.17</time>
   <time name="diis">    7.99    8.20</time>
   <time name="orth">    0.31    0.31</time>
   <time name="total">    9.64    9.88</time>
   <energy>
    <i name="e_fr_energy">   -639.44609822 </i>
    <i name="e_wo_entrp">   -639.34477229 </i>
    <i name="e_0_energy">   -639.39543525 </i>
   </energy>
  </scstep>
  <scstep>
   <time name="diag">    1.18    1.19</time>
   <time name="diis">    7.81    8.05</time>
   <time name="orth">    0.28    0.29</time>
   <time name="total">    9.46    9.72</time>
   <energy>
    <i name="e_fr_energy">   -639.44613669 </i>
    <i name="e_wo_entrp">   -639.34480611 </i>
    <i name="e_0_energy">   -639.39547140 </i>
   </energy>
  </scstep>
  <scstep>
   <time name="diag">    1.17    1.19</time>
   <time name="diis">    7.75    7.88</time>
   <time name="orth">    0.28    0.29</time>
   <time name="total">    9.39    9.54</time>
   <energy>
    <i name="e_fr_energy">   -639.44616260 </i>
    <i name="e_wo_entrp">   -639.34482635 </i>
    <i name="e_0_energy">   -639.39549448 </i>
   </energy>
  </scstep>
  <scstep>
   <time name="diag">    1.19    1.20</time>
   <time name="diis">    7.60    7.65</time>
   <time name="orth">    0.33    0.34</time>
   <time name="total">    9.31    9.38</time>
   <energy>
    <i name="e_fr_energy">   -639.44618005 </i>
    <i name="e_wo_entrp">   -639.34483987 </i>
    <i name="e_0_energy">   -639.39550996 </i>
   </energy>
  </scstep>
  <scstep>
   <time name="diag">    1.22    1.24</time>
   <time name="diis">    7.33    7.38</time>
   <time name="orth">    0.29    0.29</time>
   <time name="total">    9.04    9.10</time>
   <energy>
    <i name="e_fr_energy">   -639.44619206 </i>
    <i name="e_wo_entrp">   -639.34484857 </i>
    <i name="e_0_energy">   -639.39552031 </i>
   </energy>
  </scstep>
  <scstep>
   <time name="diag">    1.24    1.26</time>
   <time name="diis">    7.21    7.26</time>
   <time name="orth">    0.29    0.29</time>
   <time name="total">    8.77    8.84</time>
   <energy>
    <i name="alphaZ">   3388.70457681 </i>
    <i name="ewald"> -30655.43246091 </i>
    <i name="hartreedc">  -7054.08290473 </i>
    <i name="XCdc">    634.18827157 </i>
    <i name="pawpsdc">  24789.43142101 </i>
    <i name="pawaedc"> -23888.63263130 </i>
    <i name="eentropy">     -0.10134570 </i>
    <i name="bandstr">  -3677.06792156 </i>
    <i name="atom">  35823.54679465 </i>
    <i name="e_fr_energy">   -639.44620017 </i>
    <i name="e_wo_entrp">   -639.34485447 </i>
    <i name="e_0_energy">   -639.39552732 </i>
   </energy>
  </scstep>
  <structure>
   <crystal>
    <varray name="basis" >
     <v>       8.86660383      -0.00607856       0.00144315 </v>
     <v>      -0.00606544       8.86400034      -0.00883999 </v>
     <v>       0.00145580      -0.00884304       8.81798385 </v>
    </varray>
    <i name="volume">    693.03587709 </i>
    <varray name="rec_basis" >
     <v>       0.11278281       0.00007716      -0.00001854 </v>
     <v>       0.00007732       0.11281605       0.00011312 </v>
     <v>      -0.00001838       0.00011308       0.11340472 </v>
    </varray>
   </crystal>
   <varray name="positions" >
    <v>       0.00031420       0.00402217       0.01041479 </v>
    <v>       0.24289953       0.00913938       0.24600816 </v>
    <v>       0.26311740       0.48594185       0.25203244 </v>
    <v>       0.50001364       0.49918879       0.99879337 </v>
    <v>       0.49928745       0.25690613       0.75485568 </v>
    <v>       0.01026893       0.49406473       0.49629615 </v>
    <v>       0.50097023       0.74355008       0.75218821 </v>
    <v>       0.00267142       0.24164162       0.25332810 </v>
    <v>       0.76193875       0.74798223       0.00308198 </v>
    <v>       0.00329485       0.26079781       0.74676587 </v>
    <v>       0.75650158       0.26515588       0.49229512 </v>
    <v>       0.99743204       0.73678383       0.74725872 </v>
    <v>       0.25665038       0.49775923       0.74984738 </v>
    <v>       0.26765292       0.26387390       0.98881454 </v>
    <v>       0.50690121       0.26069597       0.23929149 </v>
    <v>       0.76403084       0.99312314       0.23723458 </v>
    <v>       0.72437646       0.25081110       0.01946242 </v>
    <v>       0.23116244       0.72860832       0.00397193 </v>
    <v>       0.23476705       0.24886185       0.51531339 </v>
    <v>       0.25411073       0.24893181       0.24831475 </v>
    <v>       0.24472969       0.00973181       0.00833457 </v>
    <v>       0.99839021       0.24069049       0.00082085 </v>
    <v>       0.74453893       0.24227813       0.24632913 </v>
    <v>       0.75681723       0.00692430       0.00539241 </v>
    <v>       0.50289473       0.00931924       0.24836479 </v>
    <v>       0.99907907       0.49865667       0.25784044 </v>
    <v>       0.49904160       0.74627999       0.99263879 </v>
    <v>       0.99917282       0.00218984       0.75137922 </v>
    <v>       0.74487260       0.25315399       0.75214960 </v>
    <v>       0.75712972       0.00069342       0.49461187 </v>
    <v>       0.49810019       0.25735298       0.49993646 </v>
    <v>       0.50223426       0.00448398       0.75033172 </v>
    <v>       0.00089206       0.99972818       0.24582194 </v>
    <v>       0.49635189       0.25857906       0.00084567 </v>
    <v>       0.24167177       0.74783220       0.23872619 </v>
    <v>       0.25550309       0.49963032       0.00482929 </v>
    <v>       0.00660199       0.75383870       0.00296736 </v>
    <v>       0.75482567       0.74723484       0.25511512 </v>
    <v>       0.74136545       0.49056243       0.00010714 </v>
    <v>       0.49569791       0.49253645       0.24730494 </v>
    <v>       0.25455933       0.25243233       0.75131739 </v>
    <v>       0.24465148       0.00964924       0.49367130 </v>
    <v>       0.00393847       0.25365274       0.50088238 </v>
    <v>       0.25341190       0.74615406       0.76266573 </v>
    <v>       0.25288104       0.48747337       0.49536444 </v>
    <v>       0.99247024       0.75434452       0.49749043 </v>
    <v>       0.99738758       0.49845484       0.74354884 </v>
    <v>       0.74427787       0.74555379       0.74968459 </v>
    <v>       0.75674491       0.50052289       0.49672412 </v>
    <v>       0.50505694       0.74672031       0.50639274 </v>
    <v>       0.50345765       0.49997135       0.74991526 </v>
    <v>       0.49777978       0.00282390       0.00397507 </v>
    <v>       0.99870570       0.49298983       0.00593224 </v>
    <v>       0.49673917       0.74792300       0.24537586 </v>
    <v>       0.24617055       0.00014835       0.75752425 </v>
    <v>       0.49875649       0.00883224       0.49434805 </v>
    <v>       0.75335381       0.00010920       0.75183263 </v>
    <v>       0.24988802       0.74841479       0.49822275 </v>
    <v>       0.00097520       0.76541265       0.25252308 </v>
    <v>       0.73022907       0.49422272       0.24163738 </v>
    <v>       0.00898022       0.01105988       0.48381399 </v>
    <v>       0.50120636       0.50121018       0.49869590 </v>
    <v>       0.74356560       0.50380673       0.75836480 </v>
    <v>       0.74654041       0.72858091       0.50068089 </v>
   </varray>
  </structure>
  <varray name="forces" >
   <v>      -0.00145159      -0.00202502       0.00498397 </v>
   <v>      -0.00307367       0.00409752       0.00552292 </v>
   <v>      -0.00124604       0.00131358       0.00050742 </v>
   <v>       0.00036159      -0.00346551      -0.00018094 </v>
   <v>      -0.00278494       0.00063931       0.00459528 </v>
   <v>       0.00049987       0.00035701       0.00304994 </v>
   <v>       0.00016856      -0.00348419      -0.00408718 </v>
   <v>      -0.01182380      -0.00640271       0.00338786 </v>
   <v>       0.00735199      -0.00402978       0.00126629 </v>
   <v>       0.00142626       0.00577991      -0.00319477 </v>
   <v>       0.00289985       0.00348618       0.00512532 </v>
   <v>       0.00124938      -0.00365994      -0.00059959 </v>
   <v>       0.00034285       0.00315799       0.00006487 </v>
   <v>       0.00395336       0.00652953      -0.00182502 </v>
   <v>       0.01302775       0.00462781      -0.00172992 </v>
   <v>       0.00804127      -0.00001143      -0.00586295 </v>
   <v>      -0.00028590       0.00091943      -0.00145729 </v>
   <v>      -0.00541119       0.00181251      -0.00005920 </v>
   <v>      -0.00629121       0.00120484       0.00182672 </v>
   <v>      -0.00228181      -0.00116793       0.00194017 </v>
   <v>      -0.00279451      -0.00131613       0.00087300 </v>
   <v>      -0.00781030      -0.00129761      -0.00167111 </v>
   <v>      -0.00574175      -0.00646951      -0.00441820 </v>
   <v>       0.00010321      -0.00170310       0.00336864 </v>
   <v>      -0.00227032      -0.00120443      -0.00012557 </v>
   <v>       0.00022221       0.00297247       0.00234098 </v>
   <v>      -0.00275742      -0.00301729      -0.00155660 </v>
   <v>      -0.00085365       0.00299214       0.00237595 </v>
   <v>      -0.00179982      -0.00049790       0.00666559 </v>
   <v>       0.00140434      -0.00404956      -0.00140847 </v>
   <v>      -0.00466776       0.00246178       0.00419259 </v>
   <v>      -0.00132831      -0.00094004       0.00110494 </v>
   <v>       0.00365245       0.00195398      -0.00319922 </v>
   <v>      -0.00223933       0.00125349      -0.00105598 </v>
   <v>      -0.00234995      -0.00112382      -0.00327932 </v>
   <v>       0.00463783       0.00212982      -0.00135648 </v>
   <v>       0.00406176      -0.00365928       0.00037070 </v>
   <v>       0.00369618      -0.00381073       0.00187034 </v>
   <v>      -0.00312019       0.00034484      -0.00290287 </v>
   <v>      -0.00147347      -0.00568453      -0.00108649 </v>
   <v>      -0.00021065       0.00434589       0.00104406 </v>
   <v>      -0.00031207      -0.00042445       0.00049816 </v>
   <v>       0.00335872       0.00381635      -0.00064575 </v>
   <v>       0.00069890      -0.00423534      -0.00003066 </v>
   <v>      -0.00008674      -0.00016380       0.00157639 </v>
   <v>      -0.00618729      -0.00104289      -0.00024291 </v>
   <v>      -0.00020276       0.00125410       0.00030278 </v>
   <v>      -0.00154890      -0.00413144      -0.00257960 </v>
   <v>       0.00509667       0.00321721      -0.00158837 </v>
   <v>       0.00674823      -0.00463068      -0.00170941 </v>
   <v>       0.00056055       0.00137790       0.00226400 </v>
   <v>       0.00191340      -0.00142591      -0.00113346 </v>
   <v>      -0.00124561       0.00504510      -0.00571735 </v>
   <v>       0.00095139      -0.00445472       0.00264796 </v>
   <v>       0.00030570      -0.00050670      -0.00347417 </v>
   <v>      -0.00214041      -0.00319843       0.00113981 </v>
   <v>      -0.00069019      -0.00498384       0.00202769 </v>
   <v>       0.00219990       0.00295927      -0.00157991 </v>
   <v>       0.00206887       0.00698015      -0.00171831 </v>
   <v>      -0.00076280      -0.00259289      -0.00173816 </v>
   <v>       0.00499300       0.00432679       0.00033826 </v>
   <v>       0.00047719       0.00532588      -0.00073577 </v>
   <v>       0.00107017       0.00499948       0.00077844 </v>
   <v>      -0.00029902      -0.00087070      -0.00410002 </v>
  </varray>
  <varray name="stress" >
   <v>     -19.98170770       0.01001764      -0.02898794 </v>
   <v>       0.01002041     -19.98612655      -0.00472719 </v>
   <v>      -0.02898809      -0.00472753     -20.11418759 </v>
  </varray>
  <energy>
   <i name="e_fr_energy">   -639.44620017 </i>
   <i name="e_wo_entrp">   -639.34485447 </i>
   <i name="e_0_energy">   -639.39552732 </i>
  </energy>
  <time name="totalsc">  532.41  540.81</time>
 </calculation>
 <calculation>
  <scstep>
   <time name="dav">   20.40   20.62</time>
   <time name="total">   20.61   20.84</time>
   <energy>
    <i name="alphaZ">   3455.96682858 </i>
    <i name="ewald"> -30855.94381855 </i>
    <i name="hartreedc">  -7101.38493225 </i>
    <i name="XCdc">    644.39553459 </i>
    <i name="pawpsdc">  24789.44817642 </i>
    <i name="pawaedc"> -23888.64907476 </i>
    <i name="eentropy">     -0.10093546 </i>
    <i name="bandstr">  -3507.79599368 </i>
    <i name="atom">  35823.54679465 </i>
    <i name="e_fr_energy">   -640.51742046 </i>
    <i name="e_wo_entrp">   -640.41648500 </i>
    <i name="e_0_energy">   -640.46695273 </i>
   </energy>
  </scstep>
  <scstep>
   <time name="diag">    1.21    1.22</time>
   <time name="diis">   11.46   11.60</time>
   <time name="orth">    0.28    0.29</time>
   <time name="total">   13.15   13.30</time>
   <energy>
    <i name="e_fr_energy">   -642.16764453 </i>
    <i name="e_wo_entrp">   -642.02621076 </i>
    <i name="e_0_energy">   -642.09692765 </i>
   </energy>
  </scstep>
  <scstep>
   <time name="diag">    1.17    1.18</time>
   <time name="diis">   11.53   11.72</time>
   <time name="orth">    0.28    0.29</time>
   <time name="total">   13.17   13.38</time>
   <energy>
    <i name="e_fr_energy">   -639.77091817 </i>
    <i name="e_wo_entrp">   -639.67414544 </i>
    <i name="e_0_energy">   -639.72253181 </i>
   </energy>
  </scstep>
  <scstep>
   <time name="diag">    1.22    1.24</time>
   <time name="diis">   14.24   14.41</time>
   <time name="orth">    0.28    0.29</time>
   <time name="total">   15.94   16.13</time>
   <energy>
    <i name="e_fr_energy">   -639.57980135 </i>
    <i name="e_wo_entrp">   -639.47271858 </i>
    <i name="e_0_energy">   -639.52625996 </i>
   </energy>
  </scstep>
  <scstep>
   <time name="diag">    1.19    1.20</time>
   <time name="diis">   12.82   12.96</time>
   <time name="orth">    0.35    0.35</time>
   <time name="total">   14.55   14.70</time>
   <energy>
    <i name="e_fr_energy">   -639.42067783 </i>
    <i name="e_wo_entrp">   -639.32581828 </i>
    <i name="e_0_energy">   -639.37324806 </i>
   </energy>
  </scstep>
  <scstep>
   <time name="diag">    1.17    1.18</time>
   <time name="diis">   14.22   14.33</time>
   <time name="orth">    0.28    0.29</time>
   <time name="total">   15.86   15.99</time>
   <energy>
    <i name="e_fr_energy">   -639.38772252 </i>
    <i name="e_wo_entrp">   -639.29034410 </i>
    <i name="e_0_energy">   -639.33903331 </i>
   </energy>
  </scstep>
  <scstep>
   <time name="diag">    1.17    1.18</time>
   <time name="diis">   12.58   12.74</time>
   <time name="orth">    0.29    0.29</time>
   <time name="total">   14.23   14.40</time>
   <energy>
    <i name="e_fr_energy">   -639.36133349 </i>
    <i name="e_wo_entrp">   -639.26288764 </i>
    <i name="e_0_energy">   -639.31211057 </i>
   </energy>
  </scstep>
  <scstep>
   <time name="diag">    1.23    1.24</time>
   <time name="diis">   14.59   14.79</time>
   <time name="orth">    0.32    0.33</time>
   <time name="total">   16.34   16.55</time>
   <energy>
    <i name="e_fr_energy">   -639.36455972 </i>
    <i name="e_wo_entrp">   -639.26700233 </i>
    <i name="e_0_energy">   -639.31578103 </i>
   </energy>
  </scstep>
  <scstep>
   <time name="diag">    1.18    1.18</time>
   <time name="diis">   14.43   14.56</time>
   <time name="orth">    0.30    0.31</time>
   <time name="total">   16.10   16.25</time>
   <energy>
    <i name="e_fr_energy">   -639.35977489 </i>
    <i name="e_wo_entrp">   -639.26130575 </i>
    <i name="e_0_energy">   -639.31054032 </i>
   </energy>
  </scstep>
  <scstep>
   <time name="diag">    1.17    1.18</time>
   <time name="diis">   15.20   15.34</time>
   <time name="orth">    0.31    0.31</time>
   <time name="total">   16.88   17.02</time>
   <energy>
    <i name="e_fr_energy">   -639.35998290 </i>
    <i name="e_wo_entrp">   -639.26195929 </i>
    <i name="e_0_energy">   -639.31097110 </i>
   </energy>
  </scstep>
  <scstep>
   <time name="diag">    1.22    1.23</time>
   <time name="diis">   13.97   14.09</time>
   <time name="orth">    0.34    0.35</time>
   <time name="total">   15.73   15.87</time>
   <energy>
    <i name="e_fr_energy">   -639.35958014 </i>
    <i name="e_wo_entrp">   -639.26150699 </i>
    <i name="e_0_energy">   -639.31054356 </i>
   </energy>
  </scstep>
  <scstep>
   <time name="diag">    1.25    1.26</time>
   <time name="diis">   14.21   14.46</time>
   <time name="orth">    0.29    0.29</time>
   <time name="total">   15.95   16.22</time>
   <energy>
    <i name="e_fr_energy">   -639.35965148 </i>
    <i name="e_wo_entrp">   -639.26153013 </i>
    <i name="e_0_energy">   -639.31059080 </i>
   </energy>
  </scstep>
  <scstep>
   <time name="diag">    1.17    1.18</time>
   <time name="diis">   14.14   14.32</time>
   <time name="orth">    0.29    0.29</time>
   <time name="total">   15.82   16.01</time>
   <energy>
    <i name="e_fr_energy">   -639.35973158 </i>
    <i name="e_wo_entrp">   -639.26163209 </i>
    <i name="e_0_energy">   -639.31068184 </i>
   </energy>
  </scstep>
  <scstep>
   <time name="diag">    1.21    1.22</time>
   <time name="diis">   12.45   12.67</time>
   <time name="orth">    0.34    0.34</time>
   <time name="total">   14.19   14.43</time>
   <energy>
    <i name="e_fr_energy">   -639.35969920 </i>
    <i name="e_wo_entrp">   -639.26163708 </i>
    <i name="e_0_energy">   -639.31066814 </i>
   </energy>
  </scstep>
  <scstep>
   <time name="diag">    1.16    1.18</time>
   <time name="diis">   11.12   11.27</time>
   <time name="orth">    0.28    0.29</time>
   <time name="total">   12.75   12.93</time>
   <energy>
    <i name="e_fr_energy">   -639.35970102 </i>
    <i name="e_wo_entrp">   -639.26162215 </i>
    <i name="e_0_energy">   -639.31066158 </i>
   </energy>
  </scstep>
  <scstep>
   <time name="diag">    1.21    1.22</time>
   <time name="diis">    9.57    9.70</time>
   <time name="orth">    0.28    0.29</time>
   <time name="total">   11.08   11.24</time>
   <energy>
    <i name="alphaZ">   3455.96682858 </i>
    <i name="ewald"> -30855.94381855 </i>
    <i name="hartreedc">  -6996.64343992 </i>
    <i name="XCdc">    638.61891005 </i>
    <i name="pawpsdc">  25004.08847908 </i>
    <i name="pawaedc"> -24105.50964518 </i>
    <i name="eentropy">     -0.09808673 </i>
    <i name="bandstr">  -3603.38572408 </i>
    <i name="atom">  35823.54679465 </i>
    <i name="e_fr_energy">   -639.35970210 </i>
    <i name="e_wo_entrp">   -639.26161537 </i>
    <i name="e_0_energy">   -639.31065874 </i>
   </energy>
  </scstep>
  <structure>
   <crystal>
    <varray name="basis" >
     <v>       8.80883594      -0.00600998       0.00134989 </v>
     <v>      -0.00599688       8.80623667      -0.00879562 </v>
     <v>       0.00136294      -0.00879900       8.76015186 </v>
    </varray>
    <i name="volume">    679.54756659 </i>
    <varray name="rec_basis" >
     <v>       0.11352243       0.00007729      -0.00001758 </v>
     <v>       0.00007746       0.11355605       0.00011405 </v>
     <v>      -0.00001742       0.00011400       0.11415339 </v>
    </varray>
   </crystal>
   <varray name="positions" >
    <v>       0.00030629       0.00401117       0.01044205 </v>
    <v>       0.24288281       0.00916170       0.24603840 </v>
    <v>       0.26311062       0.48594900       0.25203522 </v>
    <v>       0.50001559       0.49916993       0.99879236 </v>
    <v>       0.49927230       0.25690962       0.75488083 </v>
    <v>       0.01027165       0.49406669       0.49631284 </v>
    <v>       0.50097113       0.74353109       0.75216583 </v>
    <v>       0.00260707       0.24160675       0.25334661 </v>
    <v>       0.76197873       0.74796034       0.00308888 </v>
    <v>       0.00330263       0.26082925       0.74674842 </v>
    <v>       0.75651736       0.26517489       0.49232318 </v>
    <v>       0.99743882       0.73676391       0.74725542 </v>
    <v>       0.25665225       0.49777642       0.74984776 </v>
    <v>       0.26767445       0.26390944       0.98880459 </v>
    <v>       0.50697212       0.26072120       0.23928204 </v>
    <v>       0.76407460       0.99312308       0.23720250 </v>
    <v>       0.72437491       0.25081610       0.01945445 </v>
    <v>       0.23113301       0.72861817       0.00397162 </v>
    <v>       0.23473282       0.24886839       0.51532339 </v>
    <v>       0.25409831       0.24892545       0.24832536 </v>
    <v>       0.24471448       0.00972464       0.00833934 </v>
    <v>       0.99834771       0.24068339       0.00081171 </v>
    <v>       0.74450767       0.24224288       0.24630493 </v>
    <v>       0.75681778       0.00691505       0.00541083 </v>
    <v>       0.50288237       0.00931267       0.24836410 </v>
    <v>       0.99908029       0.49867286       0.25785326 </v>
    <v>       0.49902658       0.74626355       0.99263026 </v>
    <v>       0.99916818       0.00220613       0.75139224 </v>
    <v>       0.74486280       0.25315131       0.75218606 </v>
    <v>       0.75713734       0.00067138       0.49460414 </v>
    <v>       0.49807480       0.25736639       0.49995942 </v>
    <v>       0.50222703       0.00447887       0.75033777 </v>
    <v>       0.00091194       0.99973881       0.24580445 </v>
    <v>       0.49633971       0.25858587       0.00083990 </v>
    <v>       0.24165898       0.74782606       0.23870824 </v>
    <v>       0.25552833       0.49964192       0.00482188 </v>
    <v>       0.00662408       0.75381880       0.00296936 </v>
    <v>       0.75484576       0.74721413       0.25512533 </v>
    <v>       0.74134848       0.49056427       0.00009127 </v>
    <v>       0.49568987       0.49250550       0.24729897 </v>
    <v>       0.25455820       0.25245598       0.75132313 </v>
    <v>       0.24464978       0.00964693       0.49367402 </v>
    <v>       0.00395675       0.25367352       0.50087887 </v>
    <v>       0.25341569       0.74613101       0.76266554 </v>
    <v>       0.25288056       0.48747249       0.49537307 </v>
    <v>       0.99243657       0.75433881       0.49748910 </v>
    <v>       0.99738648       0.49846167       0.74355050 </v>
    <v>       0.74426943       0.74553129       0.74967046 </v>
    <v>       0.75677266       0.50054041       0.49671545 </v>
    <v>       0.50509364       0.74669512       0.50638335 </v>
    <v>       0.50346070       0.49997887       0.74992766 </v>
    <v>       0.49779018       0.00281614       0.00396886 </v>
    <v>       0.99869894       0.49301725       0.00590099 </v>
    <v>       0.49674433       0.74789878       0.24539032 </v>
    <v>       0.24617221       0.00014557       0.75750524 </v>
    <v>       0.49874483       0.00881484       0.49435427 </v>
    <v>       0.75335003       0.00008208       0.75184369 </v>
    <v>       0.24990000       0.74843089       0.49821412 </v>
    <v>       0.00098648       0.76545064       0.25251372 </v>
    <v>       0.73022492       0.49420859       0.24162786 </v>
    <v>       0.00900740       0.01108345       0.48381586 </v>
    <v>       0.50120898       0.50123916       0.49869190 </v>
    <v>       0.74357144       0.50383395       0.75836908 </v>
    <v>       0.74653878       0.72857614       0.50065845 </v>
   </varray>
  </structure>
  <varray name="forces" >
   <v>       0.00918535      -0.03204605      -0.09298438 </v>
   <v>       0.07547007      -0.03895050       0.00897107 </v>
   <v>      -0.09753809       0.04731780      -0.00840548 </v>
   <v>      -0.01675956       0.03917391      -0.00298198 </v>
   <v>       0.01725691      -0.05694326      -0.02913673 </v>
   <v>      -0.02310919       0.06050894       0.01369238 </v>
   <v>      -0.01843052       0.07565081       0.00396488 </v>
   <v>      -0.02133380       0.09827558      -0.06788750 </v>
   <v>      -0.08775616       0.03615369      -0.01192704 </v>
   <v>      -0.04719257      -0.10582200       0.07138037 </v>
   <v>      -0.05142706      -0.13837232       0.05436456 </v>
   <v>       0.02495374       0.12676099       0.02196964 </v>
   <v>      -0.03875174       0.01920751      -0.00099913 </v>
   <v>      -0.09855795      -0.06924024       0.06870071 </v>
   <v>      -0.05518114      -0.08279023       0.06826187 </v>
   <v>      -0.08048866       0.03009383       0.07177618 </v>
   <v>       0.11508061      -0.04116724      -0.13063920 </v>
   <v>       0.12815925       0.11987822      -0.01910820 </v>
   <v>       0.11334074      -0.00100510      -0.08629137 </v>
   <v>       0.06099189      -0.00877926       0.01277211 </v>
   <v>      -0.05041474      -0.02250351       0.04090556 </v>
   <v>      -0.01600854      -0.03572846      -0.01675928 </v>
   <v>       0.00111155      -0.07232984       0.00495674 </v>
   <v>       0.02694903       0.02938756       0.01696974 </v>
   <v>       0.01751357       0.05309004       0.01482200 </v>
   <v>       0.01479351       0.04325021       0.03830220 </v>
   <v>      -0.05259924      -0.04517386      -0.05033965 </v>
   <v>       0.00735208      -0.01595602       0.00561022 </v>
   <v>      -0.01332943       0.01646901       0.06528803 </v>
   <v>       0.00830070      -0.03456744      -0.07093400 </v>
   <v>      -0.06680552       0.01133724      -0.01453571 </v>
   <v>      -0.01870921      -0.01385906      -0.01691488 </v>
   <v>       0.00787753       0.03162211      -0.06327519 </v>
   <v>      -0.01204957       0.02901420      -0.01381336 </v>
   <v>       0.02928684      -0.00878471      -0.02407470 </v>
   <v>       0.03386239      -0.00801387       0.03323452 </v>
   <v>       0.02069257       0.04530065      -0.02582446 </v>
   <v>      -0.01582145       0.02887437      -0.01225170 </v>
   <v>      -0.01920613      -0.01829482      -0.00932192 </v>
   <v>      -0.08173204      -0.01096224      -0.03811816 </v>
   <v>       0.03384768      -0.00982351       0.00403769 </v>
   <v>       0.05626599       0.01865926      -0.01668992 </v>
   <v>       0.00975945       0.05388641       0.00124295 </v>
   <v>       0.02957315       0.00539751       0.03205124 </v>
   <v>      -0.03098796      -0.02367907      -0.02627634 </v>
   <v>       0.00804063      -0.02657351       0.02099365 </v>
   <v>       0.00860927       0.00563717      -0.03241034 </v>
   <v>      -0.02945488       0.03544202       0.00784314 </v>
   <v>       0.05988842      -0.04361158       0.01545071 </v>
   <v>      -0.02108670       0.04387743       0.03684602 </v>
   <v>      -0.02925633       0.00072971       0.03859606 </v>
   <v>       0.00637679      -0.04026856      -0.04718472 </v>
   <v>       0.00344723       0.00076866      -0.01429728 </v>
   <v>      -0.00990211       0.05492142      -0.00225286 </v>
   <v>       0.04779817      -0.02228750      -0.01630048 </v>
   <v>       0.03206377      -0.03240670       0.04272760 </v>
   <v>      -0.03672624       0.00860642      -0.00401214 </v>
   <v>       0.00499754       0.00851940       0.01257500 </v>
   <v>      -0.01084397      -0.15513301      -0.02175206 </v>
   <v>       0.16519341      -0.00229580       0.05241234 </v>
   <v>      -0.10099794      -0.07002554       0.16085093 </v>
   <v>      -0.00484529      -0.02356951       0.00256485 </v>
   <v>       0.05853939      -0.08284644      -0.06707106 </v>
   <v>       0.02072452       0.21599870       0.01063624 </v>
  </varray>
  <varray name="stress" >
   <v>      41.01605708      -0.15665206       0.13105990 </v>
   <v>      -0.15665217      40.97569219       0.02897126 </v>
   <v>       0.13105978       0.02896878      42.33593332 </v>
  </varray>
  <energy>
   <i name="e_fr_energy">   -639.35970210 </i>
   <i name="e_wo_entrp">   -639.26161537 </i>
   <i name="e_0_energy">   -639.31065874 </i>
  </energy>
  <time name="totalsc">  275.06  278.44</time>
 </calculation>
 <calculation>
  <scstep>
   <time name="dav">   20.26   20.41</time>
   <time name="total">   20.45   20.60</time>
   <energy>
    <i name="alphaZ">   3410.87778540 </i>
    <i name="ewald"> -30721.82696104 </i>
    <i name="hartreedc">  -6965.45813172 </i>
    <i name="XCdc">    631.82697294 </i>
    <i name="pawpsdc">  25004.09873727 </i>
    <i name="pawaedc"> -24105.50573215 </i>
    <i name="eentropy">     -0.10715675 </i>
    <i name="bandstr">  -3717.46636051 </i>
    <i name="atom">  35823.54679465 </i>
    <i name="e_fr_energy">   -640.01405192 </i>
    <i name="e_wo_entrp">   -639.90689517 </i>
    <i name="e_0_energy">   -639.96047354 </i>
   </energy>
  </scstep>
  <scstep>
   <time name="diag">    1.18    1.18</time>
   <time name="diis">   11.68   11.75</time>
   <time name="orth">    0.37    0.38</time>
   <time name="total">   13.42   13.50</time>
   <energy>
    <i name="e_fr_energy">   -641.15307951 </i>
    <i name="e_wo_entrp">   -641.03423980 </i>
    <i name="e_0_energy">   -641.09365966 </i>
   </energy>
  </scstep>
  <scstep>
   <time name="diag">    1.21    1.22</time>
   <time name="diis">   11.64   11.70</time>
   <time name="orth">    0.31    0.31</time>
   <time name="total">   13.36   13.42</time>
   <energy>
    <i name="e_fr_energy">   -639.57730483 </i>
    <i name="e_wo_entrp">   -639.47248878 </i>
    <i name="e_0_energy">   -639.52489680 </i>
   </energy>
  </scstep>
  <scstep>
   <time name="diag">    1.23    1.24</time>
   <time name="diis">   14.49   14.64</time>
   <time name="orth">    0.29    0.29</time>
   <time name="total">   16.20   16.36</time>
   <energy>
    <i name="e_fr_energy">   -639.61262944 </i>
    <i name="e_wo_entrp">   -639.51416597 </i>
    <i name="e_0_energy">   -639.56339770 </i>
   </energy>
  </scstep>
  <scstep>
   <time name="diag">    1.22    1.23</time>
   <time name="diis">   12.83   12.92</time>
   <time name="orth">    0.34    0.34</time>
   <time name="total">   14.57   14.68</time>
   <energy>
    <i name="e_fr_energy">   -639.49147341 </i>
    <i name="e_wo_entrp">   -639.38931476 </i>
    <i name="e_0_energy">   -639.44039409 </i>
   </energy>
  </scstep>
  <scstep>
   <time name="diag">    1.29    1.30</time>
   <time name="diis">   14.24   14.33</time>
   <time name="orth">    0.31    0.31</time>
   <time name="total">   16.03   16.13</time>
   <energy>
    <i name="e_fr_energy">   -639.49489361 </i>
    <i name="e_wo_entrp">   -639.39491270 </i>
    <i name="e_0_energy">   -639.44490316 </i>
   </energy>
  </scstep>
  <scstep>
   <time name="diag">    1.26    1.27</time>
   <time name="diis">   12.47   12.57</time>
   <time name="orth">    0.29    0.29</time>
   <time name="total">   14.22   14.33</time>
   <energy>
    <i name="e_fr_energy">   -639.47654134 </i>
    <i name="e_wo_entrp">   -639.37650398 </i>
    <i name="e_0_energy">   -639.42652266 </i>
   </energy>
  </scstep>
  <scstep>
   <time name="diag">    1.22    1.23</time>
   <time name="diis">   14.29   14.44</time>
   <time name="orth">    0.29    0.29</time>
   <time name="total">   15.99   16.14</time>
   <energy>
    <i name="e_fr_energy">   -639.47740756 </i>
    <i name="e_wo_entrp">   -639.37677975 </i>
    <i name="e_0_energy">   -639.42709366 </i>
   </energy>
  </scstep>
  <scstep>
   <time name="diag">    1.25    1.29</time>
   <time name="diis">   14.19   14.29</time>
   <time name="orth">    0.31    0.31</time>
   <time name="total">   15.98   16.12</time>
   <energy>
    <i name="e_fr_energy">   -639.47501535 </i>
    <i name="e_wo_entrp">   -639.37486530 </i>
    <i name="e_0_energy">   -639.42494033 </i>
   </energy>
  </scstep>
  <scstep>
   <time name="diag">    1.22    1.23</time>
   <time name="diis">   14.61   14.71</time>
   <time name="orth">    0.29    0.29</time>
   <time name="total">   16.32   16.42</time>
   <energy>
    <i name="e_fr_energy">   -639.47493081 </i>
    <i name="e_wo_entrp">   -639.37459016 </i>
    <i name="e_0_energy">   -639.42476048 </i>
   </energy>
  </scstep>
  <scstep>
   <time name="diag">    1.17    1.21</time>
   <time name="diis">   13.43   13.53</time>
   <time name="orth">    0.29    0.29</time>
   <time name="total">   15.08   15.22</time>
   <energy>
    <i name="e_fr_energy">   -639.47474516 </i>
    <i name="e_wo_entrp">   -639.37447375 </i>
    <i name="e_0_energy">   -639.42460945 </i>
   </energy>
  </scstep>
  <scstep>
   <time name="diag">    1.18    1.18</time>
   <time name="diis">   13.80   13.95</time>
   <time name="orth">    0.31    0.31</time>
   <time name="total">   15.47   15.63</time>
   <energy>
    <i name="e_fr_energy">   -639.47470182 </i>
    <i name="e_wo_entrp">   -639.37449044 </i>
    <i name="e_0_energy">   -639.42459613 </i>
   </energy>
  </scstep>
  <scstep>
   <time name="diag">    1.22    1.22</time>
   <time name="diis">   13.22   13.32</time>
   <time name="orth">    0.33    0.33</time>
   <time name="total">   14.96   15.06</time>
   <energy>
    <i name="e_fr_energy">   -639.47473816 </i>
    <i name="e_wo_entrp">   -639.37450908 </i>
    <i name="e_0_energy">   -639.42462362 </i>
   </energy>
  </scstep>
  <scstep>
   <time name="diag">    1.19    1.20</time>
   <time name="diis">   11.67   11.73</time>
   <time name="orth">    0.31    0.31</time>
   <time name="total">   13.37   13.43</time>
   <energy>
    <i name="e_fr_energy">   -639.47468920 </i>
    <i name="e_wo_entrp">   -639.37444453 </i>
    <i name="e_0_energy">   -639.42456686 </i>
   </energy>
  </scstep>
  <scstep>
   <time name="diag">    1.25    1.26</time>
   <time name="diis">    9.13    9.18</time>
   <time name="orth">    0.31    0.32</time>
   <time name="total">   10.72   10.78</time>
   <energy>
    <i name="alphaZ">   3410.87778540 </i>
    <i name="ewald"> -30721.82696104 </i>
    <i name="hartreedc">  -7035.01094208 </i>
    <i name="XCdc">    635.65112190 </i>
    <i name="pawpsdc">  24859.86922720 </i>
    <i name="pawaedc"> -23959.74648630 </i>
    <i name="eentropy">     -0.10025828 </i>
    <i name="bandstr">  -3652.73496183 </i>
    <i name="atom">  35823.54679465 </i>
    <i name="e_fr_energy">   -639.47468039 </i>
    <i name="e_wo_entrp">   -639.37442211 </i>
    <i name="e_0_energy">   -639.42455125 </i>
   </energy>
  </scstep>
  <structure>
   <crystal>
    <varray name="basis" >
     <v>       8.84739277      -0.00605575       0.00141213 </v>
     <v>      -0.00604264       8.84479068      -0.00882523 </v>
     <v>       0.00142492      -0.00882839       8.79875147 </v>
    </varray>
    <i name="volume">    688.53063532 </i>
    <varray name="rec_basis" >
     <v>       0.11302770       0.00007720      -0.00001823 </v>
     <v>       0.00007737       0.11306107       0.00011343 </v>
     <v>      -0.00001806       0.00011339       0.11365261 </v>
    </varray>
   </crystal>
   <varray name="positions" >
    <v>       0.00031160       0.00401856       0.01042373 </v>
    <v>       0.24289404       0.00914670       0.24601809 </v>
    <v>       0.26311517       0.48594420       0.25203335 </v>
    <v>       0.50001428       0.49918260       0.99879304 </v>
    <v>       0.49928248       0.25690727       0.75486393 </v>
    <v>       0.01026982       0.49406537       0.49630162 </v>
    <v>       0.50097052       0.74354385       0.75218087 </v>
    <v>       0.00265030       0.24163018       0.25333417 </v>
    <v>       0.76195187       0.74797505       0.00308424 </v>
    <v>       0.00329740       0.26080813       0.74676014 </v>
    <v>       0.75650676       0.26516212       0.49230433 </v>
    <v>       0.99743426       0.73677730       0.74725764 </v>
    <v>       0.25665099       0.49776487       0.74984751 </v>
    <v>       0.26765999       0.26388557       0.98881128 </v>
    <v>       0.50692448       0.26070425       0.23928839 </v>
    <v>       0.76404520       0.99312312       0.23722405 </v>
    <v>       0.72437595       0.25081274       0.01945980 </v>
    <v>       0.23115278       0.72861156       0.00397183 </v>
    <v>       0.23475582       0.24886400       0.51531667 </v>
    <v>       0.25410665       0.24892972       0.24831823 </v>
    <v>       0.24472470       0.00972946       0.00833614 </v>
    <v>       0.99837626       0.24068816       0.00081785 </v>
    <v>       0.74452867       0.24226656       0.24632119 </v>
    <v>       0.75681741       0.00692126       0.00539845 </v>
    <v>       0.50289068       0.00931708       0.24836456 </v>
    <v>       0.99907947       0.49866198       0.25784465 </v>
    <v>       0.49903667       0.74627459       0.99263599 </v>
    <v>       0.99917130       0.00219519       0.75138349 </v>
[...]
      </set>
     </set>
    </set>
   </array>
  </eigenvalues>
  <separator name="orbital magnetization" >
   <v name="MAGDIPOLOUT">      0.00000000      0.00000000      0.00000000</v>
  </separator>
  <dos>
   <i name="efermi">      7.92601136 </i>
   <total>
    <array>
     <dimension dim="1">gridpoints</dimension>
     <dimension dim="2">spin</dimension>
     <field>energy</field>
     <field>total</field>
     <field>integrated</field>
     <set>
      <set comment="spin 1">
       <r>   -33.6654     0.0000     0.0000 </r>
       <r>   -33.5114     0.0000     0.0000 </r>
       <r>   -33.3574     0.0000     0.0000 </r>
       <r>   -33.2034     0.0000     0.0000 </r>
       <r>   -33.0494     0.0000     0.0000 </r>
       <r>   -32.8955     0.0000     0.0000 </r>
       <r>   -32.7415     0.0000     0.0000 </r>
       <r>   -32.5875     0.0000     0.0000 </r>
       <r>   -32.4335     0.0000     0.0000 </r>
       <r>   -32.2796     0.0000     0.0000 </r>
       <r>   -32.1256     0.0000     0.0000 </r>
       <r>   -31.9716     0.0000     0.0000 </r>
       <r>   -31.8176     0.0027     0.0004 </r>
       <r>   -31.6637     1.5862     0.2447 </r>
       <r>   -31.5097    27.6966     4.5093 </r>
       <r>   -31.3557    86.3077    17.7987 </r>
       <r>   -31.2017    99.7272    33.1545 </r>
       <r>   -31.0477    62.8237    42.8279 </r>
       <r>   -30.8938   102.8346    58.6621 </r>
       <r>   -30.7398    79.2737    70.8685 </r>
       <r>   -30.5858     7.3257    71.9965 </r>
       <r>   -30.4318     0.0230    72.0000 </r>
       <r>   -30.2779     0.0000    72.0000 </r>
       <r>   -30.1239     0.0000    72.0000 </r>
       <r>   -29.9699     0.0000    72.0000 </r>
       <r>   -29.8159     0.0000    72.0000 </r>
       <r>   -29.6619     0.0000    72.0000 </r>
       <r>   -29.5080     0.0000    72.0000 </r>
       <r>   -29.3540     0.0000    72.0000 </r>
       <r>   -29.2000     0.0000    72.0000 </r>
       <r>   -29.0460     0.0000    72.0000 </r>
       <r>   -28.8921     0.0000    72.0000 </r>
       <r>   -28.7381     0.0000    72.0000 </r>
       <r>   -28.5841     0.0000    72.0000 </r>
       <r>   -28.4301     0.0000    72.0000 </r>
       <r>   -28.2761     0.0000    72.0000 </r>
       <r>   -28.1222     0.0000    72.0000 </r>
       <r>   -27.9682     0.0000    72.0000 </r>
       <r>   -27.8142     0.0000    72.0000 </r>
       <r>   -27.6602     0.0000    72.0000 </r>
       <r>   -27.5063     0.0000    72.0000 </r>
       <r>   -27.3523     0.0000    72.0000 </r>
       <r>   -27.1983     0.0000    72.0000 </r>
       <r>   -27.0443     0.0000    72.0000 </r>
       <r>   -26.8904     0.0000    72.0000 </r>
       <r>   -26.7364     0.0000    72.0000 </r>
       <r>   -26.5824     0.0000    72.0000 </r>
       <r>   -26.4284     0.0016    72.0002 </r>
       <r>   -26.2744     1.4365    72.2214 </r>
       <r>   -26.1205    37.3717    77.9758 </r>
       <r>   -25.9665    80.2996    90.3402 </r>
       <r>   -25.8125    89.3930   104.1047 </r>
       <r>   -25.6585    44.8826   111.0156 </r>
       <r>   -25.5046    18.7294   113.8995 </r>
       <r>   -25.3506     0.6524   113.9999 </r>
       <r>   -25.1966     0.0005   114.0000 </r>
       <r>   -25.0426     0.0000   114.0000 </r>
       <r>   -24.8886     0.0000   114.0000 </r>
       <r>   -24.7347     0.0289   114.0044 </r>
       <r>   -24.5807     3.4286   114.5324 </r>
       <r>   -24.4267    21.1343   117.7866 </r>
       <r>   -24.2727    37.1861   123.5124 </r>
       <r>   -24.1188    32.5670   128.5270 </r>
       <r>   -23.9648    59.4318   137.6781 </r>
       <r>   -23.8108    37.3413   143.4279 </r>
       <r>   -23.6568    31.3025   148.2477 </r>
       <r>   -23.5028    11.1182   149.9597 </r>
       <r>   -23.3489     0.2617   150.0000 </r>
       <r>   -23.1949     0.0001   150.0000 </r>
       <r>   -23.0409     0.0000   150.0000 </r>
       <r>   -22.8869     0.0000   150.0000 </r>
       <r>   -22.7330     0.0000   150.0000 </r>
       <r>   -22.5790     0.0000   150.0000 </r>
       <r>   -22.4250     0.0000   150.0000 </r>
       <r>   -22.2710     0.0000   150.0000 </r>
       <r>   -22.1170     0.0000   150.0000 </r>
       <r>   -21.9631     0.0000   150.0000 </r>
       <r>   -21.8091     0.0000   150.0000 </r>
       <r>   -21.6551     0.0000   150.0000 </r>
       <r>   -21.5011     0.0000   150.0000 </r>
       <r>   -21.3472     0.0000   150.0000 </r>
       <r>   -21.1932     0.0000   150.0000 </r>
       <r>   -21.0392     0.0000   150.0000 </r>
       <r>   -20.8852     0.0000   150.0000 </r>
       <r>   -20.7313     0.0000   150.0000 </r>
       <r>   -20.5773     0.0000   150.0000 </r>
       <r>   -20.4233     0.0000   150.0000 </r>
       <r>   -20.2693     0.0000   150.0000 </r>
       <r>   -20.1153     0.0000   150.0000 </r>
       <r>   -19.9614     0.0000   150.0000 </r>
       <r>   -19.8074     0.0000   150.0000 </r>
       <r>   -19.6534     0.0000   150.0000 </r>
       <r>   -19.4994     0.0000   150.0000 </r>
       <r>   -19.3455     0.0000   150.0000 </r>
       <r>   -19.1915     0.0000   150.0000 </r>
       <r>   -19.0375     0.0000   150.0000 </r>
       <r>   -18.8835     0.0000   150.0000 </r>
       <r>   -18.7295     0.0000   150.0000 </r>
       <r>   -18.5756     0.0000   150.0000 </r>
       <r>   -18.4216     0.0000   150.0000 </r>
       <r>   -18.2676     0.0000   150.0000 </r>
       <r>   -18.1136     0.0000   150.0000 </r>
       <r>   -17.9597     0.0000   150.0000 </r>
       <r>   -17.8057     0.0000   150.0000 </r>
       <r>   -17.6517     0.0000   150.0000 </r>
       <r>   -17.4977     0.0000   150.0000 </r>
       <r>   -17.3437     0.0000   150.0000 </r>
       <r>   -17.1898     0.0000   150.0000 </r>
       <r>   -17.0358     0.0000   150.0000 </r>
       <r>   -16.8818     0.0000   150.0000 </r>
       <r>   -16.7278     0.0000   150.0000 </r>
       <r>   -16.5739     0.0000   150.0000 </r>
       <r>   -16.4199     0.0000   150.0000 </r>
       <r>   -16.2659     0.0000   150.0000 </r>
       <r>   -16.1119     0.0000   150.0000 </r>
       <r>   -15.9580     0.0000   150.0000 </r>
       <r>   -15.8040     0.0000   150.0000 </r>
       <r>   -15.6500     0.0000   150.0000 </r>
       <r>   -15.4960     0.0000   150.0000 </r>
       <r>   -15.3420     0.0000   150.0000 </r>
       <r>   -15.1881     0.0000   150.0000 </r>
       <r>   -15.0341     0.0000   150.0000 </r>
       <r>   -14.8801     0.0000   150.0000 </r>
       <r>   -14.7261     0.0000   150.0000 </r>
       <r>   -14.5722     0.0000   150.0000 </r>
       <r>   -14.4182     0.0000   150.0000 </r>
       <r>   -14.2642     0.0000   150.0000 </r>
       <r>   -14.1102     0.0000   150.0000 </r>
       <r>   -13.9562     0.0000   150.0000 </r>
       <r>   -13.8023     0.0000   150.0000 </r>
       <r>   -13.6483     0.0000   150.0000 </r>
       <r>   -13.4943     0.0000   150.0000 </r>
       <r>   -13.3403     0.0000   150.0000 </r>
       <r>   -13.1864     0.0000   150.0000 </r>
       <r>   -13.0324     0.0000   150.0000 </r>
       <r>   -12.8784     0.0000   150.0000 </r>
       <r>   -12.7244     0.0000   150.0000 </r>
       <r>   -12.5704     0.0000   150.0000 </r>
       <r>   -12.4165     0.0000   150.0000 </r>
       <r>   -12.2625     0.0000   150.0000 </r>
       <r>   -12.1085     0.0000   150.0000 </r>
       <r>   -11.9545     0.0000   150.0000 </r>
       <r>   -11.8006     0.0000   150.0000 </r>
       <r>   -11.6466     0.0000   150.0000 </r>
       <r>   -11.4926     0.0000   150.0000 </r>
       <r>   -11.3386     0.0000   150.0000 </r>
       <r>   -11.1847     0.0000   150.0000 </r>
       <r>   -11.0307     0.0000   150.0000 </r>
       <r>   -10.8767     0.0000   150.0000 </r>
       <r>   -10.7227     0.0000   150.0000 </r>
       <r>   -10.5687     0.0000   150.0000 </r>
       <r>   -10.4148     0.0000   150.0000 </r>
       <r>   -10.2608     0.0000   150.0000 </r>
       <r>   -10.1068     0.0000   150.0000 </r>
       <r>    -9.9528     0.0000   150.0000 </r>
       <r>    -9.7989     0.0000   150.0000 </r>
       <r>    -9.6449     0.0000   150.0000 </r>
       <r>    -9.4909     0.0000   150.0000 </r>
       <r>    -9.3369     0.0000   150.0000 </r>
       <r>    -9.1829     0.0000   150.0000 </r>
       <r>    -9.0290     0.0000   150.0000 </r>
       <r>    -8.8750     0.0000   150.0000 </r>
       <r>    -8.7210     0.0000   150.0000 </r>
       <r>    -8.5670     0.0000   150.0000 </r>
       <r>    -8.4131     0.0450   150.0069 </r>
       <r>    -8.2591     2.2529   150.3538 </r>
       <r>    -8.1051     8.2861   151.6297 </r>
       <r>    -7.9511     2.3828   151.9966 </r>
       <r>    -7.7971     0.9588   152.1442 </r>
       <r>    -7.6432     7.7880   153.3434 </r>
       <r>    -7.4892     8.2203   154.6092 </r>
       <r>    -7.3352    19.8048   157.6587 </r>
       <r>    -7.1812    29.3695   162.1809 </r>
       <r>    -7.0273    24.4858   165.9512 </r>
       <r>    -6.8733    20.5419   169.1141 </r>
       <r>    -6.7193    22.5954   172.5933 </r>
       <r>    -6.5653    17.4413   175.2789 </r>
       <r>    -6.4114     4.3981   175.9561 </r>
       <r>    -6.2574     0.2842   175.9999 </r>
       <r>    -6.1034     0.0008   176.0000 </r>
       <r>    -5.9494     0.0000   176.0000 </r>
       <r>    -5.7954     0.0000   176.0000 </r>
       <r>    -5.6415     0.0000   176.0000 </r>
       <r>    -5.4875     0.0000   176.0000 </r>
       <r>    -5.3335     0.0182   176.0028 </r>
       <r>    -5.1795     1.0722   176.1679 </r>
       <r>    -5.0256     5.6575   177.0390 </r>
       <r>    -4.8716     5.4206   177.8737 </r>
       <r>    -4.7176     1.6982   178.1352 </r>
       <r>    -4.5636     8.3950   179.4278 </r>
       <r>    -4.4096     4.1439   180.0659 </r>
       <r>    -4.2557     7.2649   181.1845 </r>
       <r>    -4.1017    14.9917   183.4929 </r>
       <r>    -3.9477    16.8696   186.0904 </r>
       <r>    -3.7937    16.7213   188.6651 </r>
       <r>    -3.6398    19.9176   191.7320 </r>
       <r>    -3.4858    19.6780   194.7620 </r>
       <r>    -3.3318    19.9093   197.8275 </r>
       <r>    -3.1778    22.5754   201.3036 </r>
       <r>    -3.0238    25.1401   205.1746 </r>
       <r>    -2.8699    19.1864   208.1289 </r>
       <r>    -2.7159    15.5425   210.5221 </r>
       <r>    -2.5619    10.4335   212.1286 </r>
       <r>    -2.4079     8.1992   213.3911 </r>
       <r>    -2.2540     3.4427   213.9212 </r>
       <r>    -2.1000     0.4844   213.9958 </r>
       <r>    -1.9460     0.0272   214.0000 </r>
       <r>    -1.7920     0.0000   214.0000 </r>
       <r>    -1.6380     0.0000   214.0000 </r>
       <r>    -1.4841     0.0000   214.0000 </r>
       <r>    -1.3301     0.0000   214.0000 </r>
       <r>    -1.1761     0.0000   214.0000 </r>
       <r>    -1.0221     0.0000   214.0000 </r>
       <r>    -0.8682     0.0000   214.0000 </r>
       <r>    -0.7142     0.0000   214.0000 </r>
       <r>    -0.5602     0.0000   214.0000 </r>
       <r>    -0.4062     0.0000   214.0000 </r>
       <r>    -0.2523     0.0255   214.0039 </r>
       <r>    -0.0983     0.3485   214.0576 </r>
       <r>     0.0557     1.1974   214.2420 </r>
       <r>     0.2097     2.9640   214.6984 </r>
       <r>     0.3637     7.0280   215.7805 </r>
       <r>     0.5176    10.3155   217.3689 </r>
       <r>     0.6716     9.3241   218.8046 </r>
       <r>     0.8256    12.0162   220.6548 </r>
       <r>     0.9796    13.0520   222.6645 </r>
       <r>     1.1335    19.2364   225.6265 </r>
       <r>     1.2875    22.5490   229.0985 </r>
       <r>     1.4415    27.1769   233.2831 </r>
       <r>     1.5955    28.9005   237.7332 </r>
       <r>     1.7495    26.5910   241.8276 </r>
       <r>     1.9034    25.8279   245.8045 </r>
       <r>     2.0574    33.7916   251.0077 </r>
       <r>     2.2114    39.5164   257.0923 </r>
       <r>     2.3654    33.9206   262.3153 </r>
       <r>     2.5193    40.7681   268.5927 </r>
       <r>     2.6733    47.7588   275.9464 </r>
       <r>     2.8273    53.1729   284.1339 </r>
       <r>     2.9813    61.3595   293.5818 </r>
       <r>     3.1353    60.6959   302.9276 </r>
       <r>     3.2892    59.1557   312.0363 </r>
       <r>     3.4432    60.0256   321.2789 </r>
       <r>     3.5972    64.1073   331.1500 </r>
       <r>     3.7512    63.9587   340.9981 </r>
       <r>     3.9051    60.2848   350.2806 </r>
       <r>     4.0591    57.4050   359.1197 </r>
       <r>     4.2131    50.8635   366.9515 </r>
       <r>     4.3671    40.0619   373.1202 </r>
       <r>     4.5210    37.6657   378.9199 </r>
       <r>     4.6750    34.7824   384.2756 </r>
       <r>     4.8290    27.7815   388.5533 </r>
       <r>     4.9830    26.3222   392.6063 </r>
       <r>     5.1370    24.1734   396.3285 </r>
       <r>     5.2909    19.8573   399.3860 </r>
       <r>     5.4449    17.0442   402.0105 </r>
       <r>     5.5989    15.3470   404.3735 </r>
       <r>     5.7529     5.5833   405.2333 </r>
       <r>     5.9068     6.2302   406.1926 </r>
       <r>     6.0608     8.0841   407.4373 </r>
       <r>     6.2148    16.0814   409.9135 </r>
       <r>     6.3688    16.6487   412.4770 </r>
       <r>     6.5228    16.6681   415.0435 </r>
       <r>     6.6767    17.6473   417.7608 </r>
       <r>     6.8307    15.9652   420.2191 </r>
       <r>     6.9847    18.7333   423.1036 </r>
       <r>     7.1387    19.1401   426.0508 </r>
       <r>     7.2926    18.5978   428.9144 </r>
       <r>     7.4466    20.1409   432.0156 </r>
       <r>     7.6006    21.0748   435.2607 </r>
       <r>     7.7546    24.6328   439.0536 </r>
       <r>     7.9086    23.3055   442.6421 </r>
       <r>     8.0625    22.3483   446.0832 </r>
       <r>     8.2165    29.9635   450.6969 </r>
       <r>     8.3705    32.8283   455.7518 </r>
       <r>     8.5245    39.4316   461.8233 </r>
       <r>     8.6784    44.5367   468.6810 </r>
       <r>     8.8324    49.1044   476.2420 </r>
       <r>     8.9864    51.4900   484.1703 </r>
       <r>     9.1404    53.9993   492.4849 </r>
       <r>     9.2943    56.9770   501.2581 </r>
       <r>     9.4483    55.3836   509.7859 </r>
       <r>     9.6023    52.6028   517.8856 </r>
       <r>     9.7563    55.3316   526.4054 </r>
       <r>     9.9103    58.9003   535.4747 </r>
       <r>    10.0642    60.6774   544.8177 </r>
       <r>    10.2182    55.0847   553.2995 </r>
       <r>    10.3722    34.1793   558.5623 </r>
       <r>    10.5262     8.9888   559.9464 </r>
       <r>    10.6801     0.3478   559.9999 </r>
       <r>    10.8341     0.0005   560.0000 </r>
       <r>    10.9881     0.0000   560.0000 </r>
       <r>    11.1421     0.0000   560.0000 </r>
       <r>    11.2961     0.0000   560.0000 </r>
       <r>    11.4500     0.0000   560.0000 </r>
       <r>    11.6040     0.0000   560.0000 </r>
       <r>    11.7580     0.0000   560.0000 </r>
       <r>    11.9120     0.0000   560.0000 </r>
       <r>    12.0659     0.0000   560.0000 </r>
       <r>    12.2199     0.0000   560.0000 </r>
       <r>    12.3739     0.0000   560.0000 </r>
       <r>    12.5279     0.0000   560.0000 </r>
      </set>
     </set>
    </array>
   </total>
  </dos>
 </calculation>
 <structure name="finalpos" >
  <crystal>
   <varray name="basis" >
    <v>       8.84548447      -0.00605115       0.00155179 </v>
    <v>      -0.00603926       8.84136282      -0.00860016 </v>
    <v>       0.00156374      -0.00860139       8.79829126 </v>
   </varray>
   <i name="volume">    688.07937938 </i>
   <varray name="rec_basis" >
    <v>       0.11305209       0.00007720      -0.00002002 </v>
    <v>       0.00007736       0.11310490       0.00011056 </v>
    <v>      -0.00001986       0.00011054       0.11365854 </v>
   </varray>
  </crystal>
  <varray name="positions" >
   <v>       0.00037536       0.00368300       0.01025667 </v>
   <v>       0.24304871       0.00906422       0.24623146 </v>
   <v>       0.26271298       0.48625364       0.25195898 </v>
   <v>       0.49995611       0.49921181       0.99887268 </v>
   <v>       0.49913648       0.25673407       0.75495151 </v>
   <v>       0.01004558       0.49435794       0.49662594 </v>
   <v>       0.50084316       0.74376114       0.75208883 </v>
   <v>       0.00220729       0.24173022       0.25319568 </v>
   <v>       0.76171066       0.74804194       0.00301529 </v>
   <v>       0.00336289       0.26047591       0.74689647 </v>
   <v>       0.75656148       0.26472923       0.49250122 </v>
   <v>       0.99755867       0.73730720       0.74755925 </v>
   <v>       0.25639851       0.49778576       0.74993427 </v>
   <v>       0.26745975       0.26365861       0.98913606 </v>
   <v>       0.50685942       0.26047752       0.23936554 </v>
   <v>       0.76396348       0.99324318       0.23736541 </v>
   <v>       0.72473854       0.25070269       0.01879733 </v>
   <v>       0.23168814       0.72920457       0.00389162 </v>
   <v>       0.23509811       0.24882747       0.51490388 </v>
   <v>       0.25426021       0.24889336       0.24843502 </v>
   <v>       0.24454989       0.00944000       0.00843913 </v>
   <v>       0.99814578       0.24062694       0.00068280 </v>
   <v>       0.74436919       0.24176934       0.24628600 </v>
   <v>       0.75687723       0.00694890       0.00543348 </v>
   <v>       0.50288624       0.00951842       0.24839348 </v>
   <v>       0.99914973       0.49907398       0.25787867 </v>
   <v>       0.49867356       0.74600674       0.99250563 </v>
   <v>       0.99916180       0.00209775       0.75137050 </v>
   <v>       0.74477227       0.25318235       0.75267495 </v>
   <v>       0.75714975       0.00027396       0.49431475 </v>
   <v>       0.49769309       0.25743009       0.49995220 </v>
   <v>       0.50215686       0.00433257       0.75032430 </v>
   <v>       0.00097240       0.99970364       0.24578487 </v>
   <v>       0.49633053       0.25858859       0.00085913 </v>
   <v>       0.24180017       0.74785620       0.23872022 </v>
   <v>       0.25558693       0.49965880       0.00490751 </v>
   <v>       0.00670143       0.75399435       0.00288675 </v>
   <v>       0.75479876       0.74725042       0.25504314 </v>
   <v>       0.74136110       0.49059588       0.00006128 </v>
   <v>       0.49558353       0.49240779       0.24723479 </v>
   <v>       0.25462005       0.25245273       0.75132033 </v>
   <v>       0.24479073       0.00967117       0.49362326 </v>
   <v>       0.00411878       0.25384039       0.50084180 </v>
   <v>       0.25357374       0.74620085       0.76265075 </v>
   <v>       0.25277250       0.48752936       0.49532413 </v>
   <v>       0.99251463       0.75420918       0.49753482 </v>
   <v>       0.99748253       0.49853929       0.74351311 </v>
   <v>       0.74417348       0.74559613       0.74965515 </v>
   <v>       0.75686468       0.50053113       0.49679387 </v>
   <v>       0.50503038       0.74675204       0.50645711 </v>
   <v>       0.50340280       0.49996850       0.74995944 </v>
   <v>       0.49779387       0.00274065       0.00394195 </v>
   <v>       0.99874414       0.49319475       0.00569095 </v>
   <v>       0.49681091       0.74795960       0.24544949 </v>
   <v>       0.24636458       0.00018193       0.75736764 </v>
   <v>       0.49881112       0.00866623       0.49444317 </v>
   <v>       0.75317439       0.00009750       0.75196530 </v>
   <v>       0.24990689       0.74848281       0.49823376 </v>
   <v>       0.00102148       0.76508444       0.25225791 </v>
   <v>       0.73062062       0.49419896       0.24183189 </v>
   <v>       0.00888835       0.01093565       0.48414381 </v>
   <v>       0.50133248       0.50127569       0.49862500 </v>
   <v>       0.74385709       0.50378110       0.75793367 </v>
   <v>       0.74662469       0.72921043       0.50070566 </v>
  </varray>
 </structure>
</modeling>
