  64  64   0   0
  0.1129557E+02  0.8932500E-09  0.9055600E-09  0.8937200E-09  0.5000000E-15
  1.000000000000000E-004
  CAR 
 HECN                                    
     13.54122617    -60.36550317  301      8.00793943      1.00000000
    -60.366  0.0000E+00  0.0000E+00
    -60.119  0.0000E+00  0.0000E+00
    -59.873  0.0000E+00  0.0000E+00
    -59.626  0.0000E+00  0.0000E+00
    -59.380  0.0000E+00  0.0000E+00
    -59.134  0.0000E+00  0.0000E+00
    -58.887  0.0000E+00  0.0000E+00
    -58.641  0.0000E+00  0.0000E+00
    -58.395  0.0000E+00  0.0000E+00
    -58.148  0.0000E+00  0.0000E+00
    -57.902  0.0000E+00  0.0000E+00
    -57.656  0.0000E+00  0.0000E+00
    -57.409  0.6318E-09  0.1556E-09
    -57.163  0.1765E-02  0.4349E-03
    -56.917  0.2354E+00  0.5842E-01
    -56.670  0.2464E+00  0.1191E+00
    -56.424  0.3511E-02  0.1200E+00
    -56.177  0.6131E-08  0.1200E+00
    -55.931  0.0000E+00  0.1200E+00
    -55.685  0.0000E+00  0.1200E+00
    -55.438  0.0000E+00  0.1200E+00
    -55.192  0.0000E+00  0.1200E+00
    -54.946  0.0000E+00  0.1200E+00
    -54.699  0.0000E+00  0.1200E+00
    -54.453  0.0000E+00  0.1200E+00
    -54.207  0.0000E+00  0.1200E+00
    -53.960  0.0000E+00  0.1200E+00
    -53.714  0.0000E+00  0.1200E+00
    -53.468  0.0000E+00  0.1200E+00
    -53.221  0.0000E+00  0.1200E+00
    -52.975  0.0000E+00  0.1200E+00
    -52.728  0.0000E+00  0.1200E+00
    -52.482  0.0000E+00  0.1200E+00
    -52.236  0.0000E+00  0.1200E+00
    -51.989  0.0000E+00  0.1200E+00
    -51.743  0.0000E+00  0.1200E+00
    -51.497  0.0000E+00  0.1200E+00
    -51.250  0.0000E+00  0.1200E+00
    -51.004  0.0000E+00  0.1200E+00
    -50.758  0.0000E+00  0.1200E+00
    -50.511  0.0000E+00  0.1200E+00
    -50.265  0.0000E+00  0.1200E+00
    -50.019  0.1446E-09  0.1200E+00
    -49.772  0.9261E-03  0.1202E+00
    -49.526  0.1843E+00  0.1656E+00
    -49.279  0.1860E+00  0.2115E+00
    -49.033  0.1873E+00  0.2576E+00
    -48.787  0.9699E-02  0.2600E+00
    -48.540  0.1106E-06  0.2600E+00
    -48.294  0.0000E+00  0.2600E+00
    -48.048  0.0000E+00  0.2600E+00
    -47.801  0.0000E+00  0.2600E+00
    -47.555  0.0000E+00  0.2600E+00
    -47.309  0.0000E+00  0.2600E+00
    -47.062  0.0000E+00  0.2600E+00
    -46.816  0.0000E+00  0.2600E+00
    -46.570  0.0000E+00  0.2600E+00
    -46.323  0.0000E+00  0.2600E+00
    -46.077  0.0000E+00  0.2600E+00
    -45.831  0.0000E+00  0.2600E+00
    -45.584  0.0000E+00  0.2600E+00
    -45.338  0.0000E+00  0.2600E+00
    -45.091  0.0000E+00  0.2600E+00
    -44.845  0.0000E+00  0.2600E+00
    -44.599  0.0000E+00  0.2600E+00
    -44.352  0.0000E+00  0.2600E+00
    -44.106  0.0000E+00  0.2600E+00
    -43.860  0.0000E+00  0.2600E+00
    -43.613  0.0000E+00  0.2600E+00
    -43.367  0.0000E+00  0.2600E+00
    -43.121  0.0000E+00  0.2600E+00
    -42.874  0.0000E+00  0.2600E+00
    -42.628  0.0000E+00  0.2600E+00
    -42.382  0.0000E+00  0.2600E+00
    -42.135  0.0000E+00  0.2600E+00
    -41.889  0.0000E+00  0.2600E+00
    -41.642  0.0000E+00  0.2600E+00
    -41.396  0.0000E+00  0.2600E+00
    -41.150  0.0000E+00  0.2600E+00
    -40.903  0.0000E+00  0.2600E+00
    -40.657  0.0000E+00  0.2600E+00
    -40.411  0.0000E+00  0.2600E+00
    -40.164  0.0000E+00  0.2600E+00
    -39.918  0.0000E+00  0.2600E+00
    -39.672  0.0000E+00  0.2600E+00
    -39.425  0.0000E+00  0.2600E+00
    -39.179  0.0000E+00  0.2600E+00
    -38.933  0.0000E+00  0.2600E+00
    -38.686  0.0000E+00  0.2600E+00
    -38.440  0.0000E+00  0.2600E+00
    -38.193  0.0000E+00  0.2600E+00
    -37.947  0.0000E+00  0.2600E+00
    -37.701  0.0000E+00  0.2600E+00
    -37.454  0.0000E+00  0.2600E+00
    -37.208  0.0000E+00  0.2600E+00
    -36.962  0.0000E+00  0.2600E+00
    -36.715  0.0000E+00  0.2600E+00
    -36.469  0.1901E-15  0.2600E+00
    -36.223  0.5514E-06  0.2600E+00
    -35.976  0.1571E-01  0.2639E+00
    -35.730  0.2177E+00  0.3175E+00
    -35.484  0.1030E+01  0.5712E+00
    -35.237  0.1979E+00  0.6200E+00
    -34.991  0.1960E-03  0.6200E+00
    -34.745  0.6308E-11  0.6200E+00
    -34.498  0.0000E+00  0.6200E+00
    -34.252  0.0000E+00  0.6200E+00
    -34.005  0.0000E+00  0.6200E+00
    -33.759  0.0000E+00  0.6200E+00
    -33.513  0.0000E+00  0.6200E+00
    -33.266  0.0000E+00  0.6200E+00
    -33.020  0.0000E+00  0.6200E+00
    -32.774  0.0000E+00  0.6200E+00
    -32.527  0.0000E+00  0.6200E+00
    -32.281  0.0000E+00  0.6200E+00
    -32.035  0.2136E-15  0.6200E+00
    -31.788  0.6196E-06  0.6200E+00
    -31.542  0.2325E-01  0.6257E+00
    -31.296  0.4681E+00  0.7410E+00
    -31.049  0.8997E+00  0.9627E+00
    -30.803  0.1047E+01  0.1221E+01
    -30.556  0.4793E+00  0.1339E+01
    -30.310  0.5114E-02  0.1340E+01
    -30.064  0.8831E-08  0.1340E+01
    -29.817  0.0000E+00  0.1340E+01
    -29.571  0.0000E+00  0.1340E+01
    -29.325  0.0000E+00  0.1340E+01
    -29.078  0.0000E+00  0.1340E+01
    -28.832  0.0000E+00  0.1340E+01
    -28.586  0.0000E+00  0.1340E+01
    -28.339  0.0000E+00  0.1340E+01
    -28.093  0.0000E+00  0.1340E+01
    -27.847  0.0000E+00  0.1340E+01
    -27.600  0.0000E+00  0.1340E+01
    -27.354  0.0000E+00  0.1340E+01
    -27.107  0.0000E+00  0.1340E+01
    -26.861  0.0000E+00  0.1340E+01
    -26.615  0.1956E-13  0.1340E+01
    -26.368  0.7416E-05  0.1340E+01
    -26.122  0.4999E-01  0.1352E+01
    -25.876  0.5321E+00  0.1483E+01
    -25.629  0.6348E+00  0.1640E+01
    -25.383  0.4769E+00  0.1757E+01
    -25.137  0.1103E-01  0.1760E+01
    -24.890  0.3164E-07  0.1760E+01
    -24.644  0.0000E+00  0.1760E+01
    -24.398  0.0000E+00  0.1760E+01
    -24.151  0.0000E+00  0.1760E+01
    -23.905  0.0000E+00  0.1760E+01
    -23.658  0.0000E+00  0.1760E+01
    -23.412  0.1006E-09  0.1760E+01
    -23.166  0.5991E-03  0.1760E+01
    -22.919  0.1485E+00  0.1797E+01
    -22.673  0.1690E+00  0.1838E+01
    -22.427  0.6808E+00  0.2006E+01
    -22.180  0.5592E+00  0.2144E+01
    -21.934  0.1442E+00  0.2179E+01
    -21.688  0.2608E-02  0.2180E+01
    -21.441  0.3766E-08  0.2180E+01
    -21.195  0.0000E+00  0.2180E+01
    -20.949  0.0000E+00  0.2180E+01
    -20.702  0.0000E+00  0.2180E+01
    -20.456  0.0000E+00  0.2180E+01
    -20.210  0.0000E+00  0.2180E+01
    -19.963  0.0000E+00  0.2180E+01
    -19.717  0.0000E+00  0.2180E+01
    -19.470  0.0000E+00  0.2180E+01
    -19.224  0.0000E+00  0.2180E+01
    -18.978  0.0000E+00  0.2180E+01
    -18.731  0.0000E+00  0.2180E+01
    -18.485  0.0000E+00  0.2180E+01
    -18.239  0.0000E+00  0.2180E+01
    -17.992  0.0000E+00  0.2180E+01
    -17.746  0.0000E+00  0.2180E+01
    -17.500  0.0000E+00  0.2180E+01
    -17.253  0.0000E+00  0.2180E+01
    -17.007  0.0000E+00  0.2180E+01
    -16.761  0.0000E+00  0.2180E+01
    -16.514  0.0000E+00  0.2180E+01
    -16.268  0.0000E+00  0.2180E+01
    -16.021  0.0000E+00  0.2180E+01
    -15.775  0.0000E+00  0.2180E+01
    -15.529  0.0000E+00  0.2180E+01
    -15.282  0.0000E+00  0.2180E+01
    -15.036  0.0000E+00  0.2180E+01
    -14.790  0.0000E+00  0.2180E+01
    -14.543  0.0000E+00  0.2180E+01
    -14.297  0.0000E+00  0.2180E+01
    -14.051  0.0000E+00  0.2180E+01
    -13.804  0.0000E+00  0.2180E+01
    -13.558  0.0000E+00  0.2180E+01
    -13.312  0.0000E+00  0.2180E+01
    -13.065  0.0000E+00  0.2180E+01
    -12.819  0.0000E+00  0.2180E+01
    -12.572  0.0000E+00  0.2180E+01
    -12.326  0.0000E+00  0.2180E+01
    -12.080  0.0000E+00  0.2180E+01
    -11.833  0.0000E+00  0.2180E+01
    -11.587  0.0000E+00  0.2180E+01
    -11.341  0.0000E+00  0.2180E+01
    -11.094  0.0000E+00  0.2180E+01
    -10.848  0.0000E+00  0.2180E+01
    -10.602  0.0000E+00  0.2180E+01
    -10.355  0.0000E+00  0.2180E+01
    -10.109  0.0000E+00  0.2180E+01
     -9.863  0.0000E+00  0.2180E+01
     -9.616  0.0000E+00  0.2180E+01
     -9.370  0.0000E+00  0.2180E+01
     -9.124  0.0000E+00  0.2180E+01
     -8.877  0.2001E-14  0.2180E+01
     -8.631  0.5041E-06  0.2180E+01
     -8.384  0.3640E-02  0.2181E+01
     -8.138  0.5945E-01  0.2196E+01
     -7.892  0.5116E-01  0.2208E+01
     -7.645  0.1206E+00  0.2238E+01
     -7.399  0.1012E+00  0.2263E+01
     -7.153  0.1381E+00  0.2297E+01
     -6.906  0.1685E+00  0.2338E+01
     -6.660  0.2184E+00  0.2392E+01
     -6.414  0.1595E+00  0.2431E+01
     -6.167  0.3492E-01  0.2440E+01
     -5.921  0.9498E-05  0.2440E+01
     -5.675  0.3754E-13  0.2440E+01
     -5.428  0.8536E-06  0.2440E+01
     -5.182  0.6803E-02  0.2442E+01
     -4.935  0.6516E-01  0.2458E+01
     -4.689  0.1392E-01  0.2461E+01
     -4.443  0.8792E-01  0.2483E+01
     -4.196  0.7726E-01  0.2502E+01
     -3.950  0.1438E+00  0.2537E+01
     -3.704  0.1739E+00  0.2580E+01
     -3.457  0.2188E+00  0.2634E+01
     -3.211  0.1690E+00  0.2676E+01
     -2.965  0.1700E+00  0.2718E+01
     -2.718  0.1595E+00  0.2757E+01
     -2.472  0.1511E+00  0.2794E+01
     -2.226  0.9605E-01  0.2818E+01
     -1.979  0.9253E-02  0.2820E+01
     -1.733  0.2468E-05  0.2820E+01
     -1.486  0.2572E-13  0.2820E+01
     -1.240  0.0000E+00  0.2820E+01
     -0.994  0.0000E+00  0.2820E+01
     -0.747  0.0000E+00  0.2820E+01
     -0.501  0.1589E-10  0.2820E+01
     -0.255  0.5110E-04  0.2820E+01
     -0.008  0.6516E-02  0.2822E+01
      0.238  0.2276E-01  0.2827E+01
      0.484  0.1073E+00  0.2854E+01
      0.731  0.1025E+00  0.2879E+01
      0.977  0.1309E+00  0.2911E+01
      1.223  0.2024E+00  0.2961E+01
      1.470  0.2873E+00  0.3032E+01
      1.716  0.2629E+00  0.3097E+01
      1.963  0.2862E+00  0.3167E+01
      2.209  0.3257E+00  0.3247E+01
      2.455  0.3403E+00  0.3331E+01
      2.702  0.3823E+00  0.3425E+01
      2.948  0.4801E+00  0.3544E+01
      3.194  0.5901E+00  0.3689E+01
      3.441  0.5981E+00  0.3836E+01
      3.687  0.5915E+00  0.3982E+01
      3.933  0.5526E+00  0.4118E+01
      4.180  0.5208E+00  0.4246E+01
      4.426  0.4431E+00  0.4356E+01
      4.672  0.4022E+00  0.4455E+01
      4.919  0.3133E+00  0.4532E+01
      5.165  0.2686E+00  0.4598E+01
      5.411  0.2509E+00  0.4660E+01
      5.658  0.1555E+00  0.4698E+01
      5.904  0.1362E+00  0.4732E+01
      6.151  0.8482E-01  0.4753E+01
      6.397  0.1444E+00  0.4788E+01
      6.643  0.1727E+00  0.4831E+01
      6.890  0.2064E+00  0.4882E+01
      7.136  0.2341E+00  0.4939E+01
      7.382  0.2240E+00  0.4994E+01
      7.629  0.2821E+00  0.5064E+01
      7.875  0.2818E+00  0.5133E+01
      8.121  0.2731E+00  0.5201E+01
      8.368  0.3643E+00  0.5290E+01
      8.614  0.4523E+00  0.5402E+01
      8.860  0.5546E+00  0.5538E+01
      9.107  0.5734E+00  0.5680E+01
      9.353  0.5376E+00  0.5812E+01
      9.600  0.5522E+00  0.5948E+01
      9.846  0.5283E+00  0.6078E+01
     10.092  0.5269E+00  0.6208E+01
     10.339  0.1291E+00  0.6240E+01
     10.585  0.2362E-03  0.6240E+01
     10.831  0.4735E-10  0.6240E+01
     11.078  0.0000E+00  0.6240E+01
     11.324  0.0000E+00  0.6240E+01
     11.570  0.0000E+00  0.6240E+01
     11.817  0.0000E+00  0.6240E+01
     12.063  0.0000E+00  0.6240E+01
     12.309  0.0000E+00  0.6240E+01
     12.556  0.0000E+00  0.6240E+01
     12.802  0.0000E+00  0.6240E+01
     13.049  0.0000E+00  0.6240E+01
     13.295  0.0000E+00  0.6240E+01
     13.541  0.0000E+00  0.6240E+01
