 running on   24 total cores
 distrk:  each k-point on   24 cores,    1 groups
 distr:  one band on    1 cores,   24 groups
 using from now: INCAR     
 vasp.5.4.4.18Apr17-6-g9f103f2a35 (build Oct 18 2021 20:38:43) complex          
  
 POSCAR found type information on POSCAR  Hf V  Ti N  C  Cr W 
 POSCAR found :  7 types and      64 ions
 scaLAPACK will be used

 ----------------------------------------------------------------------------- 
|                                                                             |
|           W    W    AA    RRRRR   N    N  II  N    N   GGGG   !!!           |
|           W    W   A  A   R    R  NN   N  II  NN   N  G    G  !!!           |
|           W    W  A    A  R    R  N N  N  II  N N  N  G       !!!           |
|           W WW W  AAAAAA  RRRRR   N  N N  II  N  N N  G  GGG   !            |
|           WW  WW  A    A  R   R   N   NN  II  N   NN  G    G                |
|           W    W  A    A  R    R  N    N  II  N    N   GGGG   !!!           |
|                                                                             |
|      For optimal performance we recommend to set                            |
|        NCORE= 4 - approx SQRT( number of cores)                             |
|      NCORE specifies how many cores store one orbital (NPAR=cpu/NCORE).     |
|      This setting can  greatly improve the performance of VASP for DFT.     |
|      The default,   NCORE=1            might be grossly inefficient         |
|      on modern multi-core architectures or massively parallel machines.     |
|      Do your own testing !!!!                                               |
|      Unfortunately you need to use the default for GW and RPA calculations. |
|      (for HF NCORE is supported but not extensively tested yet)             |
|                                                                             |
 ----------------------------------------------------------------------------- 


 ----------------------------------------------------------------------------- 
|                                                                             |
|  ADVICE TO THIS USER RUNNING 'VASP/VAMP'   (HEAR YOUR MASTER'S VOICE ...):  |
|                                                                             |
|      You have a (more or less) 'large supercell' and for larger cells       |
|      it might be more efficient to use real space projection operators      |
|      So try LREAL= Auto  in the INCAR   file.                               |
|      Mind: If you want to do a very accurate calculations keep the          |
|      reciprocal projection scheme          (i.e. LREAL=.FALSE.)             |
|                                                                             |
 ----------------------------------------------------------------------------- 

 LDA part: xc-table for Pade appr. of Perdew
 POSCAR, INCAR and KPOINTS ok, starting setup
 FFT: planning ...
 WAVECAR not read
 entering main loop
       N       E                     dE             d eps       ncg     rms          rms(c)
DAV:   1     0.692822815330E+04    0.69282E+04   -0.21915E+05  8736   0.158E+03
DAV:   2     0.417686704679E+03   -0.65105E+04   -0.63518E+04  8736   0.609E+02
DAV:   3    -0.640550017334E+03   -0.10582E+04   -0.99430E+03 13152   0.205E+02
DAV:   4    -0.785832856281E+03   -0.14528E+03   -0.14134E+03 15576   0.909E+01
DAV:   5    -0.798400634631E+03   -0.12568E+02   -0.12273E+02 15744   0.238E+01    0.807E+01
RMM:   6    -0.910474051023E+03   -0.11207E+03   -0.29409E+03 12251   0.140E+02    0.120E+02
RMM:   7    -0.662883946636E+03    0.24759E+03   -0.31418E+02 13799   0.486E+01    0.589E+01
RMM:   8    -0.651008498725E+03    0.11875E+02   -0.84168E+01 13844   0.203E+01    0.393E+01
RMM:   9    -0.634387788949E+03    0.16621E+02   -0.22931E+01 14063   0.140E+01    0.216E+01
RMM:  10    -0.633698446172E+03    0.68934E+00   -0.94530E+00 14297   0.687E+00    0.198E+01
RMM:  11    -0.633225782943E+03    0.47266E+00   -0.72781E+00 13746   0.594E+00    0.169E+01
RMM:  12    -0.632338323397E+03    0.88746E+00   -0.41373E+00 14168   0.481E+00    0.144E+01
RMM:  13    -0.631970103795E+03    0.36822E+00   -0.31781E+00 14276   0.392E+00    0.111E+01
RMM:  14    -0.632090813505E+03   -0.12071E+00   -0.34032E+00 14055   0.394E+00    0.123E+01
RMM:  15    -0.631727050847E+03    0.36376E+00   -0.14885E+00 14201   0.305E+00    0.863E+00
RMM:  16    -0.631867842966E+03   -0.14079E+00   -0.89218E-01 13678   0.241E+00    0.998E+00
RMM:  17    -0.631458550502E+03    0.40929E+00   -0.51993E-01 14083   0.179E+00    0.314E+00
RMM:  18    -0.631447593947E+03    0.10957E-01   -0.37028E-01 14065   0.110E+00    0.324E+00
RMM:  19    -0.631467554310E+03   -0.19960E-01   -0.23734E-01 13862   0.967E-01    0.401E+00
RMM:  20    -0.631428395630E+03    0.39159E-01   -0.18739E-01 14202   0.778E-01    0.174E+00
RMM:  21    -0.631445998762E+03   -0.17603E-01   -0.11026E-01 14021   0.655E-01    0.247E+00
RMM:  22    -0.631430153502E+03    0.15845E-01   -0.70120E-02 14102   0.601E-01    0.122E+00
RMM:  23    -0.631427934816E+03    0.22187E-02   -0.50312E-02 13999   0.372E-01    0.742E-01
RMM:  24    -0.631426894629E+03    0.10402E-02   -0.31730E-02 13974   0.316E-01    0.418E-01
RMM:  25    -0.631428032074E+03   -0.11374E-02   -0.19652E-02 13730   0.211E-01    0.353E-01
RMM:  26    -0.631428097866E+03   -0.65792E-04   -0.11566E-02 13301   0.142E-01    0.200E-01
RMM:  27    -0.631428464112E+03   -0.36625E-03   -0.63950E-03 12448   0.104E-01    0.674E-02
RMM:  28    -0.631428778586E+03   -0.31447E-03   -0.40913E-03 11976   0.676E-02    0.457E-02
RMM:  29    -0.631429011253E+03   -0.23267E-03   -0.28382E-03 11867   0.580E-02    0.359E-02
RMM:  30    -0.631429164754E+03   -0.15350E-03   -0.17682E-03 11218   0.447E-02    0.204E-02
RMM:  31    -0.631429271630E+03   -0.10688E-03   -0.12163E-03 10761   0.334E-02    0.847E-03
RMM:  32    -0.631429352176E+03   -0.80546E-04   -0.84539E-04 10396   0.278E-02    0.792E-03
RMM:  33    -0.631429404311E+03   -0.52135E-04   -0.55085E-04  9526   0.229E-02    0.326E-03
RMM:  34    -0.631429439905E+03   -0.35594E-04   -0.37194E-04  8965   0.193E-02    0.433E-03
RMM:  35    -0.631429463213E+03   -0.23308E-04   -0.24716E-04  8674   0.167E-02    0.158E-03
RMM:  36    -0.631429479750E+03   -0.16537E-04   -0.17378E-04  8131   0.146E-02    0.114E-03
WARNING in EDDRMM: call to ZHEGV failed, returncode =   6  3      8
RMM:  37    -0.631429490655E+03   -0.10905E-04   -0.11872E-04  7793   0.136E-02    0.821E-04
RMM:  38    -0.631429498395E+03   -0.77396E-05   -0.85624E-05  7236   0.121E-02
   1 F= -.63142950E+03 E0= -.63132340E+03  d E =-.631429E+03
 curvature:   0.00 expect dE= 0.000E+00 dE for cont linesearch  0.000E+00
 trial: gam= 0.00000 g(F)=  0.429E+01 g(S)=  0.248E+02 ort = 0.000E+00 (trialstep = 0.100E+01)
 search vector abs. value=  0.291E+02
 bond charge predicted
       N       E                     dE             d eps       ncg     rms          rms(c)
DAV:   1    -0.857655778518E+03   -0.22623E+03   -0.70403E+03 12072   0.374E+02    0.107E+02
RMM:   2    -0.808779015292E+03    0.48877E+02   -0.20364E+03 10675   0.177E+02    0.854E+01
RMM:   3    -0.696551102791E+03    0.11223E+03   -0.22815E+02 13147   0.463E+01    0.692E+01
RMM:   4    -0.654802017300E+03    0.41749E+02   -0.10888E+02 12652   0.315E+01    0.380E+01
RMM:   5    -0.637703316082E+03    0.17099E+02   -0.64830E+01 11088   0.284E+01    0.342E+01
RMM:   6    -0.628418174128E+03    0.92851E+01   -0.21364E+01 11615   0.173E+01    0.201E+01
RMM:   7    -0.629349440228E+03   -0.93127E+00   -0.13740E+01 13711   0.954E+00    0.206E+01
RMM:   8    -0.626367945491E+03    0.29815E+01   -0.42322E+00 12745   0.695E+00    0.974E+00
RMM:   9    -0.626259088065E+03    0.10886E+00   -0.20052E+00 13670   0.390E+00    0.904E+00
RMM:  10    -0.625916687843E+03    0.34240E+00   -0.85436E-01 13289   0.301E+00    0.416E+00
RMM:  11    -0.625996930538E+03   -0.80243E-01   -0.60087E-01 14103   0.201E+00    0.424E+00
RMM:  12    -0.626019863033E+03   -0.22932E-01   -0.38496E-01 13373   0.192E+00    0.364E+00
RMM:  13    -0.626052133258E+03   -0.32270E-01   -0.29435E-01 13829   0.151E+00    0.327E+00
RMM:  14    -0.626017574027E+03    0.34559E-01   -0.21412E-01 14159   0.118E+00    0.214E+00
RMM:  15    -0.626020815910E+03   -0.32419E-02   -0.11994E-01 13979   0.837E-01    0.175E+00
RMM:  16    -0.626013193868E+03    0.76220E-02   -0.72070E-02 14055   0.623E-01    0.693E-01
RMM:  17    -0.626016425792E+03   -0.32319E-02   -0.49796E-02 13917   0.429E-01    0.554E-01
RMM:  18    -0.626017922345E+03   -0.14966E-02   -0.29507E-02 14155   0.350E-01    0.371E-01
RMM:  19    -0.626018047080E+03   -0.12474E-03   -0.14564E-02 13596   0.252E-01    0.299E-01
RMM:  20    -0.626017734221E+03    0.31286E-03   -0.77446E-03 13367   0.168E-01    0.116E-01
RMM:  21    -0.626018046388E+03   -0.31217E-03   -0.40689E-03 12807   0.119E-01    0.118E-01
RMM:  22    -0.626018127435E+03   -0.81047E-04   -0.22601E-03 12462   0.848E-02    0.391E-02
RMM:  23    -0.626018220728E+03   -0.93293E-04   -0.12354E-03 11927   0.606E-02    0.396E-02
RMM:  24    -0.626018273507E+03   -0.52779E-04   -0.73112E-04 11465   0.475E-02    0.262E-02
RMM:  25    -0.626018300311E+03   -0.26804E-04   -0.40524E-04 10990   0.338E-02    0.110E-02
RMM:  26    -0.626018320739E+03   -0.20428E-04   -0.25439E-04 11099   0.300E-02    0.692E-03
RMM:  27    -0.626018334151E+03   -0.13412E-04   -0.14846E-04  9832   0.211E-02    0.570E-03
RMM:  28    -0.626018341429E+03   -0.72783E-05   -0.89051E-05  9652   0.196E-02
   2 F= -.62601834E+03 E0= -.62594671E+03  d E =0.541116E+01
 trial-energy change:    5.411157  1 .order    8.655675  -29.061675   46.373026
 step:   0.4491(harm=  0.3853)  dis= 0.05308  next Energy=  -638.249250 (dE=-0.682E+01)
 bond charge predicted
       N       E                     dE             d eps       ncg     rms          rms(c)
DAV:   1    -0.742593348986E+03   -0.11658E+03   -0.24492E+03 11784   0.204E+02    0.102E+02
RMM:   2    -0.102509087834E+04   -0.28250E+03   -0.10740E+03 13112   0.904E+01    0.107E+02
RMM:   3    -0.700768203751E+03    0.32432E+03   -0.38046E+02 12447   0.725E+01    0.465E+01
RMM:   4    -0.654424969383E+03    0.46343E+02   -0.10820E+02 12758   0.344E+01    0.335E+01
RMM:   5    -0.650930972170E+03    0.34940E+01   -0.27267E+01 12279   0.191E+01    0.338E+01
RMM:   6    -0.642463307132E+03    0.84677E+01   -0.30731E+01 13012   0.151E+01    0.261E+01
RMM:   7    -0.641573295461E+03    0.89001E+00   -0.15847E+01 12918   0.113E+01    0.231E+01
RMM:   8    -0.641885940922E+03   -0.31265E+00   -0.11092E+01 13766   0.725E+00    0.225E+01
RMM:   9    -0.639445493486E+03    0.24404E+01   -0.36043E+00 13401   0.521E+00    0.113E+01
RMM:  10    -0.638937237253E+03    0.50826E+00   -0.12902E+00 13178   0.329E+00    0.816E+00
RMM:  11    -0.638677010497E+03    0.26023E+00   -0.84536E-01 13302   0.274E+00    0.740E+00
RMM:  12    -0.638435562543E+03    0.24145E+00   -0.66099E-01 13733   0.201E+00    0.302E+00
RMM:  13    -0.638512794884E+03   -0.77232E-01   -0.54506E-01 14071   0.157E+00    0.404E+00
RMM:  14    -0.638485999014E+03    0.26796E-01   -0.26765E-01 13890   0.123E+00    0.267E+00
RMM:  15    -0.638466003694E+03    0.19995E-01   -0.12610E-01 13846   0.886E-01    0.201E+00
RMM:  16    -0.638428415260E+03    0.37588E-01   -0.97319E-02 13964   0.829E-01    0.123E+00
RMM:  17    -0.638426861421E+03    0.15538E-02   -0.83861E-02 13805   0.694E-01    0.123E+00
RMM:  18    -0.638431789187E+03   -0.49278E-02   -0.97793E-02 14077   0.662E-01    0.962E-01
RMM:  19    -0.638437858581E+03   -0.60694E-02   -0.58114E-02 13949   0.458E-01    0.843E-01
RMM:  20    -0.638436196901E+03    0.16617E-02   -0.17891E-02 13949   0.278E-01    0.807E-01
RMM:  21    -0.638429162252E+03    0.70346E-02   -0.12730E-02 13851   0.279E-01    0.487E-01
RMM:  22    -0.638427011021E+03    0.21512E-02   -0.30834E-02 13987   0.377E-01    0.164E-01
RMM:  23    -0.638428338288E+03   -0.13273E-02   -0.12693E-02 12913   0.200E-01    0.254E-01
RMM:  24    -0.638428220441E+03    0.11785E-03   -0.30392E-03 12343   0.141E-01    0.221E-01
RMM:  25    -0.638427456467E+03    0.76397E-03   -0.22650E-03 13362   0.115E-01    0.926E-02
RMM:  26    -0.638427462596E+03   -0.61285E-05   -0.18750E-03 12908   0.942E-02    0.164E-02
RMM:  27    -0.638427498043E+03   -0.35448E-04   -0.53191E-04 11433   0.481E-02    0.141E-02
RMM:  28    -0.638427514692E+03   -0.16648E-04   -0.23446E-04 10472   0.280E-02    0.113E-02
RMM:  29    -0.638427527123E+03   -0.12431E-04   -0.16353E-04 10150   0.229E-02    0.535E-03
RMM:  30    -0.638427534108E+03   -0.69857E-05   -0.84976E-05  9429   0.185E-02
   3 F= -.63842753E+03 E0= -.63833800E+03  d E =-.699804E+01
 curvature:  -0.19 expect dE=-0.909E+00 dE for cont linesearch -0.149E-01
 ZBRENT: interpolating
 opt :   0.4665  next Energy=  -638.440639 (dE=-0.701E+01)
 bond charge predicted
       N       E                     dE             d eps       ncg     rms          rms(c)
DAV:   1    -0.638529018825E+03   -0.10149E+00   -0.22803E+00 12408   0.636E+00    0.258E+00
RMM:   2    -0.638949334690E+03   -0.42032E+00   -0.11953E+00 11533   0.415E+00    0.865E+00
RMM:   3    -0.638643619759E+03    0.30571E+00   -0.35663E-01 11297   0.243E+00    0.607E+00
RMM:   4    -0.638487160769E+03    0.15646E+00   -0.13144E-01 11609   0.134E+00    0.271E+00
RMM:   5    -0.638464580122E+03    0.22581E-01   -0.63969E-02 12224   0.869E-01    0.175E+00
RMM:   6    -0.638453678021E+03    0.10902E-01   -0.29633E-02 12451   0.512E-01    0.136E+00
RMM:   7    -0.638443757520E+03    0.99205E-02   -0.11800E-02 12345   0.329E-01    0.697E-01
RMM:   8    -0.638446501268E+03   -0.27437E-02   -0.77569E-03 11609   0.303E-01    0.113E+00
RMM:   9    -0.638441717309E+03    0.47840E-02   -0.43025E-03 11410   0.236E-01    0.440E-01
RMM:  10    -0.638440916735E+03    0.80057E-03   -0.26699E-03 12845   0.133E-01    0.260E-01
RMM:  11    -0.638440928896E+03   -0.12161E-04   -0.93218E-04 11981   0.103E-01    0.319E-01
RMM:  12    -0.638440526754E+03    0.40214E-03   -0.40518E-04 10877   0.754E-02    0.122E-01
RMM:  13    -0.638440521945E+03    0.48087E-05   -0.28784E-04 11592   0.445E-02    0.945E-02
RMM:  14    -0.638440508893E+03    0.13052E-04   -0.13246E-04 10642   0.361E-02    0.796E-02
RMM:  15    -0.638440498970E+03    0.99229E-05   -0.81789E-05  9943   0.289E-02
   4 F= -.63844050E+03 E0= -.63835158E+03  d E =-.701100E+01
 curvature:  -0.17 expect dE=-0.844E+00 dE for cont linesearch -0.466E-03
 trial: gam= 0.16393 g(F)=  0.443E+01 g(S)=  0.620E+00 ort = 0.284E+00 (trialstep = 0.893E+00)
 search vector abs. value=  0.592E+01
 bond charge predicted
       N       E                     dE             d eps       ncg     rms          rms(c)
DAV:   1    -0.629193706705E+03    0.92468E+01   -0.84975E+02  9216   0.113E+02    0.749E+00
RMM:   2    -0.646175297951E+03   -0.16982E+02   -0.12350E+02 14501   0.353E+01    0.276E+01
RMM:   3    -0.640982987384E+03    0.51923E+01   -0.13193E+01 11988   0.142E+01    0.114E+01
RMM:   4    -0.640646764159E+03    0.33622E+00   -0.43459E+00 13932   0.598E+00    0.959E+00
RMM:   5    -0.640494562644E+03    0.15220E+00   -0.15854E+00 14201   0.337E+00    0.732E+00
RMM:   6    -0.640273677981E+03    0.22088E+00   -0.76412E-01 14178   0.198E+00    0.357E+00
RMM:   7    -0.640267144159E+03    0.65338E-02   -0.47387E-01 14071   0.159E+00    0.396E+00
RMM:   8    -0.640266561077E+03    0.58308E-03   -0.34452E-01 13955   0.148E+00    0.391E+00
RMM:   9    -0.640193390270E+03    0.73171E-01   -0.22644E-01 13976   0.121E+00    0.184E+00
RMM:  10    -0.640215886506E+03   -0.22496E-01   -0.14137E-01 13983   0.971E-01    0.279E+00
RMM:  11    -0.640190059368E+03    0.25827E-01   -0.75499E-02 13770   0.796E-01    0.167E+00
RMM:  12    -0.640184449180E+03    0.56102E-02   -0.56240E-02 13720   0.502E-01    0.103E+00
RMM:  13    -0.640184390999E+03    0.58181E-04   -0.35508E-02 14055   0.394E-01    0.736E-01
RMM:  14    -0.640183046634E+03    0.13444E-02   -0.22478E-02 13530   0.241E-01    0.380E-01
RMM:  15    -0.640183535717E+03   -0.48908E-03   -0.12533E-02 13138   0.183E-01    0.263E-01
RMM:  16    -0.640183645218E+03   -0.10950E-03   -0.68481E-03 13129   0.125E-01    0.164E-01
RMM:  17    -0.640184020307E+03   -0.37509E-03   -0.36012E-03 12408   0.119E-01    0.216E-01
RMM:  18    -0.640184057838E+03   -0.37532E-04   -0.27778E-03 12324   0.829E-02    0.900E-02
RMM:  19    -0.640184151997E+03   -0.94158E-04   -0.14897E-03 11739   0.606E-02    0.658E-02
RMM:  20    -0.640184194154E+03   -0.42157E-04   -0.90843E-04 11434   0.447E-02    0.204E-02
RMM:  21    -0.640184236539E+03   -0.42385E-04   -0.50438E-04 10821   0.349E-02    0.222E-02
RMM:  22    -0.640184264577E+03   -0.28038E-04   -0.34779E-04 10709   0.293E-02    0.145E-02
RMM:  23    -0.640184280682E+03   -0.16105E-04   -0.20839E-04  9643   0.226E-02    0.568E-03
WARNING in EDDRMM: call to ZHEGV failed, returncode =   8  4      8
RMM:  24    -0.640184292688E+03   -0.12006E-04   -0.13865E-04  9217   0.199E-02    0.267E-03
RMM:  25    -0.640184299282E+03   -0.65944E-05   -0.77373E-05  8415   0.159E-02
   5 F= -.64018430E+03 E0= -.64009984E+03  d E =-.174380E+01
 trial-energy change:   -1.743800  1 .order   -1.913653   -4.551363    0.724056
 step:   0.7471(harm=  0.7707)  dis= 0.09499  next Energy=  -640.244308 (dE=-0.180E+01)
 bond charge predicted
       N       E                     dE             d eps       ncg     rms          rms(c)
DAV:   1    -0.639933522353E+03    0.25077E+00   -0.22474E+01  8832   0.186E+01    0.114E+00
RMM:   2    -0.640380506284E+03   -0.44698E+00   -0.33633E+00 14475   0.599E+00    0.549E+00
RMM:   3    -0.640262224281E+03    0.11828E+00   -0.35289E-01 13607   0.189E+00    0.194E+00
RMM:   4    -0.640261441855E+03    0.78243E-03   -0.95652E-02 13723   0.972E-01    0.181E+00
RMM:   5    -0.640249112971E+03    0.12329E-01   -0.36352E-02 13845   0.550E-01    0.911E-01
RMM:   6    -0.640245174841E+03    0.39381E-02   -0.19087E-02 14011   0.331E-01    0.616E-01
RMM:   7    -0.640245238220E+03   -0.63379E-04   -0.11740E-02 13479   0.249E-01    0.657E-01
RMM:   8    -0.640245289370E+03   -0.51150E-04   -0.94774E-03 13638   0.251E-01    0.663E-01
RMM:   9    -0.640243268284E+03    0.20211E-02   -0.64795E-03 13769   0.208E-01    0.360E-01
RMM:  10    -0.640243528652E+03   -0.26037E-03   -0.36642E-03 12844   0.163E-01    0.427E-01
RMM:  11    -0.640242942776E+03    0.58588E-03   -0.19738E-03 12924   0.120E-01    0.227E-01
RMM:  12    -0.640242864130E+03    0.78646E-04   -0.13285E-03 12370   0.819E-02    0.153E-01
RMM:  13    -0.640242878834E+03   -0.14704E-04   -0.87563E-04 12101   0.645E-02    0.125E-01
RMM:  14    -0.640242831892E+03    0.46942E-04   -0.55411E-04 11763   0.456E-02    0.633E-02
RMM:  15    -0.640242849084E+03   -0.17192E-04   -0.29951E-04 11303   0.367E-02    0.587E-02
RMM:  16    -0.640242849822E+03   -0.73800E-06   -0.18176E-04 10585   0.274E-02    0.424E-02
RMM:  17    -0.640242849523E+03    0.29927E-06   -0.12026E-04  9533   0.222E-02    0.194E-02
RMM:  18    -0.640242854563E+03   -0.50399E-05   -0.73204E-05  8781   0.187E-02
   6 F= -.64024285E+03 E0= -.64015740E+03  d E =-.180236E+01
 curvature:  -0.43 expect dE=-0.371E+00 dE for cont linesearch -0.261E-04
 trial: gam= 0.09462 g(F)=  0.662E+00 g(S)=  0.197E+00 ort = 0.189E-01 (trialstep = 0.864E+00)
 search vector abs. value=  0.916E+00
 bond charge predicted
       N       E                     dE             d eps       ncg     rms          rms(c)
DAV:   1    -0.639765316678E+03    0.47753E+00   -0.14452E+02 12072   0.661E+01    0.102E+01
RMM:   2    -0.647805878466E+03   -0.80406E+01   -0.37138E+01 13027   0.220E+01    0.271E+01
RMM:   3    -0.641865042500E+03    0.59408E+01   -0.73978E+00 11613   0.111E+01    0.128E+01
RMM:   4    -0.641325192724E+03    0.53985E+00   -0.23061E+00 13651   0.452E+00    0.107E+01
RMM:   5    -0.641057472664E+03    0.26772E+00   -0.92344E-01 12686   0.338E+00    0.813E+00
RMM:   6    -0.640722260471E+03    0.33521E+00   -0.46545E-01 13031   0.230E+00    0.400E+00
RMM:   7    -0.640694571492E+03    0.27689E-01   -0.27306E-01 13538   0.156E+00    0.380E+00
RMM:   8    -0.640663129452E+03    0.31442E-01   -0.17859E-01 13077   0.135E+00    0.320E+00
RMM:   9    -0.640628156794E+03    0.34973E-01   -0.11656E-01 13445   0.103E+00    0.219E+00
RMM:  10    -0.640623556478E+03    0.46003E-02   -0.77629E-02 13848   0.783E-01    0.203E+00
RMM:  11    -0.640608283906E+03    0.15273E-01   -0.35667E-02 12848   0.615E-01    0.124E+00
RMM:  12    -0.640602230329E+03    0.60536E-02   -0.24871E-02 13866   0.371E-01    0.546E-01
RMM:  13    -0.640603049332E+03   -0.81900E-03   -0.15334E-02 13928   0.240E-01    0.595E-01
RMM:  14    -0.640602122601E+03    0.92673E-03   -0.83088E-03 13452   0.216E-01    0.401E-01
RMM:  15    -0.640602328178E+03   -0.20558E-03   -0.56805E-03 12882   0.146E-01    0.325E-01
RMM:  16    -0.640602685439E+03   -0.35726E-03   -0.33300E-03 13190   0.126E-01    0.366E-01
RMM:  17    -0.640602280769E+03    0.40467E-03   -0.19832E-03 12445   0.994E-02    0.140E-01
RMM:  18    -0.640602382554E+03   -0.10178E-03   -0.14220E-03 12384   0.681E-02    0.116E-01
RMM:  19    -0.640602414562E+03   -0.32008E-04   -0.94804E-04 12145   0.603E-02    0.629E-02
RMM:  20    -0.640602461878E+03   -0.47316E-04   -0.61123E-04 11823   0.469E-02    0.333E-02
RMM:  21    -0.640602483881E+03   -0.22003E-04   -0.32097E-04 11301   0.362E-02    0.375E-02
RMM:  22    -0.640602483998E+03   -0.11692E-06   -0.18642E-04 10661   0.262E-02    0.157E-02
RMM:  23    -0.640602493690E+03   -0.96921E-05   -0.12891E-04 10698   0.242E-02    0.983E-03
RMM:  24    -0.640602498176E+03   -0.44864E-05   -0.59210E-05  9213   0.177E-02
   7 F= -.64060250E+03 E0= -.64051825E+03  d E =-.359644E+00
 trial-energy change:   -0.359644  1 .order   -0.363474   -0.743881    0.016932
 step:   0.8442(harm=  0.8448)  dis= 0.03729  next Energy=  -640.602692 (dE=-0.360E+00)
 bond charge predicted
       N       E                     dE             d eps       ncg     rms          rms(c)
DAV:   1    -0.640602127547E+03    0.36614E-03   -0.75197E-02 12528   0.154E+00    0.224E-01
RMM:   2    -0.640606260337E+03   -0.41328E-02   -0.20206E-02 12568   0.527E-01    0.682E-01
RMM:   3    -0.640603839550E+03    0.24208E-02   -0.38392E-03 11449   0.251E-01    0.472E-01
RMM:   4    -0.640603080995E+03    0.75856E-03   -0.12646E-03 11663   0.124E-01    0.269E-01
RMM:   5    -0.640602871576E+03    0.20942E-03   -0.56975E-04 10821   0.832E-02    0.174E-01
RMM:   6    -0.640602780473E+03    0.91103E-04   -0.28825E-04 10503   0.549E-02    0.143E-01
RMM:   7    -0.640602678695E+03    0.10178E-03   -0.12975E-04  9183   0.427E-02    0.741E-02
RMM:   8    -0.640602698141E+03   -0.19446E-04   -0.11785E-04  8969   0.350E-02    0.955E-02
RMM:   9    -0.640602662165E+03    0.35976E-04   -0.75652E-05  7768   0.305E-02    0.540E-02
RMM:  10    -0.640602656749E+03    0.54164E-05   -0.36790E-05  5904   0.246E-02
   8 F= -.64060266E+03 E0= -.64051839E+03  d E =-.359802E+00
 curvature:  -0.45 expect dE=-0.225E+00 dE for cont linesearch -0.488E-06
 trial: gam= 0.59229 g(F)=  0.195E+00 g(S)=  0.306E+00 ort =-0.998E-03 (trialstep = 0.860E+00)
 search vector abs. value=  0.821E+00
 bond charge predicted
       N       E                     dE             d eps       ncg     rms          rms(c)
DAV:   1    -0.638501475132E+03    0.21012E+01   -0.13586E+02 10968   0.715E+01    0.717E+00
RMM:   2    -0.645551248646E+03   -0.70498E+01   -0.39003E+01 12641   0.222E+01    0.236E+01
RMM:   3    -0.641587786327E+03    0.39635E+01   -0.57417E+00 12105   0.888E+00    0.113E+01
RMM:   4    -0.641090781641E+03    0.49700E+00   -0.14633E+00 13593   0.373E+00    0.637E+00
RMM:   5    -0.640968165673E+03    0.12262E+00   -0.47227E-01 13133   0.219E+00    0.471E+00
RMM:   6    -0.640879860603E+03    0.88305E-01   -0.26545E-01 13380   0.160E+00    0.374E+00
RMM:   7    -0.640810267230E+03    0.69593E-01   -0.14464E-01 13444   0.114E+00    0.189E+00
RMM:   8    -0.640835986524E+03   -0.25719E-01   -0.15559E-01 13628   0.115E+00    0.285E+00
RMM:   9    -0.640794814733E+03    0.41172E-01   -0.70342E-02 12724   0.878E-01    0.166E+00
RMM:  10    -0.640785041399E+03    0.97733E-02   -0.39669E-02 13713   0.574E-01    0.948E-01
RMM:  11    -0.640784074706E+03    0.96669E-03   -0.20441E-02 13829   0.348E-01    0.836E-01
RMM:  12    -0.640781780294E+03    0.22944E-02   -0.10587E-02 13205   0.246E-01    0.416E-01
RMM:  13    -0.640782156456E+03   -0.37616E-03   -0.69331E-03 12970   0.171E-01    0.410E-01
RMM:  14    -0.640782025488E+03    0.13097E-03   -0.41377E-03 12967   0.138E-01    0.287E-01
RMM:  15    -0.640781948322E+03    0.77166E-04   -0.25112E-03 12759   0.989E-02    0.169E-01
RMM:  16    -0.640782347530E+03   -0.39921E-03   -0.17553E-03 12468   0.950E-02    0.260E-01
RMM:  17    -0.640782119446E+03    0.22808E-03   -0.94917E-04 12003   0.760E-02    0.781E-02
RMM:  18    -0.640782240842E+03   -0.12140E-03   -0.80342E-04 12057   0.518E-02    0.889E-02
RMM:  19    -0.640782237968E+03    0.28746E-05   -0.49482E-04 11644   0.438E-02    0.243E-02
RMM:  20    -0.640782255855E+03   -0.17887E-04   -0.25042E-04 10929   0.328E-02    0.178E-02
RMM:  21    -0.640782266272E+03   -0.10418E-04   -0.13558E-04 10387   0.259E-02    0.195E-02
RMM:  22    -0.640782269396E+03   -0.31232E-05   -0.83950E-05  9908   0.214E-02
   9 F= -.64078227E+03 E0= -.64070267E+03  d E =-.179613E+00
 trial-energy change:   -0.179613  1 .order   -0.173689   -0.430333    0.082956
 step:   0.7288(harm=  0.7211)  dis= 0.03254  next Energy=  -640.788580 (dE=-0.186E+00)
 bond charge predicted
       N       E                     dE             d eps       ncg     rms          rms(c)
DAV:   1    -0.640739878705E+03    0.42388E-01   -0.32170E+00 11424   0.109E+01    0.114E+00
RMM:   2    -0.640926181461E+03   -0.18630E+00   -0.86531E-01 12989   0.316E+00    0.466E+00
RMM:   3    -0.640823176414E+03    0.10301E+00   -0.13561E-01 11903   0.141E+00    0.243E+00
RMM:   4    -0.640799302813E+03    0.23874E-01   -0.39116E-02 12348   0.698E-01    0.126E+00
RMM:   5    -0.640793084206E+03    0.62186E-02   -0.16065E-02 13015   0.393E-01    0.678E-01
RMM:   6    -0.640791471015E+03    0.16132E-02   -0.76153E-03 13188   0.250E-01    0.616E-01
RMM:   7    -0.640789403631E+03    0.20674E-02   -0.35538E-03 12610   0.185E-01    0.307E-01
RMM:   8    -0.640790644683E+03   -0.12411E-02   -0.32748E-03 12430   0.181E-01    0.597E-01
RMM:   9    -0.640789118076E+03    0.15266E-02   -0.20276E-03 12057   0.159E-01    0.276E-01
RMM:  10    -0.640788874256E+03    0.24382E-03   -0.11579E-03 12201   0.102E-01    0.203E-01
RMM:  11    -0.640788771450E+03    0.10281E-03   -0.56297E-04 11621   0.719E-02    0.153E-01
RMM:  12    -0.640788684880E+03    0.86570E-04   -0.30394E-04 11417   0.468E-02    0.796E-02
RMM:  13    -0.640788681176E+03    0.37047E-05   -0.17946E-04 10649   0.354E-02    0.625E-02
RMM:  14    -0.640788671810E+03    0.93659E-05   -0.11759E-04 10146   0.238E-02    0.376E-02
WARNING in EDDRMM: call to ZHEGV failed, returncode =   6  3      9
RMM:  15    -0.640788670632E+03    0.11779E-05   -0.73897E-05  9157   0.194E-02
  10 F= -.64078867E+03 E0= -.64070843E+03  d E =-.186014E+00
 curvature:  -0.59 expect dE=-0.115E+00 dE for cont linesearch -0.817E-06
 trial: gam= 0.36957 g(F)=  0.167E+00 g(S)=  0.275E-01 ort = 0.107E-02 (trialstep = 0.834E+00)
 search vector abs. value=  0.307E+00
 bond charge predicted
       N       E                     dE             d eps       ncg     rms          rms(c)
DAV:   1    -0.639718201273E+03    0.10705E+01   -0.46205E+01  8760   0.406E+01    0.192E+00
RMM:   2    -0.640923597680E+03   -0.12054E+01   -0.11736E+01 14403   0.101E+01    0.469E+00
RMM:   3    -0.640953844912E+03   -0.30247E-01   -0.11900E+00 13747   0.292E+00    0.383E+00
RMM:   4    -0.640922267904E+03    0.31577E-01   -0.19530E-01 13560   0.144E+00    0.213E+00
RMM:   5    -0.640899447373E+03    0.22821E-01   -0.65226E-02 14124   0.761E-01    0.134E+00
RMM:   6    -0.640891587076E+03    0.78603E-02   -0.33053E-02 14014   0.416E-01    0.719E-01
RMM:   7    -0.640893745373E+03   -0.21583E-02   -0.23070E-02 13889   0.341E-01    0.105E+00
RMM:   8    -0.640891652447E+03    0.20929E-02   -0.16466E-02 13730   0.375E-01    0.953E-01
RMM:   9    -0.640887508105E+03    0.41443E-02   -0.12783E-02 13865   0.281E-01    0.462E-01
RMM:  10    -0.640888213407E+03   -0.70530E-03   -0.71651E-03 13366   0.212E-01    0.594E-01
RMM:  11    -0.640886895518E+03    0.13179E-02   -0.34600E-03 13036   0.159E-01    0.232E-01
RMM:  12    -0.640886811233E+03    0.84285E-04   -0.24401E-03 12311   0.943E-02    0.160E-01
RMM:  13    -0.640886850157E+03   -0.38924E-04   -0.13943E-03 12064   0.784E-02    0.167E-01
RMM:  14    -0.640886769611E+03    0.80546E-04   -0.81382E-04 12001   0.647E-02    0.808E-02
RMM:  15    -0.640886818596E+03   -0.48985E-04   -0.59170E-04 11580   0.471E-02    0.813E-02
RMM:  16    -0.640886801242E+03    0.17354E-04   -0.32385E-04 11040   0.379E-02    0.371E-02
RMM:  17    -0.640886815627E+03   -0.14385E-04   -0.20551E-04 10539   0.264E-02    0.329E-02
RMM:  18    -0.640886821846E+03   -0.62191E-05   -0.11450E-04  9446   0.220E-02    0.291E-02
RMM:  19    -0.640886821756E+03    0.89829E-07   -0.65584E-05  9006   0.173E-02
  11 F= -.64088682E+03 E0= -.64080821E+03  d E =-.981511E-01
 trial-energy change:   -0.098151  1 .order   -0.098518   -0.162401   -0.034634
 step:   1.0649(harm=  1.0598)  dis= 0.02676  next Energy=  -640.891614 (dE=-0.103E+00)
 bond charge predicted
       N       E                     dE             d eps       ncg     rms          rms(c)
DAV:   1    -0.640804219003E+03    0.82603E-01   -0.35660E+00  8904   0.112E+01    0.521E-01
RMM:   2    -0.640894282084E+03   -0.90063E-01   -0.88124E-01 14404   0.275E+00    0.123E+00
RMM:   3    -0.640897065969E+03   -0.27839E-02   -0.84957E-02 13882   0.792E-01    0.110E+00
RMM:   4    -0.640894190165E+03    0.28758E-02   -0.14736E-02 13453   0.395E-01    0.539E-01
RMM:   5    -0.640892826657E+03    0.13635E-02   -0.52454E-03 13666   0.193E-01    0.399E-01
RMM:   6    -0.640892160030E+03    0.66663E-03   -0.24137E-03 12747   0.122E-01    0.200E-01
RMM:   7    -0.640892304522E+03   -0.14449E-03   -0.18212E-03 12760   0.954E-02    0.265E-01
RMM:   8    -0.640892148792E+03    0.15573E-03   -0.14531E-03 13106   0.108E-01    0.248E-01
RMM:   9    -0.640891864686E+03    0.28411E-03   -0.95486E-04 12732   0.840E-02    0.141E-01
RMM:  10    -0.640891879233E+03   -0.14547E-04   -0.51944E-04 11798   0.599E-02    0.140E-01
RMM:  11    -0.640891818144E+03    0.61089E-04   -0.27058E-04 11280   0.440E-02    0.661E-02
WARNING in EDDRMM: call to ZHEGV failed, returncode =   8  4      9
RMM:  12    -0.640891811023E+03    0.71211E-05   -0.18239E-04 10762   0.316E-02    0.476E-02
RMM:  13    -0.640891812387E+03   -0.13636E-05   -0.11662E-04 10086   0.249E-02    0.418E-02
RMM:  14    -0.640891806926E+03    0.54608E-05   -0.72299E-05  9539   0.200E-02
  12 F= -.64089181E+03 E0= -.64081363E+03  d E =-.103136E+00
 curvature:  -0.84 expect dE=-0.731E-01 dE for cont linesearch -0.660E-07
 trial: gam= 0.39122 g(F)=  0.735E-01 g(S)=  0.140E-01 ort = 0.156E-03 (trialstep = 0.880E+00)
 search vector abs. value=  0.135E+00
 bond charge predicted
       N       E                     dE             d eps       ncg     rms          rms(c)
DAV:   1    -0.640455884683E+03    0.43593E+00   -0.22630E+01  9576   0.299E+01    0.226E+00
RMM:   2    -0.641278832056E+03   -0.82295E+00   -0.59736E+00 14487   0.736E+00    0.754E+00
RMM:   3    -0.641060489329E+03    0.21834E+00   -0.68719E-01 12268   0.291E+00    0.469E+00
RMM:   4    -0.640977872752E+03    0.82617E-01   -0.18936E-01 13573   0.138E+00    0.233E+00
RMM:   5    -0.640962079872E+03    0.15793E-01   -0.77415E-02 13797   0.771E-01    0.168E+00
RMM:   6    -0.640947677512E+03    0.14402E-01   -0.32665E-02 13576   0.547E-01    0.113E+00
RMM:   7    -0.640943561721E+03    0.41158E-02   -0.20492E-02 13793   0.386E-01    0.821E-01
RMM:   8    -0.640944637409E+03   -0.10757E-02   -0.17693E-02 13981   0.371E-01    0.930E-01
RMM:   9    -0.640941476841E+03    0.31606E-02   -0.10332E-02 13248   0.319E-01    0.655E-01
RMM:  10    -0.640939838574E+03    0.16383E-02   -0.71547E-03 13690   0.233E-01    0.357E-01
RMM:  11    -0.640939407568E+03    0.43101E-03   -0.35453E-03 13280   0.141E-01    0.290E-01
RMM:  12    -0.640939285906E+03    0.12166E-03   -0.21721E-03 12367   0.103E-01    0.182E-01
RMM:  13    -0.640939322332E+03   -0.36426E-04   -0.13820E-03 12004   0.699E-02    0.131E-01
RMM:  14    -0.640939287064E+03    0.35268E-04   -0.78394E-04 11752   0.517E-02    0.783E-02
RMM:  15    -0.640939313690E+03   -0.26626E-04   -0.43635E-04 11590   0.428E-02    0.704E-02
RMM:  16    -0.640939314886E+03   -0.11962E-05   -0.28887E-04 10986   0.323E-02    0.422E-02
RMM:  17    -0.640939319786E+03   -0.48993E-05   -0.15520E-04 10508   0.274E-02    0.356E-02
RMM:  18    -0.640939328880E+03   -0.90943E-05   -0.10274E-04 10076   0.236E-02    0.370E-02
RMM:  19    -0.640939326411E+03    0.24692E-05   -0.70108E-05  9458   0.197E-02
  13 F= -.64093933E+03 E0= -.64086256E+03  d E =-.475195E-01
 trial-energy change:   -0.047519  1 .order   -0.047342   -0.076998   -0.017686
 step:   1.1365(harm=  1.1425)  dis= 0.01706  next Energy=  -640.941908 (dE=-0.501E-01)
 bond charge predicted
       N       E                     dE             d eps       ncg     rms          rms(c)
DAV:   1    -0.640897619341E+03    0.41710E-01   -0.18844E+00  9864   0.871E+00    0.664E-01
RMM:   2    -0.640972915083E+03   -0.75296E-01   -0.53801E-01 14439   0.224E+00    0.234E+00
RMM:   3    -0.640952771068E+03    0.20144E-01   -0.69434E-02 12253   0.871E-01    0.144E+00
RMM:   4    -0.640945492312E+03    0.72788E-02   -0.16753E-02 13172   0.421E-01    0.704E-01
RMM:   5    -0.640943906722E+03    0.15856E-02   -0.68493E-03 13477   0.237E-01    0.488E-01
RMM:   6    -0.640942829082E+03    0.10776E-02   -0.28701E-03 12831   0.167E-01    0.362E-01
RMM:   7    -0.640942328442E+03    0.50064E-03   -0.17859E-03 12784   0.117E-01    0.230E-01
RMM:   8    -0.640942604873E+03   -0.27643E-03   -0.15711E-03 13016   0.115E-01    0.327E-01
RMM:   9    -0.640942228444E+03    0.37643E-03   -0.10102E-03 12233   0.107E-01    0.212E-01
RMM:  10    -0.640942079746E+03    0.14870E-03   -0.68074E-04 12430   0.758E-02    0.138E-01
RMM:  11    -0.640942042670E+03    0.37076E-04   -0.36932E-04 11652   0.549E-02    0.109E-01
RMM:  12    -0.640941991081E+03    0.51588E-04   -0.20842E-04 11080   0.362E-02    0.312E-02
RMM:  13    -0.640942004801E+03   -0.13719E-04   -0.15740E-04 10188   0.246E-02    0.397E-02
RMM:  14    -0.640942001226E+03    0.35742E-05   -0.82586E-05  9292   0.212E-02
  14 F= -.64094200E+03 E0= -.64086569E+03  d E =-.501943E-01
 curvature:  -0.88 expect dE=-0.581E-01 dE for cont linesearch -0.416E-07
 trial: gam= 0.74942 g(F)=  0.291E-01 g(S)=  0.371E-01 ort =-0.798E-04 (trialstep = 0.885E+00)
 search vector abs. value=  0.142E+00
 bond charge predicted
       N       E                     dE             d eps       ncg     rms          rms(c)
DAV:   1    -0.640457103440E+03    0.48490E+00   -0.26272E+01 11112   0.334E+01    0.309E+00
RMM:   2    -0.641619676407E+03   -0.11626E+01   -0.79766E+00 13050   0.917E+00    0.892E+00
RMM:   3    -0.641147882330E+03    0.47179E+00   -0.10862E+00 11763   0.384E+00    0.571E+00
RMM:   4    -0.641043313703E+03    0.10457E+00   -0.30299E-01 13109   0.168E+00    0.340E+00
RMM:   5    -0.641009909631E+03    0.33404E-01   -0.10789E-01 12602   0.107E+00    0.236E+00
RMM:   6    -0.640990311012E+03    0.19599E-01   -0.54961E-02 12724   0.707E-01    0.177E+00
RMM:   7    -0.640976213709E+03    0.14097E-01   -0.26186E-02 12609   0.513E-01    0.108E+00
RMM:   8    -0.640980674196E+03   -0.44605E-02   -0.23351E-02 12899   0.452E-01    0.137E+00
RMM:   9    -0.640972167849E+03    0.85063E-02   -0.15881E-02 12944   0.373E-01    0.662E-01
RMM:  10    -0.640971005386E+03    0.11625E-02   -0.83315E-03 12730   0.283E-01    0.572E-01
RMM:  11    -0.640969937798E+03    0.10676E-02   -0.44545E-03 13032   0.184E-01    0.352E-01
RMM:  12    -0.640969406052E+03    0.53175E-03   -0.23013E-03 12484   0.118E-01    0.180E-01
RMM:  13    -0.640969450136E+03   -0.44085E-04   -0.12655E-03 11702   0.855E-02    0.167E-01
RMM:  14    -0.640969410007E+03    0.40129E-04   -0.74361E-04 11670   0.601E-02    0.105E-01
WARNING in EDDRMM: call to ZHEGV failed, returncode =   8  4      7
RMM:  15    -0.640969404772E+03    0.52347E-05   -0.48391E-04 11507   0.410E-02    0.573E-02
RMM:  16    -0.640969438711E+03   -0.33939E-04   -0.28627E-04 11044   0.316E-02    0.388E-02
RMM:  17    -0.640969453649E+03   -0.14938E-04   -0.14718E-04 10261   0.282E-02    0.414E-02
RMM:  18    -0.640969463256E+03   -0.96068E-05   -0.94766E-05  9594   0.256E-02
  15 F= -.64096946E+03 E0= -.64089600E+03  d E =-.274620E-01
 trial-energy change:   -0.027462  1 .order   -0.027476   -0.058515    0.003563
 step:   0.8341(harm=  0.8341)  dis= 0.01423  next Energy=  -640.969580 (dE=-0.276E-01)
 bond charge predicted
       N       E                     dE             d eps       ncg     rms          rms(c)
DAV:   1    -0.640967948699E+03    0.15050E-02   -0.86972E-02 11496   0.193E+00    0.180E-01
RMM:   2    -0.640971847271E+03   -0.38986E-02   -0.26515E-02 13219   0.515E-01    0.524E-01
RMM:   3    -0.640970221727E+03    0.16255E-02   -0.35093E-03 11135   0.221E-01    0.319E-01
RMM:   4    -0.640969888722E+03    0.33300E-03   -0.99805E-04 11685   0.105E-01    0.213E-01
RMM:   5    -0.640969762438E+03    0.12628E-03   -0.36780E-04 10284   0.669E-02    0.139E-01
RMM:   6    -0.640969696230E+03    0.66208E-04   -0.18080E-04 10083   0.452E-02    0.109E-01
RMM:   7    -0.640969642938E+03    0.53292E-04   -0.78285E-05  8072   0.338E-02    0.648E-02
RMM:   8    -0.640969650424E+03   -0.74859E-05   -0.73083E-05  7543   0.298E-02
  16 F= -.64096965E+03 E0= -.64089605E+03  d E =-.276492E-01
 curvature:  -0.89 expect dE=-0.502E-01 dE for cont linesearch -0.114E-04
 trial: gam= 0.85226 g(F)=  0.341E-01 g(S)=  0.221E-01 ort =-0.134E-02 (trialstep = 0.790E+00)
 search vector abs. value=  0.157E+00
 bond charge predicted
       N       E                     dE             d eps       ncg     rms          rms(c)
DAV:   1    -0.640295524670E+03    0.67412E+00   -0.23278E+01  8856   0.323E+01    0.143E+00
RMM:   2    -0.641004544801E+03   -0.70902E+00   -0.69872E+00 14409   0.741E+00    0.299E+00
RMM:   3    -0.641029566370E+03   -0.25022E-01   -0.67374E-01 13643   0.210E+00    0.250E+00
RMM:   4    -0.641029929099E+03   -0.36273E-03   -0.93961E-02 13560   0.102E+00    0.246E+00
RMM:   5    -0.641005413329E+03    0.24516E-01   -0.31269E-02 13408   0.597E-01    0.866E-01
RMM:   6    -0.641002563822E+03    0.28495E-02   -0.18926E-02 13757   0.289E-01    0.566E-01
RMM:   7    -0.641003600395E+03   -0.10366E-02   -0.10864E-02 13308   0.255E-01    0.734E-01
RMM:   8    -0.641002136292E+03    0.14641E-02   -0.10132E-02 13760   0.272E-01    0.617E-01
RMM:   9    -0.641000715051E+03    0.14212E-02   -0.56284E-03 13749   0.194E-01    0.373E-01
RMM:  10    -0.641000524707E+03    0.19034E-03   -0.33783E-03 12998   0.143E-01    0.247E-01
RMM:  11    -0.641000319069E+03    0.20564E-03   -0.18152E-03 12851   0.950E-02    0.154E-01
RMM:  12    -0.641000304412E+03    0.14657E-04   -0.11738E-03 12251   0.728E-02    0.113E-01
RMM:  13    -0.641000310855E+03   -0.64438E-05   -0.72111E-04 11878   0.576E-02    0.865E-02
RMM:  14    -0.641000299390E+03    0.11465E-04   -0.40551E-04 11268   0.436E-02    0.405E-02
RMM:  15    -0.641000318120E+03   -0.18730E-04   -0.26804E-04 10577   0.268E-02    0.396E-02
RMM:  16    -0.641000320421E+03   -0.23003E-05   -0.14101E-04  9855   0.257E-02    0.251E-02
RMM:  17    -0.641000329846E+03   -0.94253E-05   -0.10193E-04  9260   0.212E-02    0.297E-02
WARNING in EDDRMM: call to ZHEGV failed, returncode =   6  3      8
RMM:  18    -0.641000328789E+03    0.10569E-05   -0.59857E-05  8755   0.179E-02
  17 F= -.64100033E+03 E0= -.64092876E+03  d E =-.306784E-01
 trial-energy change:   -0.030678  1 .order   -0.030641   -0.043522   -0.017761
 step:   1.3347(harm=  1.3347)  dis= 0.03258  next Energy=  -641.006415 (dE=-0.368E-01)
 bond charge predicted
       N       E                     dE             d eps       ncg     rms          rms(c)
DAV:   1    -0.640666585319E+03    0.33374E+00   -0.11012E+01  8808   0.224E+01    0.988E-01
RMM:   2    -0.641008291991E+03   -0.34171E+00   -0.33627E+00 14401   0.514E+00    0.209E+00
RMM:   3    -0.641020138248E+03   -0.11846E-01   -0.33103E-01 13663   0.146E+00    0.170E+00
RMM:   4    -0.641019965138E+03    0.17311E-03   -0.44993E-02 13526   0.703E-01    0.165E+00
RMM:   5    -0.641008969770E+03    0.10995E-01   -0.15136E-02 13358   0.408E-01    0.618E-01
RMM:   6    -0.641007603589E+03    0.13662E-02   -0.91435E-03 13487   0.206E-01    0.411E-01
RMM:   7    -0.641007963195E+03   -0.35961E-03   -0.52815E-03 12976   0.169E-01    0.493E-01
RMM:   8    -0.641007698603E+03    0.26459E-03   -0.49067E-03 13604   0.190E-01    0.482E-01
RMM:   9    -0.641006588202E+03    0.11104E-02   -0.29717E-03 13685   0.142E-01    0.220E-01
RMM:  10    -0.641006609679E+03   -0.21477E-04   -0.16650E-03 12724   0.103E-01    0.189E-01
RMM:  11    -0.641006485375E+03    0.12430E-03   -0.90587E-04 12189   0.712E-02    0.103E-01
RMM:  12    -0.641006474342E+03    0.11034E-04   -0.60574E-04 11806   0.514E-02    0.696E-02
RMM:  13    -0.641006493648E+03   -0.19306E-04   -0.37306E-04 11239   0.414E-02    0.719E-02
RMM:  14    -0.641006477957E+03    0.15691E-04   -0.19929E-04 10864   0.314E-02    0.235E-02
WARNING in EDDRMM: call to ZHEGV failed, returncode =   6  3      7
WARNING in EDDRMM: call to ZHEGV failed, returncode =   6  3     10
RMM:  15    -0.641006488281E+03   -0.10325E-04   -0.13675E-04  9956   0.194E-02    0.260E-02
WARNING in EDDRMM: call to ZHEGV failed, returncode =   6  3      7
RMM:  16    -0.641006490274E+03   -0.19931E-05   -0.68894E-05  9008   0.189E-02
  18 F= -.64100649E+03 E0= -.64093639E+03  d E =-.368399E-01
 curvature:  -1.90 expect dE=-0.712E-01 dE for cont linesearch -0.111E-04
 trial: gam= 0.50511 g(F)=  0.313E-01 g(S)=  0.624E-02 ort =-0.956E-03 (trialstep = 0.899E+00)
 search vector abs. value=  0.765E-01
 bond charge predicted
       N       E                     dE             d eps       ncg     rms          rms(c)
DAV:   1    -0.640565559191E+03    0.44093E+00   -0.14404E+01  8736   0.251E+01    0.167E+00
RMM:   2    -0.641111717696E+03   -0.54616E+00   -0.50754E+00 14493   0.608E+00    0.372E+00
RMM:   3    -0.641076897864E+03    0.34820E-01   -0.54681E-01 12281   0.217E+00    0.302E+00
RMM:   4    -0.641052043853E+03    0.24854E-01   -0.10249E-01 13079   0.111E+00    0.188E+00
RMM:   5    -0.641043417140E+03    0.86267E-02   -0.38676E-02 13559   0.610E-01    0.143E+00
RMM:   6    -0.641034869837E+03    0.85473E-02   -0.17123E-02 13544   0.365E-01    0.899E-01
RMM:   7    -0.641032829819E+03    0.20400E-02   -0.10376E-02 13385   0.271E-01    0.650E-01
RMM:   8    -0.641033829339E+03   -0.99952E-03   -0.84053E-03 13651   0.262E-01    0.763E-01
RMM:   9    -0.641030866638E+03    0.29627E-02   -0.63649E-03 13703   0.232E-01    0.384E-01
RMM:  10    -0.641030728732E+03    0.13791E-03   -0.41811E-03 13459   0.176E-01    0.368E-01
RMM:  11    -0.641030224530E+03    0.50420E-03   -0.20709E-03 12933   0.128E-01    0.216E-01
RMM:  12    -0.641030037194E+03    0.18734E-03   -0.12836E-03 12338   0.784E-02    0.916E-02
RMM:  13    -0.641030096668E+03   -0.59473E-04   -0.75810E-04 11785   0.598E-02    0.114E-01
RMM:  14    -0.641030055305E+03    0.41363E-04   -0.40911E-04 11461   0.427E-02    0.480E-02
RMM:  15    -0.641030077975E+03   -0.22670E-04   -0.29024E-04 11107   0.296E-02    0.437E-02
RMM:  16    -0.641030078116E+03   -0.14183E-06   -0.16334E-04 10483   0.241E-02    0.254E-02
RMM:  17    -0.641030084773E+03   -0.66564E-05   -0.81490E-05  9684   0.225E-02
  19 F= -.64103008E+03 E0= -.64096118E+03  d E =-.235945E-01
 trial-energy change:   -0.023594  1 .order   -0.023238   -0.033269   -0.013206
 step:   1.4061(harm=  1.4907)  dis= 0.03341  next Energy=  -641.033874 (dE=-0.274E-01)
 bond charge predicted
       N       E                     dE             d eps       ncg     rms          rms(c)
DAV:   1    -0.640887052973E+03    0.14303E+00   -0.45806E+00  8760   0.142E+01    0.935E-01
RMM:   2    -0.641058462228E+03   -0.17141E+00   -0.16059E+00 14478   0.347E+00    0.199E+00
RMM:   3    -0.641048149191E+03    0.10313E-01   -0.17280E-01 12273   0.123E+00    0.162E+00
RMM:   4    -0.641040589139E+03    0.75601E-02   -0.32240E-02 13015   0.616E-01    0.985E-01
RMM:   5    -0.641037922794E+03    0.26663E-02   -0.11764E-02 13296   0.347E-01    0.696E-01
RMM:   6    -0.641035642056E+03    0.22807E-02   -0.56107E-03 13585   0.183E-01    0.445E-01
RMM:   7    -0.641035494460E+03    0.14760E-03   -0.30633E-03 12680   0.152E-01    0.428E-01
RMM:   8    -0.641035683457E+03   -0.18900E-03   -0.26132E-03 13279   0.152E-01    0.442E-01
RMM:   9    -0.641034708924E+03    0.97453E-03   -0.20668E-03 13428   0.131E-01    0.217E-01
RMM:  10    -0.641034650902E+03    0.58022E-04   -0.13164E-03 13016   0.103E-01    0.202E-01
RMM:  11    -0.641034496382E+03    0.15452E-03   -0.65702E-04 12157   0.752E-02    0.116E-01
RMM:  12    -0.641034447399E+03    0.48983E-04   -0.42074E-04 11757   0.458E-02    0.528E-02
RMM:  13    -0.641034466560E+03   -0.19161E-04   -0.25224E-04 11195   0.361E-02    0.645E-02
WARNING in EDDRMM: call to ZHEGV failed, returncode =   8  4      7
RMM:  14    -0.641034453918E+03    0.12642E-04   -0.13869E-04 10721   0.263E-02    0.286E-02
RMM:  15    -0.641034460694E+03   -0.67758E-05   -0.10050E-04  9778   0.193E-02    0.251E-02
WARNING in EDDRMM: call to ZHEGV failed, returncode =   6  3      7
RMM:  16    -0.641034460258E+03    0.43524E-06   -0.54975E-05  8644   0.169E-02
  20 F= -.64103446E+03 E0= -.64096614E+03  d E =-.279700E-01
 curvature:  -1.51 expect dE=-0.688E-01 dE for cont linesearch -0.680E-04
 trial: gam= 1.11947 g(F)=  0.196E-01 g(S)=  0.260E-01 ort = 0.186E-02 (trialstep = 0.526E+00)
 search vector abs. value=  0.146E+00
 bond charge predicted
       N       E                     dE             d eps       ncg     rms          rms(c)
DAV:   1    -0.640767089401E+03    0.26737E+00   -0.93939E+00  9336   0.205E+01    0.153E+00
RMM:   2    -0.641255329835E+03   -0.48824E+00   -0.34490E+00 14069   0.523E+00    0.583E+00
RMM:   3    -0.641098128919E+03    0.15720E+00   -0.40730E-01 12216   0.199E+00    0.295E+00
RMM:   4    -0.641069245868E+03    0.28883E-01   -0.89347E-02 12782   0.994E-01    0.157E+00
RMM:   5    -0.641062213416E+03    0.70325E-02   -0.34195E-02 13290   0.566E-01    0.118E+00
RMM:   6    -0.641057092417E+03    0.51210E-02   -0.14004E-02 13008   0.351E-01    0.867E-01
RMM:   7    -0.641053920963E+03    0.31715E-02   -0.81482E-03 13070   0.255E-01    0.462E-01
RMM:   8    -0.641054972112E+03   -0.10511E-02   -0.68633E-03 13487   0.229E-01    0.585E-01
RMM:   9    -0.641052843775E+03    0.21283E-02   -0.49619E-03 13746   0.174E-01    0.240E-01
RMM:  10    -0.641052775474E+03    0.68300E-04   -0.24905E-03 13214   0.131E-01    0.233E-01
RMM:  11    -0.641052521618E+03    0.25386E-03   -0.10148E-03 11906   0.929E-02    0.135E-01
RMM:  12    -0.641052501021E+03    0.20597E-04   -0.64670E-04 11584   0.605E-02    0.881E-02
RMM:  13    -0.641052510396E+03   -0.93759E-05   -0.39351E-04 11501   0.395E-02    0.634E-02
RMM:  14    -0.641052506494E+03    0.39024E-05   -0.21080E-04 10582   0.316E-02    0.384E-02
RMM:  15    -0.641052530256E+03   -0.23762E-04   -0.13240E-04 10206   0.274E-02    0.585E-02
RMM:  16    -0.641052521997E+03    0.82599E-05   -0.80271E-05  9629   0.231E-02
  21 F= -.64105252E+03 E0= -.64098522E+03  d E =-.180617E-01
 trial-energy change:   -0.018062  1 .order   -0.017969   -0.025047   -0.010891
 step:   0.9046(harm=  0.9302)  dis= 0.03131  next Energy=  -641.056480 (dE=-0.220E-01)
 bond charge predicted
       N       E                     dE             d eps       ncg     rms          rms(c)
DAV:   1    -0.640905565050E+03    0.14697E+00   -0.48503E+00  9120   0.148E+01    0.110E+00
RMM:   2    -0.641155292885E+03   -0.24973E+00   -0.17955E+00 14130   0.371E+00    0.412E+00
RMM:   3    -0.641080711662E+03    0.74581E-01   -0.21046E-01 12220   0.143E+00    0.216E+00
RMM:   4    -0.641064985757E+03    0.15726E-01   -0.46227E-02 12755   0.719E-01    0.113E+00
RMM:   5    -0.641061469196E+03    0.35166E-02   -0.17798E-02 13215   0.406E-01    0.872E-01
RMM:   6    -0.641058565417E+03    0.29038E-02   -0.73874E-03 12779   0.256E-01    0.597E-01
RMM:   7    -0.641057050042E+03    0.15154E-02   -0.43922E-03 12867   0.183E-01    0.329E-01
RMM:   8    -0.641057618955E+03   -0.56891E-03   -0.36436E-03 13235   0.171E-01    0.424E-01
RMM:   9    -0.641056523323E+03    0.10956E-02   -0.25766E-03 13648   0.132E-01    0.178E-01
RMM:  10    -0.641056542010E+03   -0.18688E-04   -0.12964E-03 12742   0.984E-02    0.200E-01
WARNING in EDDRMM: call to ZHEGV failed, returncode =   6  3      7
RMM:  11    -0.641056368848E+03    0.17316E-03   -0.57865E-04 11369   0.725E-02    0.102E-01
RMM:  12    -0.641056350994E+03    0.17854E-04   -0.39095E-04 11488   0.439E-02    0.577E-02
RMM:  13    -0.641056367624E+03   -0.16630E-04   -0.24268E-04 10582   0.321E-02    0.537E-02
WARNING in EDDRMM: call to ZHEGV failed, returncode =   6  3      8
RMM:  14    -0.641056364606E+03    0.30184E-05   -0.12269E-04  9924   0.264E-02    0.354E-02
RMM:  15    -0.641056373240E+03   -0.86349E-05   -0.85011E-05  9359   0.217E-02
  22 F= -.64105637E+03 E0= -.64098976E+03  d E =-.219130E-01
 curvature:  -1.42 expect dE=-0.478E-01 dE for cont linesearch -0.901E-08
 trial: gam= 0.76675 g(F)=  0.195E-01 g(S)=  0.142E-01 ort =-0.304E-04 (trialstep = 0.602E+00)
 search vector abs. value=  0.119E+00
 bond charge predicted
       N       E                     dE             d eps       ncg     rms          rms(c)
DAV:   1    -0.640757393788E+03    0.29897E+00   -0.97083E+00  8736   0.204E+01    0.109E+00
RMM:   2    -0.641120282906E+03   -0.36289E+00   -0.32504E+00 14466   0.477E+00    0.355E+00
RMM:   3    -0.641084458357E+03    0.35825E-01   -0.33517E-01 13093   0.151E+00    0.165E+00
RMM:   4    -0.641086047581E+03   -0.15892E-02   -0.55925E-02 13292   0.810E-01    0.157E+00
RMM:   5    -0.641075886990E+03    0.10161E-01   -0.20214E-02 13209   0.471E-01    0.741E-01
RMM:   6    -0.641073280614E+03    0.26064E-02   -0.10482E-02 13683   0.247E-01    0.472E-01
RMM:   7    -0.641073366267E+03   -0.85653E-04   -0.58650E-03 13049   0.176E-01    0.449E-01
RMM:   8    -0.641073134822E+03    0.23144E-03   -0.45603E-03 13732   0.193E-01    0.410E-01
RMM:   9    -0.641072285308E+03    0.84951E-03   -0.26204E-03 13050   0.155E-01    0.225E-01
RMM:  10    -0.641072235693E+03    0.49615E-04   -0.18894E-03 13180   0.105E-01    0.160E-01
RMM:  11    -0.641072150379E+03    0.85314E-04   -0.96229E-04 12346   0.693E-02    0.998E-02
RMM:  12    -0.641072160524E+03   -0.10145E-04   -0.56382E-04 11839   0.537E-02    0.835E-02
RMM:  13    -0.641072162212E+03   -0.16886E-05   -0.36230E-04 11393   0.372E-02    0.563E-02
RMM:  14    -0.641072158186E+03    0.40265E-05   -0.20607E-04 10801   0.264E-02    0.237E-02
RMM:  15    -0.641072166526E+03   -0.83404E-05   -0.11564E-04  9877   0.213E-02    0.256E-02
RMM:  16    -0.641072167857E+03   -0.13311E-05   -0.65257E-05  9264   0.189E-02
  23 F= -.64107217E+03 E0= -.64100572E+03  d E =-.157946E-01
 trial-energy change:   -0.015795  1 .order   -0.015483   -0.020270   -0.010695
 step:   1.0968(harm=  1.2734)  dis= 0.03492  next Energy=  -641.076746 (dE=-0.204E-01)
 bond charge predicted
       N       E                     dE             d eps       ncg     rms          rms(c)
DAV:   1    -0.640863743372E+03    0.20842E+00   -0.65710E+00  8736   0.170E+01    0.890E-01
RMM:   2    -0.641104908602E+03   -0.24117E+00   -0.21975E+00 14461   0.399E+00    0.274E+00
RMM:   3    -0.641086842396E+03    0.18066E-01   -0.22823E-01 13125   0.124E+00    0.141E+00
RMM:   4    -0.641087037268E+03   -0.19487E-03   -0.37138E-02 13264   0.662E-01    0.129E+00
RMM:   5    -0.641080297683E+03    0.67396E-02   -0.13588E-02 13135   0.384E-01    0.613E-01
RMM:   6    -0.641078469020E+03    0.18287E-02   -0.70423E-03 13494   0.204E-01    0.378E-01
RMM:   7    -0.641078570577E+03   -0.10156E-03   -0.40341E-03 12922   0.145E-01    0.371E-01
RMM:   8    -0.641078549192E+03    0.21385E-04   -0.31407E-03 13627   0.161E-01    0.369E-01
RMM:   9    -0.641077827048E+03    0.72214E-03   -0.18269E-03 12859   0.133E-01    0.180E-01
RMM:  10    -0.641077825800E+03    0.12485E-05   -0.13161E-03 13000   0.868E-02    0.147E-01
RMM:  11    -0.641077764960E+03    0.60840E-04   -0.66927E-04 11991   0.602E-02    0.950E-02
RMM:  12    -0.641077757370E+03    0.75903E-05   -0.40708E-04 11704   0.463E-02    0.644E-02
RMM:  13    -0.641077763953E+03   -0.65834E-05   -0.27128E-04 11151   0.310E-02    0.463E-02
RMM:  14    -0.641077760122E+03    0.38311E-05   -0.15208E-04 10469   0.237E-02    0.182E-02
WARNING in EDDRMM: call to ZHEGV failed, returncode =   6  3      7
RMM:  15    -0.641077765295E+03   -0.51726E-05   -0.75858E-05  9367   0.181E-02
  24 F= -.64107777E+03 E0= -.64101145E+03  d E =-.213921E-01
 curvature:  -2.10 expect dE=-0.324E-01 dE for cont linesearch -0.273E-03
 ZBRENT: extrapolating
 opt :   1.2377  next Energy=  -641.078042 (dE=-0.217E-01)
 bond charge predicted
       N       E                     dE             d eps       ncg     rms          rms(c)
DAV:   1    -0.641060717919E+03    0.17042E-01   -0.52999E-01  9312   0.479E+00    0.249E-01
RMM:   2    -0.641079237882E+03   -0.18520E-01   -0.17641E-01 14455   0.112E+00    0.620E-01
RMM:   3    -0.641078965433E+03    0.27245E-03   -0.18106E-02 13009   0.354E-01    0.442E-01
RMM:   4    -0.641078816939E+03    0.14849E-03   -0.30357E-03 12675   0.190E-01    0.362E-01
RMM:   5    -0.641078320666E+03    0.49627E-03   -0.11434E-03 12191   0.113E-01    0.180E-01
RMM:   6    -0.641078164183E+03    0.15648E-03   -0.60030E-04 12042   0.615E-02    0.105E-01
RMM:   7    -0.641078175913E+03   -0.11731E-04   -0.35765E-04 11565   0.456E-02    0.105E-01
RMM:   8    -0.641078193360E+03   -0.17446E-04   -0.28160E-04 11822   0.487E-02    0.117E-01
RMM:   9    -0.641078119671E+03    0.73689E-04   -0.16458E-04 10970   0.429E-02    0.516E-02
RMM:  10    -0.641078121695E+03   -0.20246E-05   -0.11966E-04 10698   0.282E-02    0.452E-02
RMM:  11    -0.641078116290E+03    0.54049E-05   -0.63926E-05  9713   0.227E-02
  25 F= -.64107812E+03 E0= -.64101184E+03  d E =-.217430E-01
 curvature:  -2.13 expect dE=-0.376E-01 dE for cont linesearch -0.904E-06
 trial: gam= 0.35710 g(F)=  0.140E-01 g(S)=  0.367E-02 ort = 0.225E-03 (trialstep = 0.729E+00)
 search vector abs. value=  0.330E-01
 bond charge predicted
       N       E                     dE             d eps       ncg     rms          rms(c)
DAV:   1    -0.640970772822E+03    0.10735E+00   -0.38523E+00  8736   0.129E+01    0.892E-01
RMM:   2    -0.641108650205E+03   -0.13788E+00   -0.13136E+00 14569   0.322E+00    0.176E+00
RMM:   3    -0.641099040097E+03    0.96101E-02   -0.14303E-01 12292   0.117E+00    0.144E+00
RMM:   4    -0.641094574487E+03    0.44656E-02   -0.27482E-02 13241   0.558E-01    0.107E+00
RMM:   5    -0.641091961729E+03    0.26128E-02   -0.10724E-02 13354   0.332E-01    0.789E-01
RMM:   6    -0.641088663897E+03    0.32978E-02   -0.51083E-03 13465   0.201E-01    0.336E-01
RMM:   7    -0.641088675854E+03   -0.11957E-04   -0.31156E-03 13274   0.154E-01    0.358E-01
RMM:   8    -0.641088693026E+03   -0.17172E-04   -0.23998E-03 13456   0.152E-01    0.377E-01
RMM:   9    -0.641088143859E+03    0.54917E-03   -0.16580E-03 13007   0.125E-01    0.250E-01
RMM:  10    -0.641087987416E+03    0.15644E-03   -0.10296E-03 12578   0.992E-02    0.174E-01
RMM:  11    -0.641087849413E+03    0.13800E-03   -0.56490E-04 12345   0.625E-02    0.756E-02
RMM:  12    -0.641087842357E+03    0.70556E-05   -0.36927E-04 11484   0.386E-02    0.402E-02
RMM:  13    -0.641087853067E+03   -0.10710E-04   -0.22075E-04 10914   0.267E-02    0.387E-02
WARNING in EDDRMM: call to ZHEGV failed, returncode =   6  3      7
RMM:  14    -0.641087855122E+03   -0.20552E-05   -0.10601E-04  9995   0.243E-02    0.334E-02
RMM:  15    -0.641087858443E+03   -0.33205E-05   -0.72645E-05  9427   0.209E-02
  26 F= -.64108786E+03 E0= -.64102166E+03  d E =-.974215E-02
 trial-energy change:   -0.009742  1 .order   -0.009625   -0.012908   -0.006342
 step:   1.3184(harm=  1.4326)  dis= 0.01697  next Energy=  -641.090486 (dE=-0.124E-01)
 bond charge predicted
       N       E                     dE             d eps       ncg     rms          rms(c)
DAV:   1    -0.641013831910E+03    0.74023E-01   -0.25176E+00  8736   0.105E+01    0.721E-01
RMM:   2    -0.641104251581E+03   -0.90420E-01   -0.86320E-01 14566   0.261E+00    0.138E+00
RMM:   3    -0.641097340085E+03    0.69115E-02   -0.93655E-02 12273   0.955E-01    0.107E+00
RMM:   4    -0.641094744402E+03    0.25957E-02   -0.17802E-02 13219   0.442E-01    0.803E-01
RMM:   5    -0.641093657854E+03    0.10865E-02   -0.69481E-03 13311   0.263E-01    0.672E-01
RMM:   6    -0.641091436443E+03    0.22214E-02   -0.33121E-03 13314   0.159E-01    0.278E-01
RMM:   7    -0.641091439161E+03   -0.27183E-05   -0.20871E-03 12986   0.127E-01    0.290E-01
RMM:   8    -0.641091424745E+03    0.14416E-04   -0.16316E-03 13252   0.125E-01    0.295E-01
RMM:   9    -0.641091084166E+03    0.34058E-03   -0.11076E-03 12892   0.102E-01    0.200E-01
RMM:  10    -0.641090996742E+03    0.87424E-04   -0.68365E-04 12338   0.808E-02    0.147E-01
RMM:  11    -0.641090903950E+03    0.92792E-04   -0.38004E-04 11949   0.520E-02    0.648E-02
RMM:  12    -0.641090899778E+03    0.41724E-05   -0.25439E-04 11241   0.325E-02    0.382E-02
RMM:  13    -0.641090911521E+03   -0.11743E-04   -0.14850E-04 10461   0.269E-02    0.472E-02
RMM:  14    -0.641090906588E+03    0.49331E-05   -0.88949E-05  9803   0.211E-02
  27 F= -.64109091E+03 E0= -.64102480E+03  d E =-.127903E-01
 curvature:  -1.30 expect dE=-0.246E-01 dE for cont linesearch -0.675E-04
 trial: gam= 0.98674 g(F)=  0.877E-02 g(S)=  0.101E-01 ort = 0.131E-02 (trialstep = 0.521E+00)
 search vector abs. value=  0.536E-01
 bond charge predicted
       N       E                     dE             d eps       ncg     rms          rms(c)
DAV:   1    -0.641004822256E+03    0.86089E-01   -0.32423E+00  9024   0.120E+01    0.892E-01
RMM:   2    -0.641140962652E+03   -0.13614E+00   -0.11222E+00 14393   0.312E+00    0.251E+00
RMM:   3    -0.641115786809E+03    0.25176E-01   -0.12971E-01 12173   0.118E+00    0.184E+00
RMM:   4    -0.641104654371E+03    0.11132E-01   -0.29607E-02 13001   0.570E-01    0.923E-01
RMM:   5    -0.641102074881E+03    0.25795E-02   -0.11034E-02 13202   0.338E-01    0.653E-01
RMM:   6    -0.641100151555E+03    0.19233E-02   -0.50217E-03 13415   0.196E-01    0.450E-01
RMM:   7    -0.641099429164E+03    0.72239E-03   -0.24973E-03 12750   0.146E-01    0.285E-01
RMM:   8    -0.641099708483E+03   -0.27932E-03   -0.22390E-03 13112   0.139E-01    0.334E-01
RMM:   9    -0.641099022931E+03    0.68555E-03   -0.15782E-03 13585   0.110E-01    0.131E-01
RMM:  10    -0.641099041759E+03   -0.18828E-04   -0.85577E-04 12847   0.765E-02    0.142E-01
RMM:  11    -0.641098959584E+03    0.82176E-04   -0.38257E-04 11569   0.588E-02    0.839E-02
RMM:  12    -0.641098945802E+03    0.13781E-04   -0.25255E-04 11279   0.368E-02    0.438E-02
RMM:  13    -0.641098954083E+03   -0.82805E-05   -0.16171E-04 10357   0.242E-02    0.338E-02
RMM:  14    -0.641098956441E+03   -0.23580E-05   -0.82554E-05  9279   0.223E-02
  28 F= -.64109896E+03 E0= -.64103325E+03  d E =-.804985E-02
 trial-energy change:   -0.008050  1 .order   -0.008008   -0.010522   -0.005495
 step:   1.0399(harm=  1.0910)  dis= 0.01420  next Energy=  -641.101731 (dE=-0.108E-01)
 bond charge predicted
       N       E                     dE             d eps       ncg     rms          rms(c)
DAV:   1    -0.641008334038E+03    0.90620E-01   -0.32080E+00  9000   0.120E+01    0.892E-01
RMM:   2    -0.641143340141E+03   -0.13501E+00   -0.11143E+00 14377   0.310E+00    0.246E+00
RMM:   3    -0.641118074363E+03    0.25266E-01   -0.12918E-01 12133   0.118E+00    0.181E+00
RMM:   4    -0.641107267194E+03    0.10807E-01   -0.29329E-02 13008   0.565E-01    0.915E-01
RMM:   5    -0.641104739612E+03    0.25276E-02   -0.10861E-02 13195   0.338E-01    0.644E-01
RMM:   6    -0.641102853066E+03    0.18865E-02   -0.49656E-03 13375   0.193E-01    0.440E-01
RMM:   7    -0.641102181239E+03    0.67183E-03   -0.24745E-03 12688   0.145E-01    0.286E-01
RMM:   8    -0.641102444424E+03   -0.26319E-03   -0.22042E-03 13080   0.136E-01    0.328E-01
RMM:   9    -0.641101771081E+03    0.67334E-03   -0.15706E-03 13610   0.109E-01    0.126E-01
RMM:  10    -0.641101818390E+03   -0.47309E-04   -0.82251E-04 12729   0.771E-02    0.155E-01
RMM:  11    -0.641101722239E+03    0.96151E-04   -0.38043E-04 11365   0.587E-02    0.835E-02
RMM:  12    -0.641101708617E+03    0.13622E-04   -0.26517E-04 11209   0.354E-02    0.406E-02
RMM:  13    -0.641101717837E+03   -0.92198E-05   -0.16940E-04 10309   0.238E-02    0.279E-02
RMM:  14    -0.641101722976E+03   -0.51395E-05   -0.83209E-05  9353   0.201E-02
  29 F= -.64110172E+03 E0= -.64103645E+03  d E =-.108164E-01
 curvature:  -1.44 expect dE=-0.250E-01 dE for cont linesearch -0.323E-05
 trial: gam= 0.99059 g(F)=  0.807E-02 g(S)=  0.935E-02 ort = 0.347E-03 (trialstep = 0.474E+00)
 search vector abs. value=  0.707E-01
 bond charge predicted
       N       E                     dE             d eps       ncg     rms          rms(c)
DAV:   1    -0.641002308891E+03    0.99409E-01   -0.35287E+00  8736   0.124E+01    0.631E-01
RMM:   2    -0.641111220427E+03   -0.10891E+00   -0.11112E+00 14511   0.294E+00    0.950E-01
RMM:   3    -0.641114701501E+03   -0.34811E-02   -0.10570E-01 13067   0.933E-01    0.108E+00
RMM:   4    -0.641111731371E+03    0.29701E-02   -0.16602E-02 13299   0.463E-01    0.723E-01
RMM:   5    -0.641110165500E+03    0.15659E-02   -0.61878E-03 13264   0.256E-01    0.517E-01
RMM:   6    -0.641108980273E+03    0.11852E-02   -0.33538E-03 13342   0.140E-01    0.238E-01
RMM:   7    -0.641109231766E+03   -0.25149E-03   -0.20697E-03 12579   0.117E-01    0.316E-01
RMM:   8    -0.641108966282E+03    0.26548E-03   -0.15725E-03 13263   0.122E-01    0.248E-01
RMM:   9    -0.641108738454E+03    0.22783E-03   -0.95940E-04 12600   0.923E-02    0.147E-01
RMM:  10    -0.641108697103E+03    0.41351E-04   -0.69397E-04 12634   0.670E-02    0.995E-02
RMM:  11    -0.641108655386E+03    0.41718E-04   -0.37291E-04 11806   0.446E-02    0.424E-02
RMM:  12    -0.641108672039E+03   -0.16653E-04   -0.22934E-04 10975   0.312E-02    0.505E-02
WARNING in EDDRMM: call to ZHEGV failed, returncode =   6  3      7
RMM:  13    -0.641108669358E+03    0.26803E-05   -0.13341E-04 10193   0.268E-02    0.337E-02
RMM:  14    -0.641108670314E+03   -0.95602E-06   -0.90045E-05  9229   0.194E-02
  30 F= -.64110867E+03 E0= -.64104347E+03  d E =-.694734E-02
 trial-energy change:   -0.006947  1 .order   -0.006741   -0.008416   -0.005065
 step:   0.8952(harm=  1.1900)  dis= 0.01566  next Energy=  -641.111068 (dE=-0.935E-02)
 bond charge predicted
       N       E                     dE             d eps       ncg     rms          rms(c)
DAV:   1    -0.641027789634E+03    0.80880E-01   -0.27912E+00  8736   0.110E+01    0.566E-01
RMM:   2    -0.641114685881E+03   -0.86896E-01   -0.88053E-01 14507   0.261E+00    0.897E-01
RMM:   3    -0.641116452513E+03   -0.17666E-02   -0.83779E-02 13022   0.836E-01    0.927E-01
RMM:   4    -0.641114038582E+03    0.24139E-02   -0.13312E-02 13218   0.408E-01    0.583E-01
RMM:   5    -0.641113114696E+03    0.92389E-03   -0.48591E-03 13181   0.228E-01    0.472E-01
RMM:   6    -0.641112177505E+03    0.93719E-03   -0.26334E-03 13221   0.126E-01    0.213E-01
RMM:   7    -0.641112382869E+03   -0.20536E-03   -0.16645E-03 12507   0.102E-01    0.283E-01
RMM:   8    -0.641112206584E+03    0.17628E-03   -0.12693E-03 13088   0.109E-01    0.233E-01
RMM:   9    -0.641111981072E+03    0.22551E-03   -0.76051E-04 12477   0.844E-02    0.124E-01
RMM:  10    -0.641111964050E+03    0.17022E-04   -0.56135E-04 12497   0.587E-02    0.910E-02
RMM:  11    -0.641111929703E+03    0.34347E-04   -0.29856E-04 11536   0.413E-02    0.384E-02
RMM:  12    -0.641111946289E+03   -0.16586E-04   -0.18590E-04 10694   0.293E-02    0.506E-02
RMM:  13    -0.641111941718E+03    0.45717E-05   -0.11288E-04 10022   0.255E-02    0.269E-02
RMM:  14    -0.641111942777E+03   -0.10596E-05   -0.68324E-05  9409   0.175E-02
  31 F= -.64111194E+03 E0= -.64104685E+03  d E =-.102198E-01
 curvature:  -1.97 expect dE=-0.129E-01 dE for cont linesearch -0.492E-03
 ZBRENT: increasing intervall
 opt :   1.7381  next Energy=  -641.110021 (dE=-0.830E-02)
 bond charge predicted
       N       E                     dE             d eps       ncg     rms          rms(c)
DAV:   1    -0.640773806272E+03    0.33814E+00   -0.11165E+01  8736   0.220E+01    0.113E+00
RMM:   2    -0.641121068020E+03   -0.34726E+00   -0.35184E+00 14506   0.523E+00    0.181E+00
RMM:   3    -0.641128173924E+03   -0.71059E-02   -0.33630E-01 13076   0.167E+00    0.186E+00
RMM:   4    -0.641119506390E+03    0.86675E-02   -0.52001E-02 13497   0.817E-01    0.126E+00
RMM:   5    -0.641114745484E+03    0.47609E-02   -0.19502E-02 13672   0.454E-01    0.923E-01
RMM:   6    -0.641111002674E+03    0.37428E-02   -0.10388E-02 13706   0.248E-01    0.425E-01
RMM:   7    -0.641111710335E+03   -0.70766E-03   -0.64727E-03 13155   0.202E-01    0.542E-01
RMM:   8    -0.641111140145E+03    0.57019E-03   -0.49788E-03 13632   0.217E-01    0.479E-01
RMM:   9    -0.641110185199E+03    0.95495E-03   -0.29816E-03 13417   0.157E-01    0.242E-01
RMM:  10    -0.641110146964E+03    0.38235E-04   -0.21333E-03 13259   0.111E-01    0.194E-01
RMM:  11    -0.641109989261E+03    0.15770E-03   -0.11215E-03 12554   0.759E-02    0.849E-02
RMM:  12    -0.641110037543E+03   -0.48282E-04   -0.72293E-04 11754   0.546E-02    0.928E-02
RMM:  13    -0.641110033417E+03    0.41257E-05   -0.42337E-04 11496   0.436E-02    0.633E-02
RMM:  14    -0.641110031612E+03    0.18053E-05   -0.27095E-04 10812   0.292E-02    0.262E-02
RMM:  15    -0.641110040793E+03   -0.91810E-05   -0.15238E-04 10039   0.247E-02    0.234E-02
RMM:  16    -0.641110045260E+03   -0.44675E-05   -0.85281E-05  9561   0.197E-02
  32 F= -.64111005E+03 E0= -.64104520E+03  d E =-.832228E-02
 curvature:   7.69 expect dE= 0.151E+00 dE for cont linesearch  0.965E-02
 ZBRENT: bracketing found
 ZBRENT: interpolating
 opt :   1.1553  next Energy=  -641.112490 (dE=-0.108E-01)
 bond charge predicted
       N       E                     dE             d eps       ncg     rms          rms(c)
DAV:   1    -0.640952464901E+03    0.15758E+00   -0.53400E+00  8736   0.152E+01    0.783E-01
RMM:   2    -0.641116211765E+03   -0.16375E+00   -0.16694E+00 14512   0.366E+00    0.114E+00
RMM:   3    -0.641121851534E+03   -0.56398E-02   -0.16025E-01 12876   0.117E+00    0.131E+00
RMM:   4    -0.641116474954E+03    0.53766E-02   -0.23725E-02 13347   0.550E-01    0.742E-01
RMM:   5    -0.641114683593E+03    0.17914E-02   -0.87062E-03 13416   0.311E-01    0.625E-01
RMM:   6    -0.641113052908E+03    0.16307E-02   -0.42472E-03 13237   0.174E-01    0.284E-01
RMM:   7    -0.641113437585E+03   -0.38468E-03   -0.30125E-03 12842   0.134E-01    0.394E-01
RMM:   8    -0.641113235593E+03    0.20199E-03   -0.21879E-03 13164   0.148E-01    0.356E-01
RMM:   9    -0.641112637404E+03    0.59819E-03   -0.14446E-03 13206   0.114E-01    0.157E-01
RMM:  10    -0.641112647937E+03   -0.10532E-04   -0.94917E-04 12937   0.797E-02    0.147E-01
RMM:  11    -0.641112543860E+03    0.10408E-03   -0.49357E-04 12100   0.548E-02    0.502E-02
RMM:  12    -0.641112565027E+03   -0.21167E-04   -0.32783E-04 11342   0.350E-02    0.520E-02
RMM:  13    -0.641112568018E+03   -0.29918E-05   -0.17639E-04 10476   0.314E-02    0.453E-02
RMM:  14    -0.641112566687E+03    0.13311E-05   -0.10981E-04  9876   0.225E-02    0.196E-02
RMM:  15    -0.641112571931E+03   -0.52438E-05   -0.68261E-05  8981   0.182E-02
  33 F= -.64111257E+03 E0= -.64104756E+03  d E =-.108490E-01
 curvature:  -0.44 expect dE=-0.359E-02 dE for cont linesearch -0.225E-05
 trial: gam= 0.36584 g(F)=  0.629E-02 g(S)=  0.195E-02 ort = 0.604E-03 (trialstep = 0.610E+00)
 search vector abs. value=  0.181E-01
 bond charge predicted
       N       E                     dE             d eps       ncg     rms          rms(c)
DAV:   1    -0.641076987801E+03    0.35579E-01   -0.14960E+00  8736   0.764E+00    0.453E-01
RMM:   2    -0.641118970483E+03   -0.41983E-01   -0.43123E-01 14503   0.192E+00    0.686E-01
RMM:   3    -0.641120318765E+03   -0.13483E-02   -0.41770E-02 13313   0.612E-01    0.866E-01
RMM:   4    -0.641118324571E+03    0.19942E-02   -0.75663E-03 13021   0.322E-01    0.531E-01
RMM:   5    -0.641117226828E+03    0.10977E-02   -0.28936E-03 12929   0.185E-01    0.345E-01
RMM:   6    -0.641116674069E+03    0.55276E-03   -0.14766E-03 12928   0.104E-01    0.196E-01
RMM:   7    -0.641116728606E+03   -0.54537E-04   -0.10119E-03 12327   0.920E-02    0.230E-01
RMM:   8    -0.641116637256E+03    0.91351E-04   -0.83598E-04 12453   0.925E-02    0.192E-01
RMM:   9    -0.641116433539E+03    0.20372E-03   -0.57314E-04 12738   0.713E-02    0.897E-02
RMM:  10    -0.641116451042E+03   -0.17503E-04   -0.34468E-04 11788   0.532E-02    0.104E-01
RMM:  11    -0.641116394274E+03    0.56768E-04   -0.16595E-04 10909   0.392E-02    0.275E-02
RMM:  12    -0.641116405115E+03   -0.10842E-04   -0.13635E-04 10145   0.225E-02    0.326E-02
RMM:  13    -0.641116402498E+03    0.26175E-05   -0.72128E-05  8958   0.213E-02
  34 F= -.64111640E+03 E0= -.64105146E+03  d E =-.383057E-02
 trial-energy change:   -0.003831  1 .order   -0.003812   -0.005161   -0.002463
 step:   1.1671(harm=  1.1671)  dis= 0.00887  next Energy=  -641.117508 (dE=-0.494E-02)
 bond charge predicted
       N       E                     dE             d eps       ncg     rms          rms(c)
DAV:   1    -0.641084645582E+03    0.31760E-01   -0.12469E+00  8736   0.699E+00    0.413E-01
RMM:   2    -0.641119877659E+03   -0.35232E-01   -0.36114E-01 14502   0.175E+00    0.632E-01
RMM:   3    -0.641120770306E+03   -0.89265E-03   -0.35112E-02 13304   0.564E-01    0.778E-01
RMM:   4    -0.641119137102E+03    0.16332E-02   -0.65042E-03 13027   0.295E-01    0.471E-01
RMM:   5    -0.641118306502E+03    0.83060E-03   -0.25388E-03 12956   0.167E-01    0.321E-01
RMM:   6    -0.641117867083E+03    0.43942E-03   -0.13666E-03 12893   0.970E-02    0.185E-01
RMM:   7    -0.641117907567E+03   -0.40484E-04   -0.93784E-04 12203   0.851E-02    0.207E-01
RMM:   8    -0.641117848933E+03    0.58634E-04   -0.73907E-04 12387   0.850E-02    0.179E-01
RMM:   9    -0.641117676857E+03    0.17208E-03   -0.51274E-04 12564   0.671E-02    0.860E-02
RMM:  10    -0.641117693091E+03   -0.16234E-04   -0.31720E-04 11942   0.485E-02    0.964E-02
RMM:  11    -0.641117646807E+03    0.46284E-04   -0.16269E-04 10938   0.360E-02    0.301E-02
RMM:  12    -0.641117659369E+03   -0.12562E-04   -0.12628E-04 10127   0.239E-02    0.414E-02
RMM:  13    -0.641117654888E+03    0.44814E-05   -0.71120E-05  9291   0.230E-02
  35 F= -.64111765E+03 E0= -.64105278E+03  d E =-.508296E-02
 curvature:  -1.25 expect dE=-0.674E-02 dE for cont linesearch -0.258E-05
 trial: gam= 0.60042 g(F)=  0.274E-02 g(S)=  0.264E-02 ort = 0.193E-03 (trialstep = 0.722E+00)
 search vector abs. value=  0.122E-01
 bond charge predicted
       N       E                     dE             d eps       ncg     rms          rms(c)
DAV:   1    -0.641090821204E+03    0.26838E-01   -0.14097E+00 10272   0.742E+00    0.701E-01
RMM:   2    -0.641152508195E+03   -0.61687E-01   -0.43086E-01 13525   0.217E+00    0.205E+00
RMM:   3    -0.641130032994E+03    0.22475E-01   -0.59867E-02 12003   0.865E-01    0.134E+00
RMM:   4    -0.641123374420E+03    0.66586E-02   -0.14069E-02 12711   0.413E-01    0.713E-01
RMM:   5    -0.641121707721E+03    0.16667E-02   -0.59473E-03 12916   0.255E-01    0.440E-01
RMM:   6    -0.641120571514E+03    0.11362E-02   -0.27703E-03 13445   0.135E-01    0.274E-01
RMM:   7    -0.641120368129E+03    0.20339E-03   -0.13470E-03 12462   0.117E-01    0.249E-01
RMM:   8    -0.641120673171E+03   -0.30504E-03   -0.12517E-03 11954   0.117E-01    0.335E-01
RMM:   9    -0.641120063354E+03    0.60982E-03   -0.78663E-04 12277   0.934E-02    0.106E-01
RMM:  10    -0.641120054248E+03    0.91061E-05   -0.43795E-04 11954   0.573E-02    0.102E-01
RMM:  11    -0.641120014510E+03    0.39737E-04   -0.19827E-04 10936   0.439E-02    0.496E-02
RMM:  12    -0.641120010680E+03    0.38305E-05   -0.13826E-04 10318   0.250E-02    0.220E-02
RMM:  13    -0.641120017424E+03   -0.67437E-05   -0.81819E-05  8983   0.192E-02
  36 F= -.64112002E+03 E0= -.64105530E+03  d E =-.236254E-02
 trial-energy change:   -0.002363  1 .order   -0.002358   -0.003968   -0.000749
 step:   0.8893(harm=  0.8893)  dis= 0.00454  next Energy=  -641.120100 (dE=-0.245E-02)
 bond charge predicted
       N       E                     dE             d eps       ncg     rms          rms(c)
DAV:   1    -0.641118491605E+03    0.15191E-02   -0.76245E-02 10896   0.172E+00    0.167E-01
RMM:   2    -0.641122067445E+03   -0.35758E-02   -0.23540E-02 13547   0.505E-01    0.506E-01
RMM:   3    -0.641120646018E+03    0.14214E-02   -0.33293E-03 11443   0.206E-01    0.314E-01
RMM:   4    -0.641120269443E+03    0.37658E-03   -0.81000E-04 11709   0.105E-01    0.170E-01
RMM:   5    -0.641120177471E+03    0.91972E-04   -0.34874E-04 11223   0.615E-02    0.103E-01
RMM:   6    -0.641120127794E+03    0.49677E-04   -0.17180E-04 10792   0.376E-02    0.714E-02
RMM:   7    -0.641120108514E+03    0.19280E-04   -0.82616E-05  9055   0.306E-02    0.526E-02
RMM:   8    -0.641120126128E+03   -0.17615E-04   -0.74458E-05  8588   0.310E-02    0.725E-02
RMM:   9    -0.641120102309E+03    0.23819E-04   -0.53207E-05  8097   0.263E-02    0.372E-02
RMM:  10    -0.641120098693E+03    0.36164E-05   -0.29320E-05  6451   0.220E-02
  37 F= -.64112010E+03 E0= -.64105542E+03  d E =-.244380E-02
 curvature:  -0.98 expect dE=-0.353E-02 dE for cont linesearch -0.234E-06
 trial: gam= 0.67851 g(F)=  0.160E-02 g(S)=  0.200E-02 ort = 0.538E-04 (trialstep = 0.755E+00)
 search vector abs. value=  0.926E-02
 bond charge predicted
       N       E                     dE             d eps       ncg     rms          rms(c)
DAV:   1    -0.641093871491E+03    0.26231E-01   -0.11029E+00  8736   0.636E+00    0.447E-01
RMM:   2    -0.641130459465E+03   -0.36588E-01   -0.31880E-01 14513   0.168E+00    0.118E+00
RMM:   3    -0.641124858416E+03    0.56010E-02   -0.36263E-02 12462   0.613E-01    0.716E-01
RMM:   4    -0.641123447011E+03    0.14114E-02   -0.78028E-03 13045   0.297E-01    0.481E-01
RMM:   5    -0.641122800757E+03    0.64625E-03   -0.31014E-03 12921   0.182E-01    0.365E-01
RMM:   6    -0.641122235982E+03    0.56477E-03   -0.15051E-03 12702   0.109E-01    0.239E-01
RMM:   7    -0.641122097052E+03    0.13893E-03   -0.88508E-04 11949   0.860E-02    0.180E-01
RMM:   8    -0.641122154569E+03   -0.57517E-04   -0.83662E-04 13105   0.800E-02    0.195E-01
RMM:   9    -0.641121944231E+03    0.21034E-03   -0.47489E-04 12257   0.713E-02    0.940E-02
RMM:  10    -0.641121946698E+03   -0.24670E-05   -0.30888E-04 11860   0.509E-02    0.909E-02
RMM:  11    -0.641121904387E+03    0.42311E-04   -0.17156E-04 11100   0.358E-02    0.328E-02
RMM:  12    -0.641121910426E+03   -0.60397E-05   -0.12089E-04 10014   0.229E-02    0.305E-02
RMM:  13    -0.641121911830E+03   -0.14031E-05   -0.67155E-05  9052   0.219E-02
  38 F= -.64112191E+03 E0= -.64105703E+03  d E =-.181314E-02
 trial-energy change:   -0.001813  1 .order   -0.001741   -0.002742   -0.000740
 step:   0.9735(harm=  1.0344)  dis= 0.00392  next Energy=  -641.122021 (dE=-0.192E-02)
 bond charge predicted
       N       E                     dE             d eps       ncg     rms          rms(c)
DAV:   1    -0.641119695153E+03    0.22153E-02   -0.92314E-02  9312   0.184E+00    0.130E-01
RMM:   2    -0.641122804640E+03   -0.31095E-02   -0.26912E-02 14478   0.485E-01    0.347E-01
RMM:   3    -0.641122300692E+03    0.50395E-03   -0.30930E-03 12114   0.180E-01    0.214E-01
RMM:   4    -0.641122172652E+03    0.12804E-03   -0.71277E-04 12418   0.915E-02    0.138E-01
RMM:   5    -0.641122122387E+03    0.50265E-04   -0.28910E-04 11474   0.560E-02    0.105E-01
RMM:   6    -0.641122078906E+03    0.43481E-04   -0.15307E-04 11055   0.350E-02    0.702E-02
RMM:   7    -0.641122067330E+03    0.11576E-04   -0.92347E-05 10030   0.277E-02    0.509E-02
RMM:   8    -0.641122075057E+03   -0.77268E-05   -0.77491E-05  9802   0.272E-02
  39 F= -.64112208E+03 E0= -.64105711E+03  d E =-.197636E-02
 curvature:  -1.26 expect dE=-0.157E-02 dE for cont linesearch -0.964E-05
 ZBRENT: extrapolating
 opt :   1.0551  next Energy=  -641.122086 (dE=-0.199E-02)
 bond charge predicted
       N       E                     dE             d eps       ncg     rms          rms(c)
DAV:   1    -0.641121743184E+03    0.32415E-03   -0.12849E-02  9720   0.686E-01    0.541E-02
RMM:   2    -0.641122327854E+03   -0.58467E-03   -0.38762E-03 14212   0.187E-01    0.208E-01
RMM:   3    -0.641122086638E+03    0.24122E-03   -0.49832E-04 10644   0.773E-02    0.652E-02
RMM:   4    -0.641122080750E+03    0.58887E-05   -0.13339E-04 10778   0.394E-02    0.597E-02
RMM:   5    -0.641122074269E+03    0.64809E-05   -0.51357E-05  8055   0.260E-02
  40 F= -.64112207E+03 E0= -.64105710E+03  d E =-.197558E-02
 curvature:  -1.42 expect dE=-0.221E-02 dE for cont linesearch -0.665E-06
 trial: gam= 0.27733 g(F)=  0.128E-02 g(S)=  0.283E-03 ort =-0.659E-04 (trialstep = 0.815E+00)
 search vector abs. value=  0.224E-02
 bond charge predicted
       N       E                     dE             d eps       ncg     rms          rms(c)
DAV:   1    -0.641118543738E+03    0.35370E-02   -0.30230E-01 10512   0.299E+00    0.352E-01
RMM:   2    -0.641131254817E+03   -0.12711E-01   -0.78956E-02 13446   0.970E-01    0.106E+00
RMM:   3    -0.641125120065E+03    0.61348E-02   -0.12009E-02 11853   0.412E-01    0.632E-01
RMM:   4    -0.641123479515E+03    0.16406E-02   -0.35168E-03 12368   0.201E-01    0.346E-01
RMM:   5    -0.641123164819E+03    0.31470E-03   -0.14459E-03 11876   0.124E-01    0.259E-01
RMM:   6    -0.641122936951E+03    0.22787E-03   -0.72903E-04 11978   0.835E-02    0.214E-01
RMM:   7    -0.641122741388E+03    0.19556E-03   -0.38493E-04 10644   0.684E-02    0.124E-01
RMM:   8    -0.641122766992E+03   -0.25604E-04   -0.38695E-04 11854   0.560E-02    0.126E-01
RMM:   9    -0.641122674312E+03    0.92680E-04   -0.22281E-04 11201   0.478E-02    0.632E-02
RMM:  10    -0.641122667334E+03    0.69773E-05   -0.10749E-04  9509   0.334E-02    0.560E-02
RMM:  11    -0.641122651046E+03    0.16289E-04   -0.53957E-05  8091   0.238E-02    0.228E-02
RMM:  12    -0.641122650574E+03    0.47112E-06   -0.41754E-05  7189   0.175E-02
  41 F= -.64112265E+03 E0= -.64105758E+03  d E =-.576306E-03
 trial-energy change:   -0.000576  1 .order   -0.000609   -0.001259    0.000040
 step:   0.7902(harm=  0.7902)  dis= 0.00140  next Energy=  -641.122684 (dE=-0.610E-03)
 bond charge predicted
       N       E                     dE             d eps       ncg     rms          rms(c)
DAV:   1    -0.641122649195E+03    0.18506E-05   -0.33421E-04 12504   0.971E-02    0.206E-02
RMM:   2    -0.641122739465E+03   -0.90270E-04   -0.12893E-04  7484   0.435E-02    0.122E-01
[...]
RMM:   3    -0.641123853068E+03    0.14767E-03   -0.32452E-04  9057   0.661E-02    0.134E-01
RMM:   4    -0.641123771244E+03    0.81824E-04   -0.96091E-05  7783   0.412E-02    0.459E-02
RMM:   5    -0.641123767076E+03    0.41675E-05   -0.38648E-05  6094   0.242E-02
  66 F= -.64112377E+03 E0= -.64105855E+03  d E =-.839437E-04
 curvature:  -0.34 expect dE=-0.224E-04 dE for cont linesearch -0.147E-04
 ZBRENT: increasing intervall
 opt :   1.2116  next Energy=  -641.123783 (dE=-0.994E-04)
 bond charge predicted
       N       E                     dE             d eps       ncg     rms          rms(c)
DAV:   1    -0.641123394811E+03    0.37643E-03   -0.26932E-02 11496   0.910E-01    0.119E-01
RMM:   2    -0.641124749757E+03   -0.13549E-02   -0.75826E-03 13089   0.302E-01    0.361E-01
RMM:   3    -0.641123983874E+03    0.76588E-03   -0.13393E-03 10797   0.133E-01    0.186E-01
RMM:   4    -0.641123847762E+03    0.13611E-03   -0.37441E-04 10696   0.698E-02    0.124E-01
RMM:   5    -0.641123811093E+03    0.36669E-04   -0.15516E-04  9139   0.432E-02    0.876E-02
RMM:   6    -0.641123781972E+03    0.29121E-04   -0.74758E-05  7405   0.319E-02    0.642E-02
RMM:   7    -0.641123761971E+03    0.20001E-04   -0.38723E-05  5928   0.257E-02    0.342E-02
RMM:   8    -0.641123766642E+03   -0.46707E-05   -0.43730E-05  6627   0.235E-02
  67 F= -.64112377E+03 E0= -.64105851E+03  d E =-.835097E-04
 curvature:  -0.36 expect dE=-0.814E-04 dE for cont linesearch -0.332E-05
 ZBRENT: bracketing found
 ZBRENT: interpolating
 opt :   0.9813  next Energy=  -641.123772 (dE=-0.889E-04)
 bond charge predicted
       N       E                     dE             d eps       ncg     rms          rms(c)
DAV:   1    -0.641123741799E+03    0.20172E-04   -0.28982E-03 11088   0.295E-01    0.459E-02
RMM:   2    -0.641124130884E+03   -0.38908E-03   -0.98185E-04 11733   0.112E-01    0.252E-01
RMM:   3    -0.641123799254E+03    0.33163E-03   -0.21967E-04  7881   0.620E-02    0.565E-02
RMM:   4    -0.641123784018E+03    0.15236E-04   -0.40908E-05  6076   0.307E-02    0.397E-02
RMM:   5    -0.641123778090E+03    0.59288E-05   -0.17914E-05  5305   0.213E-02
  68 F= -.64112378E+03 E0= -.64105852E+03  d E =-.949572E-04
 curvature:  -0.59 expect dE=-0.270E-03 dE for cont linesearch -0.169E-05
 trial: gam= 2.34891 g(F)=  0.129E-03 g(S)=  0.330E-03 ort =-0.263E-04 (trialstep = 0.424E-01)
 search vector abs. value=  0.166E-02
 bond charge predicted
       N       E                     dE             d eps       ncg     rms          rms(c)
DAV:   1    -0.641123774068E+03    0.99502E-05   -0.71441E-04 11472   0.166E-01    0.296E-02
RMM:   2    -0.641124078135E+03   -0.30407E-03   -0.35934E-04  9292   0.606E-02    0.247E-01
RMM:   3    -0.641123793430E+03    0.28471E-03   -0.99545E-05  6730   0.456E-02    0.294E-02
RMM:   4    -0.641123785911E+03    0.75191E-05   -0.15907E-05  5233   0.167E-02
  69 F= -.64112379E+03 E0= -.64105851E+03  d E =-.782108E-05
 trial-energy change:   -0.000008  1 .order   -0.000009   -0.000017   -0.000002
 step:   0.0474(harm=  0.0474)  dis= 0.00014  next Energy=  -641.123788 (dE=-0.941E-05)
 bond charge predicted
       N       E                     dE             d eps       ncg     rms          rms(c)
DAV:   1    -0.641123786221E+03    0.72084E-05   -0.34350E-05  7704   0.377E-02    0.152E-02
RMM:   2    -0.641123845988E+03   -0.59767E-04   -0.51329E-05  6309   0.287E-02    0.106E-01
RMM:   3    -0.641123787223E+03    0.58765E-04   -0.21603E-05  5538   0.252E-02    0.146E-02
RMM:   4    -0.641123785618E+03    0.16055E-05   -0.35733E-06  4438   0.756E-03
  70 F= -.64112379E+03 E0= -.64105852E+03  d E =-.752842E-05
 curvature:  -0.10 expect dE=-0.171E-04 dE for cont linesearch -0.102E-05
 ZBRENT: increasing intervall
 opt :   0.0574  next Energy=  -641.123788 (dE=-0.973E-05)
 bond charge predicted
       N       E                     dE             d eps       ncg     rms          rms(c)
DAV:   1    -0.641123786433E+03    0.79029E-06   -0.45264E-05  8592   0.414E-02    0.549E-03
RMM:   2    -0.641123792627E+03   -0.61942E-05   -0.14446E-05  5108   0.154E-02
  71 F= -.64112379E+03 E0= -.64105854E+03  d E =-.145378E-04
 curvature:  -0.21 expect dE=-0.329E-04 dE for cont linesearch -0.222E-07
 trial: gam=-0.11492 g(F)=  0.821E-04 g(S)=  0.724E-04 ort = 0.132E-04 (trialstep = 0.454E-01)
 search vector abs. value=  0.173E-03
 bond charge predicted
       N       E                     dE             d eps       ncg     rms          rms(c)
DAV:   1    -0.641123794259E+03   -0.78254E-05   -0.91510E-05  9240   0.570E-02    0.981E-03
RMM:   2    -0.641123805106E+03   -0.10848E-04   -0.19415E-05  5419   0.207E-02    0.455E-02
RMM:   3    -0.641123794777E+03    0.10329E-04   -0.92711E-06  4582   0.173E-02    0.135E-02
RMM:   4    -0.641123794365E+03    0.41208E-06   -0.28173E-06  4384   0.766E-03
  72 F= -.64112379E+03 E0= -.64105852E+03  d E =-.173741E-05
 trial-energy change:   -0.000002  1 .order   -0.000006   -0.000007   -0.000005
 step:   0.1579(harm=  0.1579)  dis= 0.00013  next Energy=  -641.123805 (dE=-0.121E-04)
 bond charge predicted
       N       E                     dE             d eps       ncg     rms          rms(c)
DAV:   1    -0.641123809715E+03   -0.14938E-04   -0.52010E-04 11712   0.118E-01    0.285E-02
RMM:   2    -0.641123890836E+03   -0.81121E-04   -0.20622E-04  8558   0.546E-02    0.115E-01
RMM:   3    -0.641123827084E+03    0.63752E-04   -0.52828E-05  6153   0.356E-02    0.590E-02
RMM:   4    -0.641123810108E+03    0.16977E-04   -0.16523E-05  5352   0.209E-02    0.223E-02
RMM:   5    -0.641123808684E+03    0.14237E-05   -0.72254E-06  4398   0.152E-02
  73 F= -.64112381E+03 E0= -.64105853E+03  d E =-.160565E-04
 curvature:  -0.09 expect dE=-0.140E-04 dE for cont linesearch -0.301E-05
 ZBRENT: increasing intervall
 opt :   0.3828  next Energy=  -641.123819 (dE=-0.259E-04)
 bond charge predicted
       N       E                     dE             d eps       ncg     rms          rms(c)
DAV:   1    -0.641123825489E+03   -0.15381E-04   -0.19832E-03 11544   0.237E-01    0.525E-02
RMM:   2    -0.641124020324E+03   -0.19484E-03   -0.76257E-04 11556   0.102E-01    0.159E-01
RMM:   3    -0.641123866806E+03    0.15352E-03   -0.18161E-04  7643   0.547E-02    0.842E-02
RMM:   4    -0.641123830877E+03    0.35929E-04   -0.47930E-05  6397   0.305E-02    0.458E-02
RMM:   5    -0.641123827656E+03    0.32212E-05   -0.20687E-05  5364   0.228E-02
  74 F= -.64112383E+03 E0= -.64105854E+03  d E =-.350288E-04
 curvature:  -0.29 expect dE=-0.596E-04 dE for cont linesearch -0.215E-05
 trial: gam= 0.78748 g(F)=  0.107E-03 g(S)=  0.966E-04 ort = 0.357E-04 (trialstep = 0.533E-01)
 search vector abs. value=  0.367E-03
 bond charge predicted
       N       E                     dE             d eps       ncg     rms          rms(c)
DAV:   1    -0.641123838448E+03   -0.75705E-05   -0.28300E-04 12528   0.895E-02    0.375E-02
RMM:   2    -0.641124055059E+03   -0.21661E-03   -0.29803E-04  8886   0.566E-02    0.197E-01
RMM:   3    -0.641123842902E+03    0.21216E-03   -0.99692E-05  6746   0.478E-02    0.511E-02
RMM:   4    -0.641123833038E+03    0.98641E-05   -0.22376E-05  5446   0.211E-02
  75 F= -.64112383E+03 E0= -.64105857E+03  d E =-.538201E-05
 trial-energy change:   -0.000005  1 .order   -0.000008   -0.000012   -0.000003
 step:   0.0738(harm=  0.0738)  dis= 0.00005  next Energy=  -641.123836 (dE=-0.856E-05)
 bond charge predicted
       N       E                     dE             d eps       ncg     rms          rms(c)
DAV:   1    -0.641123829653E+03    0.13249E-04   -0.10857E-04  9840   0.528E-02    0.226E-02
RMM:   2    -0.641123904567E+03   -0.74914E-04   -0.89915E-05  7180   0.353E-02    0.117E-01
RMM:   3    -0.641123832417E+03    0.72151E-04   -0.31223E-05  5778   0.294E-02    0.341E-02
RMM:   4    -0.641123826520E+03    0.58964E-05   -0.84438E-06  4692   0.134E-02
  76 F= -.64112383E+03 E0= -.64105854E+03  d E =0.113569E-05
 curvature:  -0.06 expect dE=-0.256E-05 dE for cont linesearch -0.402E-06
 ZBRENT: increasing intervall
 opt :   0.1149  next Energy=  -641.123828 (dE=-0.340E-06)
 bond charge predicted
       N       E                     dE             d eps       ncg     rms          rms(c)
DAV:   1    -0.641123833010E+03   -0.59282E-06   -0.17417E-04 11784   0.684E-02    0.237E-02
RMM:   2    -0.641123863630E+03   -0.30620E-04   -0.88857E-05  7023   0.370E-02    0.669E-02
RMM:   3    -0.641123835176E+03    0.28453E-04   -0.26574E-05  5613   0.275E-02    0.382E-02
RMM:   4    -0.641123827796E+03    0.73799E-05   -0.76289E-06  4633   0.135E-02
  77 F= -.64112383E+03 E0= -.64105854E+03  d E =-.140077E-06
 curvature:  -0.21 expect dE=-0.103E-04 dE for cont linesearch -0.324E-05
 ZBRENT: increasing intervall
 opt :   0.1972  next Energy=  -641.123836 (dE=-0.824E-05)
 bond charge predicted
       N       E                     dE             d eps       ncg     rms          rms(c)
DAV:   1    -0.641123844797E+03   -0.96209E-05   -0.58476E-04 11520   0.126E-01    0.416E-02
RMM:   2    -0.641123965839E+03   -0.12104E-03   -0.34703E-04  9751   0.656E-02    0.143E-01
RMM:   3    -0.641123873616E+03    0.92223E-04   -0.87281E-05  6846   0.444E-02    0.912E-02
RMM:   4    -0.641123831248E+03    0.42368E-04   -0.31483E-05  5621   0.281E-02    0.296E-02
RMM:   5    -0.641123830577E+03    0.67157E-06   -0.12671E-05  5050   0.194E-02
  78 F= -.64112383E+03 E0= -.64105853E+03  d E =-.292044E-05
 curvature:  -0.54 expect dE=-0.445E-04 dE for cont linesearch -0.771E-05
 ZBRENT: bracketing found
 ZBRENT: interpolating
 opt :   0.1566  next Energy=  -641.123832 (dE=-0.439E-05)
 bond charge predicted
       N       E                     dE             d eps       ncg     rms          rms(c)
DAV:   1    -0.641123829712E+03    0.15367E-05   -0.19635E-04 12144   0.687E-02    0.272E-02
RMM:   2    -0.641123986771E+03   -0.15706E-03   -0.19009E-04  7913   0.500E-02    0.164E-01
RMM:   3    -0.641123836309E+03    0.15046E-03   -0.63937E-05  6480   0.404E-02    0.429E-02
RMM:   4    -0.641123824749E+03    0.11560E-04   -0.10925E-05  4855   0.155E-02    0.122E-02
RMM:   5    -0.641123825303E+03   -0.55446E-06   -0.39885E-06  4382   0.109E-02
  79 F= -.64112383E+03 E0= -.64105854E+03  d E =0.235287E-05
 curvature:  -0.10 expect dE=-0.941E-05 dE for cont linesearch -0.208E-06
 ZBRENT: interpolating
 opt :   0.1386  next Energy=  -641.123826 (dE= 0.204E-05)
 bond charge predicted
       N       E                     dE             d eps       ncg     rms          rms(c)
DAV:   1    -0.641123825187E+03   -0.43772E-06   -0.39049E-05  7824   0.343E-02    0.141E-02
RMM:   2    -0.641123868435E+03   -0.43248E-04   -0.34637E-05  5874   0.246E-02    0.949E-02
RMM:   3    -0.641123827519E+03    0.40916E-04   -0.16268E-05  5377   0.217E-02    0.204E-02
RMM:   4    -0.641123824266E+03    0.32529E-05   -0.32873E-06  4384   0.713E-03
  80 F= -.64112382E+03 E0= -.64105854E+03  d E =0.338999E-05
 curvature:  -0.15 expect dE=-0.153E-04 dE for cont linesearch -0.678E-07
 trial: gam= 0.31431 g(F)=  0.754E-04 g(S)=  0.243E-04 ort =-0.128E-04 (trialstep = 0.703E-01)
 search vector abs. value=  0.128E-03
 bond charge predicted
       N       E                     dE             d eps       ncg     rms          rms(c)
DAV:   1    -0.641123824539E+03    0.29804E-05   -0.16166E-04 10584   0.876E-02    0.868E-03
RMM:   2    -0.641123847364E+03   -0.22826E-04   -0.55496E-05  5905   0.241E-02    0.614E-02
RMM:   3    -0.641123829400E+03    0.17964E-04   -0.14925E-05  4938   0.214E-02    0.659E-03
RMM:   4    -0.641123829480E+03   -0.79905E-07   -0.35128E-06  4335   0.794E-03
  81 F= -.64112383E+03 E0= -.64105854E+03  d E =-.521413E-05
 trial-energy change:   -0.000005  1 .order   -0.000005   -0.000007   -0.000003
 step:   0.1189(harm=  0.1189)  dis= 0.00012  next Energy=  -641.123830 (dE=-0.569E-05)
 bond charge predicted
       N       E                     dE             d eps       ncg     rms          rms(c)
DAV:   1    -0.641123830298E+03   -0.89791E-06   -0.93175E-05 10320   0.621E-02    0.621E-03
RMM:   2    -0.641123844914E+03   -0.14615E-04   -0.31345E-05  5565   0.194E-02    0.511E-02
RMM:   3    -0.641123833564E+03    0.11349E-04   -0.94382E-06  4556   0.176E-02    0.772E-03
RMM:   4    -0.641123833345E+03    0.21954E-06   -0.24349E-06  4303   0.644E-03
  82 F= -.64112383E+03 E0= -.64105854E+03  d E =-.907867E-05
 curvature:  -0.08 expect dE=-0.409E-05 dE for cont linesearch -0.159E-05
 ZBRENT: increasing intervall
 opt :   0.2160  next Energy=  -641.123839 (dE=-0.151E-04)
 bond charge predicted
       N       E                     dE             d eps       ncg     rms          rms(c)
DAV:   1    -0.641123828386E+03    0.51779E-05   -0.31639E-04  8976   0.119E-01    0.454E-03
RMM:   2    -0.641123839574E+03   -0.11188E-04   -0.11083E-04  7034   0.280E-02    0.847E-03
RMM:   3    -0.641123840673E+03   -0.10987E-05   -0.13786E-05  4601   0.166E-02
  83 F= -.64112384E+03 E0= -.64105855E+03  d E =-.164066E-04
 curvature:  -0.30 expect dE=-0.143E-04 dE for cont linesearch -0.980E-06
 ZBRENT: increasing intervall
 opt :   0.4102  next Energy=  -641.123839 (dE=-0.145E-04)
 bond charge predicted
       N       E                     dE             d eps       ncg     rms          rms(c)
DAV:   1    -0.641123807159E+03    0.32415E-04   -0.12721E-03  9096   0.240E-01    0.100E-02
RMM:   2    -0.641123858501E+03   -0.51342E-04   -0.45273E-04 10938   0.560E-02    0.378E-02
RMM:   3    -0.641123855815E+03    0.26864E-05   -0.52079E-05  5405   0.233E-02
  84 F= -.64112386E+03 E0= -.64105855E+03  d E =-.315484E-04
 curvature:   0.58 expect dE= 0.336E-04 dE for cont linesearch  0.397E-06
 trial: gam= 0.15703 g(F)=  0.203E-04 g(S)=  0.373E-04 ort = 0.934E-05 (trialstep = 0.138E+00)
 search vector abs. value=  0.637E-04
 bond charge predicted
       N       E                     dE             d eps       ncg     rms          rms(c)
DAV:   1    -0.641123866056E+03   -0.75552E-05   -0.29425E-04 12504   0.732E-02    0.240E-02
RMM:   2    -0.641123901843E+03   -0.35787E-04   -0.10834E-04  7641   0.375E-02    0.754E-02
RMM:   3    -0.641123872429E+03    0.29413E-04   -0.27584E-05  5576   0.294E-02    0.486E-02
RMM:   4    -0.641123862246E+03    0.10184E-04   -0.11728E-05  5117   0.172E-02    0.226E-02
RMM:   5    -0.641123861312E+03    0.93329E-06   -0.49387E-06  4378   0.123E-02
  85 F= -.64112386E+03 E0= -.64105857E+03  d E =-.549771E-05
 ZBRENT: can't locate minimum, use default step
 trial-energy change:   -0.000005  1 .order   -0.000008   -0.000008   -0.000007
 step:   0.5532(harm=  0.9786)  dis= 0.00014  next Energy=  -641.123885 (dE=-0.289E-04)
 bond charge predicted
       N       E                     dE             d eps       ncg     rms          rms(c)
DAV:   1    -0.641123926564E+03   -0.64318E-04   -0.24351E-03 12528   0.217E-01    0.756E-02
RMM:   2    -0.641124312422E+03   -0.38586E-03   -0.10132E-03 10556   0.121E-01    0.251E-01
RMM:   3    -0.641123985302E+03    0.32712E-03   -0.32534E-04  8247   0.838E-02    0.143E-01
RMM:   4    -0.641123890283E+03    0.95019E-04   -0.10572E-04  7683   0.429E-02    0.692E-02
RMM:   5    -0.641123877181E+03    0.13101E-04   -0.42936E-05  6187   0.298E-02    0.514E-02
RMM:   6    -0.641123874134E+03    0.30479E-05   -0.22748E-05  5384   0.233E-02
  86 F= -.64112387E+03 E0= -.64105858E+03  d E =-.183190E-04
 curvature:  -0.39 expect dE=-0.240E-04 dE for cont linesearch -0.674E-05
 ZBRENT: increasing intervall
 opt :   1.3830  next Energy=  -641.123887 (dE=-0.311E-04)
 bond charge predicted
       N       E                     dE             d eps       ncg     rms          rms(c)
DAV:   1    -0.641124062459E+03   -0.18528E-03   -0.95380E-03 12192   0.432E-01    0.148E-01
RMM:   2    -0.641125487058E+03   -0.14246E-02   -0.39124E-03 11099   0.247E-01    0.476E-01
RMM:   3    -0.641124258601E+03    0.12285E-02   -0.12552E-03  9766   0.158E-01    0.276E-01
RMM:   4    -0.641123955804E+03    0.30280E-03   -0.40575E-04  9867   0.776E-02    0.155E-01
RMM:   5    -0.641123863596E+03    0.92209E-04   -0.19716E-04  9309   0.496E-02    0.807E-02
RMM:   6    -0.641123828334E+03    0.35261E-04   -0.77843E-05  7691   0.317E-02    0.525E-02
RMM:   7    -0.641123813826E+03    0.14508E-04   -0.30379E-05  5585   0.232E-02    0.366E-02
RMM:   8    -0.641123815723E+03   -0.18961E-05   -0.28745E-05  5654   0.252E-02
  87 F= -.64112382E+03 E0= -.64105851E+03  d E =0.400920E-04
 curvature:  -0.74 expect dE=-0.142E-03 dE for cont linesearch -0.395E-04
 ZBRENT: bracketing found
 ZBRENT: interpolating
 opt :   0.8541  next Energy=  -641.123879 (dE=-0.233E-04)
 bond charge predicted
       N       E                     dE             d eps       ncg     rms          rms(c)
DAV:   1    -0.641123957164E+03   -0.14334E-03   -0.42214E-03 12432   0.277E-01    0.890E-02
RMM:   2    -0.641124428667E+03   -0.47150E-03   -0.14321E-03 11012   0.146E-01    0.275E-01
RMM:   3    -0.641124019969E+03    0.40870E-03   -0.44676E-04  9339   0.963E-02    0.162E-01
RMM:   4    -0.641123909932E+03    0.11004E-03   -0.15334E-04  8975   0.491E-02    0.877E-02
RMM:   5    -0.641123889543E+03    0.20389E-04   -0.72620E-05  7678   0.341E-02    0.660E-02
RMM:   6    -0.641123876811E+03    0.12733E-04   -0.31468E-05  5790   0.247E-02    0.547E-02
RMM:   7    -0.641123861367E+03    0.15444E-04   -0.20459E-05  5369   0.240E-02    0.287E-02
RMM:   8    -0.641123859900E+03    0.14665E-05   -0.11487E-05  4759   0.168E-02
  88 F= -.64112386E+03 E0= -.64105856E+03  d E =-.408554E-05
 curvature:  -0.09 expect dE=-0.198E-04 dE for cont linesearch -0.525E-05
 ZBRENT: interpolating
 opt :   0.6605  next Energy=  -641.123876 (dE=-0.201E-04)
 bond charge predicted
       N       E                     dE             d eps       ncg     rms          rms(c)
DAV:   1    -0.641123881055E+03   -0.19688E-04   -0.50264E-04 12168   0.103E-01    0.375E-02
RMM:   2    -0.641124013659E+03   -0.13260E-03   -0.26922E-04  8802   0.589E-02    0.147E-01
RMM:   3    -0.641123890026E+03    0.12363E-03   -0.84746E-05  6620   0.441E-02    0.624E-02
RMM:   4    -0.641123871112E+03    0.18915E-04   -0.20753E-05  5386   0.213E-02    0.355E-02
RMM:   5    -0.641123868630E+03    0.24818E-05   -0.11000E-05  4839   0.175E-02
  89 F= -.64112387E+03 E0= -.64105856E+03  d E =-.128154E-04
 curvature:  -0.03 expect dE=-0.585E-05 dE for cont linesearch -0.120E-05
 ZBRENT: interpolating
 opt :   0.5964  next Energy=  -641.123875 (dE=-0.190E-04)
 bond charge predicted
       N       E                     dE             d eps       ncg     rms          rms(c)
DAV:   1    -0.641123869994E+03    0.11182E-05   -0.81267E-05 11160   0.409E-02    0.199E-02
RMM:   2    -0.641123915561E+03   -0.45567E-04   -0.87168E-05  7287   0.281E-02    0.848E-02
RMM:   3    -0.641123873881E+03    0.41679E-04   -0.24279E-05  5575   0.258E-02    0.385E-02
RMM:   4    -0.641123866107E+03    0.77746E-05   -0.89884E-06  4656   0.140E-02
  90 F= -.64112387E+03 E0= -.64105858E+03  d E =-.102921E-04
 curvature:  -0.02 expect dE=-0.143E-05 dE for cont linesearch -0.143E-07
 trial: gam= 1.65971 g(F)=  0.559E-04 g(S)=  0.199E-04 ort =-0.695E-05 (trialstep = 0.642E-01)
 search vector abs. value=  0.228E-03
 bond charge predicted
       N       E                     dE             d eps       ncg     rms          rms(c)
DAV:   1    -0.641123864857E+03    0.90246E-05   -0.20954E-04 10440   0.800E-02    0.154E-02
RMM:   2    -0.641123938420E+03   -0.73564E-04   -0.80363E-05  6892   0.349E-02    0.119E-01
RMM:   3    -0.641123869076E+03    0.69344E-04   -0.25124E-05  5600   0.273E-02    0.192E-02
RMM:   4    -0.641123866995E+03    0.20808E-05   -0.53595E-06  4383   0.108E-02
  91 F= -.64112387E+03 E0= -.64105856E+03  d E =-.888642E-06
 trial-energy change:   -0.000001  1 .order   -0.000002   -0.000004   -0.000001
 step:   0.0732(harm=  0.0732)  dis= 0.00006  next Energy=  -641.123868 (dE=-0.235E-05)
 reached required accuracy - stopping structural energy minimisation
