HECN                                    
           1
     8.932500    0.000000    0.000000
     0.005753    9.055598    0.000000
     0.032102   -0.015743    8.937128
   Hf   V    Ti   N    C    Cr   W 
   7   6   7  13  19   6   6
Direct configuration=     1
   0.99688001  0.99204997  0.99924002
   0.25398003  0.99714995  0.24912000
   0.24803003  0.50165000  0.24955001
   0.50501006  0.49745998  0.99834003
   0.50479003  0.24631001  0.74710002
   0.99427992  0.50449999  0.49779000
   0.49950005  0.75481999  0.74817004
   0.99437004  0.23617001  0.26379999
   0.75718000  0.74102998  0.01100000
   0.00201000  0.25541000  0.73894001
   0.75307001  0.26163001  0.50533002
   0.99514004  0.74492004  0.74511997
   0.25679999  0.49462002  0.74545002
   0.24788999  0.24839000  0.99657997
   0.50833000  0.25676999  0.25376001
   0.74879004  0.98787999  0.26967001
   0.75719000  0.25603001  0.99591997
   0.24762001  0.74973999  0.99974006
   0.25272001  0.24823001  0.50015003
   0.24457999  0.75048999  0.49983999
   0.24982001  0.24942998  0.24825000
   0.26146999  0.99984002  0.99295996
   0.00281000  0.25024000  0.00130000
   0.75313998  0.24617000  0.25492002
   0.74767001  0.99748000  0.01202000
   0.50714994  0.99977000  0.24673000
   0.99051999  0.48088002  0.24100998
   0.50519005  0.76130999  0.00855000
   0.98896989  0.00202000  0.73708999
   0.75744996  0.24437997  0.74896999
   0.73632001  0.00417000  0.51063000
   0.50563996  0.23264999  0.49544997
   0.50008998  0.00061000  0.73471998
   0.99720000  0.99771992  0.25899999
   0.50427997  0.24673000  0.00262000
   0.25133999  0.74958002  0.24910999
   0.24328000  0.50072997  0.99510994
   0.99837005  0.74313996  0.00460000
   0.75633000  0.73891003  0.25767000
   0.75839004  0.50315998  0.00288000
   0.50700002  0.50333002  0.25878999
   0.24900999  0.25315000  0.74854000
   0.24446000  0.99823996  0.50287998
   0.99804009  0.24229999  0.50128003
   0.24177002  0.75340997  0.75018002
   0.25841001  0.50062002  0.50129001
   0.99000004  0.76215003  0.49746000
   0.99203996  0.50055999  0.75138002
   0.75036005  0.74888000  0.74756004
   0.74036002  0.50197000  0.50067003
   0.50575006  0.74958002  0.49720000
   0.50501003  0.50217998  0.73912003
   0.51588997  0.01358000  0.98075008
   0.99841994  0.50976998  0.98613004
   0.50379003  0.73926997  0.25905001
   0.23780002  0.01082000  0.74607998
   0.47957999  0.98308000  0.49717999
   0.74279003  0.97869994  0.76450995
   0.99864998  0.77573999  0.26102000
   0.73551001  0.51468004  0.26666001
   0.02362000  0.99783001  0.49557002
   0.50539000  0.52833005  0.49917999
   0.73876003  0.52828003  0.73814999
   0.75400003  0.72937999  0.49116997
HECN                                    
           1
     8.212631    0.010003   -0.013961
     0.015431    8.362267   -0.009636
     0.015529   -0.024003    8.227519
   Hf   V    Ti   N    C    Cr   W 
   7   6   7  13  19   6   6
Direct configuration=     2
   0.99397760  0.99690512  0.99266582
   0.26421700  0.00104507  0.24460889
   0.24636304  0.49823300  0.24649123
   0.50171691  0.49975978  0.99993425
   0.50619922  0.23932718  0.74382637
   0.99850962  0.49858759  0.50031715
   0.49362460  0.76519501  0.75457277
   0.99095289  0.23048308  0.26657579
   0.75951211  0.74020677  0.01214249
   0.00419465  0.25624856  0.73640584
   0.75450088  0.25989447  0.50386426
   0.99805121  0.74311590  0.74794547
   0.25425404  0.49286987  0.74790965
   0.24619271  0.24958603  0.99385176
   0.51145152  0.25179326  0.25407113
   0.74172256  0.99227495  0.27038931
   0.75802270  0.25555922  0.99528626
   0.24609726  0.74787103  0.99735789
   0.25292316  0.24818742  0.50284120
   0.24546998  0.75110970  0.50273794
   0.25112316  0.24923692  0.24903969
   0.25778269  0.00046321  0.99409154
   0.00217991  0.24839512  0.00008262
   0.75263650  0.24648481  0.25509802
   0.74646043  0.99754981  0.00737525
   0.50765456  0.99940139  0.24930688
   0.99167324  0.48217825  0.24426262
   0.50505066  0.75908180  0.00543329
   0.99008186  0.00202061  0.74064450
   0.75709768  0.24505479  0.74961854
   0.73831685  0.00256627  0.50612612
   0.50423794  0.23429613  0.49509008
   0.50246771  0.00033467  0.73858485
   0.99522944  0.00462458  0.25447909
   0.50527800  0.24518753  0.00263292
   0.25077850  0.74921012  0.24913309
   0.24338932  0.50122456  0.99319646
   0.99784377  0.74098618  0.00272769
   0.75305377  0.74529860  0.24936825
   0.75996294  0.50367599  0.00197472
   0.50103771  0.50158551  0.25423573
   0.24597061  0.25273712  0.74799029
   0.25332586  0.99778862  0.50558904
   0.99792045  0.24475520  0.50214761
   0.23998185  0.75269832  0.75001004
   0.25556963  0.50110236  0.50332626
   0.99566110  0.75825677  0.50350532
   0.99386924  0.50058328  0.75503965
   0.75249435  0.75635701  0.75095298
   0.74594332  0.49255625  0.50311409
   0.50083880  0.75715554  0.49435582
   0.49883675  0.50112295  0.74424154
   0.52010572  0.01494017  0.98134773
   0.99842259  0.51267918  0.98118894
   0.50431252  0.73947811  0.25756135
   0.23643953  0.01285900  0.74646015
   0.47675622  0.98400079  0.49734195
   0.74118014  0.97445591  0.76642467
   0.00211867  0.77162518  0.25581227
   0.73970910  0.50874499  0.25962820
   0.01798168  0.00315623  0.50314046
   0.50056041  0.52234487  0.49746424
   0.74683526  0.52105478  0.74296769
   0.75387627  0.74243723  0.49409246
HECN                                    
           1
     8.609204    0.004493   -0.006270
     0.010099    8.744221   -0.004327
     0.024659   -0.019453    8.618440
   Hf   V    Ti   N    C    Cr   W 
   7   6   7  13  19   6   6
Direct configuration=     3
   0.99572696  0.99401105  0.99659946
   0.25809065 -0.00126828  0.24729528
   0.24736248  0.50027239  0.24832572
   0.50369018  0.49838434  0.99898199
   0.50535306  0.24349619  0.74578880
   0.99596832  0.50211608  0.49880470
   0.49714618  0.75899699  0.75074003
   0.99299337  0.23387143  0.26492215
   0.75811297  0.74069876  0.01145701
   0.00288885  0.25575158  0.73791952
   0.75364375  0.26093187  0.50474115
   0.99630268  0.74419236  0.74625296
   0.25577573  0.49391048  0.74644159
   0.24721336  0.24887315  0.99548524
   0.50957718  0.25476427  0.25388525
   0.74595978  0.98964750  0.26996299
   0.75752406  0.25584111  0.99566496
   0.24701072  0.74898654  0.99878626
   0.25279866  0.24821114  0.50123060
   0.24493421  0.75073866  0.50100243
   0.25034139  0.24935249  0.24856594
   0.25999136  0.00008803  0.99341770
   0.00255733  0.24949611  0.00081304
   0.75293823  0.24629652  0.25499179
   0.74718998  0.99751045  0.01015590
   0.50734930  0.99961990  0.24776459
   0.99097987  0.48140238  0.24231412
   0.50513572  0.76041310  0.00730006
   0.98941196  0.00201863  0.73851631
   0.75730859  0.24465152  0.74923033
   0.73712379  0.00352750  0.50882039
   0.50507959  0.23331333  0.49530572
   0.50103886  0.00049800  0.73626984
   0.99641986  0.00050710  0.25718164
   0.50467885  0.24610843  0.00262525
   0.25111464  0.74943037  0.24912009
   0.24332614  0.50093088  0.99434105
   0.99815943  0.74227197  0.00385014
   0.75503001  0.74149064  0.25433499
   0.75902179  0.50336989  0.00251449
   0.50461359  0.50262508  0.25696833
   0.24779201  0.25298164  0.74832262
   0.24801049  0.99806237  0.50395921
   0.99799306  0.24328981  0.50162685
   0.24105294  0.75312171  0.75011407
   0.25726981  0.50081120  0.50211029
   0.99226005  0.76057932  0.49988469
   0.99276945  0.50056821  0.75284781
   0.75121756  0.75189563  0.74891522
   0.74258847  0.49817458  0.50165243
   0.50379003  0.75263460  0.49605752
   0.50252967  0.50174567  0.74118377
   0.51758010  0.01413133  0.98098485
   0.99842819  0.51094698  0.98414372
   0.50400113  0.73935532  0.25845151
   0.23725583  0.01164135  0.74623261
   0.47844869  0.98344935  0.49724726
   0.74213968  0.97698534  0.76528347
   0.00004257  0.77408599  0.25892798
   0.73719588  0.51229346  0.26383600
   0.02135627 -0.00003042  0.49861223
   0.50345156  0.52591320  0.49850005
   0.74198648  0.52536767  0.74008155
   0.75395706  0.73464554  0.49233462
HECN                                    
           1
     8.596703    0.004666   -0.006512
     0.010267    8.732181   -0.004495
     0.024371   -0.019596    8.606117
   Hf   V    Ti   N    C    Cr   W 
   7   6   7  13  19   6   6
Direct configuration=     4
   0.99567454  0.99409834  0.99648108
   0.25827499 -0.00119837  0.24721421
   0.24733244  0.50021093  0.24827058
   0.50363084  0.49842575  0.99901068
   0.50537847  0.24337057  0.74572980
   0.99604462  0.50200974  0.49885021
   0.49704031  0.75918369  0.75085534
   0.99293189  0.23376922  0.26497204
   0.75815501  0.74068395  0.01147761
   0.00292817  0.25576662  0.73787392
   0.75366953  0.26090063  0.50471476
   0.99635518  0.74415991  0.74630386
   0.25572991  0.49387905  0.74648583
   0.24718273  0.24889465  0.99543611
   0.50963347  0.25467474  0.25389085
   0.74583241  0.98972661  0.26997589
   0.75753906  0.25583263  0.99565356
   0.24698327  0.74895292  0.99874332
   0.25280235  0.24821040  0.50127906
   0.24495028  0.75074982  0.50105464
   0.25036488  0.24934901  0.24858017
   0.25992493  0.00009928  0.99343803
   0.00254598  0.24946292  0.00079110
   0.75292916  0.24630219  0.25499499
   0.74716813  0.99751168  0.01007225
   0.50735843  0.99961329  0.24781099
   0.99100068  0.48142574  0.24237272
   0.50513319  0.76037300  0.00724392
   0.98943204  0.00201866  0.73858033
   0.75730225  0.24466367  0.74924201
   0.73715973  0.00349860  0.50873930
   0.50505431  0.23334294  0.49529923
   0.50108176  0.00049306  0.73633947
   0.99638423  0.00063125  0.25710026
   0.50469684  0.24608068  0.00262548
   0.25110453  0.74942373  0.24912050
   0.24332808  0.50093976  0.99430660
   0.99814994  0.74223323  0.00381640
   0.75497081  0.74160549  0.25418551
   0.75905011  0.50337914  0.00249822
   0.50450612  0.50259372  0.25688622
   0.24773725  0.25297423  0.74831268
   0.24817027  0.99805419  0.50400811
   0.99799089  0.24333397  0.50164249
   0.24102072  0.75310893  0.75011098
   0.25721866  0.50081991  0.50214693
   0.99236216  0.76050931  0.49999359
   0.99280246  0.50056864  0.75291373
   0.75125599  0.75203011  0.74897642
   0.74268919  0.49800526  0.50169643
   0.50370143  0.75277086  0.49600631
   0.50241852  0.50172676  0.74127591
   0.51765605  0.01415576  0.98099568
   0.99842814  0.51099926  0.98405477
   0.50401052  0.73935904  0.25842471
   0.23723130  0.01167804  0.74623946
   0.47839781  0.98346594  0.49725015
   0.74211074  0.97690905  0.76531789
   0.00010504  0.77401191  0.25883421
   0.73727150  0.51218663  0.26370937
   0.02125473  0.00006548  0.49874852
   0.50336458  0.52580559  0.49846903
   0.74213211  0.52523770  0.74016835
   0.75395474  0.73488038  0.49238737
HECN                                    
           1
     8.602443    0.015378   -0.013668
     0.021171    8.696843   -0.013275
     0.017211   -0.028126    8.615450
   Hf   V    Ti   N    C    Cr   W 
   7   6   7  13  19   6   6
Direct configuration=     5
   0.99448714  0.99938594  0.98936237
   0.26628432  0.00299981  0.24256132
   0.24446310  0.49604817  0.24552823
   0.49984780  0.50085795  0.00020008
   0.50631418  0.23856883  0.74358913
   0.00165428  0.49674582  0.50101618
   0.49161127  0.76593839  0.75742683
   0.99001341  0.22925565  0.26551605
   0.75962059  0.74125339  0.01135475
   0.00483195  0.25564318  0.73787037
   0.75471404  0.25783472  0.50268430
   0.99974563  0.74298274  0.75096116
   0.25167732  0.49265588  0.74968358
   0.24590440  0.24954817  0.99323495
   0.51150255  0.25004841  0.25318781
   0.73966286  0.99525297  0.26861645
   0.75773386  0.25465678  0.99563146
   0.24549713  0.74777013  0.99634545
   0.25332361  0.24810662  0.50295207
   0.24625851  0.75153503  0.50390882
   0.25131519  0.24896317  0.24914147
   0.25796189  0.00073822  0.99270090
   0.00201742  0.24976690 -0.00027238
   0.75278414  0.24599939  0.25460563
   0.74439364  0.99780601  0.00559076
   0.50937135  0.99897989  0.24904591
   0.99188267  0.48366622  0.24308117
   0.50458964  0.75982412  0.00589635
   0.98990646  0.00232795  0.74324617
   0.75879046  0.24534621  0.74969899
   0.74021132  0.00178124  0.50636238
   0.50386672  0.23572746  0.49389178
   0.50291030  0.00087120  0.74059164
   0.99426579  0.00771996  0.25233285
   0.50524910  0.24385603  0.00377493
   0.25238987  0.74893738  0.24889764
   0.24213172  0.50115947  0.99086001
   0.99824653  0.73973239  0.00060784
   0.74948526  0.74968958  0.24471975
   0.76167795  0.50303605  0.00179546
   0.49735522  0.49999870  0.25168323
   0.24429221  0.25245420  0.74792789
   0.25816909  0.99808134  0.50771273
   0.99835783  0.24655552  0.50273479
   0.23811527  0.75270118  0.75030194
   0.25390787  0.50073814  0.50484118
   0.00008834  0.75603226  0.50738492
   0.99751015  0.49982109  0.75700177
   0.75398320  0.76003457  0.75382482
   0.74768440  0.48951375  0.50318107
   0.49715675  0.76168850  0.49339851
   0.49516682  0.50070259  0.74634343
   0.52073157  0.01405022  0.98222978
   0.99914641  0.51220824  0.98089416
   0.50335309  0.74066554  0.25511148
   0.23565670  0.01333152  0.74755999
   0.47765869  0.98561690  0.49648190
   0.74065357  0.97549602  0.76754953
   0.00467752  0.76760383  0.25150856
   0.74426600  0.50373852  0.25413685
   0.01330100  0.00578720  0.50621738
   0.49813387  0.51677419  0.49759651
   0.74998388  0.51548917  0.74916794
   0.75205556  0.74789909  0.49700917
HECN                                    
           1
     8.601504    0.013624   -0.012497
     0.019386    8.702628   -0.011837
     0.018383   -0.026730    8.613922
   Hf   V    Ti   N    C    Cr   W 
   7   6   7  13  19   6   6
Direct configuration=     6
   0.99468346  0.99851775  0.99052570
   0.26497559  0.00231213  0.24332038
   0.24493200  0.49673224  0.24597774
   0.50046701  0.50045723  0.00000569
   0.50616039  0.23935859  0.74393985
   0.00073521  0.49761180  0.50066212
   0.49249992  0.76482602  0.75635186
   0.99048982  0.22999684  0.26542825
   0.75938098  0.74116011  0.01137455
   0.00452048  0.25566385  0.73787071
   0.75454280  0.25833918  0.50301669
   0.99919011  0.74317616  0.75019933
   0.25233959  0.49285560  0.74916144
   0.24611396  0.24944085  0.99359495
   0.51119592  0.25080930  0.25330329
   0.74067347  0.99434362  0.26883866
   0.75770175  0.25485009  0.99563524
   0.24574033  0.74796462  0.99673795
   0.25323809  0.24812352  0.50267844
   0.24604427  0.75140578  0.50344179
   0.25115957  0.24902669  0.24904962
   0.25828326  0.00063293  0.99282159
   0.00210410  0.24971700 -0.00009846
   0.75280785  0.24604919  0.25466937
   0.74484818  0.99775779  0.00632391
   0.50904176  0.99908420  0.24884381
   0.99173876  0.48329803  0.24296483
   0.50467863  0.75991444  0.00611687
   0.98982828  0.00227646  0.74248310
   0.75854709  0.24523425  0.74962394
   0.73971208  0.00206450  0.50675093
   0.50406169  0.23533552  0.49412169
   0.50261067  0.00080874  0.73989601
   0.99461448  0.00655517  0.25311152
   0.50515813  0.24422161  0.00358727
   0.25217953  0.74901761  0.24893399
   0.24232795  0.50112367  0.99142372
   0.99823065  0.74014397  0.00113291
   0.75038562  0.74836126  0.24626699
   0.76124809  0.50309308  0.00191008
   0.49852519  0.50042462  0.25253543
   0.24485572  0.25253904  0.74799136
   0.25653290  0.99807830  0.50710559
   0.99829833  0.24602591  0.50255559
   0.23859046  0.75276759  0.75027118
   0.25444909  0.50075049  0.50440107
  -0.00117752  0.75676850  0.50617599
   0.99673931  0.49994426  0.75633278
   0.75353807  0.75871870  0.75303029
   0.74686526  0.49091021  0.50293904
   0.49822961  0.76022187  0.49382433
   0.49635221  0.50086866  0.74551594
   0.52022826  0.01406799  0.98202758
   0.99902960  0.51201018  0.98141069
   0.50346136  0.74045120  0.25565313
   0.23591446  0.01305922  0.74734399
   0.47778015  0.98526333  0.49660726
   0.74089135  0.97572762  0.76718505
   0.00392917  0.76865918  0.25270691
   0.74312131  0.50513002  0.25570263
   0.01460232  0.00484397  0.50499619
   0.49898779  0.51825771  0.49774141
   0.74869615  0.51709162  0.74769689
   0.75236834  0.74575817  0.49625148
HECN                                    
           1
     8.665401    0.014420   -0.009975
     0.020296    8.719656   -0.017444
     0.021142   -0.032252    8.675992
   Hf   V    Ti   N    C    Cr   W 
   7   6   7  13  19   6   6
Direct configuration=     7
   0.99480558  0.99951657  0.98921259
   0.26411219  0.00210747  0.24275708
   0.24285079  0.49522088  0.24548595
   0.50017227  0.50013940  0.00004868
   0.50626505  0.24002300  0.74428643
   0.00117292  0.49807381  0.50253030
   0.49251711  0.76214661  0.75652251
   0.98788904  0.22990656  0.26586658
   0.76109293  0.74075210  0.01017702
   0.00492372  0.25493229  0.73873708
   0.75606200  0.25569818  0.50121503
   0.00071662  0.74130561  0.75405861
   0.24938906  0.49185115  0.75096058
   0.24556255  0.24921522  0.99191182
   0.51232758  0.25077496  0.25208730
   0.74030041  0.99675449  0.26677879
   0.75683467  0.25424091  0.99595097
   0.24338964  0.74804790  0.99613010
   0.25266149  0.24735244  0.50341521
   0.24647242  0.75235331  0.50424155
   0.25122636  0.24804095  0.24907439
   0.25712450  0.00124774  0.99192575
   0.00187237  0.25091234 -0.00036881
   0.75297117  0.24573598  0.25389742
   0.74419830  0.99852698  0.00331079
   0.51016106  0.99912006  0.24858615
   0.99246393  0.48592633  0.24323670
   0.50368533  0.76011867  0.00633220
   0.99007777  0.00304065  0.74376753
   0.75940433  0.24671268  0.74973556
   0.74359640  0.00096569  0.50653302
   0.50362794  0.23885423  0.49353474
   0.50391047  0.00171098  0.74316424
   0.99541026  0.00288896  0.25298681
   0.50501563  0.24310509  0.00350259
   0.25288850  0.74946136  0.24857070
   0.24122465  0.50083539  0.99003676
   0.99857015  0.74089656 -0.00040885
   0.74791380  0.74964711  0.24666802
   0.76160873  0.50245204  0.00178354
   0.49975592  0.49954227  0.25292950
   0.24435599  0.25178656  0.74787108
   0.25466343  0.99950202  0.50896271
   0.99934167  0.24667136  0.50279740
   0.23736439  0.75306804  0.75086101
   0.25442151  0.50029512  0.50467946
   0.00037366  0.75539737  0.50677626
   0.00094134  0.49911767  0.75686253
   0.75364628  0.75696187  0.75489298
   0.74650914  0.49207039  0.50227940
   0.49664200  0.75902909  0.49370331
   0.49573600  0.50151055  0.74519876
   0.52215611  0.01335387  0.98217223
   0.99917447  0.51185132  0.98065185
   0.50184107  0.73881844  0.25462680
   0.23331708  0.01384816  0.74731498
   0.47991706  0.98657437  0.49586204
   0.73885880  0.97709609  0.76889319
   0.00428032  0.77153112  0.25086651
   0.74230545  0.50515333  0.25342244
   0.01604246  0.00493101  0.50563662
   0.50050484  0.51832882  0.49659405
   0.75006755  0.51719628  0.75212924
   0.75131415  0.74575200  0.49577231
HECN                                    
           1
     8.663935    0.014402   -0.010032
     0.020275    8.719266   -0.017316
     0.021079   -0.032125    8.674568
   Hf   V    Ti   N    C    Cr   W 
   7   6   7  13  19   6   6
Direct configuration=     8
   0.99480279  0.99949373  0.98924247
   0.26413184  0.00211216  0.24276991
   0.24289815  0.49525547  0.24549716
   0.50017898  0.50014668  0.00004770
   0.50626267  0.24000779  0.74427853
   0.00116297  0.49806321  0.50248776
   0.49251672  0.76220793  0.75651867
   0.98794824  0.22990861  0.26585659
   0.76105395  0.74076146  0.01020430
   0.00491455  0.25494902  0.73871737
   0.75602740  0.25575865  0.50125610
   0.00068189  0.74134837  0.75397078
   0.24945623  0.49187411  0.75091961
   0.24557509  0.24922040  0.99195015
   0.51230181  0.25077576  0.25211500
   0.74030890  0.99669934  0.26682565
   0.75685440  0.25425484  0.99594379
   0.24344315  0.74804600  0.99614392
   0.25267462  0.24737008  0.50339844
   0.24646268  0.75233161  0.50422333
   0.25122484  0.24806351  0.24907384
   0.25715087  0.00123368  0.99194613
   0.00187765  0.25088499 -0.00036267
   0.75296745  0.24574316  0.25391500
   0.74421307  0.99850941  0.00337938
   0.51013558  0.99911924  0.24859203
   0.99244743  0.48586617  0.24323048
   0.50370794  0.76011399  0.00632729
   0.99007210  0.00302314  0.74373828
   0.75938482  0.24667884  0.74973300
   0.74350797  0.00099085  0.50653802
   0.50363782  0.23877371  0.49354805
   0.50388090  0.00169029  0.74308982
   0.99539214  0.00297288  0.25298971
   0.50501887  0.24313065  0.00350453
   0.25287236  0.74945121  0.24857897
   0.24124975  0.50084201  0.99006833
   0.99856242  0.74087936 -0.00037376
   0.74797007  0.74961767  0.24665886
   0.76160052  0.50246672  0.00178644
   0.49972790  0.49956247  0.25292055
   0.24436737  0.25180378  0.74787382
   0.25470600  0.99946940  0.50892039
   0.99931792  0.24665659  0.50279189
   0.23739230  0.75306115  0.75084757
   0.25442214  0.50030554  0.50467313
   0.00033835  0.75542874  0.50676262
   0.00084569  0.49913659  0.75685051
   0.75364382  0.75700206  0.75485059
   0.74651725  0.49204384  0.50229440
   0.49667814  0.75905639  0.49370607
   0.49575003  0.50149586  0.74520597
   0.52211222  0.01337022  0.98216897
   0.99917117  0.51185497  0.98066913
   0.50187794  0.73885582  0.25465018
   0.23337621  0.01383009  0.74731561
   0.47986842  0.98654438  0.49587901
   0.73890508  0.97706474  0.76885426
   0.00427232  0.77146541  0.25090838
   0.74232401  0.50515283  0.25347435
   0.01600968  0.00492901  0.50562205
   0.50047030  0.51832721  0.49662018
   0.75003636  0.51719382  0.75202833
   0.75133814  0.74575214  0.49578322
HECN                                    
           1
     8.636189    0.013897   -0.007366
     0.019770    8.674334   -0.019047
     0.023642   -0.033763    8.637280
   Hf   V    Ti   N    C    Cr   W 
   7   6   7  13  19   6   6
Direct configuration=     9
   0.99484006  0.00092244  0.98846844
   0.26422176  0.00217076  0.24280756
   0.24157048  0.49391772  0.24525875
   0.49961761  0.49969928  0.00033012
   0.50669730  0.24168918  0.74405178
   0.00040828  0.49910053  0.50400618
   0.49277326  0.76035072  0.75640087
   0.98504897  0.22897916  0.26672818
   0.76366749  0.74041030  0.00908191
   0.00527693  0.25377085  0.73930308
   0.75807538  0.25332524  0.49875967
   0.00206204  0.73888358  0.75812275
   0.24628199  0.49034218  0.75241728
   0.24479399  0.24848868  0.99015629
   0.51347912  0.25112566  0.25108719
   0.74053049  0.99866476  0.26508644
   0.75583642  0.25340616  0.99619347
   0.24086705  0.74830760  0.99564383
   0.25220857  0.24689917  0.50414752
   0.24685178  0.75322126  0.50468708
   0.25114109  0.24711218  0.24901343
   0.25525497  0.00192580  0.99142125
   0.00155822  0.25226392 -0.00054410
   0.75306565  0.24562450  0.25282019
   0.74453760  0.99936812  0.00033816
   0.51014304  0.99940533  0.24822502
   0.99285885  0.48883844  0.24426196
   0.50242379  0.75996923  0.00627643
   0.99049592  0.00398439  0.74382001
   0.75973541  0.24842286  0.74984766
   0.74794380  0.00019454  0.50593559
   0.50335727  0.24294541  0.49335839
   0.50559581  0.00143439  0.74682781
   0.99625286  0.00114936  0.25329955
   0.50473760  0.24201067  0.00286068
   0.25267741  0.74943556  0.24818156
   0.24056457  0.50034825  0.98961238
   0.99872201  0.74227391 -0.00097977
   0.74621285  0.75033550  0.24768634
   0.76149842  0.50180678  0.00194345
   0.50034608  0.49854034  0.25311512
   0.24456844  0.25089443  0.74776981
   0.25414628  0.00080331  0.51025614
   0.00038623  0.24681676  0.50303412
   0.23682174  0.75351963  0.75155218
   0.25510993  0.49987362  0.50451351
   0.00038612  0.75519113  0.50629353
   0.00416575  0.49831496  0.75691831
   0.75344914  0.75546153  0.75636472
   0.74635870  0.49357660  0.50228744
   0.49593303  0.75771943  0.49379392
   0.49641711  0.50214521  0.74426139
   0.52458989  0.01266210  0.98171329
   0.99912385  0.51151707  0.97970682
   0.49987767  0.73675673  0.25424886
   0.22933463  0.01505514  0.74703996
   0.48146875  0.98751413  0.49528208
   0.73607825  0.97729017  0.77091038
   0.00417155  0.77245445  0.24963646
   0.74150569  0.50630601  0.25212356
   0.01683866  0.00415740  0.50664752
   0.50218138  0.51834599  0.49535447
   0.75218306  0.51742872  0.75586003
   0.75067232  0.74513055  0.49437216
HECN                                    
           1
     8.640425    0.013974   -0.007773
     0.019847    8.681193   -0.018782
     0.023251   -0.033513    8.642973
   Hf   V    Ti   N    C    Cr   W 
   7   6   7  13  19   6   6
Direct configuration=    10
   0.99483431  0.00070323  0.98858707
   0.26420799  0.00216176  0.24280179
   0.24177381  0.49412301  0.24529528
   0.49970360  0.49976793  0.00028681
   0.50663071  0.24143117  0.74408651
   0.00052392  0.49894131  0.50377331
   0.49273397  0.76063571  0.75641900
   0.98549304  0.22912178  0.26659445
   0.76326718  0.74046420  0.00925413
   0.00522147  0.25395162  0.73921334
   0.75776163  0.25369870  0.49914259
   0.00185089  0.73926166  0.75748633
   0.24676820  0.49057723  0.75218756
   0.24491354  0.24860102  0.99043130
   0.51329877  0.25107199  0.25124481
   0.74049646  0.99836322  0.26535304
   0.75599234  0.25353639  0.99615517
   0.24126155  0.74826750  0.99572038
   0.25227998  0.24697141  0.50403267
   0.24679221  0.75308473  0.50461597
   0.25115392  0.24725816  0.24902272
   0.25554530  0.00181962  0.99150162
   0.00160712  0.25205233 -0.00051634
   0.75305056  0.24564274  0.25298805
   0.74448775  0.99923644  0.00080442
   0.51014187  0.99936144  0.24828128
   0.99279587  0.48838231  0.24410374
   0.50262045  0.75999146  0.00628417
   0.99043101  0.00383688  0.74380747
   0.75968171  0.24815524  0.74983004
   0.74726444  0.00031672  0.50602818
   0.50340020  0.24230528  0.49338732
   0.50533336  0.00147353  0.74625480
   0.99612107  0.00142916  0.25325215
   0.50478066  0.24218255  0.00295942
   0.25270724  0.74943798  0.24824248
   0.24066949  0.50042404  0.98968227
   0.99869753  0.74205993 -0.00088689
   0.74648201  0.75022533  0.24752871
   0.76151407  0.50190804  0.00191939
   0.50025143  0.49869717  0.25308535
   0.24453765  0.25103397  0.74778579
   0.25423205  0.00059858  0.51005127
   0.00022263  0.24679216  0.50299703
   0.23690915  0.75344926  0.75144411
   0.25500459  0.49993990  0.50453803
   0.00037878  0.75522760  0.50636546
   0.00365729  0.49844101  0.75690810
   0.75347904  0.75569788  0.75613262
   0.74638297  0.49334140  0.50228845
   0.49604715  0.75792459  0.49378046
   0.49631490  0.50204559  0.74440622
   0.52421043  0.01277075  0.98178329
   0.99913106  0.51156895  0.97985437
   0.50018401  0.73707886  0.25431036
   0.22995357  0.01486720  0.74708200
   0.48122362  0.98736533  0.49537364
   0.73651127  0.97725554  0.77059500
   0.00418692  0.77230272  0.24983143
   0.74163094  0.50612911  0.25233058
   0.01671176  0.00427576  0.50649036
   0.50191927  0.51834313  0.49554860
   0.75185447  0.51739254  0.75527265
   0.75077423  0.74522598  0.49458849
HECN                                    
           1
     8.644825    0.013709   -0.006313
     0.019570    8.693252   -0.015904
     0.024715   -0.030710    8.637606
   Hf   V    Ti   N    C    Cr   W 
   7   6   7  13  19   6   6
Direct configuration=    11
   0.99501434  0.00205487  0.98891980
   0.26525315  0.00260093  0.24330079
   0.24177819  0.49350924  0.24557109
   0.49893076  0.49979390  0.00036593
   0.50732219  0.24268076  0.74309521
  -0.00014688  0.49959107  0.50361825
   0.49259425  0.76057529  0.75647030
   0.98450987  0.22824960  0.26706103
   0.76494115  0.74079840  0.00864988
   0.00522277  0.25273228  0.73936499
   0.75890431  0.25254263  0.49707935
   0.00213407  0.73792718  0.75939569
   0.24510867  0.48941309  0.75241724
   0.24447393  0.24774648  0.99004682
   0.51349709  0.25128354  0.25118513
   0.74117807  0.99868464  0.26472482
   0.75539673  0.25279790  0.99633643
   0.24049610  0.74856405  0.99571691
   0.25237795  0.24742008  0.50401574
   0.24702588  0.75315921  0.50448563
   0.25082566  0.24702726  0.24894475
   0.25412940  0.00213368  0.99132011
   0.00129577  0.25329731 -0.00044242
   0.75296308  0.24593087  0.25201757
   0.74574929  0.99953297  0.00009085
   0.50950182  0.99961844  0.24789366
   0.99239331  0.49016781  0.24493664
   0.50174139  0.75970014  0.00645027
   0.99026018  0.00435173  0.74322815
   0.75968833  0.24907048  0.74975838
   0.74968973  0.00082819  0.50563426
   0.50357280  0.24471301  0.49328770
   0.50641460  0.00099277  0.74808443
   0.99616512  0.00337910  0.25332106
   0.50443760  0.24165049  0.00232063
   0.25203881  0.74882619  0.24815771
   0.24057353  0.49996198  0.99013090
   0.99866305  0.74308318 -0.00027744
   0.74598449  0.75083486  0.24736604
   0.76125649  0.50157332  0.00260305
   0.49903589  0.49784036  0.25229526
   0.24524173  0.25058467  0.74768630
   0.25642779  0.00077813  0.51036885
   0.00062598  0.24676423  0.50305995
   0.23706995  0.75376613  0.75170356
   0.25540291  0.49984525  0.50453156
  -0.00043847  0.75595918  0.50587300
   0.00421506  0.49792078  0.75661339
   0.75363983  0.75616699  0.75672965
   0.74693984  0.49345971  0.50319274
   0.49618733  0.75849569  0.49373429
   0.49754007  0.50209177  0.74394055
   0.52522308  0.01227969  0.98119050
   0.99922524  0.51092621  0.98008714
   0.49866789  0.73603071  0.25446394
   0.22685396  0.01581288  0.74680460
   0.48199345  0.98770762  0.49555871
   0.73481972  0.97619920  0.77149344
   0.00393038  0.76944409  0.24950475
   0.74215917  0.50688018  0.25226489
   0.01524064  0.00347943  0.50703730
   0.50233235  0.51687631  0.49500555
   0.75394774  0.51640177  0.75654742
   0.75036179  0.74548987  0.49366549
HECN                                    
           1
     8.646044    0.013635   -0.005908
     0.019494    8.696595   -0.015106
     0.025121   -0.029933    8.636118
   Hf   V    Ti   N    C    Cr   W 
   7   6   7  13  19   6   6
Direct configuration=    12
   0.99506421  0.00242894  0.98901194
   0.26554266  0.00272244  0.24343909
   0.24177938  0.49333933  0.24564763