<?xml version="1.0" encoding="ISO-8859-1"?>
<modeling>
 <generator>
  <i name="program" type="string">vasp </i>
  <i name="version" type="string">5.4.4.18Apr17-6-g9f103f2a35  </i>
  <i name="subversion" type="string">(build Oct 18 2021 20:38:43) complex            parallel </i>
  <i name="platform" type="string">LinuxIFC </i>
  <i name="date" type="string">2024 06 24 </i>
  <i name="time" type="string">10:44:20 </i>
 </generator>
 <incar>
  <i type="string" name="SYSTEM">HECN</i>
  <i type="int" name="ISTART">     0</i>
  <i type="string" name="PREC">normal</i>
  <i type="string" name="ALGO">Fast</i>
  <i type="int" name="ICHARG">     2</i>
  <i type="int" name="NELM">    60</i>
  <i type="int" name="IBRION">     2</i>
  <i name="EDIFF">      0.00001000</i>
  <i name="EDIFFG">     -0.01000000</i>
  <i type="int" name="NSW">   100</i>
  <i type="int" name="ISIF">     3</i>
  <i name="ENCUT">    400.00000000</i>
  <i name="POTIM">      0.50000000</i>
  <i type="logical" name="LREAL"> F  </i>
  <i type="int" name="ISMEAR">     0</i>
  <i name="SIGMA">      0.10000000</i>
  <i type="logical" name="LWAVE"> F  </i>
  <i type="logical" name="LCHARG"> F  </i>
  <v type="int" name="KPOINT_BSE">    -1     0     0     0</v>
  <i type="int" name="NELM">    60</i>
 </incar>
 <structure name="primitive_cell" >
  <crystal>
   <varray name="basis" >
    <v>       8.73007662      -0.00477740       0.01726634 </v>
    <v>       0.00084843       8.77091188      -0.01155564 </v>
    <v>       0.04868113      -0.02677314       8.75632268 </v>
   </varray>
   <i name="volume">    670.46800851 </i>
   <varray name="rec_basis" >
    <v>       0.11454778      -0.00001192      -0.00063687 </v>
    <v>       0.00006170       0.11401368       0.00034826 </v>
    <v>      -0.00022579       0.00015049       0.11420491 </v>
   </varray>
  </crystal>
  <varray name="positions" >
   <v>       0.03055237      -0.01430883      -0.00879128 </v>
   <v>       0.26362883       0.00072188       0.00944497 </v>
   <v>      -0.00170630      -0.24678578       0.00260657 </v>
   <v>      -0.02149340       0.00208076      -0.24528798 </v>
   <v>       0.00408706       0.00489974       0.23876761 </v>
   <v>      -0.00306048       0.24462135       0.00008202 </v>
   <v>      -0.24078659      -0.00448347       0.01203584 </v>
   <v>       0.23192529       0.00346135      -0.24272114 </v>
   <v>       0.25052836      -0.25194467       0.00311946 </v>
   <v>      -0.00059512      -0.24392920      -0.25022864 </v>
   <v>       0.24279593      -0.02282080       0.25815512 </v>
   <v>      -0.00019269      -0.23126847       0.25524969 </v>
   <v>       0.25125674       0.25096551      -0.00497871 </v>
   <v>       0.00771793       0.24469369      -0.25307577 </v>
   <v>      -0.25568882      -0.25108790       0.00230975 </v>
   <v>       0.00543021       0.25360697       0.25517493 </v>
   <v>      -0.27393901      -0.00814049      -0.23044433 </v>
   <v>      -0.25586938       0.24482289      -0.00694595 </v>
   <v>      -0.25169299      -0.00585061       0.26208497 </v>
   <v>       0.25827184      -0.24757305      -0.24719638 </v>
   <v>       0.25069750      -0.25305839       0.25177158 </v>
   <v>       0.25829847       0.24952272      -0.25152647 </v>
   <v>       0.24870644       0.25309470       0.24803751 </v>
   <v>      -0.25818392      -0.24370311      -0.25396447 </v>
   <v>      -0.25065873      -0.25642466       0.25050826 </v>
   <v>      -0.25128161       0.24739909      -0.25406371 </v>
   <v>      -0.24678260       0.24830739       0.25146622 </v>
   <v>       0.00165110      -0.48768816      -0.01543555 </v>
   <v>      -0.48684906       0.01890237      -0.02053357 </v>
   <v>       0.01431628       0.00084054       0.48510840 </v>
   <v>       0.48607684      -0.00509678       0.22597752 </v>
   <v>       0.48843044       0.00584856      -0.26298793 </v>
   <v>      -0.49709007      -0.23811913       0.00049258 </v>
   <v>       0.25503018      -0.49998516       0.00604162 </v>
   <v>       0.25515815      -0.00142864      -0.49874230 </v>
   <v>       0.49740245       0.25699012      -0.00405415 </v>
   <v>      -0.00109486      -0.49924280      -0.25200673 </v>
   <v>      -0.00096341      -0.25513475       0.49956294 </v>
   <v>       0.00468836       0.49115828       0.23859963 </v>
   <v>      -0.25550192       0.00636204      -0.48661930 </v>
   <v>       0.00017668       0.25482286      -0.49989759 </v>
   <v>      -0.25110173       0.49757810       0.00475872 </v>
   <v>       0.49311237       0.25805498      -0.24012538 </v>
   <v>       0.24841844      -0.25224790      -0.49870659 </v>
   <v>       0.25462545       0.49848599      -0.24888044 </v>
   <v>       0.26871340      -0.48633550       0.25056927 </v>
   <v>       0.49967303      -0.24398983       0.26833690 </v>
   <v>       0.49685804       0.24856404       0.24785792 </v>
   <v>      -0.49717572      -0.27526101      -0.26521823 </v>
   <v>       0.24738721       0.24925882      -0.49857919 </v>
   <v>      -0.25793132      -0.48572752      -0.24161726 </v>
   <v>      -0.24252074      -0.27544298       0.49511391 </v>
   <v>      -0.24517844       0.26284552      -0.49711438 </v>
   <v>      -0.27965825      -0.49844980       0.25194639 </v>
   <v>       0.49470674      -0.00103324       0.47453560 </v>
   <v>       0.00478395       0.49867583      -0.47397449 </v>
   <v>      -0.49865707       0.47871446      -0.00747714 </v>
   <v>      -0.49441490      -0.24202481      -0.48881318 </v>
   <v>       0.48921693      -0.49304711       0.24388969 </v>
   <v>      -0.49917597       0.49457832      -0.24608010 </v>
   <v>      -0.49345302       0.24644227      -0.49241167 </v>
   <v>       0.24672642       0.49903340       0.49332421 </v>
   <v>      -0.23885396       0.49767300       0.49956710 </v>
   <v>      -0.49949700      -0.49139322      -0.49799677 </v>
  </varray>
 </structure>
 <varray name="primitive_index" >
  <v type="int" >        1 </v>
  <v type="int" >       22 </v>
  <v type="int" >       38 </v>
  <v type="int" >       29 </v>
  <v type="int" >       34 </v>
  <v type="int" >       23 </v>
  <v type="int" >       25 </v>
  <v type="int" >       56 </v>
  <v type="int" >       18 </v>
  <v type="int" >       12 </v>
  <v type="int" >        2 </v>
  <v type="int" >       59 </v>
  <v type="int" >       14 </v>
  <v type="int" >       10 </v>
  <v type="int" >        9 </v>
  <v type="int" >        8 </v>
  <v type="int" >       58 </v>
  <v type="int" >       17 </v>
  <v type="int" >       16 </v>
  <v type="int" >       45 </v>
  <v type="int" >       36 </v>
  <v type="int" >       42 </v>
  <v type="int" >       21 </v>
  <v type="int" >       49 </v>
  <v type="int" >       39 </v>
  <v type="int" >       30 </v>
  <v type="int" >       24 </v>
  <v type="int" >       54 </v>
  <v type="int" >       53 </v>
  <v type="int" >       61 </v>
  <v type="int" >       26 </v>
  <v type="int" >       33 </v>
  <v type="int" >       28 </v>
  <v type="int" >       37 </v>
  <v type="int" >       43 </v>
  <v type="int" >       35 </v>
  <v type="int" >       48 </v>
  <v type="int" >       47 </v>
  <v type="int" >       27 </v>
  <v type="int" >       31 </v>
  <v type="int" >       44 </v>
  <v type="int" >       40 </v>
  <v type="int" >        5 </v>
  <v type="int" >       20 </v>
  <v type="int" >       13 </v>
  <v type="int" >        3 </v>
  <v type="int" >       55 </v>
  <v type="int" >       15 </v>
  <v type="int" >        7 </v>
  <v type="int" >       19 </v>
  <v type="int" >       63 </v>
  <v type="int" >       64 </v>
  <v type="int" >       11 </v>
  <v type="int" >       60 </v>
  <v type="int" >       57 </v>
  <v type="int" >        6 </v>
  <v type="int" >        4 </v>
  <v type="int" >       51 </v>
  <v type="int" >       41 </v>
  <v type="int" >       52 </v>
  <v type="int" >       32 </v>
  <v type="int" >       46 </v>
  <v type="int" >       50 </v>
  <v type="int" >       62 </v>
 </varray>
 <kpoints>
  <generation param="Gamma">
   <v type="int" name="divisions">       3        3        3 </v>
   <v name="usershift">      0.00000000       0.00000000       0.00000000 </v>
   <v name="genvec1">      0.33333333      -0.00000000       0.00000000 </v>
   <v name="genvec2">      0.00000000       0.33333333       0.00000000 </v>
   <v name="genvec3">      0.00000000      -0.00000000       0.33333333 </v>
   <v name="shift">      0.00000000       0.00000000       0.00000000 </v>
  </generation>
  <varray name="kpointlist" >
   <v>       0.00000000       0.00000000       0.00000000 </v>
   <v>       0.33333333       0.00000000       0.00000000 </v>
   <v>       0.00000000       0.33333333      -0.00000000 </v>
   <v>       0.33333333       0.33333333       0.00000000 </v>
   <v>      -0.33333333       0.33333333      -0.00000000 </v>
   <v>      -0.00000000       0.00000000       0.33333333 </v>
   <v>       0.33333333       0.00000000       0.33333333 </v>
   <v>      -0.33333333      -0.00000000       0.33333333 </v>
   <v>       0.00000000       0.33333333       0.33333333 </v>
   <v>       0.33333333       0.33333333       0.33333333 </v>
   <v>      -0.33333333       0.33333333       0.33333333 </v>
   <v>      -0.00000000      -0.33333333       0.33333333 </v>
   <v>       0.33333333      -0.33333333       0.33333333 </v>
   <v>      -0.33333333      -0.33333333       0.33333333 </v>
  </varray>
  <varray name="weights" >
   <v>       0.03703704 </v>
   <v>       0.07407407 </v>
   <v>       0.07407407 </v>
   <v>       0.07407407 </v>
   <v>       0.07407407 </v>
   <v>       0.07407407 </v>
   <v>       0.07407407 </v>
   <v>       0.07407407 </v>
   <v>       0.07407407 </v>
   <v>       0.07407407 </v>
   <v>       0.07407407 </v>
   <v>       0.07407407 </v>
   <v>       0.07407407 </v>
   <v>       0.07407407 </v>
  </varray>
 </kpoints>
 <parameters>
  <separator name="general" >
   <i type="string" name="SYSTEM">HECN</i>
   <i type="logical" name="LCOMPAT"> F  </i>
  </separator>
  <separator name="electronic" >
   <i type="string" name="PREC">normal</i>
   <i name="ENMAX">    400.00000000</i>
   <i name="ENAUG">    644.87300000</i>
   <i name="EDIFF">      0.00001000</i>
   <i type="int" name="IALGO">    68</i>
   <i type="int" name="IWAVPR">    11</i>
   <i type="int" name="NBANDS">   312</i>
   <i name="NELECT">    497.00000000</i>
   <i type="int" name="TURBO">     0</i>
   <i type="int" name="IRESTART">     0</i>
   <i type="int" name="NREBOOT">     0</i>
   <i type="int" name="NMIN">     0</i>
   <i name="EREF">      0.00000000</i>
   <separator name="electronic smearing" >
    <i type="int" name="ISMEAR">     0</i>
    <i name="SIGMA">      0.10000000</i>
    <i name="KSPACING">      0.50000000</i>
    <i type="logical" name="KGAMMA"> T  </i>
   </separator>
   <separator name="electronic projectors" >
    <i type="logical" name="LREAL"> F  </i>
    <v name="ROPT">      0.00000000      0.00000000      0.00000000      0.00000000      0.00000000      0.00000000      0.00000000</v>
    <i type="int" name="LMAXPAW">  -100</i>
    <i type="int" name="LMAXMIX">     2</i>
    <i type="logical" name="NLSPLINE"> F  </i>
   </separator>
   <separator name="electronic startup" >
    <i type="int" name="ISTART">     0</i>
    <i type="int" name="ICHARG">     2</i>
    <i type="int" name="INIWAV">     1</i>
   </separator>
   <separator name="electronic spin" >
    <i type="int" name="ISPIN">     1</i>
    <i type="logical" name="LNONCOLLINEAR"> F  </i>
    <v name="MAGMOM">      1.00000000      1.00000000      1.00000000      1.00000000      1.00000000      1.00000000      1.00000000      1.00000000      1.00000000      1.00000000      1.00000000      1.00000000      1.00000000      1.00000000      1.00000000      1.00000000      1.00000000      1.00000000      1.00000000      1.00000000
      1.00000000      1.00000000      1.00000000      1.00000000      1.00000000      1.00000000      1.00000000      1.00000000      1.00000000      1.00000000      1.00000000      1.00000000      1.00000000      1.00000000      1.00000000      1.00000000      1.00000000      1.00000000      1.00000000      1.00000000
      1.00000000      1.00000000      1.00000000      1.00000000      1.00000000      1.00000000      1.00000000      1.00000000      1.00000000      1.00000000      1.00000000      1.00000000      1.00000000      1.00000000      1.00000000      1.00000000      1.00000000      1.00000000      1.00000000      1.00000000
      1.00000000      1.00000000      1.00000000      1.00000000</v>
    <i name="NUPDOWN">     -1.00000000</i>
    <i type="logical" name="LSORBIT"> F  </i>
    <v name="SAXIS">      0.00000000      0.00000000      1.00000000</v>
    <i type="logical" name="LSPIRAL"> F  </i>
    <v name="QSPIRAL">      0.00000000      0.00000000      0.00000000</v>
    <i type="logical" name="LZEROZ"> F  </i>
   </separator>
   <separator name="electronic exchange-correlation" >
    <i type="logical" name="LASPH"> F  </i>
    <i type="logical" name="LMETAGGA"> F  </i>
   </separator>
   <separator name="electronic convergence" >
    <i type="int" name="NELM">    60</i>
    <i type="int" name="NELMDL">    -5</i>
    <i type="int" name="NELMIN">     2</i>
    <i name="ENINI">    400.00000000</i>
    <separator name="electronic convergence detail" >
     <i type="logical" name="LDIAG"> T  </i>
     <i type="logical" name="LSUBROT"> F  </i>
     <i name="WEIMIN">      0.00100000</i>
     <i name="EBREAK">      0.00000001</i>
     <i name="DEPER">      0.30000000</i>
     <i type="int" name="NRMM">     4</i>
     <i name="TIME">      0.40000000</i>
    </separator>
   </separator>
   <separator name="electronic mixer" >
    <i name="AMIX">      0.40000000</i>
    <i name="BMIX">      1.00000000</i>
    <i name="AMIN">      0.10000000</i>
    <i name="AMIX_MAG">      1.60000000</i>
    <i name="BMIX_MAG">      1.00000000</i>
    <separator name="electronic mixer details" >
     <i type="int" name="IMIX">     4</i>
     <i type="logical" name="MIXFIRST"> F  </i>
     <i type="int" name="MAXMIX">   -45</i>
     <i name="WC">    100.00000000</i>
     <i type="int" name="INIMIX">     1</i>
     <i type="int" name="MIXPRE">     1</i>
     <i type="int" name="MREMOVE">     5</i>
    </separator>
   </separator>
   <separator name="electronic dipolcorrection" >
    <i type="logical" name="LDIPOL"> F  </i>
    <i type="logical" name="LMONO"> F  </i>
    <i type="int" name="IDIPOL">     0</i>
    <i name="EPSILON">      1.00000000</i>
    <v name="DIPOL">   -100.00000000   -100.00000000   -100.00000000</v>
    <i name="EFIELD">      0.00000000</i>
   </separator>
  </separator>
  <separator name="grids" >
   <i type="int" name="NGX">    48</i>
   <i type="int" name="NGY">    48</i>
   <i type="int" name="NGZ">    48</i>
   <i type="int" name="NGXF">    96</i>
   <i type="int" name="NGYF">    96</i>
   <i type="int" name="NGZF">    96</i>
   <i type="logical" name="ADDGRID"> F  </i>
  </separator>
  <separator name="ionic" >
   <i type="int" name="NSW">   100</i>
   <i type="int" name="IBRION">     2</i>
   <i type="int" name="MDALGO">     0</i>
   <i type="int" name="ISIF">     3</i>
   <i name="PSTRESS">      0.00000000</i>
   <i name="EDIFFG">     -0.01000000</i>
   <i type="int" name="NFREE">     1</i>
   <i name="POTIM">      0.50000000</i>
   <i name="SMASS">     -3.00000000</i>
   <i name="SCALEE">      1.00000000</i>
  </separator>
  <separator name="ionic md" >
   <i name="TEBEG">      0.00010000</i>
   <i name="TEEND">      0.00010000</i>
   <i type="int" name="NBLOCK">     1</i>
   <i type="int" name="KBLOCK">   100</i>
   <i type="int" name="NPACO">   256</i>
   <i name="APACO">     16.00000000</i>
  </separator>
  <separator name="symmetry" >
   <i type="int" name="ISYM">     2</i>
   <i name="SYMPREC">      0.00001000</i>
  </separator>
  <separator name="dos" >
   <i type="int" name="LORBIT">     0</i>
   <v name="RWIGS">     -1.00000000     -1.00000000     -1.00000000     -1.00000000     -1.00000000     -1.00000000     -1.00000000</v>
   <i type="int" name="NEDOS">   301</i>
   <i name="EMIN">     10.00000000</i>
   <i name="EMAX">    -10.00000000</i>
   <i name="EFERMI">      0.00000000</i>
  </separator>
  <separator name="writing" >
   <i type="int" name="NWRITE">     2</i>
   <i type="logical" name="LWAVE"> F  </i>
   <i type="logical" name="LDOWNSAMPLE"> F  </i>
   <i type="logical" name="LCHARG"> F  </i>
   <i type="logical" name="LPARD"> F  </i>
   <i type="logical" name="LVTOT"> F  </i>
   <i type="logical" name="LVHAR"> F  </i>
   <i type="logical" name="LELF"> F  </i>
   <i type="logical" name="LOPTICS"> F  </i>
   <v name="STM">      0.00000000      0.00000000      0.00000000      0.00000000      0.00000000      0.00000000      0.00000000</v>
  </separator>
  <separator name="performance" >
   <i type="int" name="NPAR">    24</i>
   <i type="int" name="NSIM">     4</i>
   <i type="int" name="NBLK">    -1</i>
   <i type="logical" name="LPLANE"> T  </i>
   <i type="logical" name="LSCALAPACK"> T  </i>
   <i type="logical" name="LSCAAWARE"> F  </i>
   <i type="logical" name="LSCALU"> F  </i>
   <i type="logical" name="LASYNC"> F  </i>
   <i type="logical" name="LORBITALREAL"> F  </i>
  </separator>
  <separator name="miscellaneous" >
   <i type="int" name="IDIOT">     3</i>
   <i type="int" name="ISPECIAL">     0</i>
   <i type="logical" name="LMUSIC"> F  </i>
   <v name="POMASS">     50.94100000    180.94800000     92.91000000     14.00100000     12.01100000    183.85000000     95.94000000</v>
   <v name="DARWINR">      0.00000000      0.00000000      0.00000000      0.00000000      0.00000000      0.00000000      0.00000000</v>
   <v name="DARWINV">      1.00000000      1.00000000      1.00000000      1.00000000      1.00000000      1.00000000      1.00000000</v>
   <i type="logical" name="LCORR"> T  </i>
  </separator>
  <i type="logical" name="GGA_COMPAT"> T  </i>
  <i type="logical" name="LBERRY"> F  </i>
  <i type="int" name="ICORELEVEL">     0</i>
  <i type="logical" name="LDAU"> F  </i>
  <i type="int" name="I_CONSTRAINED_M">     0</i>
  <separator name="electronic exchange-correlation" >
   <i type="string" name="GGA">--</i>
   <i type="int" name="VOSKOWN">     0</i>
   <i type="logical" name="LHFCALC"> F  </i>
   <i type="string" name="PRECFOCK"></i>
   <i type="logical" name="LSYMGRAD"> F  </i>
   <i type="logical" name="LHFONE"> F  </i>
   <i type="logical" name="LRHFCALC"> F  </i>
   <i type="logical" name="LTHOMAS"> F  </i>
   <i type="logical" name="LMODELHF"> F  </i>
   <i name="ENCUT4O">     -1.00000000</i>
   <i type="int" name="EXXOEP">     0</i>
   <i type="int" name="FOURORBIT">     0</i>
   <i name="AEXX">      0.00000000</i>
   <i name="HFALPHA">      0.00000000</i>
   <i name="MCALPHA">      0.00000000</i>
   <i name="ALDAX">      1.00000000</i>
   <i name="AGGAX">      1.00000000</i>
   <i name="ALDAC">      1.00000000</i>
   <i name="AGGAC">      1.00000000</i>
   <i type="int" name="NKREDX">     1</i>
   <i type="int" name="NKREDY">     1</i>
   <i type="int" name="NKREDZ">     1</i>
   <i type="logical" name="SHIFTRED"> F  </i>
   <i type="logical" name="ODDONLY"> F  </i>
   <i type="logical" name="EVENONLY"> F  </i>
   <i type="int" name="LMAXFOCK">     0</i>
   <i type="int" name="NMAXFOCKAE">     0</i>
   <i type="logical" name="LFOCKAEDFT"> F  </i>
   <i name="HFSCREEN">      0.00000000</i>
   <i name="HFSCREENC">      0.00000000</i>
   <i type="int" name="NBANDSGWLOW">     0</i>
  </separator>
  <separator name="vdW DFT" >
   <i type="logical" name="LUSE_VDW"> F  </i>
   <i name="Zab_VDW">     -0.84910000</i>
   <i name="PARAM1">      0.12340000</i>
   <i name="PARAM2">      1.00000000</i>
   <i name="PARAM3">      0.00000000</i>
  </separator>
  <separator name="model GW" >
   <i type="int" name="MODEL_GW">     0</i>
   <i name="MODEL_EPS0">      6.28563758</i>
   <i name="MODEL_ALPHA">      1.00000000</i>
  </separator>
  <separator name="linear response parameters" >
   <i type="logical" name="LEPSILON"> F  </i>
   <i type="logical" name="LRPA"> F  </i>
   <i type="logical" name="LNABLA"> F  </i>
   <i type="logical" name="LVEL"> F  </i>
   <i type="int" name="KINTER">     0</i>
   <i name="CSHIFT">      0.10000000</i>
   <i name="OMEGAMAX">     -1.00000000</i>
   <i name="DEG_THRESHOLD">      0.00200000</i>
   <i name="RTIME">     -0.10000000</i>
   <i name="WPLASMAI">      0.00000000</i>
   <v name="DFIELD">      0.00000000      0.00000000      0.00000000</v>
   <v name="WPLASMA">      0.00000000      0.00000000      0.00000000      0.00000000      0.00000000      0.00000000      0.00000000      0.00000000      0.00000000</v>
  </separator>
  <separator name="orbital magnetization" >
   <i type="logical" name="NUCIND"> F  </i>
   <v name="MAGPOS">      0.00000000      0.00000000      0.00000000</v>
   <i type="logical" name="LNICSALL"> T  </i>
   <i type="logical" name="ORBITALMAG"> F  </i>
   <i type="logical" name="LMAGBLOCH"> F  </i>
   <i type="logical" name="LCHIMAG"> F  </i>
   <i type="logical" name="LGAUGE"> T  </i>
   <i type="int" name="MAGATOM">     0</i>
   <v name="MAGDIPOL">      0.00000000      0.00000000      0.00000000</v>
   <v name="AVECCONST">      0.00000000      0.00000000      0.00000000</v>
  </separator>
  <separator name="response functions" >
   <i type="logical" name="LADDER"> F  </i>
   <i type="logical" name="LRPAFORCE"> F  </i>
   <i type="logical" name="LFXC"> F  </i>
   <i type="logical" name="LHARTREE"> T  </i>
   <i type="int" name="IBSE">     0</i>
   <v type="int" name="KPOINT">    -1     0     0     0</v>
   <i type="logical" name="LTCTE"> F  </i>
   <i type="logical" name="LTETE"> F  </i>
   <i type="logical" name="LTRIPLET"> F  </i>
   <i type="logical" name="LFXCEPS"> F  </i>
   <i type="logical" name="LFXHEG"> F  </i>
   <i type="int" name="NATURALO">     2</i>
   <i type="logical" name="L2ORDER"> F  </i>
   <i type="logical" name="LMP2LT"> F  </i>
   <i type="logical" name="LUSEW"> F  </i>
   <i name="ENCUTGW">     -2.00000000</i>
   <i name="ENCUTGWSOFT">     -2.00000000</i>
   <i name="ENCUTLF">     -1.00000000</i>
   <i type="int" name="LMAXMP2">    -1</i>
   <i name="SCISSOR">      0.00000000</i>
   <i type="int" name="NOMEGA">     0</i>
   <i type="int" name="NOMEGAR">     0</i>
   <i type="int" name="NBANDSGW">    -1</i>
   <i type="int" name="NBANDSO">    -1</i>
   <i type="int" name="NBANDSV">    -1</i>
   <i type="int" name="NELM">    60</i>
   <i type="int" name="NELMHF">     1</i>
   <i type="int" name="DIM">     3</i>
   <i type="int" name="ANTIRES">     0</i>
   <i name="OMEGAMAX">    -30.00000000</i>
   <i name="OMEGAMIN">    -30.00000000</i>
   <i name="OMEGATL">   -200.00000000</i>
   <i type="int" name="OMEGAGRID">   140</i>
   <i name="CSHIFT">     -0.10000000</i>
   <i type="logical" name="SELFENERGY"> F  </i>
   <i type="logical" name="LSPECTRAL"> F  </i>
   <i type="logical" name="LSPECTRALGW"> F  </i>
   <i type="logical" name="LSINGLES"> F  </i>
   <i type="logical" name="LFERMIGW"> F  </i>
   <i type="logical" name="ODDONLYGW"> F  </i>
   <i type="logical" name="EVENONLYGW"> F  </i>
   <i type="int" name="NKREDLFX">     1</i>
   <i type="int" name="NKREDLFY">     1</i>
   <i type="int" name="NKREDLFZ">     1</i>
   <i type="int" name="MAXMEM">  2800</i>
   <i type="int" name="TELESCOPE">     0</i>
   <i type="int" name="TAUPAR">     1</i>
   <i type="int" name="OMEGAPAR">    -1</i>
   <i name="LAMBDA">      1.00000000</i>
  </separator>
  <separator name="External order field" >
   <i name="OFIELD_KAPPA">      0.00000000</i>
   <v name="OFIELD_K">      0.00000000      0.00000000      0.00000000</v>
   <i name="OFIELD_Q6_NEAR">      0.00000000</i>
   <i name="OFIELD_Q6_FAR">      0.00000000</i>
   <i name="OFIELD_A">      0.00000000</i>
  </separator>
 </parameters>
 <atominfo>
  <atoms>      64 </atoms>
  <types>       7 </types>
  <array name="atoms" >
   <dimension dim="1">ion</dimension>
   <field type="string">element</field>
   <field type="int">atomtype</field>
   <set>
    <rc><c>V </c><c>   1</c></rc>
    <rc><c>V </c><c>   1</c></rc>
    <rc><c>V </c><c>   1</c></rc>
    <rc><c>V </c><c>   1</c></rc>
    <rc><c>V </c><c>   1</c></rc>
    <rc><c>V </c><c>   1</c></rc>
    <rc><c>V </c><c>   1</c></rc>
    <rc><c>Ta</c><c>   2</c></rc>
    <rc><c>Ta</c><c>   2</c></rc>
    <rc><c>Ta</c><c>   2</c></rc>
    <rc><c>Ta</c><c>   2</c></rc>
    <rc><c>Ta</c><c>   2</c></rc>
    <rc><c>Ta</c><c>   2</c></rc>
    <rc><c>Nb</c><c>   3</c></rc>
    <rc><c>Nb</c><c>   3</c></rc>
    <rc><c>Nb</c><c>   3</c></rc>
    <rc><c>Nb</c><c>   3</c></rc>
    <rc><c>Nb</c><c>   3</c></rc>
    <rc><c>Nb</c><c>   3</c></rc>
    <rc><c>Nb</c><c>   3</c></rc>
    <rc><c>N </c><c>   4</c></rc>
    <rc><c>N </c><c>   4</c></rc>
    <rc><c>N </c><c>   4</c></rc>
    <rc><c>N </c><c>   4</c></rc>
    <rc><c>N </c><c>   4</c></rc>
    <rc><c>N </c><c>   4</c></rc>
    <rc><c>N </c><c>   4</c></rc>
    <rc><c>N </c><c>   4</c></rc>
    <rc><c>N </c><c>   4</c></rc>
    <rc><c>N </c><c>   4</c></rc>
    <rc><c>N </c><c>   4</c></rc>
    <rc><c>N </c><c>   4</c></rc>
    <rc><c>N </c><c>   4</c></rc>
    <rc><c>C </c><c>   5</c></rc>
    <rc><c>C </c><c>   5</c></rc>
    <rc><c>C </c><c>   5</c></rc>
    <rc><c>C </c><c>   5</c></rc>
    <rc><c>C </c><c>   5</c></rc>
    <rc><c>C </c><c>   5</c></rc>
    <rc><c>C </c><c>   5</c></rc>
    <rc><c>C </c><c>   5</c></rc>
    <rc><c>C </c><c>   5</c></rc>
    <rc><c>C </c><c>   5</c></rc>
    <rc><c>C </c><c>   5</c></rc>
    <rc><c>C </c><c>   5</c></rc>
    <rc><c>C </c><c>   5</c></rc>
    <rc><c>C </c><c>   5</c></rc>
    <rc><c>C </c><c>   5</c></rc>
    <rc><c>C </c><c>   5</c></rc>
    <rc><c>C </c><c>   5</c></rc>
    <rc><c>C </c><c>   5</c></rc>
    <rc><c>C </c><c>   5</c></rc>
    <rc><c>W </c><c>   6</c></rc>
    <rc><c>W </c><c>   6</c></rc>
    <rc><c>W </c><c>   6</c></rc>
    <rc><c>W </c><c>   6</c></rc>
    <rc><c>W </c><c>   6</c></rc>
    <rc><c>W </c><c>   6</c></rc>
    <rc><c>Mo</c><c>   7</c></rc>
    <rc><c>Mo</c><c>   7</c></rc>
    <rc><c>Mo</c><c>   7</c></rc>
    <rc><c>Mo</c><c>   7</c></rc>
    <rc><c>Mo</c><c>   7</c></rc>
    <rc><c>Mo</c><c>   7</c></rc>
   </set>
  </array>
  <array name="atomtypes" >
   <dimension dim="1">type</dimension>
   <field type="int">atomspertype</field>
   <field type="string">element</field>
   <field>mass</field>
   <field>valence</field>
   <field type="string">pseudopotential</field>
   <set>
    <rc><c>   7</c><c>V </c><c>     50.94100000</c><c>     13.00000000</c><c> PAW_PBE V_sv 07Sep2000                 </c></rc>
    <rc><c>   6</c><c>Ta</c><c>    180.94800000</c><c>     11.00000000</c><c> PAW_PBE Ta_pv 07Sep2000                </c></rc>
    <rc><c>   7</c><c>Nb</c><c>     92.91000000</c><c>     13.00000000</c><c> PAW_PBE Nb_sv 17Jan2003                </c></rc>
    <rc><c>  13</c><c>N </c><c>     14.00100000</c><c>      5.00000000</c><c> PAW_PBE N 08Apr2002                    </c></rc>
    <rc><c>  19</c><c>C </c><c>     12.01100000</c><c>      4.00000000</c><c> PAW_PBE C 08Apr2002                    </c></rc>
    <rc><c>   6</c><c>W </c><c>    183.85000000</c><c>     12.00000000</c><c> PAW_PBE W_pv 06Sep2000                 </c></rc>
    <rc><c>   6</c><c>Mo</c><c>     95.94000000</c><c>      6.00000000</c><c> PAW_PBE Mo 08Apr2002                   </c></rc>
   </set>
  </array>
 </atominfo>
 <structure name="initialpos" >
  <crystal>
   <varray name="basis" >
    <v>       8.73007662      -0.00477740       0.01726634 </v>
    <v>       0.00084843       8.77091188      -0.01155564 </v>
    <v>       0.04868113      -0.02677314       8.75632268 </v>
   </varray>
   <i name="volume">    670.46800851 </i>
   <varray name="rec_basis" >
    <v>       0.11454778      -0.00001192      -0.00063687 </v>
    <v>       0.00006170       0.11401368       0.00034826 </v>
    <v>      -0.00022579       0.00015049       0.11420491 </v>
   </varray>
  </crystal>
  <varray name="positions" >
   <v>       0.03055237       0.98569117       0.99120872 </v>
   <v>       0.24279593       0.97717920       0.25815512 </v>
   <v>       0.26871340       0.51366450       0.25056927 </v>
   <v>       0.50134293       0.47871446       0.99252286 </v>
   <v>       0.49311237       0.25805498       0.75987462 </v>
   <v>       0.00478395       0.49867583       0.52602551 </v>
   <v>       0.50282428       0.72473899       0.73478177 </v>
   <v>       0.00543021       0.25360697       0.25517493 </v>
   <v>       0.74431118       0.74891210       0.00230975 </v>
   <v>       0.00771793       0.24469369       0.74692423 </v>
   <v>       0.75482156       0.26284552       0.50288562 </v>
   <v>       0.99940488       0.75607080       0.74977136 </v>
   <v>       0.25462545       0.49848599       0.75111956 </v>
   <v>       0.25125674       0.25096551       0.99502129 </v>
   <v>       0.49685804       0.24856404       0.24785792 </v>
   <v>       0.74830701       0.99414939       0.26208497 </v>
   <v>       0.74413062       0.24482289       0.99305405 </v>
   <v>       0.25052836       0.74805533       0.00311946 </v>
   <v>       0.24738721       0.24925882       0.50142081 </v>
   <v>       0.24841844       0.74775210       0.50129341 </v>
   <v>       0.24870644       0.25309470       0.24803751 </v>
   <v>       0.26362883       0.00072188       0.00944497 </v>
   <v>       0.99693952       0.24462135       0.00008202 </v>
   <v>       0.75321740       0.24830739       0.25146622 </v>
   <v>       0.75921341       0.99551653       0.01203584 </v>
   <v>       0.48607684       0.99490322       0.22597752 </v>
   <v>       0.00468836       0.49115828       0.23859963 </v>
   <v>       0.50290993       0.76188087       0.00049258 </v>
   <v>       0.97850660       0.00208076       0.75471202 </v>
   <v>       0.74871839       0.24739909       0.74593629 </v>
   <v>       0.74449808       0.00636204       0.51338070 </v>
   <v>       0.50654698       0.24644227       0.50758833 </v>
   <v>       0.48843044       0.00584856       0.73701207 </v>
   <v>       0.00408706       0.00489974       0.23876761 </v>
   <v>       0.49740245       0.25699012       0.99594585 </v>
   <v>       0.25069750       0.74694161       0.25177158 </v>
   <v>       0.25503018       0.50001484       0.00604162 </v>
   <v>       0.99829370       0.75321422       0.00260657 </v>
   <v>       0.74934127       0.74357534       0.25050826 </v>
   <v>       0.74889827       0.49757810       0.00475872 </v>
   <v>       0.48921693       0.50695289       0.24388969 </v>
   <v>       0.25829847       0.24952272       0.74847353 </v>
   <v>       0.25515815       0.99857136       0.50125770 </v>
   <v>       0.00017668       0.25482286       0.50010241 </v>
   <v>       0.25827184       0.75242695       0.75280362 </v>
   <v>       0.24672642       0.49903340       0.49332421 </v>
   <v>       0.99903659       0.74486525       0.49956294 </v>
   <v>       0.99890514       0.50075720       0.74799327 </v>
   <v>       0.74181608       0.75629689       0.74603553 </v>
   <v>       0.76114604       0.49767300       0.49956710 </v>
   <v>       0.50558510       0.75797519       0.51118682 </v>
   <v>       0.50082403       0.49457832       0.75391990 </v>
   <v>       0.51315094       0.01890237       0.97946643 </v>
   <v>       0.00165110       0.51231184       0.98456445 </v>
   <v>       0.49967303       0.75601017       0.26833690 </v>
   <v>       0.23192529       0.00346135       0.75727886 </v>
   <v>       0.49470674       0.99896676       0.47453560 </v>
   <v>       0.72606099       0.99185951       0.76955567 </v>
   <v>       0.99980731       0.76873153       0.25524969 </v>
   <v>       0.72034175       0.50155020       0.25194639 </v>
   <v>       0.01431628       0.00084054       0.48510840 </v>
   <v>       0.50050300       0.50860678       0.50200323 </v>
   <v>       0.74206868       0.51427248       0.75838274 </v>
   <v>       0.75747926       0.72455702       0.49511391 </v>
  </varray>
 </structure>
 <calculation>
  <scstep>
   <time name="dav">   18.75   19.18</time>
   <time name="total">   18.78   19.22</time>
   <energy>
    <i name="alphaZ">   4217.75262223 </i>
    <i name="ewald"> -40168.73798307 </i>
    <i name="hartreedc">  -8449.36088187 </i>
    <i name="XCdc">   1423.79163786 </i>
    <i name="pawpsdc">  28830.86126800 </i>
    <i name="pawaedc"> -28241.66354375 </i>
    <i name="eentropy">     -0.08492948 </i>
    <i name="bandstr">   2187.52482154 </i>
    <i name="atom">  45919.39669893 </i>
    <i name="e_fr_energy">   5719.47971038 </i>
    <i name="e_wo_entrp">   5719.56463987 </i>
    <i name="e_0_energy">   5719.52217513 </i>
   </energy>
  </scstep>
  <scstep>
   <time name="dav">   20.11   20.66</time>
   <time name="total">   20.11   20.66</time>
   <energy>
    <i name="e_fr_energy">      3.78564326 </i>
    <i name="e_wo_entrp">      3.92874601 </i>
    <i name="e_0_energy">      3.85719463 </i>
   </energy>
  </scstep>
  <scstep>
   <time name="dav">   29.58   29.60</time>
   <time name="total">   29.58   29.61</time>
   <energy>
    <i name="e_fr_energy">   -727.58416813 </i>
    <i name="e_wo_entrp">   -727.48736564 </i>
    <i name="e_0_energy">   -727.53576688 </i>
   </energy>
  </scstep>
  <scstep>
   <time name="dav">   30.96   30.97</time>
   <time name="total">   30.96   30.97</time>
   <energy>
    <i name="e_fr_energy">   -784.40721879 </i>
    <i name="e_wo_entrp">   -784.30191034 </i>
    <i name="e_0_energy">   -784.35456456 </i>
   </energy>
  </scstep>
  <scstep>
   <time name="dav">   32.94   32.99</time>
   <time name="total">   33.20   33.25</time>
   <energy>
    <i name="e_fr_energy">   -789.45536785 </i>
    <i name="e_wo_entrp">   -789.34861089 </i>
    <i name="e_0_energy">   -789.40198937 </i>
   </energy>
  </scstep>
  <scstep>
   <time name="diag">    1.82    1.82</time>
   <time name="diis">   18.31   18.33</time>
   <time name="orth">    0.44    0.44</time>
   <time name="total">   20.86   20.88</time>
   <energy>
    <i name="e_fr_energy">   -738.91256230 </i>
    <i name="e_wo_entrp">   -738.74116066 </i>
    <i name="e_0_energy">   -738.82686148 </i>
   </energy>
  </scstep>
  <scstep>
   <time name="diag">    1.84    1.86</time>
   <time name="diis">   16.14   16.17</time>
   <time name="orth">    0.43    0.43</time>
   <time name="total">   18.69   18.74</time>
   <energy>
    <i name="e_fr_energy">   -688.54901961 </i>
    <i name="e_wo_entrp">   -688.43156095 </i>
    <i name="e_0_energy">   -688.49029028 </i>
   </energy>
  </scstep>
  <scstep>
   <time name="diag">    1.78    1.82</time>
   <time name="diis">   19.15   19.75</time>
   <time name="orth">    0.41    0.41</time>
   <time name="total">   21.62   22.27</time>
   <energy>
    <i name="e_fr_energy">   -662.59546715 </i>
    <i name="e_wo_entrp">   -662.44748449 </i>
    <i name="e_0_energy">   -662.52147582 </i>
   </energy>
  </scstep>
  <scstep>
   <time name="diag">    1.82    1.82</time>
   <time name="diis">   17.56   17.63</time>
   <time name="orth">    0.42    0.42</time>
   <time name="total">   20.09   20.17</time>
   <energy>
    <i name="e_fr_energy">   -659.90456346 </i>
    <i name="e_wo_entrp">   -659.74871210 </i>
    <i name="e_0_energy">   -659.82663778 </i>
   </energy>
  </scstep>
  <scstep>
   <time name="diag">    1.83    1.84</time>
   <time name="diis">   19.76   19.79</time>
   <time name="orth">    0.41    0.41</time>
   <time name="total">   22.29   22.34</time>
   <energy>
    <i name="e_fr_energy">   -659.94965425 </i>
    <i name="e_wo_entrp">   -659.80086136 </i>
    <i name="e_0_energy">   -659.87525780 </i>
   </energy>
  </scstep>
  <scstep>
   <time name="diag">    1.78    1.81</time>
   <time name="diis">   19.16   19.75</time>
   <time name="orth">    0.41    0.41</time>
   <time name="total">   21.62   22.27</time>
   <energy>
    <i name="e_fr_energy">   -659.50559150 </i>
    <i name="e_wo_entrp">   -659.34609614 </i>
    <i name="e_0_energy">   -659.42584382 </i>
   </energy>
  </scstep>
  <scstep>
   <time name="diag">    1.78    1.82</time>
   <time name="diis">   19.60   20.22</time>
   <time name="orth">    0.42    0.42</time>
   <time name="total">   22.08   22.75</time>
   <energy>
    <i name="e_fr_energy">   -659.42035559 </i>
    <i name="e_wo_entrp">   -659.26209669 </i>
    <i name="e_0_energy">   -659.34122614 </i>
   </energy>
  </scstep>
  <scstep>
   <time name="diag">    1.77    1.81</time>
   <time name="diis">   18.97   19.57</time>
   <time name="orth">    0.41    0.41</time>
   <time name="total">   21.43   22.08</time>
   <energy>
    <i name="e_fr_energy">   -659.18695648 </i>
    <i name="e_wo_entrp">   -659.02995130 </i>
    <i name="e_0_energy">   -659.10845389 </i>
   </energy>
  </scstep>
  <scstep>
   <time name="diag">    1.80    1.84</time>
   <time name="diis">   20.30   20.93</time>
   <time name="orth">    0.41    0.42</time>
   <time name="total">   22.79   23.47</time>
   <energy>
    <i name="e_fr_energy">   -659.19076383 </i>
    <i name="e_wo_entrp">   -659.03529626 </i>
    <i name="e_0_energy">   -659.11303005 </i>
   </energy>
  </scstep>
  <scstep>
   <time name="diag">    1.82    1.82</time>
   <time name="diis">   20.82   20.84</time>
   <time name="orth">    0.41    0.41</time>
   <time name="total">   23.34   23.36</time>
   <energy>
    <i name="e_fr_energy">   -659.17527876 </i>
    <i name="e_wo_entrp">   -659.01804727 </i>
    <i name="e_0_energy">   -659.09666302 </i>
   </energy>
  </scstep>
  <scstep>
   <time name="diag">    1.82    1.84</time>
   <time name="diis">   19.24   19.82</time>
   <time name="orth">    0.41    0.41</time>
   <time name="total">   21.76   22.36</time>
   <energy>
    <i name="e_fr_energy">   -659.17929824 </i>
    <i name="e_wo_entrp">   -659.02226445 </i>
    <i name="e_0_energy">   -659.10078135 </i>
   </energy>
  </scstep>
  <scstep>
   <time name="diag">    1.77    1.81</time>
   <time name="diis">   19.06   19.19</time>
   <time name="orth">    0.41    0.41</time>
   <time name="total">   21.54   21.71</time>
   <energy>
    <i name="e_fr_energy">   -659.18400841 </i>
    <i name="e_wo_entrp">   -659.02737161 </i>
    <i name="e_0_energy">   -659.10569001 </i>
   </energy>
  </scstep>
  <scstep>
   <time name="diag">    1.82    1.82</time>
   <time name="diis">   19.75   19.76</time>
   <time name="orth">    0.41    0.41</time>
   <time name="total">   22.26   22.28</time>
   <energy>
    <i name="e_fr_energy">   -659.18170418 </i>
    <i name="e_wo_entrp">   -659.02511253 </i>
    <i name="e_0_energy">   -659.10340836 </i>
   </energy>
  </scstep>
  <scstep>
   <time name="diag">    1.77    1.81</time>
   <time name="diis">   20.52   21.16</time>
   <time name="orth">    0.41    0.41</time>
   <time name="total">   22.97   23.67</time>
   <energy>
    <i name="e_fr_energy">   -659.18192839 </i>
    <i name="e_wo_entrp">   -659.02520566 </i>
    <i name="e_0_energy">   -659.10356703 </i>
   </energy>
  </scstep>
  <scstep>
   <time name="diag">    1.83    1.83</time>
   <time name="diis">   20.37   20.42</time>
   <time name="orth">    0.41    0.41</time>
   <time name="total">   22.90   22.96</time>
   <energy>
    <i name="e_fr_energy">   -659.18241221 </i>
    <i name="e_wo_entrp">   -659.02559658 </i>
    <i name="e_0_energy">   -659.10400440 </i>
   </energy>
  </scstep>
  <scstep>
   <time name="diag">    1.77    1.81</time>
   <time name="diis">   19.73   20.36</time>
   <time name="orth">    0.41    0.42</time>
   <time name="total">   22.19   22.88</time>
   <energy>
    <i name="e_fr_energy">   -659.18256647 </i>
    <i name="e_wo_entrp">   -659.02575846 </i>
    <i name="e_0_energy">   -659.10416246 </i>
   </energy>
  </scstep>
  <scstep>
   <time name="diag">    1.80    1.81</time>
   <time name="diis">   18.96   18.98</time>
   <time name="orth">    0.41    0.41</time>
   <time name="total">   21.46   21.49</time>
   <energy>
    <i name="e_fr_energy">   -659.18277510 </i>
    <i name="e_wo_entrp">   -659.02594745 </i>
    <i name="e_0_energy">   -659.10436128 </i>
   </energy>
  </scstep>
  <scstep>
   <time name="diag">    1.81    1.81</time>
   <time name="diis">   17.59   17.62</time>
   <time name="orth">    0.44    0.44</time>
   <time name="total">   20.13   20.16</time>
   <energy>
    <i name="e_fr_energy">   -659.18287285 </i>
    <i name="e_wo_entrp">   -659.02602941 </i>
    <i name="e_0_energy">   -659.10445113 </i>
   </energy>
  </scstep>
  <scstep>
   <time name="diag">    1.77    1.81</time>
   <time name="diis">   15.22   15.63</time>
   <time name="orth">    0.41    0.41</time>
   <time name="total">   17.69   18.14</time>
   <energy>
    <i name="e_fr_energy">   -659.18294100 </i>
    <i name="e_wo_entrp">   -659.02610403 </i>
    <i name="e_0_energy">   -659.10452251 </i>
   </energy>
  </scstep>
  <scstep>
   <time name="diag">    1.80    1.80</time>
   <time name="diis">   14.62   14.63</time>
   <time name="orth">    0.41    0.41</time>
   <time name="total">   17.13   17.14</time>
   <energy>
    <i name="e_fr_energy">   -659.18298868 </i>
    <i name="e_wo_entrp">   -659.02615822 </i>
    <i name="e_0_energy">   -659.10457345 </i>
   </energy>
  </scstep>
  <scstep>
   <time name="diag">    1.80    1.80</time>
   <time name="diis">   13.77   13.79</time>
   <time name="orth">    0.42    0.42</time>
   <time name="total">   16.28   16.31</time>
   <energy>
    <i name="e_fr_energy">   -659.18302133 </i>
    <i name="e_wo_entrp">   -659.02618932 </i>
    <i name="e_0_energy">   -659.10460533 </i>
   </energy>
  </scstep>
  <scstep>
   <time name="diag">    1.82    1.82</time>
   <time name="diis">   12.71   12.80</time>
   <time name="orth">    0.41    0.41</time>
   <time name="total">   15.24   15.32</time>
   <energy>
    <i name="e_fr_energy">   -659.18304138 </i>
    <i name="e_wo_entrp">   -659.02621187 </i>
    <i name="e_0_energy">   -659.10462663 </i>
   </energy>
  </scstep>
  <scstep>
   <time name="diag">    1.77    1.81</time>
   <time name="diis">   11.79   12.16</time>
   <time name="orth">    0.41    0.41</time>
   <time name="total">   14.25   14.67</time>
   <energy>
    <i name="e_fr_energy">   -659.18305441 </i>
    <i name="e_wo_entrp">   -659.02622560 </i>
    <i name="e_0_energy">   -659.10464000 </i>
   </energy>
  </scstep>
  <scstep>
   <time name="diag">    1.81    1.81</time>
   <time name="diis">   11.34   11.40</time>
   <time name="orth">    0.41    0.41</time>
   <time name="total">   13.59   13.66</time>
   <energy>
    <i name="alphaZ">   4217.75262223 </i>
    <i name="ewald"> -40168.73798307 </i>
    <i name="hartreedc">  -7986.64848362 </i>
    <i name="XCdc">   1417.51942476 </i>
    <i name="pawpsdc">  30270.78505008 </i>
    <i name="pawaedc"> -29748.85087444 </i>
    <i name="eentropy">     -0.15682904 </i>
    <i name="bandstr">  -4580.24268822 </i>
    <i name="atom">  45919.39669893 </i>
    <i name="e_fr_energy">   -659.18306237 </i>
    <i name="e_wo_entrp">   -659.02623334 </i>
    <i name="e_0_energy">   -659.10464785 </i>
   </energy>
  </scstep>
  <structure>
   <crystal>
    <varray name="basis" >
     <v>       8.73007662      -0.00477740       0.01726634 </v>
     <v>       0.00084843       8.77091188      -0.01155564 </v>
     <v>       0.04868113      -0.02677314       8.75632268 </v>
    </varray>
    <i name="volume">    670.46800851 </i>
    <varray name="rec_basis" >
     <v>       0.11454778      -0.00001192      -0.00063687 </v>
     <v>       0.00006170       0.11401368       0.00034826 </v>
     <v>      -0.00022579       0.00015049       0.11420491 </v>
    </varray>
   </crystal>
   <varray name="positions" >
    <v>       0.03055237       0.98569117       0.99120872 </v>
    <v>       0.24279593       0.97717920       0.25815512 </v>
    <v>       0.26871340       0.51366450       0.25056927 </v>
    <v>       0.50134293       0.47871446       0.99252286 </v>
    <v>       0.49311237       0.25805498       0.75987462 </v>
    <v>       0.00478395       0.49867583       0.52602551 </v>
    <v>       0.50282428       0.72473899       0.73478177 </v>
    <v>       0.00543021       0.25360697       0.25517493 </v>
    <v>       0.74431118       0.74891210       0.00230975 </v>
    <v>       0.00771793       0.24469369       0.74692423 </v>
    <v>       0.75482156       0.26284552       0.50288562 </v>
    <v>       0.99940488       0.75607080       0.74977136 </v>
    <v>       0.25462545       0.49848599       0.75111956 </v>
    <v>       0.25125674       0.25096551       0.99502129 </v>
    <v>       0.49685804       0.24856404       0.24785792 </v>
    <v>       0.74830701       0.99414939       0.26208497 </v>
    <v>       0.74413062       0.24482289       0.99305405 </v>
    <v>       0.25052836       0.74805533       0.00311946 </v>
    <v>       0.24738721       0.24925882       0.50142081 </v>
    <v>       0.24841844       0.74775210       0.50129341 </v>
    <v>       0.24870644       0.25309470       0.24803751 </v>
    <v>       0.26362883       0.00072188       0.00944497 </v>
    <v>       0.99693952       0.24462135       0.00008202 </v>
    <v>       0.75321740       0.24830739       0.25146622 </v>
    <v>       0.75921341       0.99551653       0.01203584 </v>
    <v>       0.48607684       0.99490322       0.22597752 </v>
    <v>       0.00468836       0.49115828       0.23859963 </v>
    <v>       0.50290993       0.76188087       0.00049258 </v>
    <v>       0.97850660       0.00208076       0.75471202 </v>
    <v>       0.74871839       0.24739909       0.74593629 </v>
    <v>       0.74449808       0.00636204       0.51338070 </v>
    <v>       0.50654698       0.24644227       0.50758833 </v>
    <v>       0.48843044       0.00584856       0.73701207 </v>
    <v>       0.00408706       0.00489974       0.23876761 </v>
    <v>       0.49740245       0.25699012       0.99594585 </v>
    <v>       0.25069750       0.74694161       0.25177158 </v>
    <v>       0.25503018       0.50001484       0.00604162 </v>
    <v>       0.99829370       0.75321422       0.00260657 </v>
    <v>       0.74934127       0.74357534       0.25050826 </v>
    <v>       0.74889827       0.49757810       0.00475872 </v>
    <v>       0.48921693       0.50695289       0.24388969 </v>
    <v>       0.25829847       0.24952272       0.74847353 </v>
    <v>       0.25515815       0.99857136       0.50125770 </v>
    <v>       0.00017668       0.25482286       0.50010241 </v>
    <v>       0.25827184       0.75242695       0.75280362 </v>
    <v>       0.24672642       0.49903340       0.49332421 </v>
    <v>       0.99903659       0.74486525       0.49956294 </v>
    <v>       0.99890514       0.50075720       0.74799327 </v>
    <v>       0.74181608       0.75629689       0.74603553 </v>
    <v>       0.76114604       0.49767300       0.49956710 </v>
    <v>       0.50558510       0.75797519       0.51118682 </v>
    <v>       0.50082403       0.49457832       0.75391990 </v>
    <v>       0.51315094       0.01890237       0.97946643 </v>
    <v>       0.00165110       0.51231184       0.98456445 </v>
    <v>       0.49967303       0.75601017       0.26833690 </v>
    <v>       0.23192529       0.00346135       0.75727886 </v>
    <v>       0.49470674       0.99896676       0.47453560 </v>
    <v>       0.72606099       0.99185951       0.76955567 </v>
    <v>       0.99980731       0.76873153       0.25524969 </v>
    <v>       0.72034175       0.50155020       0.25194639 </v>
    <v>       0.01431628       0.00084054       0.48510840 </v>
    <v>       0.50050300       0.50860678       0.50200323 </v>
    <v>       0.74206868       0.51427248       0.75838274 </v>
    <v>       0.75747926       0.72455702       0.49511391 </v>
   </varray>
  </structure>
  <varray name="forces" >
   <v>      -0.04664156      -0.01532418      -0.02945694 </v>
   <v>       0.03342292       0.00171459       0.00208127 </v>
   <v>      -0.03056327      -0.02140769       0.01383712 </v>
   <v>      -0.02385202       0.02160343       0.06462391 </v>
   <v>      -0.00456064      -0.02681446       0.05390072 </v>
   <v>      -0.01390592      -0.02329935      -0.00886794 </v>
   <v>       0.04625245       0.08698585      -0.04388802 </v>
   <v>      -0.01324089      -0.00037531       0.00012292 </v>
   <v>      -0.00995735       0.01094961      -0.00592547 </v>
   <v>       0.01321174      -0.00437594       0.00354108 </v>
   <v>       0.00648603      -0.03486188      -0.02664131 </v>
   <v>       0.00033367      -0.01645186      -0.01402989 </v>
   <v>       0.01551062       0.01597520       0.01581423 </v>
   <v>      -0.01783845      -0.00783908      -0.01121261 </v>
   <v>      -0.00765343      -0.01626611       0.02838823 </v>
   <v>      -0.00090102      -0.00404345       0.03361795 </v>
   <v>       0.03585010      -0.00533074      -0.01539620 </v>
   <v>       0.00546744      -0.00721218       0.02473438 </v>
   <v>       0.00513535      -0.01917103       0.01480029 </v>
   <v>      -0.01747025       0.00589747      -0.01804168 </v>
   <v>      -0.02152973       0.02937206      -0.00427165 </v>
   <v>      -0.04133035       0.00353424       0.04385997 </v>
   <v>       0.02645342      -0.00587923      -0.00808587 </v>
   <v>       0.01112236      -0.00011297      -0.01432878 </v>
   <v>       0.02835087      -0.02003482      -0.00968053 </v>
   <v>      -0.03553380      -0.07824512       0.02322800 </v>
   <v>      -0.05129680      -0.00981466       0.01336076 </v>
   <v>      -0.01687758       0.03138751       0.00043717 </v>
   <v>      -0.03811041       0.00818907      -0.04951618 </v>
   <v>       0.03031436      -0.01948754      -0.00905820 </v>
   <v>      -0.01159382       0.03307143       0.02233356 </v>
   <v>       0.00889162       0.08920360       0.00388223 </v>
   <v>       0.00326240       0.00821865      -0.05157494 </v>
   <v>      -0.02932921       0.04518722      -0.05840016 </v>
   <v>       0.00979094      -0.03811131       0.05135924 </v>
   <v>      -0.00410687      -0.02625013       0.00844740 </v>
   <v>      -0.00373674      -0.01030589       0.01610122 </v>
   <v>      -0.00327649      -0.00791559      -0.03030701 </v>
   <v>       0.01981002       0.02214478       0.02114816 </v>
   <v>       0.00345739      -0.02453858      -0.00797351 </v>
   <v>       0.06635846      -0.05434488       0.02364453 </v>
   <v>       0.00811781       0.00747267      -0.02101478 </v>
   <v>      -0.03154336       0.00677974       0.00228233 </v>
   <v>       0.00703405      -0.00554885      -0.01359862 </v>
   <v>       0.01883580      -0.00346611      -0.01261574 </v>
   <v>       0.03546375       0.00221710       0.00369228 </v>
   <v>      -0.02092686       0.00409178      -0.01320501 </v>
   <v>       0.00854005      -0.01863351       0.02078906 </v>
   <v>       0.00705128      -0.01692611       0.02636573 </v>
   <v>       0.03851989      -0.00452821      -0.00413824 </v>
   <v>      -0.01104410       0.05649644      -0.06785292 </v>
   <v>       0.04257336       0.06492674       0.01077611 </v>
   <v>      -0.04997941      -0.04693385      -0.01386765 </v>
   <v>       0.02668232      -0.02432801       0.02230909 </v>
   <v>      -0.00226768      -0.03227523      -0.05018249 </v>
   <v>      -0.00344440      -0.03020970       0.04075591 </v>
   <v>      -0.03486928       0.13392989      -0.03180975 </v>
   <v>       0.04088934      -0.03895855       0.03239540 </v>
   <v>       0.00884136      -0.00477884       0.00872341 </v>
   <v>       0.03895600       0.04254704      -0.02845922 </v>
   <v>      -0.03076587       0.00528399      -0.00043586 </v>
   <v>      -0.00995152      -0.03313477       0.00019244 </v>
   <v>       0.00281829      -0.00537358       0.00084544 </v>
   <v>      -0.01570637       0.02572922       0.02144563 </v>
  </varray>
  <varray name="stress" >
   <v>      -6.68635323       0.05819862       0.04734290 </v>
   <v>       0.05820071      -8.36989492      -0.07600364 </v>
   <v>       0.04734239      -0.07600534      -6.47307713 </v>
  </varray>
  <energy>
   <i name="e_fr_energy">   -659.18306237 </i>
   <i name="e_wo_entrp">   -659.10464785 </i>
   <i name="e_0_energy">     -0.15682904 </i>
  </energy>
  <time name="totalsc">  657.93  666.00</time>
 </calculation>
 <calculation>
  <scstep>
   <time name="dav">   24.42   25.09</time>
   <time name="total">   24.70   25.38</time>
   <energy>
    <i name="alphaZ">   4246.52703364 </i>
    <i name="ewald"> -40261.65989055 </i>
    <i name="hartreedc">  -8003.22823814 </i>
    <i name="XCdc">   1421.71214682 </i>
    <i name="pawpsdc">  30270.77338362 </i>
    <i name="pawaedc"> -29748.83761538 </i>
    <i name="eentropy">     -0.15331822 </i>
    <i name="bandstr">  -4503.86943692 </i>
    <i name="atom">  45919.39669893 </i>
    <i name="e_fr_energy">   -659.33923619 </i>
    <i name="e_wo_entrp">   -659.18591797 </i>
    <i name="e_0_energy">   -659.26257708 </i>
   </energy>
  </scstep>
  <scstep>
   <time name="diag">    1.82    1.82</time>
   <time name="diis">   15.57   15.63</time>
   <time name="orth">    0.44    0.46</time>
   <time name="total">   18.12   18.20</time>
   <energy>
    <i name="e_fr_energy">   -660.13510784 </i>
    <i name="e_wo_entrp">   -659.97484651 </i>
    <i name="e_0_energy">   -660.05497718 </i>
   </energy>
  </scstep>
  <scstep>
   <time name="diag">    1.84    1.88</time>
   <time name="diis">   14.67   15.16</time>
   <time name="orth">    0.41    0.41</time>
   <time name="total">   17.20   17.75</time>
   <energy>
    <i name="e_fr_energy">   -659.21192888 </i>
    <i name="e_wo_entrp">   -659.05720526 </i>
    <i name="e_0_energy">   -659.13456707 </i>
   </energy>
  </scstep>
  <scstep>
   <time name="diag">    1.77    1.81</time>
   <time name="diis">   16.43   16.96</time>
   <time name="orth">    0.41    0.41</time>
   <time name="total">   18.89   19.48</time>
   <energy>
    <i name="e_fr_energy">   -659.22473550 </i>
    <i name="e_wo_entrp">   -659.06881927 </i>
    <i name="e_0_energy">   -659.14677738 </i>
   </energy>
  </scstep>
  <scstep>
   <time name="diag">    1.82    1.82</time>
   <time name="diis">   15.98   16.00</time>
   <time name="orth">    0.41    0.41</time>
   <time name="total">   18.49   18.52</time>
   <energy>
    <i name="e_fr_energy">   -659.18353992 </i>
    <i name="e_wo_entrp">   -659.02833077 </i>
    <i name="e_0_energy">   -659.10593535 </i>
   </energy>
  </scstep>
  <scstep>
   <time name="diag">    1.77    1.81</time>
   <time name="diis">   15.99   16.50</time>
   <time name="orth">    0.43    0.44</time>
   <time name="total">   18.47   19.04</time>
   <energy>
    <i name="e_fr_energy">   -659.18368204 </i>
    <i name="e_wo_entrp">   -659.02834111 </i>
    <i name="e_0_energy">   -659.10601157 </i>
   </energy>
  </scstep>
  <scstep>
   <time name="diag">    1.77    1.81</time>
   <time name="diis">   16.78   16.93</time>
   <time name="orth">    0.41    0.41</time>
   <time name="total">   19.25   19.44</time>
   <energy>
    <i name="e_fr_energy">   -659.17803100 </i>
    <i name="e_wo_entrp">   -659.02263333 </i>
    <i name="e_0_energy">   -659.10033216 </i>
   </energy>
  </scstep>
  <scstep>
   <time name="diag">    1.81    1.81</time>
   <time name="diis">   20.92   20.96</time>
   <time name="orth">    0.41    0.41</time>
   <time name="total">   23.43   23.46</time>
   <energy>
    <i name="e_fr_energy">   -659.17774763 </i>
    <i name="e_wo_entrp">   -659.02199714 </i>
    <i name="e_0_energy">   -659.09987238 </i>
   </energy>
  </scstep>
  <scstep>
   <time name="diag">    1.79    1.83</time>
   <time name="diis">   19.56   20.12</time>
   <time name="orth">    0.41    0.41</time>
   <time name="total">   22.05   22.65</time>
   <energy>
    <i name="e_fr_energy">   -659.17737868 </i>
    <i name="e_wo_entrp">   -659.02193066 </i>
    <i name="e_0_energy">   -659.09965467 </i>
   </energy>
  </scstep>
  <scstep>
   <time name="diag">    1.81    1.81</time>
   <time name="diis">   19.62   19.91</time>
   <time name="orth">    0.41    0.41</time>
   <time name="total">   22.11   22.42</time>
   <energy>
    <i name="e_fr_energy">   -659.17740540 </i>
    <i name="e_wo_entrp">   -659.02189721 </i>
    <i name="e_0_energy">   -659.09965131 </i>
   </energy>
  </scstep>
  <scstep>
   <time name="diag">    1.80    1.84</time>
   <time name="diis">   18.33   18.90</time>
   <time name="orth">    0.41    0.41</time>
   <time name="total">   20.82   21.45</time>
   <energy>
    <i name="e_fr_energy">   -659.17747595 </i>
    <i name="e_wo_entrp">   -659.02193794 </i>
    <i name="e_0_energy">   -659.09970695 </i>
   </energy>
  </scstep>
  <scstep>
   <time name="diag">    1.82    1.82</time>
   <time name="diis">   17.69   17.70</time>
   <time name="orth">    0.41    0.41</time>
   <time name="total">   20.21   20.22</time>
   <energy>
    <i name="e_fr_energy">   -659.17751965 </i>
    <i name="e_wo_entrp">   -659.02200856 </i>
    <i name="e_0_energy">   -659.09976411 </i>
   </energy>
  </scstep>
  <scstep>
   <time name="diag">    1.77    1.80</time>
   <time name="diis">   16.41   16.93</time>
   <time name="orth">    0.41    0.41</time>
   <time name="total">   18.86   19.43</time>
   <energy>
    <i name="e_fr_energy">   -659.17757645 </i>
    <i name="e_wo_entrp">   -659.02207705 </i>
    <i name="e_0_energy">   -659.09982675 </i>
   </energy>
  </scstep>
  <scstep>
   <time name="diag">    1.81    1.83</time>
   <time name="diis">   16.11   16.17</time>
   <time name="orth">    0.41    0.41</time>
   <time name="total">   18.60   18.69</time>
   <energy>
    <i name="e_fr_energy">   -659.17760256 </i>
    <i name="e_wo_entrp">   -659.02207084 </i>
    <i name="e_0_energy">   -659.09983670 </i>
   </energy>
  </scstep>
  <scstep>
   <time name="diag">    1.79    1.83</time>
   <time name="diis">   14.49   14.94</time>
   <time name="orth">    1.01    1.09</time>
   <time name="total">   17.32   17.90</time>
   <energy>
    <i name="alphaZ">   4246.52703364 </i>
    <i name="ewald"> -40261.65989055 </i>
    <i name="hartreedc">  -7958.10994015 </i>
    <i name="XCdc">   1419.35360513 </i>
    <i name="pawpsdc">  30340.69202239 </i>
    <i name="pawaedc"> -29819.25214518 </i>
    <i name="eentropy">     -0.15551678 </i>
    <i name="bandstr">  -4545.96947477 </i>
    <i name="atom">  45919.39669893 </i>
    <i name="e_fr_energy">   -659.17760734 </i>
    <i name="e_wo_entrp">   -659.02209056 </i>
    <i name="e_0_energy">   -659.09984895 </i>
   </energy>
  </scstep>
  <structure>
   <crystal>
    <varray name="basis" >
     <v>       8.71166373      -0.00460493       0.01736157 </v>
     <v>       0.00100749       8.74775511      -0.01174231 </v>
     <v>       0.04870873      -0.02691150       8.73844472 </v>
    </varray>
    <i name="volume">    665.92492609 </i>
    <varray name="rec_basis" >
     <v>       0.11478990      -0.00001408      -0.00063989 </v>
     <v>       0.00005973       0.11431551       0.00035172 </v>
     <v>      -0.00022798       0.00015364       0.11443858 </v>
    </varray>
   </crystal>
   <varray name="positions" >
    <v>       0.03029554       0.98560625       0.99104682 </v>
    <v>       0.24298057       0.97718876       0.25816624 </v>
    <v>       0.26854409       0.51354689       0.25064568 </v>
    <v>       0.50120912       0.47883430       0.99287932 </v>
    <v>       0.49308552       0.25790838       0.76017144 </v>
    <v>       0.00470739       0.49854749       0.52597664 </v>
    <v>       0.50308117       0.72521684       0.73454010 </v>
    <v>       0.00535704       0.25360486       0.25517575 </v>
    <v>       0.74425633       0.74897220       0.00227729 </v>
    <v>       0.00779084       0.24466972       0.74694357 </v>
    <v>       0.75485825       0.26265334       0.50273852 </v>
    <v>       0.99940716       0.75598007       0.74969394 </v>
    <v>       0.25471067       0.49857417       0.75120663 </v>
    <v>       0.25115851       0.25092215       0.99495965 </v>
    <v>       0.49681488       0.24847503       0.24801429 </v>
    <v>       0.74830100       0.99412771       0.26227017 </v>
    <v>       0.74432920       0.24479342       0.99296879 </v>
    <v>       0.25055782       0.74801609       0.00325562 </v>
    <v>       0.24741514       0.24915364       0.50150215 </v>
    <v>       0.24832245       0.74778419       0.50119424 </v>
    <v>       0.24858757       0.25325612       0.24801442 </v>
    <v>       0.26339908       0.00074194       0.00968709 </v>
    <v>       0.99708595       0.24458895       0.00003714 </v>
    <v>       0.75327930       0.24830656       0.25138716 </v>
    <v>       0.75937039       0.99540625       0.01198205 </v>
    <v>       0.48587981       0.99447313       0.22610532 </v>
    <v>       0.00440448       0.49110437       0.23867373 </v>
    <v>       0.50281663       0.76205347       0.00049540 </v>
    <v>       0.97829752       0.00212486       0.75443968 </v>
    <v>       0.74888620       0.24729184       0.74588591 </v>
    <v>       0.74443331       0.00654429       0.51350411 </v>
    <v>       0.50659595       0.24693301       0.50761027 </v>
    <v>       0.48845005       0.00589291       0.73672794 </v>
    <v>       0.00392675       0.00514721       0.23844650 </v>
    <v>       0.49745500       0.25678139       0.99622843 </v>
    <v>       0.25067456       0.74679735       0.25181798 </v>
    <v>       0.25500904       0.49995841       0.00613030 </v>
    <v>       0.99827653       0.75317016       0.00243957 </v>
    <v>       0.74945008       0.74369756       0.25062472 </v>
    <v>       0.74891763       0.49744301       0.00471457 </v>
    <v>       0.48958294       0.50665457       0.24401885 </v>
    <v>       0.25834397       0.24956349       0.74835772 </v>
    <v>       0.25498376       0.99860859       0.50127067 </v>
    <v>       0.00021597       0.25479213       0.50002737 </v>
    <v>       0.25837632       0.75240773       0.75273388 </v>
    <v>       0.24692229       0.49904576       0.49334418 </v>
    <v>       0.99892135       0.74488747       0.49949045 </v>
    <v>       0.99895171       0.50065508       0.74810758 </v>
    <v>       0.74185425       0.75620426       0.74618059 </v>
    <v>       0.76135903       0.49764814       0.49954385 </v>
    <v>       0.50552612       0.75828476       0.51081352 </v>
    <v>       0.50105893       0.49493574       0.75397928 </v>
    <v>       0.51287520       0.01864384       0.97939022 </v>
    <v>       0.00179788       0.51217848       0.98468690 </v>
    <v>       0.49966206       0.75583180       0.26806020 </v>
    <v>       0.23190502       0.00329586       0.75750323 </v>
    <v>       0.49451495       0.99970278       0.47436169 </v>
    <v>       0.72628598       0.99164590       0.76973343 </v>
    <v>       0.99985591       0.76870542       0.25529762 </v>
    <v>       0.72055787       0.50178386       0.25178948 </v>
    <v>       0.01414627       0.00086950       0.48510637 </v>
    <v>       0.50044803       0.50842450       0.50200416 </v>
    <v>       0.74208424       0.51424295       0.75838733 </v>
    <v>       0.75739179       0.72469885       0.49523243 </v>
   </varray>
  </structure>
  <varray name="forces" >
   <v>      -0.06394780       0.01874588      -0.01698044 </v>
   <v>      -0.00067030       0.04814313      -0.01283388 </v>
   <v>      -0.02200827      -0.05737613       0.00899132 </v>
   <v>      -0.01738070       0.04874786       0.04475032 </v>
   <v>       0.02839211      -0.02989139       0.02115732 </v>
   <v>      -0.00261575      -0.01019535      -0.04148722 </v>
   <v>       0.01970986       0.10898962      -0.02489197 </v>
   <v>      -0.01696865      -0.02412391      -0.01705530 </v>
   <v>       0.01042206       0.00318817       0.00823450 </v>
   <v>      -0.01060167       0.02009738       0.01024891 </v>
   <v>      -0.00266977      -0.05415349      -0.02143512 </v>
   <v>       0.00255962      -0.02079060      -0.01338128 </v>
   <v>       0.02253006       0.02647984       0.00009239 </v>
   <v>      -0.01697993      -0.01696893       0.00778935 </v>
   <v>      -0.00023351      -0.05073365       0.04303285 </v>
   <v>      -0.00277580       0.02855089       0.00296193 </v>
   <v>       0.03129433      -0.00964875       0.00893765 </v>
   <v>       0.00685631       0.00987946       0.01783202 </v>
   <v>       0.02768745      -0.00076148      -0.01501820 </v>
   <v>      -0.00134424       0.00203229      -0.00716191 </v>
   <v>       0.00116698       0.02317284      -0.00588510 </v>
   <v>      -0.02869999      -0.00313993       0.05551039 </v>
   <v>       0.01057458      -0.01253703      -0.00187619 </v>
   <v>      -0.00602998       0.00761591      -0.02897562 </v>
   <v>       0.04881554      -0.00294232       0.02706470 </v>
   <v>      -0.02805906      -0.03185399      -0.02908358 </v>
   <v>      -0.03511905       0.07020496       0.03952417 </v>
   <v>      -0.03614860      -0.01766972      -0.00959815 </v>
   <v>      -0.02271824      -0.00513646      -0.05768868 </v>
   <v>       0.00069739      -0.00498720       0.00023448 </v>
   <v>       0.00572376      -0.00978750       0.03210468 </v>
   <v>      -0.01154645       0.09318997       0.04207533 </v>
   <v>      -0.01420197      -0.00418151      -0.06198032 </v>
   <v>      -0.00667428       0.00786965      -0.05110194 </v>
   <v>       0.00483132       0.00096746       0.04065541 </v>
   <v>      -0.01230009      -0.02312960       0.00104362 </v>
   <v>       0.01590098      -0.00707009       0.03238723 </v>
   <v>      -0.00384378       0.00391691       0.00245738 </v>
   <v>       0.01882289       0.01825240      -0.00247955 </v>
   <v>      -0.00235099      -0.01401476       0.00084348 </v>
   <v>      -0.03468401      -0.04244217      -0.00355475 </v>
   <v>       0.02699101      -0.00229805      -0.00459632 </v>
   <v>      -0.02698507      -0.00019449       0.01238908 </v>
   <v>       0.01808777       0.00830608       0.00015907 </v>
   <v>       0.02755248       0.00333571      -0.00139159 </v>
   <v>       0.00386966      -0.00213628      -0.00524118 </v>
   <v>       0.00004840      -0.01029755      -0.00462278 </v>
   <v>       0.00570985      -0.01591973      -0.00594159 </v>
   <v>       0.01397063      -0.03127078       0.00217309 </v>
   <v>       0.02744811      -0.00059486      -0.00370723 </v>
   <v>      -0.01334228       0.05221044      -0.03153595 </v>
   <v>       0.00462854       0.02617144       0.03101507 </v>
   <v>      -0.02826718      -0.05878308       0.00819406 </v>
   <v>       0.01304385      -0.05028054       0.04069663 </v>
   <v>      -0.00531945      -0.06982159      -0.04498937 </v>
   <v>       0.01446306      -0.03461923       0.01316023 </v>
   <v>      -0.01540025       0.12262736       0.01072408 </v>
   <v>       0.01509382       0.02254114      -0.03682827 </v>
   <v>       0.01615874      -0.04767180      -0.02359090 </v>
   <v>       0.11291605      -0.00365893      -0.01291045 </v>
   <v>      -0.07467139       0.00423447       0.00662941 </v>
   <v>       0.01924125      -0.02538667       0.00146158 </v>
   <v>       0.02277648      -0.05662497      -0.01169637 </v>
   <v>      -0.03342643       0.08362328       0.03498951 </v>
  </varray>
  <varray name="stress" >
   <v>      15.11435205       0.03330657      -0.08287640 </v>
   <v>       0.03330768      16.33578811      -0.04520150 </v>
   <v>      -0.08287494      -0.04520020      15.55664551 </v>
  </varray>
  <energy>
   <i name="e_fr_energy">   -659.17760734 </i>
   <i name="e_wo_entrp">   -659.09984895 </i>
   <i name="e_0_energy">     -0.15551678 </i>
  </energy>
  <time name="totalsc">  338.84  345.32</time>
 </calculation>
 <calculation>
  <scstep>
   <time name="dav">   24.20   24.22</time>
   <time name="total">   24.50   24.51</time>
   <energy>
    <i name="alphaZ">   4229.70799316 </i>
    <i name="ewald"> -40207.40716846 </i>
    <i name="hartreedc">  -7948.52669839 </i>
    <i name="XCdc">   1416.91075779 </i>
    <i name="pawpsdc">  30340.88509410 </i>
    <i name="pawaedc"> -29819.38586258 </i>
    <i name="eentropy">     -0.15787289 </i>
    <i name="bandstr">  -4590.66896576 </i>
    <i name="atom">  45919.39669893 </i>
    <i name="e_fr_energy">   -659.24602410 </i>
    <i name="e_wo_entrp">   -659.08815121 </i>
    <i name="e_0_energy">   -659.16708766 </i>
   </energy>
  </scstep>
  <scstep>
   <time name="diag">    1.77    1.81</time>
   <time name="diis">   15.43   15.93</time>
   <time name="orth">    0.44    0.44</time>
   <time name="total">   17.92   18.48</time>
   <energy>
    <i name="e_fr_energy">   -659.54717004 </i>
    <i name="e_wo_entrp">   -659.39258981 </i>
    <i name="e_0_energy">   -659.46987993 </i>
   </energy>
  </scstep>
  <scstep>
   <time name="diag">    1.77    1.81</time>
   <time name="diis">   14.63   15.19</time>
   <time name="orth">    0.41    0.41</time>
   <time name="total">   17.09   17.70</time>
   <energy>
    <i name="e_fr_energy">   -659.19964246 </i>
    <i name="e_wo_entrp">   -659.04350349 </i>
    <i name="e_0_energy">   -659.12157298 </i>
   </energy>
  </scstep>
  <scstep>
   <time name="diag">    1.79    1.83</time>
   <time name="diis">   16.63   17.17</time>
   <time name="orth">    0.41    0.41</time>
   <time name="total">   19.10   19.70</time>
   <energy>
    <i name="e_fr_energy">   -659.20664648 </i>
    <i name="e_wo_entrp">   -659.05000585 </i>
    <i name="e_0_energy">   -659.12832616 </i>
   </energy>
  </scstep>
  <scstep>
   <time name="diag">    1.82    1.82</time>
   <time name="diis">   16.26   16.27</time>
   <time name="orth">    0.41    0.41</time>
   <time name="total">   18.79   18.79</time>
   <energy>
    <i name="e_fr_energy">   -659.19096635 </i>
    <i name="e_wo_entrp">   -659.03466716 </i>
    <i name="e_0_energy">   -659.11281675 </i>
   </energy>
  </scstep>
  <scstep>
   <time name="diag">    1.82    1.82</time>
   <time name="diis">   16.66   16.71</time>
   <time name="orth">    0.41    0.41</time>
   <time name="total">   19.18   19.24</time>
   <energy>
    <i name="e_fr_energy">   -659.19145619 </i>
    <i name="e_wo_entrp">   -659.03468325 </i>
    <i name="e_0_energy">   -659.11306972 </i>
   </energy>
  </scstep>
  <scstep>
   <time name="diag">    1.80    1.81</time>
   <time name="diis">   16.86   16.91</time>
   <time name="orth">    0.41    0.41</time>
   <time name="total">   19.36   19.42</time>
   <energy>
    <i name="e_fr_energy">   -659.18932441 </i>
    <i name="e_wo_entrp">   -659.03318128 </i>
    <i name="e_0_energy">   -659.11125285 </i>
   </energy>
  </scstep>
  <scstep>
   <time name="diag">    1.80    1.80</time>
   <time name="diis">   19.40   19.41</time>
   <time name="orth">    0.41    0.41</time>
   <time name="total">   21.89   21.91</time>
   <energy>
    <i name="e_fr_energy">   -659.18922587 </i>
    <i name="e_wo_entrp">   -659.03291150 </i>
    <i name="e_0_energy">   -659.11106868 </i>
   </energy>
  </scstep>
  <scstep>
   <time name="diag">    1.82    1.82</time>
   <time name="diis">   17.67   17.75</time>
   <time name="orth">    0.41    0.41</time>
   <time name="total">   20.18   20.26</time>
   <energy>
    <i name="e_fr_energy">   -659.18909385 </i>
    <i name="e_wo_entrp">   -659.03281756 </i>
    <i name="e_0_energy">   -659.11095570 </i>
   </energy>
  </scstep>
  <scstep>
   <time name="diag">    1.83    1.83</time>
   <time name="diis">   17.48   17.52</time>
   <time name="orth">    0.41    0.41</time>
   <time name="total">   20.00   20.04</time>
   <energy>
    <i name="e_fr_energy">   -659.18906514 </i>
    <i name="e_wo_entrp">   -659.03278865 </i>
    <i name="e_0_energy">   -659.11092689 </i>
   </energy>
  </scstep>
  <scstep>
   <time name="diag">    1.81    1.81</time>
   <time name="diis">   14.58   14.63</time>
   <time name="orth">    0.41    0.41</time>
   <time name="total">   17.09   17.13</time>
   <energy>
    <i name="e_fr_energy">   -659.18907521 </i>
    <i name="e_wo_entrp">   -659.03279923 </i>
    <i name="e_0_energy">   -659.11093722 </i>
   </energy>
  </scstep>
  <scstep>
   <time name="diag">    1.77    1.81</time>
   <time name="diis">   13.73   13.89</time>
   <time name="orth">    0.41    0.41</time>
   <time name="total">   15.95   16.15</time>
   <energy>
    <i name="alphaZ">   4229.70799316 </i>
    <i name="ewald"> -40207.40716846 </i>
    <i name="hartreedc">  -7975.04169545 </i>
    <i name="XCdc">   1418.29466273 </i>
    <i name="pawpsdc">  30302.75245043 </i>
    <i name="pawaedc"> -29780.71944941 </i>
    <i name="eentropy">     -0.15628357 </i>
    <i name="bandstr">  -4566.01627429 </i>
    <i name="atom">  45919.39669893 </i>
    <i name="e_fr_energy">   -659.18906595 </i>
    <i name="e_wo_entrp">   -659.03278238 </i>
    <i name="e_0_energy">   -659.11092417 </i>
   </energy>
  </scstep>
  <structure>
   <crystal>
    <varray name="basis" >
     <v>       8.72240597      -0.00470555       0.01730601 </v>
     <v>       0.00091470       8.76126497      -0.01163340 </v>
     <v>       0.04869263      -0.02683078       8.74887488 </v>
    </varray>
    <i name="volume">    668.57291463 </i>
    <varray name="rec_basis" >
     <v>       0.11464853      -0.00001282      -0.00063813 </v>
     <v>       0.00006088       0.11413923       0.00034970 </v>
     <v>      -0.00022670       0.00015180       0.11430214 </v>
    </varray>
   </crystal>
   <varray name="positions" >
    <v>       0.03044570       0.98565593       0.99114147 </v>
    <v>       0.24287262       0.97718317       0.25815974 </v>
    <v>       0.26864308       0.51361568       0.25060101 </v>
    <v>       0.50128736       0.47876420       0.99267093 </v>
    <v>       0.49310122       0.25799413       0.75999792 </v>
    <v>       0.00475215       0.49862256       0.52600521 </v>
    <v>       0.50293099       0.72493732       0.73468138 </v>
    <v>       0.00539982       0.25360609       0.25517527 </v>
    <v>       0.74428840       0.74893705       0.00229626 </v>
    <v>       0.00774822       0.24468375       0.74693226 </v>
    <v>       0.75483680       0.26276576       0.50282452 </v>
    <v>       0.99940583       0.75603314       0.74973920 </v>
    <v>       0.25466085       0.49852259       0.75115573 </v>
    <v>       0.25121594       0.25094751       0.99499568 </v>
    <v>       0.49684011       0.24852710       0.24792288 </v>
    <v>       0.74830452       0.99414039       0.26216191 </v>
    <v>       0.74421310       0.24481066       0.99301864 </v>
    <v>       0.25054060       0.74803904       0.00317602 </v>
    <v>       0.24739881       0.24921516       0.50145460 </v>
    <v>       0.24837857       0.74776542       0.50125221 </v>
    <v>       0.24865707       0.25316169       0.24802791 </v>
    <v>       0.26353340       0.00073020       0.00954555 </v>
    <v>       0.99700034       0.24460790       0.00006338 </v>
    <v>       0.75324311       0.24830704       0.25143338 </v>
    <v>       0.75927861       0.99547076       0.01201350 </v>
    <v>       0.48599500       0.99472471       0.22603061 </v>
    <v>       0.00457045       0.49113590       0.23863041 </v>
    <v>       0.50287118       0.76195251       0.00049375 </v>
    <v>       0.97841975       0.00209906       0.75459889 </v>
    <v>       0.74878809       0.24735458       0.74591537 </v>
    <v>       0.74447118       0.00643768       0.51343196 </v>
    <v>       0.50656732       0.24664595       0.50759744 </v>
    <v>       0.48843859       0.00586697       0.73689404 </v>
    <v>       0.00402047       0.00500246       0.23863422 </v>
    <v>       0.49742428       0.25690348       0.99606324 </v>
    <v>       0.25068797       0.74688174       0.25179086 </v>
    <v>       0.25502140       0.49999142       0.00607846 </v>
    <v>       0.99828656       0.75319593       0.00253720 </v>
    <v>       0.74938646       0.74362606       0.25055664 </v>
    <v>       0.74890631       0.49752203       0.00474038 </v>
    <v>       0.48936895       0.50682907       0.24394335 </v>
    <v>       0.25831737       0.24953964       0.74842542 </v>
    <v>       0.25508572       0.99858681       0.50126309 </v>
    <v>       0.00019300       0.25481011       0.50007124 </v>
    <v>       0.25831524       0.75241898       0.75277465 </v>
    <v>       0.24680778       0.49903853       0.49333250 </v>
    <v>       0.99898873       0.74487447       0.49953283 </v>
    <v>       0.99892449       0.50071481       0.74804075 </v>
    <v>       0.74183193       0.75625844       0.74609579 </v>
    <v>       0.76123451       0.49766268       0.49955744 </v>
    <v>       0.50556060       0.75810368       0.51103175 </v>
    <v>       0.50092160       0.49472667       0.75394456 </v>
    <v>       0.51303641       0.01879507       0.97943477 </v>
    <v>       0.00171207       0.51225649       0.98461532 </v>
    <v>       0.49966847       0.75593614       0.26822196 </v>
    <v>       0.23191687       0.00339266       0.75737206 </v>
    <v>       0.49462709       0.99927224       0.47446335 </v>
    <v>       0.72615444       0.99177085       0.76962952 </v>
    <v>       0.99982750       0.76872070       0.25526960 </v>
    <v>       0.72043152       0.50164718       0.25188121 </v>
    <v>       0.01424567       0.00085256       0.48510755 </v>
    <v>       0.50048017       0.50853112       0.50200362 </v>
    <v>       0.74207514       0.51426022       0.75838465 </v>
    <v>       0.75744293       0.72461589       0.49516314 </v>
   </varray>
  </structure>
  <varray name="forces" >
   <v>      -0.05369018      -0.00150791      -0.02487503 </v>
   <v>       0.01957355       0.02019134      -0.00362920 </v>
   <v>      -0.02709512      -0.03654229       0.01177871 </v>
   <v>      -0.02160135       0.03258736       0.05652261 </v>
   <v>       0.00877649      -0.02756598       0.04102342 </v>
   <v>      -0.00898112      -0.01800820      -0.02251602 </v>
   <v>       0.03545159       0.09697542      -0.03569664 </v>
   <v>      -0.01496922      -0.01004792      -0.00677551 </v>
   <v>      -0.00219820       0.00850459      -0.00052698 </v>
   <v>       0.00331493       0.00561118       0.00680873 </v>
   <v>       0.00278128      -0.04374356      -0.02470175 </v>
   <v>       0.00132602      -0.01832363      -0.01387962 </v>
   <v>       0.01887837       0.02055171       0.00984039 </v>
   <v>      -0.01863511      -0.01240822      -0.00375298 </v>
   <v>      -0.00592497      -0.03182692       0.03641628 </v>
   <v>      -0.00256530       0.01014574       0.02194106 </v>
   <v>       0.03601154      -0.00784581      -0.00652347 </v>
   <v>       0.00755361       0.00031905       0.02260044 </v>
   <v>       0.01568478      -0.01241935       0.00233062 </v>
   <v>      -0.01118137       0.00455932      -0.01419937 </v>
   <v>      -0.01090445       0.02693559      -0.00525747 </v>
   <v>      -0.03653355       0.00103322       0.04931461 </v>
   <v>       0.02009141      -0.00895869      -0.00564873 </v>
   <v>       0.00322546       0.00219422      -0.02117502 </v>
   <v>       0.03731708      -0.01245301       0.00610195 </v>
   <v>      -0.03271360      -0.05914917       0.00166707 </v>
   <v>      -0.04411288       0.02350587       0.02447566 </v>
   <v>      -0.02614830       0.01092422      -0.00460735 </v>
   <v>      -0.03240119       0.00294030      -0.05286229 </v>
   <v>       0.01767776      -0.01332655      -0.00416468 </v>
   <v>      -0.00453742       0.01558433       0.02522432 </v>
   <v>      -0.00025453       0.09146244       0.01962736 </v>
   <v>      -0.00418575       0.00315313      -0.05597035 </v>
[...]
      </set>
     </set>
    </set>
   </array>
  </eigenvalues>
  <separator name="orbital magnetization" >
   <v name="MAGDIPOLOUT">      0.00000000      0.00000000      0.00000000</v>
  </separator>
  <dos>
   <i name="efermi">      9.60630043 </i>
   <total>
    <array>
     <dimension dim="1">gridpoints</dimension>
     <dimension dim="2">spin</dimension>
     <field>energy</field>
     <field>total</field>
     <field>integrated</field>
     <set>
      <set comment="spin 1">
       <r>   -58.7835     0.0000     0.0000 </r>
       <r>   -58.5349     0.0000     0.0000 </r>
       <r>   -58.2863     0.0000     0.0000 </r>
       <r>   -58.0377     0.0000     0.0000 </r>
       <r>   -57.7891     0.0000     0.0000 </r>
       <r>   -57.5405     0.0000     0.0000 </r>
       <r>   -57.2919     0.0000     0.0000 </r>
       <r>   -57.0433     0.0000     0.0000 </r>
       <r>   -56.7947     0.0000     0.0000 </r>
       <r>   -56.5461     0.0000     0.0000 </r>
       <r>   -56.2975     0.0000     0.0000 </r>
       <r>   -56.0489     0.0000     0.0000 </r>
       <r>   -55.8003     0.0000     0.0000 </r>
       <r>   -55.5517     0.1160     0.0288 </r>
       <r>   -55.3031    26.6925     6.6646 </r>
       <r>   -55.0545    29.4079    13.9753 </r>
       <r>   -54.8060     0.0993    14.0000 </r>
       <r>   -54.5574     0.0000    14.0000 </r>
       <r>   -54.3088     0.0000    14.0000 </r>
       <r>   -54.0602     0.0000    14.0000 </r>
       <r>   -53.8116     0.0000    14.0000 </r>
       <r>   -53.5630     0.0000    14.0000 </r>
       <r>   -53.3144     0.0000    14.0000 </r>
       <r>   -53.0658     0.0000    14.0000 </r>
       <r>   -52.8172     0.0000    14.0000 </r>
       <r>   -52.5686     0.0000    14.0000 </r>
       <r>   -52.3200     0.0000    14.0000 </r>
       <r>   -52.0714     0.0000    14.0000 </r>
       <r>   -51.8228     0.0000    14.0000 </r>
       <r>   -51.5742     0.0000    14.0000 </r>
       <r>   -51.3256     0.0000    14.0000 </r>
       <r>   -51.0770     0.0000    14.0000 </r>
       <r>   -50.8284     0.0000    14.0000 </r>
       <r>   -50.5798     0.0000    14.0000 </r>
       <r>   -50.3312     0.0000    14.0000 </r>
       <r>   -50.0826     0.0000    14.0000 </r>
       <r>   -49.8340     0.0000    14.0000 </r>
       <r>   -49.5854     0.0000    14.0000 </r>
       <r>   -49.3368     0.0000    14.0000 </r>
       <r>   -49.0882     0.0000    14.0000 </r>
       <r>   -48.8396     0.0000    14.0000 </r>
       <r>   -48.5910     0.0000    14.0000 </r>
       <r>   -48.3424     0.0000    14.0000 </r>
       <r>   -48.0938     0.0000    14.0000 </r>
       <r>   -47.8452     0.0000    14.0000 </r>
       <r>   -47.5966     0.0000    14.0000 </r>
       <r>   -47.3480     0.0000    14.0000 </r>
       <r>   -47.0994     0.0000    14.0000 </r>
       <r>   -46.8508     0.0000    14.0000 </r>
       <r>   -46.6022     0.6285    14.1562 </r>
       <r>   -46.3536    26.4412    20.7295 </r>
       <r>   -46.1050    21.8375    26.1582 </r>
       <r>   -45.8564     7.3822    27.9934 </r>
       <r>   -45.6078     0.0265    28.0000 </r>
       <r>   -45.3592     0.0000    28.0000 </r>
       <r>   -45.1106     0.0000    28.0000 </r>
       <r>   -44.8620     0.0000    28.0000 </r>
       <r>   -44.6134     0.0000    28.0000 </r>
       <r>   -44.3648     0.0000    28.0000 </r>
       <r>   -44.1162     0.0000    28.0000 </r>
       <r>   -43.8676     0.0000    28.0000 </r>
       <r>   -43.6191     0.0000    28.0000 </r>
       <r>   -43.3705     0.0000    28.0000 </r>
       <r>   -43.1219     0.0000    28.0000 </r>
       <r>   -42.8733     0.0000    28.0000 </r>
       <r>   -42.6247     0.0000    28.0000 </r>
       <r>   -42.3761     0.0000    28.0000 </r>
       <r>   -42.1275     0.0000    28.0000 </r>
       <r>   -41.8789     0.0000    28.0000 </r>
       <r>   -41.6303     0.0000    28.0000 </r>
       <r>   -41.3817     0.0000    28.0000 </r>
       <r>   -41.1331     0.0000    28.0000 </r>
       <r>   -40.8845     0.0000    28.0000 </r>
       <r>   -40.6359     0.0000    28.0000 </r>
       <r>   -40.3873     0.0000    28.0000 </r>
       <r>   -40.1387     0.0000    28.0000 </r>
       <r>   -39.8901     0.0000    28.0000 </r>
       <r>   -39.6415     0.0000    28.0000 </r>
       <r>   -39.3929     0.0000    28.0000 </r>
       <r>   -39.1443     0.0000    28.0000 </r>
       <r>   -38.8957     0.0000    28.0000 </r>
       <r>   -38.6471     0.0000    28.0000 </r>
       <r>   -38.3985     0.0000    28.0000 </r>
       <r>   -38.1499     0.0000    28.0000 </r>
       <r>   -37.9013     0.0000    28.0000 </r>
       <r>   -37.6527     0.0000    28.0000 </r>
       <r>   -37.4041     0.0000    28.0000 </r>
       <r>   -37.1555     0.0000    28.0000 </r>
       <r>   -36.9069     0.0000    28.0000 </r>
       <r>   -36.6583     0.0000    28.0000 </r>
       <r>   -36.4097     0.0000    28.0000 </r>
       <r>   -36.1611     0.0000    28.0000 </r>
       <r>   -35.9125     0.0000    28.0000 </r>
       <r>   -35.6639     0.0000    28.0000 </r>
       <r>   -35.4153     0.0000    28.0000 </r>
       <r>   -35.1667     0.0000    28.0000 </r>
       <r>   -34.9181     0.0000    28.0000 </r>
       <r>   -34.6695     0.0000    28.0000 </r>
       <r>   -34.4209     0.0000    28.0000 </r>
       <r>   -34.1723     0.0000    28.0000 </r>
       <r>   -33.9237     0.0000    28.0000 </r>
       <r>   -33.6751     0.0000    28.0000 </r>
       <r>   -33.4265     0.0000    28.0000 </r>
       <r>   -33.1779     0.0000    28.0000 </r>
       <r>   -32.9293     0.0000    28.0000 </r>
       <r>   -32.6808     0.0000    28.0000 </r>
       <r>   -32.4322     0.0000    28.0000 </r>
       <r>   -32.1836     0.0000    28.0000 </r>
       <r>   -31.9350     0.0000    28.0000 </r>
       <r>   -31.6864     0.0000    28.0000 </r>
       <r>   -31.4378     0.0000    28.0000 </r>
       <r>   -31.1892     0.0000    28.0000 </r>
       <r>   -30.9406     0.0000    28.0000 </r>
       <r>   -30.6920     0.0000    28.0000 </r>
       <r>   -30.4434     0.0002    28.0000 </r>
       <r>   -30.1948     2.2190    28.5517 </r>
       <r>   -29.9462    15.9928    32.5275 </r>
       <r>   -29.6976    60.5567    47.5817 </r>
       <r>   -29.4490    66.6820    64.1587 </r>
       <r>   -29.2004   122.5070    94.6137 </r>
       <r>   -28.9518    45.7173   105.9789 </r>
       <r>   -28.7032     0.0848   106.0000 </r>
       <r>   -28.4546     0.0000   106.0000 </r>
       <r>   -28.2060     0.0000   106.0000 </r>
       <r>   -27.9574     0.0000   106.0000 </r>
       <r>   -27.7088     0.0000   106.0000 </r>
       <r>   -27.4602     0.0000   106.0000 </r>
       <r>   -27.2116     0.0000   106.0000 </r>
       <r>   -26.9630     0.0000   106.0000 </r>
       <r>   -26.7144     0.0000   106.0000 </r>
       <r>   -26.4658     0.0002   106.0001 </r>
       <r>   -26.2172     3.0884   106.7678 </r>
       <r>   -25.9686    42.4254   117.3147 </r>
       <r>   -25.7200    58.7184   131.9119 </r>
       <r>   -25.4714    28.6694   139.0391 </r>
       <r>   -25.2228    11.9042   141.9984 </r>
       <r>   -24.9742     0.0063   142.0000 </r>
       <r>   -24.7256     0.0000   142.0000 </r>
       <r>   -24.4770     0.0000   142.0000 </r>
       <r>   -24.2284     0.0000   142.0000 </r>
       <r>   -23.9798     0.0000   142.0000 </r>
       <r>   -23.7312     0.0000   142.0000 </r>
       <r>   -23.4826     0.0000   142.0000 </r>
       <r>   -23.2340     0.0000   142.0000 </r>
       <r>   -22.9854     0.4390   142.1091 </r>
       <r>   -22.7368    16.9093   146.3127 </r>
       <r>   -22.4882    66.9088   162.9461 </r>
       <r>   -22.2396    71.3855   180.6924 </r>
       <r>   -21.9910    13.3012   183.9990 </r>
       <r>   -21.7424     0.0039   184.0000 </r>
       <r>   -21.4939     0.0000   184.0000 </r>
       <r>   -21.2453     0.0000   184.0000 </r>
       <r>   -20.9967     0.0000   184.0000 </r>
       <r>   -20.7481     0.0000   184.0000 </r>
       <r>   -20.4995     0.0000   184.0000 </r>
       <r>   -20.2509     0.0000   184.0000 </r>
       <r>   -20.0023     0.0000   184.0000 </r>
       <r>   -19.7537     0.0000   184.0000 </r>
       <r>   -19.5051     0.0000   184.0000 </r>
       <r>   -19.2565     0.0000   184.0000 </r>
       <r>   -19.0079     0.0000   184.0000 </r>
       <r>   -18.7593     0.0000   184.0000 </r>
       <r>   -18.5107     0.0000   184.0000 </r>
       <r>   -18.2621     0.0000   184.0000 </r>
       <r>   -18.0135     0.0000   184.0000 </r>
       <r>   -17.7649     0.0000   184.0000 </r>
       <r>   -17.5163     0.0000   184.0000 </r>
       <r>   -17.2677     0.0000   184.0000 </r>
       <r>   -17.0191     0.0000   184.0000 </r>
       <r>   -16.7705     0.0000   184.0000 </r>
       <r>   -16.5219     0.0000   184.0000 </r>
       <r>   -16.2733     0.0000   184.0000 </r>
       <r>   -16.0247     0.0000   184.0000 </r>
       <r>   -15.7761     0.0000   184.0000 </r>
       <r>   -15.5275     0.0000   184.0000 </r>
       <r>   -15.2789     0.0000   184.0000 </r>
       <r>   -15.0303     0.0000   184.0000 </r>
       <r>   -14.7817     0.0000   184.0000 </r>
       <r>   -14.5331     0.0000   184.0000 </r>
       <r>   -14.2845     0.0000   184.0000 </r>
       <r>   -14.0359     0.0000   184.0000 </r>
       <r>   -13.7873     0.0000   184.0000 </r>
       <r>   -13.5387     0.0000   184.0000 </r>
       <r>   -13.2901     0.0000   184.0000 </r>
       <r>   -13.0415     0.0000   184.0000 </r>
       <r>   -12.7929     0.0000   184.0000 </r>
       <r>   -12.5443     0.0000   184.0000 </r>
       <r>   -12.2957     0.0000   184.0000 </r>
       <r>   -12.0471     0.0000   184.0000 </r>
       <r>   -11.7985     0.0000   184.0000 </r>
       <r>   -11.5499     0.0000   184.0000 </r>
       <r>   -11.3013     0.0000   184.0000 </r>
       <r>   -11.0527     0.0000   184.0000 </r>
       <r>   -10.8041     0.0000   184.0000 </r>
       <r>   -10.5555     0.0000   184.0000 </r>
       <r>   -10.3070     0.0000   184.0000 </r>
       <r>   -10.0584     0.0000   184.0000 </r>
       <r>    -9.8098     0.0000   184.0000 </r>
       <r>    -9.5612     0.0000   184.0000 </r>
       <r>    -9.3126     0.0000   184.0000 </r>
       <r>    -9.0640     0.0000   184.0000 </r>
       <r>    -8.8154     0.0000   184.0000 </r>
       <r>    -8.5668     0.0000   184.0000 </r>
       <r>    -8.3182     0.0000   184.0000 </r>
       <r>    -8.0696     0.0000   184.0000 </r>
       <r>    -7.8210     0.0000   184.0000 </r>
       <r>    -7.5724     0.0029   184.0007 </r>
       <r>    -7.3238     1.1899   184.2965 </r>
       <r>    -7.0752     5.8127   185.7415 </r>
       <r>    -6.8266     5.3119   187.0621 </r>
       <r>    -6.5780    11.2181   189.8509 </r>
       <r>    -6.3294    14.7320   193.5132 </r>
       <r>    -6.0808    19.8428   198.4461 </r>
       <r>    -5.8322    18.0490   202.9330 </r>
       <r>    -5.5836    18.9518   207.6444 </r>
       <r>    -5.3350     1.4573   208.0067 </r>
       <r>    -5.0864     6.2360   209.5570 </r>
       <r>    -4.8378     1.7821   210.0000 </r>
       <r>    -4.5892     0.0001   210.0000 </r>
       <r>    -4.3406     0.0000   210.0000 </r>
       <r>    -4.0920     0.0000   210.0000 </r>
       <r>    -3.8434     0.0478   210.0119 </r>
       <r>    -3.5948     3.5814   210.9022 </r>
       <r>    -3.3462     4.7783   212.0901 </r>
       <r>    -3.0976     7.4608   213.9448 </r>
       <r>    -2.8490    10.4058   216.5317 </r>
       <r>    -2.6004    18.5722   221.1487 </r>
       <r>    -2.3518    27.7576   228.0492 </r>
       <r>    -2.1032    29.2893   235.3304 </r>
       <r>    -1.8546    21.5839   240.6961 </r>
       <r>    -1.6060    16.4352   244.7819 </r>
       <r>    -1.3574    10.7836   247.4627 </r>
       <r>    -1.1088     2.1159   247.9887 </r>
       <r>    -0.8602     0.0456   248.0000 </r>
       <r>    -0.6116     0.0000   248.0000 </r>
       <r>    -0.3630     0.0000   248.0000 </r>
       <r>    -0.1144     0.0000   248.0000 </r>
       <r>     0.1342     0.0000   248.0000 </r>
       <r>     0.3828     0.0000   248.0000 </r>
       <r>     0.6313     0.0005   248.0001 </r>
       <r>     0.8799     0.4657   248.1159 </r>
       <r>     1.1285     2.1628   248.6535 </r>
       <r>     1.3771     8.8010   250.8414 </r>
       <r>     1.6257     9.1005   253.1038 </r>
       <r>     1.8743    15.2357   256.8914 </r>
       <r>     2.1229    20.0949   261.8869 </r>
       <r>     2.3715    24.0305   267.8608 </r>
       <r>     2.6201    28.6024   274.9713 </r>
       <r>     2.8687    27.8172   281.8866 </r>
       <r>     3.1173    30.0515   289.3573 </r>
       <r>     3.3659    31.3320   297.1464 </r>
       <r>     3.6145    38.1053   306.6193 </r>
       <r>     3.8631    50.3720   319.1417 </r>
       <r>     4.1117    56.2735   333.1311 </r>
       <r>     4.3603    61.3208   348.3754 </r>
       <r>     4.6089    64.2880   364.3572 </r>
       <r>     4.8575    66.0001   380.7647 </r>
       <r>     5.1061    58.3595   395.2727 </r>
       <r>     5.3547    44.5782   406.3548 </r>
       <r>     5.6033    35.7428   415.2403 </r>
       <r>     5.8519    28.0713   422.2188 </r>
       <r>     6.1005    21.3058   427.5154 </r>
       <r>     6.3491    21.9693   432.9769 </r>
       <r>     6.5977    18.0504   437.4642 </r>
       <r>     6.8463     8.2370   439.5119 </r>
       <r>     7.0949    11.8233   442.4511 </r>
       <r>     7.3435    14.2542   445.9947 </r>
       <r>     7.5921    18.2745   450.5377 </r>
       <r>     7.8407    20.0937   455.5329 </r>
       <r>     8.0893    18.7412   460.1919 </r>
       <r>     8.3379    18.7039   464.8417 </r>
       <r>     8.5865    23.6148   470.7123 </r>
       <r>     8.8351    27.0843   477.4454 </r>
       <r>     9.0837    27.9352   484.3900 </r>
       <r>     9.3323    22.0723   489.8771 </r>
       <r>     9.5809    25.5107   496.2190 </r>
       <r>     9.8295    30.2083   503.7287 </r>
       <r>    10.0781    37.3705   513.0190 </r>
       <r>    10.3267    45.0795   524.2256 </r>
       <r>    10.5753    48.0714   536.1761 </r>
       <r>    10.8239    52.8704   549.3195 </r>
       <r>    11.0725    51.5151   562.1261 </r>
       <r>    11.3211    52.3006   575.1279 </r>
       <r>    11.5697    53.1810   588.3486 </r>
       <r>    11.8182    50.6292   600.9349 </r>
       <r>    12.0668    49.1074   613.1429 </r>
       <r>    12.3154    36.9230   622.3218 </r>
       <r>    12.5640     6.7282   623.9945 </r>
       <r>    12.8126     0.0222   624.0000 </r>
       <r>    13.0612     0.0000   624.0000 </r>
       <r>    13.3098     0.0000   624.0000 </r>
       <r>    13.5584     0.0000   624.0000 </r>
       <r>    13.8070     0.0000   624.0000 </r>
       <r>    14.0556     0.0000   624.0000 </r>
       <r>    14.3042     0.0000   624.0000 </r>
       <r>    14.5528     0.0000   624.0000 </r>
       <r>    14.8014     0.0000   624.0000 </r>
       <r>    15.0500     0.0000   624.0000 </r>
       <r>    15.2986     0.0000   624.0000 </r>
       <r>    15.5472     0.0000   624.0000 </r>
       <r>    15.7958     0.0000   624.0000 </r>
      </set>
     </set>
    </array>
   </total>
  </dos>
 </calculation>
 <structure name="finalpos" >
  <crystal>
   <varray name="basis" >
    <v>       8.71893400      -0.00183871       0.01868090 </v>
    <v>       0.00376826       8.75626914       0.00026514 </v>
    <v>       0.05003614      -0.01488689       8.75889723 </v>
   </varray>
   <i name="volume">    668.69283294 </i>
   <varray name="rec_basis" >
    <v>       0.11469431      -0.00004934      -0.00065529 </v>
    <v>       0.00002367       0.11420387       0.00019397 </v>
    <v>      -0.00024462      -0.00000335       0.11417102 </v>
   </varray>
  </crystal>
  <varray name="positions" >
   <v>       0.02892922       0.98553091       0.98745167 </v>
   <v>       0.24042237       0.97706659       0.25827035 </v>
   <v>       0.26872608       0.51254637       0.25143147 </v>
   <v>       0.50185220       0.47872050       0.99157090 </v>
   <v>       0.49793128       0.25941410       0.76355517 </v>
   <v>       0.00482626       0.49989709       0.52642811 </v>
   <v>       0.50446288       0.73023917       0.73040072 </v>
   <v>       0.00567954       0.25268040       0.25496860 </v>
   <v>       0.74548730       0.74857742       0.00296484 </v>
   <v>       0.00793101       0.24483992       0.74722418 </v>
   <v>       0.75529262       0.26179116       0.50261622 </v>
   <v>       0.00002402       0.75603036       0.74931636 </v>
   <v>       0.25605876       0.49882860       0.75100588 </v>
   <v>       0.25295218       0.25028183       0.99432507 </v>
   <v>       0.49553998       0.23864399       0.25467276 </v>
   <v>       0.74782662       0.99576563       0.26224134 </v>
   <v>       0.74412239       0.24486066       0.99208507 </v>
   <v>       0.25022028       0.74721890       0.00389936 </v>
   <v>       0.24773578       0.24938495       0.50181600 </v>
   <v>       0.24852366       0.74810133       0.50068776 </v>
   <v>       0.24805839       0.25343541       0.24804392 </v>
   <v>       0.26137730       0.00028741       0.01058911 </v>
   <v>       0.99771405       0.24438305      -0.00025205 </v>
   <v>       0.75267146       0.24984949       0.25111604 </v>
   <v>       0.75841308       0.99508968       0.01177470 </v>
   <v>       0.48382602       0.98697172       0.22776602 </v>
   <v>       0.00350619       0.49147480       0.23859614 </v>
   <v>       0.50285728       0.76000705       0.00086112 </v>
   <v>       0.97730475       0.00221640       0.75050090 </v>
   <v>       0.74915058       0.24609655       0.74617321 </v>
   <v>       0.74287516       0.00645348       0.51417384 </v>
   <v>       0.50690433       0.25380863       0.51447878 </v>
   <v>       0.48761129       0.00712015       0.73741648 </v>
   <v>       0.00223370       0.00526439       0.23603802 </v>
   <v>       0.49827080       0.25523943       0.00182026 </v>
   <v>       0.25138729       0.74590721       0.25191996 </v>
   <v>       0.25559088       0.49937924       0.00623667 </v>
   <v>       0.99858427       0.75261631       0.00230264 </v>
   <v>       0.75041630       0.74525070       0.25042460 </v>
   <v>       0.74904763       0.49694747       0.00499523 </v>
   <v>       0.49019229       0.49943040       0.24312314 </v>
   <v>       0.25993088       0.24947988       0.74866894 </v>
   <v>       0.25329508       0.99908017       0.50154235 </v>
   <v>       0.00067633       0.25545451       0.49955022 </v>
   <v>       0.25941504       0.75275074       0.75247073 </v>
   <v>       0.24729612       0.49968157       0.49369251 </v>
   <v>       0.99840658       0.74541290       0.49914257 </v>
   <v>      -0.00020383       0.50067800       0.74792729 </v>
   <v>       0.74283895       0.75475861       0.74641052 </v>
   <v>       0.76169012       0.49797847       0.50001002 </v>
   <v>       0.50499238       0.76420961       0.50770682 </v>
   <v>       0.50176453       0.49852620       0.75245069 </v>
   <v>       0.51144912       0.01639713       0.97971010 </v>
   <v>       0.00180146       0.51131440       0.98417358 </v>
   <v>       0.50020366       0.74534394       0.26830970 </v>
   <v>       0.23117532       0.00272295       0.75719701 </v>
   <v>       0.49295296       0.01216495       0.47203757 </v>
   <v>       0.72509474       0.99019560       0.76936989 </v>
   <v>       0.00188464       0.76922119       0.25510343 </v>
   <v>       0.72226837       0.50434136       0.25262851 </v>
   <v>       0.01201969       0.00075029       0.48350734 </v>
   <v>       0.50127005       0.51223816       0.49919262 </v>
   <v>       0.74243433       0.51353731       0.75880989 </v>
   <v>       0.75480642       0.72611297       0.49535726 </v>
  </varray>
 </structure>
</modeling>
