HECN                                    
           1
     8.932500    0.000000    0.000000
     0.005753    9.055598    0.000000
     0.032102   -0.015743    8.937128
   Nb   W    Zr   N    C    Cr   Mo
   7   6   7  13  19   6   6
Direct configuration=     1
   0.99688001  0.99204997  0.99924002
   0.25398003  0.99714995  0.24912000
   0.24803003  0.50165000  0.24955001
   0.50501006  0.49745998  0.99834003
   0.50479003  0.24631001  0.74710002
   0.99427992  0.50449999  0.49779000
   0.49950005  0.75481999  0.74817004
   0.99437004  0.23617001  0.26379999
   0.75718000  0.74102998  0.01100000
   0.00201000  0.25541000  0.73894001
   0.75307001  0.26163001  0.50533002
   0.99514004  0.74492004  0.74511997
   0.25679999  0.49462002  0.74545002
   0.24788999  0.24839000  0.99657997
   0.50833000  0.25676999  0.25376001
   0.74879004  0.98787999  0.26967001
   0.75719000  0.25603001  0.99591997
   0.24762001  0.74973999  0.99974006
   0.25272001  0.24823001  0.50015003
   0.24457999  0.75048999  0.49983999
   0.24982001  0.24942998  0.24825000
   0.26146999  0.99984002  0.99295996
   0.00281000  0.25024000  0.00130000
   0.75313998  0.24617000  0.25492002
   0.74767001  0.99748000  0.01202000
   0.50714994  0.99977000  0.24673000
   0.99051999  0.48088002  0.24100998
   0.50519005  0.76130999  0.00855000
   0.98896989  0.00202000  0.73708999
   0.75744996  0.24437997  0.74896999
   0.73632001  0.00417000  0.51063000
   0.50563996  0.23264999  0.49544997
   0.50008998  0.00061000  0.73471998
   0.99720000  0.99771992  0.25899999
   0.50427997  0.24673000  0.00262000
   0.25133999  0.74958002  0.24910999
   0.24328000  0.50072997  0.99510994
   0.99837005  0.74313996  0.00460000
   0.75633000  0.73891003  0.25767000
   0.75839004  0.50315998  0.00288000
   0.50700002  0.50333002  0.25878999
   0.24900999  0.25315000  0.74854000
   0.24446000  0.99823996  0.50287998
   0.99804009  0.24229999  0.50128003
   0.24177002  0.75340997  0.75018002
   0.25841001  0.50062002  0.50129001
   0.99000004  0.76215003  0.49746000
   0.99203996  0.50055999  0.75138002
   0.75036005  0.74888000  0.74756004
   0.74036002  0.50197000  0.50067003
   0.50575006  0.74958002  0.49720000
   0.50501003  0.50217998  0.73912003
   0.51588997  0.01358000  0.98075008
   0.99841994  0.50976998  0.98613004
   0.50379003  0.73926997  0.25905001
   0.23780002  0.01082000  0.74607998
   0.47957999  0.98308000  0.49717999
   0.74279003  0.97869994  0.76450995
   0.99864998  0.77573999  0.26102000
   0.73551001  0.51468004  0.26666001
   0.02362000  0.99783001  0.49557002
   0.50539000  0.52833005  0.49917999
   0.73876003  0.52828003  0.73814999
   0.75400003  0.72937999  0.49116997
HECN                                    
           1
     8.587535   -0.007755   -0.004515
    -0.002331    8.663259    0.002680
     0.026358   -0.012441    8.606903
   Nb   W    Zr   N    C    Cr   Mo
   7   6   7  13  19   6   6
Direct configuration=     2
   0.99635277  0.99111598  0.99597670
   0.25496278  0.99344720  0.24811446
   0.25043614  0.50601971  0.24766295
   0.50437596  0.49538319  0.99730798
   0.50199403  0.24325384  0.74971993
   0.99488242  0.50021517  0.50039103
   0.49822918  0.75982934  0.74867567
   0.99587176  0.23363470  0.26641484
   0.75947756  0.73988811  0.01035476
   0.00865099  0.25791498  0.73430784
   0.75437602  0.26144384  0.50724622
   0.99790208  0.74278911  0.74742959
   0.25691891  0.49686309  0.74932712
   0.24892703  0.24753683  0.99671106
   0.50640686  0.25114625  0.25252267
   0.74142546  0.99160234  0.26852903
   0.75559360  0.25432844  0.99357024
   0.25094767  0.75174339  0.99925691
   0.25565871  0.24922471  0.50058251
   0.24813686  0.75030465  0.50010102
   0.24799586  0.24951999  0.24902566
   0.25900890  0.00009869  0.99397553
   0.00221828  0.24846299  0.00221522
   0.75708169  0.24715155  0.25672978
   0.74802346  0.99400818  0.00520988
   0.49953010  0.99750626  0.24822799
   0.99403862  0.47778419  0.24330879
   0.50868183  0.75927326  0.00632885
   0.98765516  0.00303321  0.74257593
   0.75681196  0.24272315  0.74542609
   0.73630356  0.00653119  0.51365144
   0.50807439  0.23111361  0.50097215
   0.50331503  0.00088541  0.73812770
   0.00268338  0.00304901  0.25185652
   0.50404386  0.24808884 -0.00313013
   0.25345156  0.74948679  0.24968118
   0.24464601  0.49964741  0.99512657
   0.99332236  0.74240653  0.00283028
   0.75152195  0.74019939  0.24952256
   0.75802644  0.50823874  0.00292181
   0.49848567  0.50913225  0.25311625
   0.24902576  0.25062396  0.74829739
   0.25446327  0.99811458  0.50548897
   0.99387119  0.24606736  0.50230256
   0.24316329  0.75308240  0.75003282
   0.25335893  0.49992524  0.50070376
   0.99160975  0.75677349  0.50304874
   0.99425256  0.49955822  0.75245226
   0.74952487  0.75816779  0.75105385
   0.74646013  0.49511560  0.50332538
   0.50404573  0.75731694  0.49537554
   0.49931345  0.49995001  0.74458866
   0.51736089  0.01752077  0.97691964
   0.99737906  0.51671290  0.98182125
   0.50455143  0.73552623  0.25998033
   0.23545199  0.01046497  0.74714747
   0.47711234  0.98222481  0.49817667
   0.73914119  0.97389478  0.76610387
   0.00117583  0.77545654  0.25777377
   0.73634256  0.51328957  0.25963768
   0.01994841  0.99915698  0.49778393
   0.50094534  0.52671543  0.49771037
   0.73962005  0.52336232  0.74492414
   0.75543552  0.73495332  0.49344852
HECN                                    
           1
     8.765552   -0.003753   -0.002185
     0.001841    8.865723    0.001297
     0.029322   -0.014145    8.777313
   Nb   W    Zr   N    C    Cr   Mo
   7   6   7  13  19   6   6
Direct configuration=     3
   0.99663717  0.99161949  0.99772531
   0.25443738  0.99544387  0.24865237
   0.24914299  0.50366116  0.24867417
   0.50471764  0.49650357  0.99786083
   0.50349561  0.24490416  0.74831634
   0.99456039  0.50252661  0.49899640
   0.49890873  0.75712793  0.74840593
   0.99506618  0.23500200  0.26501285
   0.75824504  0.74050283  0.01069967
   0.00508638  0.25655979  0.73678850
   0.75367454  0.26154396  0.50621904
   0.99641989  0.74393762  0.74619086
   0.25685287  0.49565374  0.74724995
   0.24837076  0.24799656  0.99664038
   0.50744227  0.25418049  0.25318528
   0.74537705  0.98959781  0.26914311
   0.75645201  0.25524666  0.99482949
   0.24916063  0.75066105  0.99951520
   0.25408069  0.24868681  0.50035011
   0.24622765  0.75040296  0.49996012
   0.24897475  0.24947245  0.24861055
   0.26032953 -0.00003949  0.99343208
   0.00253651  0.24942197  0.00172467
   0.75496489  0.24662050  0.25575909
   0.74783738  0.99587961  0.00885835
   0.50362090  0.99873126  0.24742707
   0.99215079  0.47945282  0.24207549
   0.50680918  0.76036985  0.00751771
   0.98835881  0.00248822  0.73963687
   0.75715624  0.24361657  0.74732496
   0.73631037  0.00525805  0.51203283
   0.50676684  0.23194211  0.49801219
   0.50158281  0.00073587  0.73630084
  -0.00026054  0.00017059  0.25568365
   0.50417156  0.24735501 -0.00004867
   0.25231801  0.74953616  0.24937450
   0.24391330  0.50023070  0.99511709
   0.99603268  0.74280428  0.00377987
   0.75410446  0.73950484  0.25388987
   0.75821910  0.50549937  0.00290036
   0.50305468  0.50600559  0.25615985
   0.24901861  0.25198649  0.74842696
   0.24909312  0.99817784  0.50408813
   0.99610679  0.24403737  0.50175645
   0.24241563  0.75325840  0.75011125
   0.25607071  0.50030234  0.50101920
   0.99074676  0.75967383  0.50005270
   0.99306509  0.50009771  0.75187692
   0.74996761  0.75315882  0.74918351
   0.74318838  0.49881047  0.50189967
   0.50495727  0.75314406  0.49635494
   0.50237076  0.50115654  0.74165957
   0.51657049  0.01539372  0.97897240
   0.99793558  0.51296758  0.98413154
   0.50414431  0.73754544  0.25948098
   0.23671222  0.01065779  0.74657607
   0.47843704  0.98268747  0.49764316
   0.74110170  0.97648877  0.76525000
  -0.00017891  0.77560768  0.25951248
   0.73589835  0.51403803  0.26340007
   0.02191793  0.99844333  0.49659888
   0.50333232  0.52758827  0.49849884
   0.73915892  0.52601572  0.74129320
   0.75466160  0.73194668  0.49222811
HECN                                    
           1
     8.803833   -0.009376   -0.005208
    -0.003839    8.863467    0.003637
     0.026445   -0.011850    8.823329
   Nb   W    Zr   N    C    Cr   Mo
   7   6   7  13  19   6   6
Direct configuration=     4
   0.99699405  0.99111063  0.99306255
   0.25592296  0.99204550  0.24804108
   0.25136695  0.50777862  0.24607856
   0.50344844  0.49457210  0.99698948
   0.50017845  0.24164958  0.75088369
   0.99646414  0.49795412  0.50117730
   0.49771213  0.76250225  0.74879191
   0.99742190  0.23358652  0.26636291
   0.75904343  0.74142078  0.00913362
   0.01202571  0.25853734  0.73407915
   0.75386182  0.26057846  0.50791146
   0.99943496  0.74220614  0.74988444
   0.25579511  0.49872211  0.75189182
   0.24915215  0.24682948  0.99732410
   0.50492477  0.24953597  0.25166520
   0.74001618  0.99304230  0.26700744
   0.75504406  0.25328993  0.99238054
   0.25266983  0.75293682  0.99917491
   0.25688845  0.24940923  0.50019350
   0.24921924  0.75048172  0.50022964
   0.24706596  0.24967221  0.24927026
   0.25842618  0.00008796  0.99403900
   0.00188038  0.24779996  0.00288211
   0.75807292  0.24808297  0.25677160
   0.74723644  0.99245803  0.00144884
   0.49546840  0.99570790  0.24828190
   0.99568546  0.47778277  0.24395142
   0.51004459  0.75895532  0.00517213
   0.98683610  0.00362868  0.74545173
   0.75648334  0.24206945  0.74412176
   0.73711131  0.00678763  0.51640869
   0.50936301  0.23077462  0.50329411
   0.50513975  0.00079407  0.74062007
   0.00348479  0.00476153  0.24836922
   0.50362750  0.24848273 -0.00491837
   0.25530199  0.74942063  0.24959696
   0.24466134  0.49952199  0.99558676
   0.99392463  0.74177086  0.00250918
   0.74865656  0.74211758  0.24686653
   0.75855698  0.50822200  0.00311387
   0.49446531  0.51123694  0.25031986
   0.24981132  0.24838795  0.74852413
   0.25876050  0.99822781  0.50786507
   0.99414156  0.24759990  0.50231666
   0.24451805  0.75375242  0.75030200
   0.25100592  0.49975779  0.50005506
   0.99313002  0.75407294  0.50504896
   0.99541404  0.49859408  0.75366760
   0.74915278  0.76194580  0.75205826
   0.74786164  0.49331797  0.50383592
   0.50386461  0.76194019  0.49396706
   0.49704693  0.49906352  0.74669982
   0.51766613  0.01914807  0.97463422
   0.99693492  0.52073711  0.97953917
   0.50418730  0.73411042  0.26052030
   0.23337370  0.00935621  0.74787141
   0.47702373  0.98276542  0.49841811
   0.73639578  0.97279220  0.76749946
   0.00195480  0.77319557  0.25508445
   0.73676181  0.51027463  0.25503307
   0.01785544  0.00032549  0.49933216
   0.49919078  0.52378366  0.49644840
   0.74045668  0.52031304  0.75057341
   0.75441426  0.73821215  0.49528453
HECN                                    
           1
     8.805491   -0.009619   -0.005339
    -0.004085    8.863370    0.003738
     0.026320   -0.011751    8.825321
   Nb   W    Zr   N    C    Cr   Mo
   7   6   7  13  19   6   6
Direct configuration=     5
   0.99700935  0.99108866  0.99286173
   0.25598689  0.99189837  0.24801481
   0.25146290  0.50795703  0.24596675
   0.50339366  0.49448843  0.99695195
   0.50003540  0.24150851  0.75099425
   0.99654611  0.49775612  0.50127131
   0.49766071  0.76273497  0.74880846
   0.99752344  0.23352527  0.26642111
   0.75907785  0.74146058  0.00906617
   0.01232487  0.25862321  0.73396254
   0.75386990  0.26053663  0.50798437
   0.99956494  0.74213120  0.75004360
   0.25574966  0.49885491  0.75209170
   0.24918582  0.24677895  0.99735357
   0.50481609  0.24933477  0.25159974
   0.73978514  0.99319135  0.26691534
   0.75498327  0.25320518  0.99227507
   0.25282117  0.75303548  0.99916028
   0.25700950  0.24944059  0.50018679
   0.24934821  0.75048521  0.50024130
   0.24698369  0.24968081  0.24929864
   0.25834414  0.00009342  0.99406511
   0.00185207  0.24772968  0.00293197
   0.75820696  0.24814637  0.25681524
   0.74721033  0.99230992  0.00112974
   0.49511688  0.99557673  0.24831863
   0.99583782  0.47771052  0.24403229
   0.51018399  0.75889417  0.00507116
   0.98677057  0.00367796  0.74570214
   0.75645424  0.24200247  0.74398380
   0.73714594  0.00685384  0.51659715
   0.50947497  0.23072407  0.50352166
   0.50529315  0.00079664  0.74080615
   0.00364627  0.00496054  0.24805418
   0.50360401  0.24853161 -0.00512814
   0.25543062  0.74941570  0.24960659
   0.24469358  0.49949131  0.99560701
   0.99383371  0.74172606  0.00245443
   0.74842168  0.74223066  0.24656391
   0.75857163  0.50833992  0.00312304
   0.49409509  0.51146334  0.25006813
   0.24984540  0.24823212  0.74852837
   0.25917731  0.99823020  0.50802789
   0.99405695  0.24775413  0.50234072
   0.24460870  0.75377387  0.75031024
   0.25078755  0.49973408  0.50001346
   0.99323267  0.75383039  0.50526425
   0.99551529  0.49852901  0.75374478
   0.74911794  0.76232630  0.75218196
   0.74806297  0.49308021  0.50391944
   0.50381772  0.76232113  0.49386410
   0.49681745  0.49897267  0.74691685
   0.51771341  0.01931074  0.97444734
   0.99689193  0.52107362  0.97934127
   0.50418907  0.73396165  0.26056510
   0.23322977  0.00929973  0.74792717
   0.47696281  0.98276874  0.49845146
   0.73619284  0.97263195  0.76759632
   0.00204665  0.77309122  0.25489379
   0.73679880  0.51011177  0.25467275
   0.01768041  0.00040686  0.49944981
   0.49901210  0.52361880  0.49636007
   0.74051260  0.52006600  0.75097321
   0.75440382  0.73848345  0.49541609
HECN                                    
           1
     8.828865   -0.009721   -0.008932
    -0.004149    8.910089    0.003013
     0.022797   -0.012543    8.839980
   Nb   W    Zr   N    C    Cr   Mo
   7   6   7  13  19   6   6
Direct configuration=     6
   0.99791120  0.98983608  0.98994631
   0.25533673  0.99022441  0.25051728
   0.25098900  0.50970245  0.24432087
   0.50302639  0.49323366  0.99645447
   0.49742428  0.24047868  0.75114729
   0.99825203  0.49758318  0.50178859
   0.49852490  0.76347554  0.74661366
   0.99821513  0.23444250  0.26769286
   0.75875297  0.74296847  0.00791375
   0.01540638  0.25857441  0.73435214
   0.75340397  0.25960658  0.50868763
   0.00033397  0.74042603  0.75196206
   0.25457817  0.49989578  0.75406801
   0.24754851  0.24577581  0.99806918
   0.50417692  0.25055516  0.25124479
   0.74026124  0.99286978  0.26612477
   0.75573985  0.25262517  0.99058428
   0.25399800  0.75405157  0.99943208
   0.25692730  0.24904033  0.50011675
   0.24817298  0.75073576  0.50042836
   0.24663730  0.24972425  0.24970313
   0.25726227  0.00032213  0.99465890
   0.00137437  0.24575863  0.00333583
   0.75798351  0.24887449  0.25638920
   0.74583692  0.99174099 -0.00237387
   0.49390272  0.99443623  0.24839699
   0.99731322  0.47828942  0.24609598
   0.51097702  0.75830437  0.00251302
   0.98694230  0.00426288  0.74708625
   0.75667526  0.24284094  0.74319437
   0.73965928  0.00635985  0.51708014
   0.51062297  0.23191225  0.50376653
   0.50783459  0.00025969  0.74417349
   0.00226128  0.00233851  0.24667443
   0.50317141  0.24892469 -0.00438477
   0.25706946  0.74968174  0.24932092
   0.24420961  0.50049017  0.99630713
   0.99749744  0.74263203  0.00282950
   0.74602597  0.74226156  0.24756433
   0.75935968  0.50616833  0.00359212
   0.49509280  0.51108812  0.24854092
   0.25101825  0.24657600  0.74892139
   0.25904168  0.99878720  0.51106109
   0.99669197  0.24786856  0.50157926
   0.24611910  0.75450285  0.75068648
   0.24965994  0.50024587  0.49971434
   0.99388433  0.75232782  0.50550447
   0.99637929  0.49729338  0.75508633
   0.75016494  0.76028593  0.75143781
   0.74664042  0.49535062  0.50318679
   0.50549574  0.76256652  0.49199966
   0.49687663  0.49946277  0.74686443
   0.51890121  0.02124361  0.97127984
   0.99590678  0.52622318  0.97566719
   0.50353632  0.73181563  0.26343252
   0.22821220  0.00733359  0.74763782
   0.47821293  0.98489313  0.49876956
   0.73144534  0.97348874  0.77008797
   0.00055306  0.77415491  0.25295973
   0.73315413  0.51015767  0.25162229
   0.01842075  0.00086653  0.50000712
   0.49970052  0.52359416  0.49456833
   0.74015063  0.52096230  0.75615783
   0.75314489  0.73722619  0.49583823
HECN                                    
           1
     8.840350   -0.009770   -0.010697
    -0.004180    8.933043    0.002657
     0.021066   -0.012932    8.847182
   Nb   W    Zr   N    C    Cr   Mo
   7   6   7  13  19   6   6
Direct configuration=     7
   0.99835254  0.98922377  0.98851641
   0.25501863  0.98940639  0.25174455
   0.25075646  0.51055544  0.24351355
   0.50284632  0.49262038  0.99621032
   0.49614482  0.23997536  0.75122180
   0.99908805  0.49749869  0.50204265
   0.49894794  0.76383740  0.74553730
   0.99855433  0.23489085  0.26831683
   0.75859355  0.74370539  0.00734849
   0.01691645  0.25855060  0.73454384
   0.75317579  0.25915205  0.50903245
   0.00071119  0.73959272  0.75290316
   0.25400451  0.50040458  0.75503721
   0.24674635  0.24528555  0.99841982
   0.50386365  0.25115160  0.25107060
   0.74049438  0.99271259  0.26573707
   0.75611025  0.25234163  0.98975507
   0.25457472  0.75454819  0.99956568
   0.25688701  0.24884471  0.50008237
   0.24759714  0.75085822  0.50051989
   0.24646764  0.24974550  0.24990146
   0.25673226  0.00043393  0.99494995
   0.00114036  0.24479531  0.00353374
   0.75787393  0.24923033  0.25618021
   0.74516323  0.99146277 -0.00409269
   0.49330777  0.99387881  0.24843514
   0.99803660  0.47857245  0.24710854
   0.51136510  0.75801600  0.00125837
   0.98702672  0.00454881  0.74776521
   0.75678341  0.24325071  0.74280722
   0.74089094  0.00611845  0.51731752
   0.51118555  0.23249298  0.50388692
   0.50908060 -0.00000259  0.74582566
   0.00158234  0.00105695  0.24599728
   0.50295958  0.24911683 -0.00402022
   0.25787246  0.74981176  0.24918114
   0.24397261  0.50097838  0.99665048
   0.99929281  0.74307485  0.00301424
   0.74485222  0.74227669  0.24805456
   0.75974593  0.50510702  0.00382228
   0.49558140  0.51090468  0.24779199
   0.25159304  0.24576661  0.74911434
   0.25897582  0.99905956  0.51254888
   0.99798302  0.24792447  0.50120630
   0.24685929  0.75485915  0.75087135
   0.24910734  0.50049598  0.49956742
   0.99420369  0.75159346  0.50562237
   0.99680293  0.49668953  0.75574448
   0.75067784  0.75928869  0.75107292
   0.74594321  0.49646023  0.50282723
   0.50631763  0.76268638  0.49108549
   0.49690562  0.49970230  0.74683874
   0.51948264  0.02218815  0.96972649
   0.99542333  0.52873982  0.97386506
   0.50321702  0.73076690  0.26483879
   0.22575345  0.00637262  0.74749481
   0.47882558  0.98593142  0.49892593
   0.72911949  0.97390757  0.77130923
  -0.00017920  0.77467469  0.25201081
   0.73136758  0.51017995  0.25012531
   0.01878365  0.00109122  0.50028065
   0.50003750  0.52358204  0.49368961
   0.73997429  0.52140058  0.75870086
   0.75252808  0.73661172  0.49604499
HECN                                    
           1
     8.791016   -0.010921   -0.010573
    -0.005370    8.893237   -0.002590
     0.021021   -0.018062    8.807473
   Nb   W    Zr   N    C    Cr   Mo
   7   6   7  13  19   6   6
Direct configuration=     8
   0.99936737  0.98801240  0.98665698
   0.25459847  0.98859242  0.25495404
   0.25054559  0.51160733  0.24267955
   0.50253280  0.49164639  0.99505273
   0.49377696  0.24029069  0.75112082
   0.99958689  0.49757322  0.50254845
   0.50094132  0.76300605  0.74263353
   0.99811267  0.23366664  0.26855311
   0.75934473  0.74467522  0.00605776
   0.01863342  0.25772846  0.73449892
   0.75381737  0.26069810  0.50914403
   0.00062549  0.73837748  0.75336769
   0.25329693  0.50160056  0.75613178
   0.24530942  0.24474186  0.99941001
   0.50365050  0.25185273  0.25116458
   0.74029754  0.99239497  0.26538472
   0.75676271  0.25141678  0.98829419
   0.25742263  0.75586074  0.99948671
   0.25733028  0.24906172  0.50034561
   0.24762868  0.75128470  0.50082274
   0.24627537  0.24979937  0.25036660
   0.25528580  0.00060823  0.99592788
   0.00068824  0.24197970  0.00353862
   0.75735882  0.24934829  0.25564132
   0.74416056  0.99094146 -0.00603205
   0.49340775  0.99389330  0.24885593
   0.99967726  0.47853677  0.25013134
   0.51215750  0.75704251 -0.00176968
   0.98819492  0.00498520  0.74754880
   0.75695133  0.24414607  0.74221300
   0.74394930  0.00632200  0.51627643
   0.51215508  0.23391523  0.50368658
   0.51099977 -0.00042169  0.74764637
  -0.00001543  0.00128968  0.24628692
   0.50252585  0.24907884 -0.00296476
   0.25862100  0.75013293  0.24954185
   0.24311835  0.50183535  0.99698262
   0.00143449  0.74477764  0.00363517
   0.74300748  0.74173064  0.24882022
   0.76119155  0.50404703  0.00461994
   0.49575395  0.50961642  0.24657234
   0.25288442  0.24469755  0.74957476
   0.25877469  0.99909755  0.51547470
   0.99996423  0.24787961  0.50182580
   0.24829377  0.75531223  0.75103390
   0.24907536  0.50090639  0.49951091
   0.99362043  0.75135360  0.50524990
   0.99685784  0.49562335  0.75605692
   0.75220394  0.75797729  0.75006839
   0.74508998  0.49751025  0.50244015
   0.50689972  0.76242494  0.48945585
   0.49752350  0.50045630  0.74586076
   0.52063844  0.02459561  0.96772460
   0.99404759  0.53287129  0.97173952
   0.50328029  0.72941853  0.26892246
   0.21901830  0.00401365  0.74672173
   0.47915355  0.98860037  0.49922777
   0.72494603  0.97331024  0.77332404
  -0.00231957  0.77437148  0.25078050
   0.72836004  0.51164234  0.24822471
   0.01877013  0.00088255  0.50061801
   0.50037117  0.52312894  0.49215867
   0.73991308  0.52270844  0.76199210
   0.75215273  0.73352384  0.49618060
HECN                                    
           1
     8.799134   -0.010732   -0.010593
    -0.005174    8.899787   -0.001727
     0.021029   -0.017218    8.814007
   Nb   W    Zr   N    C    Cr   Mo
   7   6   7  13  19   6   6
Direct configuration=     9
   0.99919946  0.98821279  0.98696446
   0.25466802  0.98872667  0.25442359
   0.25058046  0.51143355  0.24281731
   0.50258470  0.49180751  0.99524418
   0.49416879  0.24023863  0.75113748
   0.99950434  0.49756084  0.50246483
   0.50061147  0.76314370  0.74311361
   0.99818578  0.23386898  0.26851418
   0.75922040  0.74451502  0.00627102
   0.01834931  0.25786432  0.73450643
   0.75371116  0.26044252  0.50912543
   0.00063970  0.73857831  0.75329102
   0.25341399  0.50140278  0.75595073
   0.24554722  0.24483166  0.99924638
   0.50368576  0.25173683  0.25114898
   0.74033012  0.99244751  0.26544299
   0.75665476  0.25156978  0.98853576
   0.25695132  0.75564372  0.99949964
   0.25725692  0.24902581  0.50030208
   0.24762345  0.75121417  0.50077263
   0.24630719  0.24979043  0.25028971
   0.25552516  0.00057936  0.99576621
   0.00076312  0.24244511  0.00353809
   0.75744405  0.24932885  0.25573039
   0.74432649  0.99102784 -0.00571142
   0.49339120  0.99389086  0.24878637
   0.99940576  0.47854234  0.24963168
   0.51202639  0.75720370 -0.00126905
   0.98800160  0.00491306  0.74758453
   0.75692352  0.24399812  0.74231114
   0.74344319  0.00628839  0.51644850
   0.51199461  0.23368014  0.50371955
   0.51068220 -0.00035263  0.74734545
   0.00024897  0.00125122  0.24623902
   0.50259762  0.24908503 -0.00313923
   0.25849712  0.75007979  0.24948219
   0.24325969  0.50169368  0.99692764
   0.00108004  0.74449607  0.00353237
   0.74331276  0.74182087  0.24869371
   0.76095235  0.50422213  0.00448819
   0.49572543  0.50982948  0.24677408
   0.25267075  0.24487419  0.74949876
   0.25880798  0.99909099  0.51499105
   0.99963637  0.24788692  0.50172340
   0.24805638  0.75523729  0.75100699
   0.24908064  0.50083856  0.49952021
   0.99371696  0.75139330  0.50531149
   0.99684878  0.49579955  0.75600538
   0.75195143  0.75819412  0.75023457
   0.74523115  0.49733674  0.50250403
   0.50680340  0.76246829  0.48972526
   0.49742123  0.50033174  0.74602235
   0.52044712  0.02419783  0.96805528
   0.99427516  0.53218861  0.97209046
   0.50326986  0.72964102  0.26824756
   0.22013290  0.00440380  0.74684975
   0.47909922  0.98815917  0.49917761
   0.72563668  0.97340887  0.77299104
  -0.00196537  0.77442177  0.25098390
   0.72885770  0.51140086  0.24853873
   0.01877237  0.00091701  0.50056227
   0.50031596  0.52320398  0.49241178
   0.73992318  0.52249194  0.76144793
   0.75221492  0.73403424  0.49615849
HECN                                    
           1
     8.807646   -0.012695   -0.007530
    -0.007174    8.898980   -0.008503
     0.024137   -0.023926    8.834085
   Nb   W    Zr   N    C    Cr   Mo
   7   6   7  13  19   6   6
Direct configuration=    10
   0.99992167  0.98776573  0.98679558
   0.25466330  0.98921239  0.25723339
   0.25040912  0.51140174  0.24300094
   0.50228217  0.49147334  0.99387083
   0.49302457  0.24192573  0.75089749
   0.99927653  0.49778869  0.50261389
   0.50275521  0.76106046  0.74040946
   0.99699410  0.23204469  0.26794933
   0.76022922  0.74530907  0.00512740
   0.01810705  0.25627236  0.73489221
   0.75501896  0.26346832  0.50834996
   0.00009908  0.73881768  0.75238235
   0.25310347  0.50260272  0.75593035
   0.24490009  0.24493998  0.00015786
   0.50375936  0.25133479  0.25145991
   0.73936163  0.99229535  0.26555400
   0.75677936  0.25053095  0.98777163
   0.26076207  0.75687732  0.99924974
   0.25820770  0.24965802  0.50063969
   0.24840336  0.75144634  0.50117617
   0.24615172  0.24985866  0.25076879
   0.25425807  0.00077828  0.99675898
   0.00045417  0.23973469  0.00340427
   0.75694305  0.24897666  0.25525418
   0.74413288  0.99060916 -0.00557004
   0.49390689  0.99449237  0.24930803
   0.00071851  0.47838617  0.25238636
   0.51269290  0.75611175 -0.00385446
   0.98899086  0.00506625  0.74605014
   0.75695562  0.24451296  0.74192855
   0.74619755  0.00704096  0.51469796
   0.51267860  0.23493987  0.50365241
   0.51093577 -0.00036424  0.74674925
  -0.00073828  0.00278586  0.24720597
   0.50226356  0.24876857 -0.00249055
   0.25848226  0.75035562  0.25021887
   0.24219076  0.50218236  0.99687725
   0.00193686  0.74633066  0.00394214
   0.74213185  0.74157175  0.24842271
   0.76257761  0.50420038  0.00544088
   0.49435991  0.50853423  0.24562576
   0.25356966  0.24429998  0.74995609
   0.25911792  0.99892243  0.51725449
   0.00037609  0.24786788  0.50273233
   0.24917192  0.75547901  0.75086671
   0.24981793  0.50105812  0.49968910
   0.99264897  0.75202376  0.50470181
   0.99619932  0.49517905  0.75535082
   0.75342413  0.75852062  0.74923604
   0.74557432  0.49674216  0.50267925
   0.50639534  0.76268577  0.48895438
   0.49805622  0.50092811  0.74463510
   0.52057848  0.02603351  0.96825038
   0.99311506  0.53362795  0.97249464
   0.50402109  0.72987860  0.27199852
   0.21434657  0.00200393  0.74615074
   0.47872973  0.99093637  0.49962001
   0.72437400  0.97206147  0.77343263
  -0.00390802  0.77275454  0.25077130
   0.72821023  0.51254253  0.24797844
   0.01722372  0.00047108  0.50086462
   0.49950194  0.52116602  0.49171717
   0.74062591  0.52262328  0.76226230
   0.75255071  0.73109490  0.49616364
HECN                                    
           1
     8.813163   -0.013967   -0.005545
    -0.008470    8.898458   -0.012895
     0.026152   -0.028274    8.847096
   Nb   W    Zr   N    C    Cr   Mo
   7   6   7  13  19   6   6
Direct configuration=    11
   0.00038920  0.98747601  0.98668601
   0.25465969  0.98952854  0.25905034
   0.25029815  0.51138120  0.24311969
   0.50208658  0.49125607  0.99298278
   0.49228410  0.24301884  0.75074342
   0.99912905  0.49793639  0.50271043
   0.50414338  0.75970933  0.73865955
   0.99622246  0.23086194  0.26758349
   0.76088271  0.74582327  0.00438815
   0.01794989  0.25524078  0.73514091
   0.75586625  0.26542912  0.50784978
  -0.00025068  0.73897230  0.75179508
   0.25290261  0.50338034  0.75591784
   0.24448095  0.24501053  0.00074739
   0.50380687  0.25107439  0.25166073
   0.73873458  0.99219666  0.26562592
   0.75686004  0.24985735  0.98727704
   0.26322941  0.75767722  0.99908793
   0.25882325  0.25006805  0.50085807
   0.24890822  0.75159712  0.50143702
   0.24605098  0.24990309  0.25107861
   0.25343756  0.00090750  0.99740124
   0.00025379  0.23797798  0.00331647
   0.75661875  0.24874811  0.25494621
   0.74400745  0.99033786 -0.00547880
   0.49424072  0.99488253  0.24964549
   0.00156775  0.47828649  0.25416705
   0.51312482  0.75540290 -0.00552678
   0.98963167  0.00516492  0.74505792
   0.75697656  0.24484644  0.74168143
   0.74798124  0.00752825  0.51356589
   0.51312162  0.23575636  0.50360947
   0.51110006 -0.00037202  0.74636371
  -0.00137743  0.00378078  0.24783215
   0.50204709  0.24856375 -0.00207123
   0.25847251  0.75053474  0.25069532
   0.24149882  0.50249889  0.99684516
   0.00249175  0.74751996  0.00420779
   0.74136734  0.74141001  0.24824764
   0.76362960  0.50418698  0.00605647
   0.49347594  0.50769404  0.24488297
   0.25415143  0.24392818  0.75025129
   0.25931806  0.99881433  0.51871778
   0.00085475  0.24785613  0.50338449
   0.24989419  0.75563577  0.75077588
   0.25029525  0.50120060  0.49979824
   0.99195778  0.75243191  0.50430817
   0.99577891  0.49477649  0.75492744
   0.75437784  0.75873195  0.74859026
   0.74579636  0.49635696  0.50279217
   0.50613137  0.76282629  0.48845617
   0.49846771  0.50131402  0.74373831
   0.52066374  0.02722331  0.96837741
   0.99236413  0.53456081  0.97275694
   0.50450663  0.73003449  0.27442368
   0.21060027  0.00044744  0.74569890
   0.47849082  0.99273642  0.49990751
   0.72355624  0.97118826  0.77371775
  -0.00516590  0.77167365  0.25063344
   0.72779134  0.51328207  0.24761690
   0.01622097  0.00018200  0.50106024
   0.49897479  0.51984479  0.49126724
   0.74108070  0.52270889  0.76278875
   0.75276767  0.72918999  0.49616543
HECN                                    
           1
     8.836331   -0.014884   -0.006351
    -0.009393    8.914843   -0.014570
     0.025414   -0.029989    8.851176
   Nb   W    Zr   N    C    Cr   Mo
   7   6   7  13  19   6   6
Direct configuration=    12
   0.00010249  0.98762314  0.98771935
   0.25457077  0.99011502  0.26032049
   0.24984626  0.51138671  0.24346142