<?xml version="1.0" encoding="ISO-8859-1"?>
<modeling>
 <generator>
  <i name="program" type="string">vasp </i>
  <i name="version" type="string">5.4.4.18Apr17-6-g9f103f2a35  </i>
  <i name="subversion" type="string">(build Oct 18 2021 20:38:43) complex            parallel </i>
  <i name="platform" type="string">LinuxIFC </i>
  <i name="date" type="string">2024 06 24 </i>
  <i name="time" type="string">10:45:28 </i>
 </generator>
 <incar>
  <i type="string" name="SYSTEM">HECN</i>
  <i type="int" name="ISTART">     0</i>
  <i type="string" name="PREC">normal</i>
  <i type="string" name="ALGO">Fast</i>
  <i type="int" name="ICHARG">     2</i>
  <i type="int" name="NELM">    60</i>
  <i type="int" name="IBRION">     2</i>
  <i name="EDIFF">      0.00001000</i>
  <i name="EDIFFG">     -0.01000000</i>
  <i type="int" name="NSW">   100</i>
  <i type="int" name="ISIF">     3</i>
  <i name="ENCUT">    400.00000000</i>
  <i name="POTIM">      0.50000000</i>
  <i type="logical" name="LREAL"> F  </i>
  <i type="int" name="ISMEAR">     0</i>
  <i name="SIGMA">      0.10000000</i>
  <i type="logical" name="LWAVE"> F  </i>
  <i type="logical" name="LCHARG"> F  </i>
  <v type="int" name="KPOINT_BSE">    -1     0     0     0</v>
  <i type="int" name="NELM">    60</i>
 </incar>
 <structure name="primitive_cell" >
  <crystal>
   <varray name="basis" >
    <v>       8.69065567       0.01902955      -0.00731240 </v>
    <v>       0.02494514       8.73777087      -0.01503056 </v>
    <v>       0.02386613      -0.02993938       8.66593972 </v>
   </varray>
   <i name="volume">    658.05859914 </i>
   <varray name="rec_basis" >
    <v>       0.11506657      -0.00032905      -0.00031803 </v>
    <v>      -0.00025027       0.11444706       0.00039608 </v>
    <v>       0.00009666       0.00019822       0.11539471 </v>
   </varray>
  </crystal>
  <varray name="positions" >
   <v>      -0.00346997       0.00375697      -0.00843078 </v>
   <v>      -0.01580671       0.00675717      -0.26031002 </v>
   <v>      -0.25660903      -0.00127852       0.00120316 </v>
   <v>       0.00036637       0.25876198       0.00253085 </v>
   <v>       0.25599477       0.00294907      -0.01241903 </v>
   <v>      -0.00476034       0.00207949       0.25432789 </v>
   <v>      -0.00015015      -0.25851843       0.00188694 </v>
   <v>       0.21643551       0.02125475      -0.25486770 </v>
   <v>      -0.26090256      -0.03138417      -0.22356933 </v>
   <v>      -0.24410325       0.25299306      -0.00126956 </v>
   <v>       0.24525918       0.24669897      -0.00846294 </v>
   <v>      -0.23183019      -0.25825683       0.00679961 </v>
   <v>       0.00491816      -0.23228351       0.24990701 </v>
   <v>       0.00203391      -0.26291832      -0.23853313 </v>
   <v>      -0.01476365       0.22755576       0.26638023 </v>
   <v>       0.24098283      -0.25226546      -0.00365512 </v>
   <v>       0.00317045       0.24730553      -0.26503644 </v>
   <v>       0.26725944       0.00123888       0.24666731 </v>
   <v>      -0.25943177      -0.00450676       0.26438020 </v>
   <v>       0.23342953      -0.24657146      -0.24801399 </v>
   <v>      -0.23522748       0.25536247      -0.24985729 </v>
   <v>      -0.24360499      -0.24599775      -0.24461199 </v>
   <v>       0.24415056       0.24960694      -0.25294326 </v>
   <v>      -0.24647649       0.24890889       0.24948874 </v>
   <v>       0.24841057       0.24643694       0.24959260 </v>
   <v>      -0.25616522      -0.24846891       0.24526831 </v>
   <v>       0.25018680      -0.25192179       0.24978152 </v>
   <v>      -0.47455684       0.01140798      -0.02415472 </v>
   <v>       0.01542733       0.00394469      -0.49606982 </v>
   <v>      -0.00053458      -0.49126253      -0.01704313 </v>
   <v>      -0.48249816       0.00076306      -0.25557466 </v>
   <v>       0.25852085       0.00090197      -0.48379881 </v>
   <v>      -0.00246107      -0.24139891      -0.49299313 </v>
   <v>      -0.24632815       0.00733807      -0.49435533 </v>
   <v>      -0.49590242       0.23750539       0.00172214 </v>
   <v>       0.00121914       0.24593880      -0.49877111 </v>
   <v>      -0.48595778       0.00246735       0.25208059 </v>
   <v>       0.00378952       0.49623155      -0.24173974 </v>
   <v>      -0.23785445      -0.49681958       0.00509359 </v>
   <v>      -0.01261567       0.49651797       0.24204673 </v>
   <v>       0.23845948       0.49858805      -0.01119682 </v>
   <v>       0.49756879      -0.23708871       0.01092767 </v>
   <v>       0.23947832       0.48395786      -0.24708837 </v>
   <v>      -0.24184161      -0.48415739      -0.24148516 </v>
   <v>      -0.23830231       0.24747752       0.48709269 </v>
   <v>      -0.48777466       0.24543626      -0.26128264 </v>
   <v>       0.49109784      -0.24138710      -0.24444159 </v>
   <v>       0.24777343      -0.24816968      -0.49396192 </v>
   <v>      -0.48589613       0.25266751       0.25307762 </v>
   <v>       0.25210007       0.24816669      -0.49803702 </v>
   <v>       0.24193813       0.49347842       0.24635527 </v>
   <v>      -0.25282503      -0.25375068       0.49285282 </v>
   <v>      -0.26051862      -0.49110774       0.25485007 </v>
   <v>       0.49244308      -0.26949185       0.25310698 </v>
   <v>       0.48407450      -0.01450028      -0.49393372 </v>
   <v>      -0.00127897      -0.49963883      -0.49742518 </v>
   <v>       0.49814753       0.49898597      -0.00060511 </v>
   <v>      -0.25509133       0.49284833      -0.49378029 </v>
   <v>      -0.49513859       0.25060725       0.48759134 </v>
   <v>       0.25629136      -0.49984760      -0.49125919 </v>
   <v>       0.49681849      -0.23888171       0.48890274 </v>
   <v>       0.49864741       0.49670888       0.25225008 </v>
   <v>      -0.49847178      -0.49798835      -0.25844467 </v>
   <v>      -0.49724300      -0.48374384       0.49325811 </v>
  </varray>
 </structure>
 <varray name="primitive_index" >
  <v type="int" >        1 </v>
  <v type="int" >       29 </v>
  <v type="int" >       25 </v>
  <v type="int" >       23 </v>
  <v type="int" >       22 </v>
  <v type="int" >       34 </v>
  <v type="int" >       38 </v>
  <v type="int" >       56 </v>
  <v type="int" >       58 </v>
  <v type="int" >       17 </v>
  <v type="int" >       14 </v>
  <v type="int" >        9 </v>
  <v type="int" >       59 </v>
  <v type="int" >       12 </v>
  <v type="int" >        8 </v>
  <v type="int" >       18 </v>
  <v type="int" >       10 </v>
  <v type="int" >        2 </v>
  <v type="int" >       16 </v>
  <v type="int" >       45 </v>
  <v type="int" >       30 </v>
  <v type="int" >       49 </v>
  <v type="int" >       42 </v>
  <v type="int" >       24 </v>
  <v type="int" >       21 </v>
  <v type="int" >       39 </v>
  <v type="int" >       36 </v>
  <v type="int" >       53 </v>
  <v type="int" >       61 </v>
  <v type="int" >       54 </v>
  <v type="int" >       33 </v>
  <v type="int" >       43 </v>
  <v type="int" >       47 </v>
  <v type="int" >       31 </v>
  <v type="int" >       35 </v>
  <v type="int" >       44 </v>
  <v type="int" >       26 </v>
  <v type="int" >       48 </v>
  <v type="int" >       40 </v>
  <v type="int" >       27 </v>
  <v type="int" >       37 </v>
  <v type="int" >       28 </v>
  <v type="int" >       13 </v>
  <v type="int" >       63 </v>
  <v type="int" >       11 </v>
  <v type="int" >        5 </v>
  <v type="int" >        7 </v>
  <v type="int" >       20 </v>
  <v type="int" >       15 </v>
  <v type="int" >       19 </v>
  <v type="int" >        3 </v>
  <v type="int" >       64 </v>
  <v type="int" >       60 </v>
  <v type="int" >       55 </v>
  <v type="int" >       57 </v>
  <v type="int" >        6 </v>
  <v type="int" >        4 </v>
  <v type="int" >       50 </v>
  <v type="int" >       32 </v>
  <v type="int" >       46 </v>
  <v type="int" >       51 </v>
  <v type="int" >       41 </v>
  <v type="int" >       52 </v>
  <v type="int" >       62 </v>
 </varray>
 <kpoints>
  <generation param="Gamma">
   <v type="int" name="divisions">       3        3        3 </v>
   <v name="usershift">      0.00000000       0.00000000       0.00000000 </v>
   <v name="genvec1">      0.33333333       0.00000000       0.00000000 </v>
   <v name="genvec2">     -0.00000000       0.33333333       0.00000000 </v>
   <v name="genvec3">     -0.00000000       0.00000000       0.33333333 </v>
   <v name="shift">      0.00000000       0.00000000       0.00000000 </v>
  </generation>
  <varray name="kpointlist" >
   <v>       0.00000000       0.00000000       0.00000000 </v>
   <v>       0.33333333       0.00000000      -0.00000000 </v>
   <v>       0.00000000       0.33333333       0.00000000 </v>
   <v>       0.33333333       0.33333333       0.00000000 </v>
   <v>      -0.33333333       0.33333333       0.00000000 </v>
   <v>       0.00000000      -0.00000000       0.33333333 </v>
   <v>       0.33333333      -0.00000000       0.33333333 </v>
   <v>      -0.33333333       0.00000000       0.33333333 </v>
   <v>      -0.00000000       0.33333333       0.33333333 </v>
   <v>       0.33333333       0.33333333       0.33333333 </v>
   <v>      -0.33333333       0.33333333       0.33333333 </v>
   <v>       0.00000000      -0.33333333       0.33333333 </v>
   <v>       0.33333333      -0.33333333       0.33333333 </v>
   <v>      -0.33333333      -0.33333333       0.33333333 </v>
  </varray>
  <varray name="weights" >
   <v>       0.03703704 </v>
   <v>       0.07407407 </v>
   <v>       0.07407407 </v>
   <v>       0.07407407 </v>
   <v>       0.07407407 </v>
   <v>       0.07407407 </v>
   <v>       0.07407407 </v>
   <v>       0.07407407 </v>
   <v>       0.07407407 </v>
   <v>       0.07407407 </v>
   <v>       0.07407407 </v>
   <v>       0.07407407 </v>
   <v>       0.07407407 </v>
   <v>       0.07407407 </v>
  </varray>
 </kpoints>
 <parameters>
  <separator name="general" >
   <i type="string" name="SYSTEM">HECN</i>
   <i type="logical" name="LCOMPAT"> F  </i>
  </separator>
  <separator name="electronic" >
   <i type="string" name="PREC">normal</i>
   <i name="ENMAX">    400.00000000</i>
   <i name="ENAUG">    644.87300000</i>
   <i name="EDIFF">      0.00001000</i>
   <i type="int" name="IALGO">    68</i>
   <i type="int" name="IWAVPR">    11</i>
   <i type="int" name="NBANDS">   336</i>
   <i name="NELECT">    531.00000000</i>
   <i type="int" name="TURBO">     0</i>
   <i type="int" name="IRESTART">     0</i>
   <i type="int" name="NREBOOT">     0</i>
   <i type="int" name="NMIN">     0</i>
   <i name="EREF">      0.00000000</i>
   <separator name="electronic smearing" >
    <i type="int" name="ISMEAR">     0</i>
    <i name="SIGMA">      0.10000000</i>
    <i name="KSPACING">      0.50000000</i>
    <i type="logical" name="KGAMMA"> T  </i>
   </separator>
   <separator name="electronic projectors" >
    <i type="logical" name="LREAL"> F  </i>
    <v name="ROPT">      0.00000000      0.00000000      0.00000000      0.00000000      0.00000000      0.00000000      0.00000000</v>
    <i type="int" name="LMAXPAW">  -100</i>
    <i type="int" name="LMAXMIX">     2</i>
    <i type="logical" name="NLSPLINE"> F  </i>
   </separator>
   <separator name="electronic startup" >
    <i type="int" name="ISTART">     0</i>
    <i type="int" name="ICHARG">     2</i>
    <i type="int" name="INIWAV">     1</i>
   </separator>
   <separator name="electronic spin" >
    <i type="int" name="ISPIN">     1</i>
    <i type="logical" name="LNONCOLLINEAR"> F  </i>
    <v name="MAGMOM">      1.00000000      1.00000000      1.00000000      1.00000000      1.00000000      1.00000000      1.00000000      1.00000000      1.00000000      1.00000000      1.00000000      1.00000000      1.00000000      1.00000000      1.00000000      1.00000000      1.00000000      1.00000000      1.00000000      1.00000000
      1.00000000      1.00000000      1.00000000      1.00000000      1.00000000      1.00000000      1.00000000      1.00000000      1.00000000      1.00000000      1.00000000      1.00000000      1.00000000      1.00000000      1.00000000      1.00000000      1.00000000      1.00000000      1.00000000      1.00000000
      1.00000000      1.00000000      1.00000000      1.00000000      1.00000000      1.00000000      1.00000000      1.00000000      1.00000000      1.00000000      1.00000000      1.00000000      1.00000000      1.00000000      1.00000000      1.00000000      1.00000000      1.00000000      1.00000000      1.00000000
      1.00000000      1.00000000      1.00000000      1.00000000</v>
    <i name="NUPDOWN">     -1.00000000</i>
    <i type="logical" name="LSORBIT"> F  </i>
    <v name="SAXIS">      0.00000000      0.00000000      1.00000000</v>
    <i type="logical" name="LSPIRAL"> F  </i>
    <v name="QSPIRAL">      0.00000000      0.00000000      0.00000000</v>
    <i type="logical" name="LZEROZ"> F  </i>
   </separator>
   <separator name="electronic exchange-correlation" >
    <i type="logical" name="LASPH"> F  </i>
    <i type="logical" name="LMETAGGA"> F  </i>
   </separator>
   <separator name="electronic convergence" >
    <i type="int" name="NELM">    60</i>
    <i type="int" name="NELMDL">    -5</i>
    <i type="int" name="NELMIN">     2</i>
    <i name="ENINI">    400.00000000</i>
    <separator name="electronic convergence detail" >
     <i type="logical" name="LDIAG"> T  </i>
     <i type="logical" name="LSUBROT"> F  </i>
     <i name="WEIMIN">      0.00100000</i>
     <i name="EBREAK">      0.00000001</i>
     <i name="DEPER">      0.30000000</i>
     <i type="int" name="NRMM">     4</i>
     <i name="TIME">      0.40000000</i>
    </separator>
   </separator>
   <separator name="electronic mixer" >
    <i name="AMIX">      0.40000000</i>
    <i name="BMIX">      1.00000000</i>
    <i name="AMIN">      0.10000000</i>
    <i name="AMIX_MAG">      1.60000000</i>
    <i name="BMIX_MAG">      1.00000000</i>
    <separator name="electronic mixer details" >
     <i type="int" name="IMIX">     4</i>
     <i type="logical" name="MIXFIRST"> F  </i>
     <i type="int" name="MAXMIX">   -45</i>
     <i name="WC">    100.00000000</i>
     <i type="int" name="INIMIX">     1</i>
     <i type="int" name="MIXPRE">     1</i>
     <i type="int" name="MREMOVE">     5</i>
    </separator>
   </separator>
   <separator name="electronic dipolcorrection" >
    <i type="logical" name="LDIPOL"> F  </i>
    <i type="logical" name="LMONO"> F  </i>
    <i type="int" name="IDIPOL">     0</i>
    <i name="EPSILON">      1.00000000</i>
    <v name="DIPOL">   -100.00000000   -100.00000000   -100.00000000</v>
    <i name="EFIELD">      0.00000000</i>
   </separator>
  </separator>
  <separator name="grids" >
   <i type="int" name="NGX">    48</i>
   <i type="int" name="NGY">    48</i>
   <i type="int" name="NGZ">    42</i>
   <i type="int" name="NGXF">    96</i>
   <i type="int" name="NGYF">    96</i>
   <i type="int" name="NGZF">    84</i>
   <i type="logical" name="ADDGRID"> F  </i>
  </separator>
  <separator name="ionic" >
   <i type="int" name="NSW">   100</i>
   <i type="int" name="IBRION">     2</i>
   <i type="int" name="MDALGO">     0</i>
   <i type="int" name="ISIF">     3</i>
   <i name="PSTRESS">      0.00000000</i>
   <i name="EDIFFG">     -0.01000000</i>
   <i type="int" name="NFREE">     1</i>
   <i name="POTIM">      0.50000000</i>
   <i name="SMASS">     -3.00000000</i>
   <i name="SCALEE">      1.00000000</i>
  </separator>
  <separator name="ionic md" >
   <i name="TEBEG">      0.00010000</i>
   <i name="TEEND">      0.00010000</i>
   <i type="int" name="NBLOCK">     1</i>
   <i type="int" name="KBLOCK">   100</i>
   <i type="int" name="NPACO">   256</i>
   <i name="APACO">     16.00000000</i>
  </separator>
  <separator name="symmetry" >
   <i type="int" name="ISYM">     2</i>
   <i name="SYMPREC">      0.00001000</i>
  </separator>
  <separator name="dos" >
   <i type="int" name="LORBIT">     0</i>
   <v name="RWIGS">     -1.00000000     -1.00000000     -1.00000000     -1.00000000     -1.00000000     -1.00000000     -1.00000000</v>
   <i type="int" name="NEDOS">   301</i>
   <i name="EMIN">     10.00000000</i>
   <i name="EMAX">    -10.00000000</i>
   <i name="EFERMI">      0.00000000</i>
  </separator>
  <separator name="writing" >
   <i type="int" name="NWRITE">     2</i>
   <i type="logical" name="LWAVE"> F  </i>
   <i type="logical" name="LDOWNSAMPLE"> F  </i>
   <i type="logical" name="LCHARG"> F  </i>
   <i type="logical" name="LPARD"> F  </i>
   <i type="logical" name="LVTOT"> F  </i>
   <i type="logical" name="LVHAR"> F  </i>
   <i type="logical" name="LELF"> F  </i>
   <i type="logical" name="LOPTICS"> F  </i>
   <v name="STM">      0.00000000      0.00000000      0.00000000      0.00000000      0.00000000      0.00000000      0.00000000</v>
  </separator>
  <separator name="performance" >
   <i type="int" name="NPAR">    24</i>
   <i type="int" name="NSIM">     4</i>
   <i type="int" name="NBLK">    -1</i>
   <i type="logical" name="LPLANE"> T  </i>
   <i type="logical" name="LSCALAPACK"> T  </i>
   <i type="logical" name="LSCAAWARE"> F  </i>
   <i type="logical" name="LSCALU"> F  </i>
   <i type="logical" name="LASYNC"> F  </i>
   <i type="logical" name="LORBITALREAL"> F  </i>
  </separator>
  <separator name="miscellaneous" >
   <i type="int" name="IDIOT">     3</i>
   <i type="int" name="ISPECIAL">     0</i>
   <i type="logical" name="LMUSIC"> F  </i>
   <v name="POMASS">     91.22400000     50.94100000     47.88000000     14.00100000     12.01100000     51.99600000    183.85000000</v>
   <v name="DARWINR">      0.00000000      0.00000000      0.00000000      0.00000000      0.00000000      0.00000000      0.00000000</v>
   <v name="DARWINV">      1.00000000      1.00000000      1.00000000      1.00000000      1.00000000      1.00000000      1.00000000</v>
   <i type="logical" name="LCORR"> T  </i>
  </separator>
  <i type="logical" name="GGA_COMPAT"> T  </i>
  <i type="logical" name="LBERRY"> F  </i>
  <i type="int" name="ICORELEVEL">     0</i>
  <i type="logical" name="LDAU"> F  </i>
  <i type="int" name="I_CONSTRAINED_M">     0</i>
  <separator name="electronic exchange-correlation" >
   <i type="string" name="GGA">--</i>
   <i type="int" name="VOSKOWN">     0</i>
   <i type="logical" name="LHFCALC"> F  </i>
   <i type="string" name="PRECFOCK"></i>
   <i type="logical" name="LSYMGRAD"> F  </i>
   <i type="logical" name="LHFONE"> F  </i>
   <i type="logical" name="LRHFCALC"> F  </i>
   <i type="logical" name="LTHOMAS"> F  </i>
   <i type="logical" name="LMODELHF"> F  </i>
   <i name="ENCUT4O">     -1.00000000</i>
   <i type="int" name="EXXOEP">     0</i>
   <i type="int" name="FOURORBIT">     0</i>
   <i name="AEXX">      0.00000000</i>
   <i name="HFALPHA">      0.00000000</i>
   <i name="MCALPHA">      0.00000000</i>
   <i name="ALDAX">      1.00000000</i>
   <i name="AGGAX">      1.00000000</i>
   <i name="ALDAC">      1.00000000</i>
   <i name="AGGAC">      1.00000000</i>
   <i type="int" name="NKREDX">     1</i>
   <i type="int" name="NKREDY">     1</i>
   <i type="int" name="NKREDZ">     1</i>
   <i type="logical" name="SHIFTRED"> F  </i>
   <i type="logical" name="ODDONLY"> F  </i>
   <i type="logical" name="EVENONLY"> F  </i>
   <i type="int" name="LMAXFOCK">     0</i>
   <i type="int" name="NMAXFOCKAE">     0</i>
   <i type="logical" name="LFOCKAEDFT"> F  </i>
   <i name="HFSCREEN">      0.00000000</i>
   <i name="HFSCREENC">      0.00000000</i>
   <i type="int" name="NBANDSGWLOW">     0</i>
  </separator>
  <separator name="vdW DFT" >
   <i type="logical" name="LUSE_VDW"> F  </i>
   <i name="Zab_VDW">     -0.84910000</i>
   <i name="PARAM1">      0.12340000</i>
   <i name="PARAM2">      1.00000000</i>
   <i name="PARAM3">      0.00000000</i>
  </separator>
  <separator name="model GW" >
   <i type="int" name="MODEL_GW">     0</i>
   <i name="MODEL_EPS0">      6.16929937</i>
   <i name="MODEL_ALPHA">      1.00000000</i>
  </separator>
  <separator name="linear response parameters" >
   <i type="logical" name="LEPSILON"> F  </i>
   <i type="logical" name="LRPA"> F  </i>
   <i type="logical" name="LNABLA"> F  </i>
   <i type="logical" name="LVEL"> F  </i>
   <i type="int" name="KINTER">     0</i>
   <i name="CSHIFT">      0.10000000</i>
   <i name="OMEGAMAX">     -1.00000000</i>
   <i name="DEG_THRESHOLD">      0.00200000</i>
   <i name="RTIME">     -0.10000000</i>
   <i name="WPLASMAI">      0.00000000</i>
   <v name="DFIELD">      0.00000000      0.00000000      0.00000000</v>
   <v name="WPLASMA">      0.00000000      0.00000000      0.00000000      0.00000000      0.00000000      0.00000000      0.00000000      0.00000000      0.00000000</v>
  </separator>
  <separator name="orbital magnetization" >
   <i type="logical" name="NUCIND"> F  </i>
   <v name="MAGPOS">      0.00000000      0.00000000      0.00000000</v>
   <i type="logical" name="LNICSALL"> T  </i>
   <i type="logical" name="ORBITALMAG"> F  </i>
   <i type="logical" name="LMAGBLOCH"> F  </i>
   <i type="logical" name="LCHIMAG"> F  </i>
   <i type="logical" name="LGAUGE"> T  </i>
   <i type="int" name="MAGATOM">     0</i>
   <v name="MAGDIPOL">      0.00000000      0.00000000      0.00000000</v>
   <v name="AVECCONST">      0.00000000      0.00000000      0.00000000</v>
  </separator>
  <separator name="response functions" >
   <i type="logical" name="LADDER"> F  </i>
   <i type="logical" name="LRPAFORCE"> F  </i>
   <i type="logical" name="LFXC"> F  </i>
   <i type="logical" name="LHARTREE"> T  </i>
   <i type="int" name="IBSE">     0</i>
   <v type="int" name="KPOINT">    -1     0     0     0</v>
   <i type="logical" name="LTCTE"> F  </i>
   <i type="logical" name="LTETE"> F  </i>
   <i type="logical" name="LTRIPLET"> F  </i>
   <i type="logical" name="LFXCEPS"> F  </i>
   <i type="logical" name="LFXHEG"> F  </i>
   <i type="int" name="NATURALO">     2</i>
   <i type="logical" name="L2ORDER"> F  </i>
   <i type="logical" name="LMP2LT"> F  </i>
   <i type="logical" name="LUSEW"> F  </i>
   <i name="ENCUTGW">     -2.00000000</i>
   <i name="ENCUTGWSOFT">     -2.00000000</i>
   <i name="ENCUTLF">     -1.00000000</i>
   <i type="int" name="LMAXMP2">    -1</i>
   <i name="SCISSOR">      0.00000000</i>
   <i type="int" name="NOMEGA">     0</i>
   <i type="int" name="NOMEGAR">     0</i>
   <i type="int" name="NBANDSGW">    -1</i>
   <i type="int" name="NBANDSO">    -1</i>
   <i type="int" name="NBANDSV">    -1</i>
   <i type="int" name="NELM">    60</i>
   <i type="int" name="NELMHF">     1</i>
   <i type="int" name="DIM">     3</i>
   <i type="int" name="ANTIRES">     0</i>
   <i name="OMEGAMAX">    -30.00000000</i>
   <i name="OMEGAMIN">    -30.00000000</i>
   <i name="OMEGATL">   -200.00000000</i>
   <i type="int" name="OMEGAGRID">   140</i>
   <i name="CSHIFT">     -0.10000000</i>
   <i type="logical" name="SELFENERGY"> F  </i>
   <i type="logical" name="LSPECTRAL"> F  </i>
   <i type="logical" name="LSPECTRALGW"> F  </i>
   <i type="logical" name="LSINGLES"> F  </i>
   <i type="logical" name="LFERMIGW"> F  </i>
   <i type="logical" name="ODDONLYGW"> F  </i>
   <i type="logical" name="EVENONLYGW"> F  </i>
   <i type="int" name="NKREDLFX">     1</i>
   <i type="int" name="NKREDLFY">     1</i>
   <i type="int" name="NKREDLFZ">     1</i>
   <i type="int" name="MAXMEM">  2800</i>
   <i type="int" name="TELESCOPE">     0</i>
   <i type="int" name="TAUPAR">     1</i>
   <i type="int" name="OMEGAPAR">    -1</i>
   <i name="LAMBDA">      1.00000000</i>
  </separator>
  <separator name="External order field" >
   <i name="OFIELD_KAPPA">      0.00000000</i>
   <v name="OFIELD_K">      0.00000000      0.00000000      0.00000000</v>
   <i name="OFIELD_Q6_NEAR">      0.00000000</i>
   <i name="OFIELD_Q6_FAR">      0.00000000</i>
   <i name="OFIELD_A">      0.00000000</i>
  </separator>
 </parameters>
 <atominfo>
  <atoms>      64 </atoms>
  <types>       7 </types>
  <array name="atoms" >
   <dimension dim="1">ion</dimension>
   <field type="string">element</field>
   <field type="int">atomtype</field>
   <set>
    <rc><c>Zr</c><c>   1</c></rc>
    <rc><c>Zr</c><c>   1</c></rc>
    <rc><c>Zr</c><c>   1</c></rc>
    <rc><c>Zr</c><c>   1</c></rc>
    <rc><c>Zr</c><c>   1</c></rc>
    <rc><c>Zr</c><c>   1</c></rc>
    <rc><c>Zr</c><c>   1</c></rc>
    <rc><c>V </c><c>   2</c></rc>
    <rc><c>V </c><c>   2</c></rc>
    <rc><c>V </c><c>   2</c></rc>
    <rc><c>V </c><c>   2</c></rc>
    <rc><c>V </c><c>   2</c></rc>
    <rc><c>V </c><c>   2</c></rc>
    <rc><c>Ti</c><c>   3</c></rc>
    <rc><c>Ti</c><c>   3</c></rc>
    <rc><c>Ti</c><c>   3</c></rc>
    <rc><c>Ti</c><c>   3</c></rc>
    <rc><c>Ti</c><c>   3</c></rc>
    <rc><c>Ti</c><c>   3</c></rc>
    <rc><c>Ti</c><c>   3</c></rc>
    <rc><c>N </c><c>   4</c></rc>
    <rc><c>N </c><c>   4</c></rc>
    <rc><c>N </c><c>   4</c></rc>
    <rc><c>N </c><c>   4</c></rc>
    <rc><c>N </c><c>   4</c></rc>
    <rc><c>N </c><c>   4</c></rc>
    <rc><c>N </c><c>   4</c></rc>
    <rc><c>N </c><c>   4</c></rc>
    <rc><c>N </c><c>   4</c></rc>
    <rc><c>N </c><c>   4</c></rc>
    <rc><c>N </c><c>   4</c></rc>
    <rc><c>N </c><c>   4</c></rc>
    <rc><c>N </c><c>   4</c></rc>
    <rc><c>C </c><c>   5</c></rc>
    <rc><c>C </c><c>   5</c></rc>
    <rc><c>C </c><c>   5</c></rc>
    <rc><c>C </c><c>   5</c></rc>
    <rc><c>C </c><c>   5</c></rc>
    <rc><c>C </c><c>   5</c></rc>
    <rc><c>C </c><c>   5</c></rc>
    <rc><c>C </c><c>   5</c></rc>
    <rc><c>C </c><c>   5</c></rc>
    <rc><c>C </c><c>   5</c></rc>
    <rc><c>C </c><c>   5</c></rc>
    <rc><c>C </c><c>   5</c></rc>
    <rc><c>C </c><c>   5</c></rc>
    <rc><c>C </c><c>   5</c></rc>
    <rc><c>C </c><c>   5</c></rc>
    <rc><c>C </c><c>   5</c></rc>
    <rc><c>C </c><c>   5</c></rc>
    <rc><c>C </c><c>   5</c></rc>
    <rc><c>C </c><c>   5</c></rc>
    <rc><c>Cr</c><c>   6</c></rc>
    <rc><c>Cr</c><c>   6</c></rc>
    <rc><c>Cr</c><c>   6</c></rc>
    <rc><c>Cr</c><c>   6</c></rc>
    <rc><c>Cr</c><c>   6</c></rc>
    <rc><c>Cr</c><c>   6</c></rc>
    <rc><c>W </c><c>   7</c></rc>
    <rc><c>W </c><c>   7</c></rc>
    <rc><c>W </c><c>   7</c></rc>
    <rc><c>W </c><c>   7</c></rc>
    <rc><c>W </c><c>   7</c></rc>
    <rc><c>W </c><c>   7</c></rc>
   </set>
  </array>
  <array name="atomtypes" >
   <dimension dim="1">type</dimension>
   <field type="int">atomspertype</field>
   <field type="string">element</field>
   <field>mass</field>
   <field>valence</field>
   <field type="string">pseudopotential</field>
   <set>
    <rc><c>   7</c><c>Zr</c><c>     91.22400000</c><c>     12.00000000</c><c> PAW_PBE Zr_sv 07Sep2000                </c></rc>
    <rc><c>   6</c><c>V </c><c>     50.94100000</c><c>     13.00000000</c><c> PAW_PBE V_sv 07Sep2000                 </c></rc>
    <rc><c>   7</c><c>Ti</c><c>     47.88000000</c><c>     12.00000000</c><c> PAW_PBE Ti_sv 07Sep2000                </c></rc>
    <rc><c>  13</c><c>N </c><c>     14.00100000</c><c>      5.00000000</c><c> PAW_PBE N 08Apr2002                    </c></rc>
    <rc><c>  19</c><c>C </c><c>     12.01100000</c><c>      4.00000000</c><c> PAW_PBE C 08Apr2002                    </c></rc>
    <rc><c>   6</c><c>Cr</c><c>     51.99600000</c><c>     12.00000000</c><c> PAW_PBE Cr_pv 07Sep2000                </c></rc>
    <rc><c>   6</c><c>W </c><c>    183.85000000</c><c>     12.00000000</c><c> PAW_PBE W_pv 06Sep2000                 </c></rc>
   </set>
  </array>
 </atominfo>
 <structure name="initialpos" >
  <crystal>
   <varray name="basis" >
    <v>       8.69065567       0.01902955      -0.00731240 </v>
    <v>       0.02494514       8.73777087      -0.01503056 </v>
    <v>       0.02386613      -0.02993938       8.66593972 </v>
   </varray>
   <i name="volume">    658.05859914 </i>
   <varray name="rec_basis" >
    <v>       0.11506657      -0.00032905      -0.00031803 </v>
    <v>      -0.00025027       0.11444706       0.00039608 </v>
    <v>       0.00009666       0.00019822       0.11539471 </v>
   </varray>
  </crystal>
  <varray name="positions" >
   <v>       0.99653003       0.00375697       0.99156922 </v>
   <v>       0.26725944       0.00123888       0.24666731 </v>
   <v>       0.24193813       0.49347842       0.24635527 </v>
   <v>       0.49814753       0.49898597       0.99939489 </v>
   <v>       0.51222534       0.24543626       0.73871736 </v>
   <v>       0.99872103       0.50036117       0.50257482 </v>
   <v>       0.49109784       0.75861290       0.75555841 </v>
   <v>       0.98523635       0.22755576       0.26638023 </v>
   <v>       0.76816981       0.74174317       0.00679961 </v>
   <v>       0.00317045       0.24730553       0.73496356 </v>
   <v>       0.76169769       0.24747752       0.48709269 </v>
   <v>       0.00203391       0.73708168       0.76146687 </v>
   <v>       0.23947832       0.48395786       0.75291163 </v>
   <v>       0.24525918       0.24669897       0.99153706 </v>
   <v>       0.51410387       0.25266751       0.25307762 </v>
   <v>       0.74056823       0.99549324       0.26438020 </v>
   <v>       0.75589675       0.25299306       0.99873044 </v>
   <v>       0.24098283       0.74773454       0.99634488 </v>
   <v>       0.25210007       0.24816669       0.50196298 </v>
   <v>       0.24777343       0.75183032       0.50603808 </v>
   <v>       0.24841057       0.24643694       0.24959260 </v>
   <v>       0.25599477       0.00294907       0.98758097 </v>
   <v>       0.00036637       0.25876198       0.00253085 </v>
   <v>       0.75352351       0.24890889       0.24948874 </v>
   <v>       0.74339097       0.99872148       0.00120316 </v>
   <v>       0.51404222       0.00246735       0.25208059 </v>
   <v>       0.98738433       0.49651797       0.24204673 </v>
   <v>       0.49756879       0.76291129       0.01092767 </v>
   <v>       0.98419329       0.00675717       0.73968998 </v>
   <v>       0.76477252       0.25536247       0.75014271 </v>
   <v>       0.75367185       0.00733807       0.50564467 </v>
   <v>       0.50486141       0.25060725       0.48759134 </v>
   <v>       0.51750184       0.00076306       0.74442534 </v>
   <v>       0.99523966       0.00207949       0.25432789 </v>
   <v>       0.50409758       0.23750539       0.00172214 </v>
   <v>       0.25018680       0.74807821       0.24978152 </v>
   <v>       0.23845948       0.49858805       0.98880318 </v>
   <v>       0.99984985       0.74148157       0.00188694 </v>
   <v>       0.74383478       0.75153109       0.24526831 </v>
   <v>       0.76214555       0.50318042       0.00509359 </v>
   <v>       0.49864741       0.49670888       0.25225008 </v>
   <v>       0.24415056       0.24960694       0.74705674 </v>
   <v>       0.25852085       0.00090197       0.51620119 </v>
   <v>       0.00121914       0.24593880       0.50122889 </v>
   <v>       0.23342953       0.75342854       0.75198601 </v>
   <v>       0.25629136       0.50015240       0.50874081 </v>
   <v>       0.99753893       0.75860109       0.50700687 </v>
   <v>       0.00378952       0.49623155       0.75826026 </v>
   <v>       0.75639501       0.75400225       0.75538801 </v>
   <v>       0.74490867       0.49284833       0.50621971 </v>
   <v>       0.49681849       0.76111829       0.48890274 </v>
   <v>       0.50152822       0.50201165       0.74155533 </v>
   <v>       0.52544316       0.01140798       0.97584528 </v>
   <v>       0.99946542       0.50873747       0.98295687 </v>
   <v>       0.49244308       0.73050815       0.25310698 </v>
   <v>       0.21643551       0.02125475       0.74513230 </v>
   <v>       0.48407450       0.98549972       0.50606628 </v>
   <v>       0.73909744       0.96861583       0.77643067 </v>
   <v>       0.00491816       0.76771649       0.24990701 </v>
   <v>       0.73948138       0.50889226       0.25485007 </v>
   <v>       0.01542733       0.00394469       0.50393018 </v>
   <v>       0.50275700       0.51625616       0.49325811 </v>
   <v>       0.75815839       0.51584261       0.75851484 </v>
   <v>       0.74717497       0.74624932       0.49285282 </v>
  </varray>
 </structure>
 <calculation>
  <scstep>
   <time name="dav">   20.32   20.36</time>
   <time name="total">   20.35   20.40</time>
   <energy>
    <i name="alphaZ">   4894.73233124 </i>
    <i name="ewald"> -46712.18016594 </i>
    <i name="hartreedc"> -10390.64165537 </i>
    <i name="XCdc">   2297.23587729 </i>
    <i name="pawpsdc">  36131.15543813 </i>
    <i name="pawaedc"> -36212.52875792 </i>
    <i name="eentropy">     -0.09818172 </i>
    <i name="bandstr">   1728.54691844 </i>
    <i name="atom">  55483.33875125 </i>
    <i name="e_fr_energy">   7219.56055540 </i>
    <i name="e_wo_entrp">   7219.65873711 </i>
    <i name="e_0_energy">   7219.60964625 </i>
   </energy>
  </scstep>
  <scstep>
   <time name="dav">   20.87   20.91</time>
   <time name="total">   20.87   20.91</time>
   <energy>
    <i name="e_fr_energy">    433.86623130 </i>
    <i name="e_wo_entrp">    434.00007250 </i>
    <i name="e_0_energy">    433.93315190 </i>
   </energy>
  </scstep>
  <scstep>
   <time name="dav">   28.04   28.06</time>
   <time name="total">   28.04   28.06</time>
   <energy>
    <i name="e_fr_energy">   -633.94634225 </i>
    <i name="e_wo_entrp">   -633.84140851 </i>
    <i name="e_0_energy">   -633.89387538 </i>
   </energy>
  </scstep>
  <scstep>
   <time name="dav">   34.78   34.81</time>
   <time name="total">   34.78   34.81</time>
   <energy>
    <i name="e_fr_energy">   -777.21249765 </i>
    <i name="e_wo_entrp">   -777.12036592 </i>
    <i name="e_0_energy">   -777.16643178 </i>
   </energy>
  </scstep>
  <scstep>
   <time name="dav">   36.37   36.43</time>
   <time name="total">   36.61   36.67</time>
   <energy>
    <i name="e_fr_energy">   -789.22799503 </i>
    <i name="e_wo_entrp">   -789.13798852 </i>
    <i name="e_0_energy">   -789.18299177 </i>
   </energy>
  </scstep>
  <scstep>
   <time name="diag">    1.86    1.87</time>
   <time name="diis">   17.80   17.84</time>
   <time name="orth">    0.47    0.47</time>
   <time name="total">   20.40   20.44</time>
   <energy>
    <i name="e_fr_energy">   -844.15001783 </i>
    <i name="e_wo_entrp">   -844.01284522 </i>
    <i name="e_0_energy">   -844.08143152 </i>
   </energy>
  </scstep>
  <scstep>
   <time name="diag">    1.82    1.85</time>
   <time name="diis">   20.14   20.72</time>
   <time name="orth">    0.49    0.49</time>
   <time name="total">   22.72   23.34</time>
   <energy>
    <i name="e_fr_energy">   -658.01955614 </i>
    <i name="e_wo_entrp">   -657.84571984 </i>
    <i name="e_0_energy">   -657.93263799 </i>
   </energy>
  </scstep>
  <scstep>
   <time name="diag">    1.85    1.86</time>
   <time name="diis">   21.29   21.31</time>
   <time name="orth">    0.47    0.47</time>
   <time name="total">   23.87   23.89</time>
   <energy>
    <i name="e_fr_energy">   -639.08817250 </i>
    <i name="e_wo_entrp">   -638.95543951 </i>
    <i name="e_0_energy">   -639.02180601 </i>
   </energy>
  </scstep>
  <scstep>
   <time name="diag">    1.85    1.85</time>
   <time name="diis">   21.41   21.44</time>
   <time name="orth">    0.48    0.48</time>
   <time name="total">   24.00   24.03</time>
   <energy>
    <i name="e_fr_energy">   -628.81998138 </i>
    <i name="e_wo_entrp">   -628.67619780 </i>
    <i name="e_0_energy">   -628.74808959 </i>
   </energy>
  </scstep>
  <scstep>
   <time name="diag">    1.84    1.87</time>
   <time name="diis">   21.44   22.09</time>
   <time name="orth">    0.46    0.47</time>
   <time name="total">   24.00   24.70</time>
   <energy>
    <i name="e_fr_energy">   -628.37471847 </i>
    <i name="e_wo_entrp">   -628.24146082 </i>
    <i name="e_0_energy">   -628.30808964 </i>
   </energy>
  </scstep>
  <scstep>
   <time name="diag">    1.85    1.85</time>
   <time name="diis">   20.95   21.00</time>
   <time name="orth">    0.47    0.47</time>
   <time name="total">   23.52   23.58</time>
   <energy>
    <i name="e_fr_energy">   -627.88067275 </i>
    <i name="e_wo_entrp">   -627.74419526 </i>
    <i name="e_0_energy">   -627.81243400 </i>
   </energy>
  </scstep>
  <scstep>
   <time name="diag">    1.88    1.96</time>
   <time name="diis">   21.44   21.49</time>
   <time name="orth">    0.47    0.47</time>
   <time name="total">   24.05   24.18</time>
   <energy>
    <i name="e_fr_energy">   -627.39057316 </i>
    <i name="e_wo_entrp">   -627.26278727 </i>
    <i name="e_0_energy">   -627.32668022 </i>
   </energy>
  </scstep>
  <scstep>
   <time name="diag">    1.82    1.86</time>
   <time name="diis">   20.71   21.25</time>
   <time name="orth">    0.47    0.47</time>
   <time name="total">   23.26   23.84</time>
   <energy>
    <i name="e_fr_energy">   -627.39211782 </i>
    <i name="e_wo_entrp">   -627.24852928 </i>
    <i name="e_0_energy">   -627.32032355 </i>
   </energy>
  </scstep>
  <scstep>
   <time name="diag">    1.85    1.85</time>
   <time name="diis">   19.85   19.93</time>
   <time name="orth">    0.47    0.47</time>
   <time name="total">   22.43   22.51</time>
   <energy>
    <i name="e_fr_energy">   -627.38435860 </i>
    <i name="e_wo_entrp">   -627.23651675 </i>
    <i name="e_0_energy">   -627.31043767 </i>
   </energy>
  </scstep>
  <scstep>
   <time name="diag">    1.84    1.87</time>
   <time name="diis">   20.68   20.70</time>
   <time name="orth">    0.47    0.47</time>
   <time name="total">   23.24   23.31</time>
   <energy>
    <i name="e_fr_energy">   -627.28148182 </i>
    <i name="e_wo_entrp">   -627.14244177 </i>
    <i name="e_0_energy">   -627.21196180 </i>
   </energy>
  </scstep>
  <scstep>
   <time name="diag">    1.83    1.85</time>
   <time name="diis">   20.42   20.48</time>
   <time name="orth">    0.48    0.48</time>
   <time name="total">   22.98   23.07</time>
   <energy>
    <i name="e_fr_energy">   -627.25048566 </i>
    <i name="e_wo_entrp">   -627.10473787 </i>
    <i name="e_0_energy">   -627.17761176 </i>
   </energy>
  </scstep>
  <scstep>
   <time name="diag">    1.85    1.85</time>
   <time name="diis">   21.61   21.62</time>
   <time name="orth">    0.47    0.47</time>
   <time name="total">   24.19   24.20</time>
   <energy>
    <i name="e_fr_energy">   -627.01808685 </i>
    <i name="e_wo_entrp">   -626.87730908 </i>
    <i name="e_0_energy">   -626.94769796 </i>
   </energy>
  </scstep>
  <scstep>
   <time name="diag">    1.85    1.85</time>
   <time name="diis">   21.22   21.27</time>
   <time name="orth">    0.47    0.47</time>
   <time name="total">   23.80   23.85</time>
   <energy>
    <i name="e_fr_energy">   -627.02528642 </i>
    <i name="e_wo_entrp">   -626.88295883 </i>
    <i name="e_0_energy">   -626.95412263 </i>
   </energy>
  </scstep>
  <scstep>
   <time name="diag">    1.89    1.91</time>
   <time name="diis">   21.29   21.31</time>
   <time name="orth">    0.49    0.49</time>
   <time name="total">   23.93   23.98</time>
   <energy>
    <i name="e_fr_energy">   -627.01732946 </i>
    <i name="e_wo_entrp">   -626.87575743 </i>
    <i name="e_0_energy">   -626.94654344 </i>
   </energy>
  </scstep>
  <scstep>
   <time name="diag">    1.82    1.86</time>
   <time name="diis">   20.66   21.13</time>
   <time name="orth">    0.47    0.47</time>
   <time name="total">   23.21   23.72</time>
   <energy>
    <i name="e_fr_energy">   -627.01139323 </i>
    <i name="e_wo_entrp">   -626.86977960 </i>
    <i name="e_0_energy">   -626.94058642 </i>
   </energy>
  </scstep>
  <scstep>
   <time name="diag">    1.85    1.85</time>
   <time name="diis">   21.22   21.27</time>
   <time name="orth">    0.47    0.47</time>
   <time name="total">   23.79   23.84</time>
   <energy>
    <i name="e_fr_energy">   -627.01236833 </i>
    <i name="e_wo_entrp">   -626.87213649 </i>
    <i name="e_0_energy">   -626.94225241 </i>
   </energy>
  </scstep>
  <scstep>
   <time name="diag">    1.85    1.85</time>
   <time name="diis">   20.93   21.00</time>
   <time name="orth">    0.47    0.47</time>
   <time name="total">   23.51   23.59</time>
   <energy>
    <i name="e_fr_energy">   -627.01259254 </i>
    <i name="e_wo_entrp">   -626.87260629 </i>
    <i name="e_0_energy">   -626.94259941 </i>
   </energy>
  </scstep>
  <scstep>
   <time name="diag">    1.86    1.86</time>
   <time name="diis">   21.38   21.41</time>
   <time name="orth">    0.47    0.47</time>
   <time name="total">   23.96   24.00</time>
   <energy>
    <i name="e_fr_energy">   -627.00755274 </i>
    <i name="e_wo_entrp">   -626.86697517 </i>
    <i name="e_0_energy">   -626.93726396 </i>
   </energy>
  </scstep>
  <scstep>
   <time name="diag">    1.88    1.89</time>
   <time name="diis">   21.12   21.18</time>
   <time name="orth">    0.47    0.47</time>
   <time name="total">   23.73   23.79</time>
   <energy>
    <i name="e_fr_energy">   -627.00743061 </i>
    <i name="e_wo_entrp">   -626.86745628 </i>
    <i name="e_0_energy">   -626.93744345 </i>
   </energy>
  </scstep>
  <scstep>
   <time name="diag">    1.87    1.88</time>
   <time name="diis">   20.97   20.99</time>
   <time name="orth">    0.47    0.47</time>
   <time name="total">   23.57   23.60</time>
   <energy>
    <i name="e_fr_energy">   -627.00701553 </i>
    <i name="e_wo_entrp">   -626.86624459 </i>
    <i name="e_0_energy">   -626.93663006 </i>
   </energy>
  </scstep>
  <scstep>
   <time name="diag">    1.83    1.86</time>
   <time name="diis">   19.97   20.59</time>
   <time name="orth">    0.47    0.48</time>
   <time name="total">   22.53   23.20</time>
   <energy>
    <i name="e_fr_energy">   -627.00703491 </i>
    <i name="e_wo_entrp">   -626.86615414 </i>
    <i name="e_0_energy">   -626.93659453 </i>
   </energy>
  </scstep>
  <scstep>
   <time name="diag">    1.84    1.87</time>
   <time name="diis">   18.90   19.52</time>
   <time name="orth">    0.47    0.47</time>
   <time name="total">   21.47   22.13</time>
   <energy>
    <i name="e_fr_energy">   -627.00703748 </i>
    <i name="e_wo_entrp">   -626.86620805 </i>
    <i name="e_0_energy">   -626.93662276 </i>
   </energy>
  </scstep>
  <scstep>
   <time name="diag">    1.83    1.85</time>
   <time name="diis">   18.44   18.70</time>
   <time name="orth">    0.46    0.47</time>
   <time name="total">   21.00   21.29</time>
   <energy>
    <i name="e_fr_energy">   -627.00713283 </i>
    <i name="e_wo_entrp">   -626.86637454 </i>
    <i name="e_0_energy">   -626.93675368 </i>
   </energy>
  </scstep>
  <scstep>
   <time name="diag">    1.84    1.87</time>
   <time name="diis">   17.88   17.92</time>
   <time name="orth">    0.47    0.47</time>
   <time name="total">   20.45   20.52</time>
   <energy>
    <i name="e_fr_energy">   -627.00712730 </i>
    <i name="e_wo_entrp">   -626.86635585 </i>
    <i name="e_0_energy">   -626.93674157 </i>
   </energy>
  </scstep>
  <scstep>
   <time name="diag">    1.85    1.85</time>
   <time name="diis">   17.29   17.30</time>
   <time name="orth">    0.47    0.47</time>
   <time name="total">   19.86   19.88</time>
   <energy>
    <i name="e_fr_energy">   -627.00714691 </i>
    <i name="e_wo_entrp">   -626.86635399 </i>
    <i name="e_0_energy">   -626.93675045 </i>
   </energy>
  </scstep>
  <scstep>
   <time name="diag">    1.85    1.85</time>
   <time name="diis">   17.63   17.65</time>
   <time name="orth">    0.49    0.49</time>
   <time name="total">   20.23   20.25</time>
   <energy>
    <i name="e_fr_energy">   -627.00717388 </i>
    <i name="e_wo_entrp">   -626.86639262 </i>
    <i name="e_0_energy">   -626.93678325 </i>
   </energy>
  </scstep>
  <scstep>
   <time name="diag">    1.85    1.85</time>
   <time name="diis">   14.66   14.67</time>
   <time name="orth">    0.47    0.47</time>
   <time name="total">   17.27   17.29</time>
   <energy>
    <i name="e_fr_energy">   -627.00718595 </i>
    <i name="e_wo_entrp">   -626.86640265 </i>
    <i name="e_0_energy">   -626.93679430 </i>
   </energy>
  </scstep>
  <scstep>
   <time name="diag">    1.90    1.94</time>
   <time name="diis">   15.99   16.50</time>
   <time name="orth">    0.47    0.47</time>
   <time name="total">   18.62   19.18</time>
   <energy>
    <i name="e_fr_energy">   -627.00719515 </i>
    <i name="e_wo_entrp">   -626.86640940 </i>
    <i name="e_0_energy">   -626.93680228 </i>
   </energy>
  </scstep>
  <scstep>
   <time name="diag">    1.85    1.85</time>
   <time name="diis">   14.39   14.39</time>
   <time name="orth">    0.47    0.47</time>
   <time name="total">   16.73   16.74</time>
   <energy>
    <i name="alphaZ">   4894.73233124 </i>
    <i name="ewald"> -46712.18016594 </i>
    <i name="hartreedc">  -9662.55748391 </i>
    <i name="XCdc">   2275.81537387 </i>
    <i name="pawpsdc">  37746.42987365 </i>
    <i name="pawaedc"> -37870.34602014 </i>
    <i name="eentropy">     -0.14078453 </i>
    <i name="bandstr">  -6782.09907691 </i>
    <i name="atom">  55483.33875125 </i>
    <i name="e_fr_energy">   -627.00720143 </i>
    <i name="e_wo_entrp">   -626.86641690 </i>
    <i name="e_0_energy">   -626.93680917 </i>
   </energy>
  </scstep>
  <structure>
   <crystal>
    <varray name="basis" >
     <v>       8.69065567       0.01902955      -0.00731240 </v>
     <v>       0.02494514       8.73777087      -0.01503056 </v>
     <v>       0.02386613      -0.02993938       8.66593972 </v>
    </varray>
    <i name="volume">    658.05859914 </i>
    <varray name="rec_basis" >
     <v>       0.11506657      -0.00032905      -0.00031803 </v>
     <v>      -0.00025027       0.11444706       0.00039608 </v>
     <v>       0.00009666       0.00019822       0.11539471 </v>
    </varray>
   </crystal>
   <varray name="positions" >
    <v>       0.99653003       0.00375697       0.99156922 </v>
    <v>       0.26725944       0.00123888       0.24666731 </v>
    <v>       0.24193813       0.49347842       0.24635527 </v>
    <v>       0.49814753       0.49898597       0.99939489 </v>
    <v>       0.51222534       0.24543626       0.73871736 </v>
    <v>       0.99872103       0.50036117       0.50257482 </v>
    <v>       0.49109784       0.75861290       0.75555841 </v>
    <v>       0.98523635       0.22755576       0.26638023 </v>
    <v>       0.76816981       0.74174317       0.00679961 </v>
    <v>       0.00317045       0.24730553       0.73496356 </v>
    <v>       0.76169769       0.24747752       0.48709269 </v>
    <v>       0.00203391       0.73708168       0.76146687 </v>
    <v>       0.23947832       0.48395786       0.75291163 </v>
    <v>       0.24525918       0.24669897       0.99153706 </v>
    <v>       0.51410387       0.25266751       0.25307762 </v>
    <v>       0.74056823       0.99549324       0.26438020 </v>
    <v>       0.75589675       0.25299306       0.99873044 </v>
    <v>       0.24098283       0.74773454       0.99634488 </v>
    <v>       0.25210007       0.24816669       0.50196298 </v>
    <v>       0.24777343       0.75183032       0.50603808 </v>
    <v>       0.24841057       0.24643694       0.24959260 </v>
    <v>       0.25599477       0.00294907       0.98758097 </v>
    <v>       0.00036637       0.25876198       0.00253085 </v>
    <v>       0.75352351       0.24890889       0.24948874 </v>
    <v>       0.74339097       0.99872148       0.00120316 </v>
    <v>       0.51404222       0.00246735       0.25208059 </v>
    <v>       0.98738433       0.49651797       0.24204673 </v>
    <v>       0.49756879       0.76291129       0.01092767 </v>
    <v>       0.98419329       0.00675717       0.73968998 </v>
    <v>       0.76477252       0.25536247       0.75014271 </v>
    <v>       0.75367185       0.00733807       0.50564467 </v>
    <v>       0.50486141       0.25060725       0.48759134 </v>
    <v>       0.51750184       0.00076306       0.74442534 </v>
    <v>       0.99523966       0.00207949       0.25432789 </v>
    <v>       0.50409758       0.23750539       0.00172214 </v>
    <v>       0.25018680       0.74807821       0.24978152 </v>
    <v>       0.23845948       0.49858805       0.98880318 </v>
    <v>       0.99984985       0.74148157       0.00188694 </v>
    <v>       0.74383478       0.75153109       0.24526831 </v>
    <v>       0.76214555       0.50318042       0.00509359 </v>
    <v>       0.49864741       0.49670888       0.25225008 </v>
    <v>       0.24415056       0.24960694       0.74705674 </v>
    <v>       0.25852085       0.00090197       0.51620119 </v>
    <v>       0.00121914       0.24593880       0.50122889 </v>
    <v>       0.23342953       0.75342854       0.75198601 </v>
    <v>       0.25629136       0.50015240       0.50874081 </v>
    <v>       0.99753893       0.75860109       0.50700687 </v>
    <v>       0.00378952       0.49623155       0.75826026 </v>
    <v>       0.75639501       0.75400225       0.75538801 </v>
    <v>       0.74490867       0.49284833       0.50621971 </v>
    <v>       0.49681849       0.76111829       0.48890274 </v>
    <v>       0.50152822       0.50201165       0.74155533 </v>
    <v>       0.52544316       0.01140798       0.97584528 </v>
    <v>       0.99946542       0.50873747       0.98295687 </v>
    <v>       0.49244308       0.73050815       0.25310698 </v>
    <v>       0.21643551       0.02125475       0.74513230 </v>
    <v>       0.48407450       0.98549972       0.50606628 </v>
    <v>       0.73909744       0.96861583       0.77643067 </v>
    <v>       0.00491816       0.76771649       0.24990701 </v>
    <v>       0.73948138       0.50889226       0.25485007 </v>
    <v>       0.01542733       0.00394469       0.50393018 </v>
    <v>       0.50275700       0.51625616       0.49325811 </v>
    <v>       0.75815839       0.51584261       0.75851484 </v>
    <v>       0.74717497       0.74624932       0.49285282 </v>
   </varray>
  </structure>
  <varray name="forces" >
   <v>      -0.02290859      -0.07978834      -0.00820243 </v>
   <v>      -0.00810447       0.02447750      -0.04933288 </v>
   <v>      -0.04311821      -0.01892907       0.02717188 </v>
   <v>       0.01863781       0.02159499      -0.01058352 </v>
   <v>       0.02413200      -0.11360505       0.04727947 </v>
   <v>      -0.04211092       0.03902397       0.07413084 </v>
   <v>       0.01513080      -0.05818495       0.03563612 </v>
   <v>       0.07626223      -0.10120564      -0.12248939 </v>
   <v>      -0.03465900      -0.04549985      -0.02627726 </v>
   <v>      -0.04821223       0.10082387       0.03943480 </v>
   <v>       0.02793664      -0.18243849      -0.01348671 </v>
   <v>      -0.02278546       0.01849902      -0.00099936 </v>
   <v>      -0.01418835       0.00762458       0.04855763 </v>
   <v>      -0.01072343      -0.09432604      -0.04915511 </v>
   <v>      -0.09006226       0.03990252      -0.09775657 </v>
   <v>      -0.01595640       0.09758124      -0.11022227 </v>
   <v>       0.08575811       0.07035536       0.15841338 </v>
   <v>       0.01013487       0.01364732      -0.05160364 </v>
   <v>      -0.01796496       0.02928935       0.03930147 </v>
   <v>      -0.07496614       0.00811954       0.04625749 </v>
   <v>       0.03794893       0.05786646      -0.02470492 </v>
   <v>       0.08860647      -0.01112404      -0.00125582 </v>
   <v>       0.05149718      -0.08739994       0.07436304 </v>
   <v>       0.02875164      -0.01225515      -0.06631903 </v>
   <v>       0.03490894      -0.00532419       0.04951344 </v>
   <v>      -0.08340373       0.03704234       0.03253421 </v>
   <v>       0.02149036      -0.01162554      -0.05398305 </v>
   <v>       0.02730606       0.04306038      -0.03910073 </v>
   <v>      -0.02581697       0.00727510       0.01985956 </v>
   <v>       0.01003179       0.00813412       0.04875859 </v>
   <v>      -0.13017632       0.02084371      -0.06875128 </v>
   <v>      -0.02204403      -0.04164736       0.03529648 </v>
   <v>       0.30618200       0.05678511       0.02032753 </v>
   <v>       0.01855818      -0.02938115       0.05981249 </v>
   <v>       0.00649028       0.00447621      -0.01025640 </v>
   <v>       0.08662745       0.00201629       0.00776855 </v>
   <v>       0.03470696       0.02717167      -0.00850434 </v>
   <v>      -0.05632581       0.00949029      -0.03951446 </v>
   <v>      -0.00550984      -0.05517248       0.05973770 </v>
   <v>       0.02467292       0.00347599      -0.05619370 </v>
   <v>      -0.08689562      -0.03996638       0.06259582 </v>
   <v>      -0.02959913      -0.00367644       0.03362943 </v>
   <v>       0.01109680      -0.00687884      -0.03281375 </v>
   <v>      -0.02057587       0.00069345      -0.07459155 </v>
   <v>       0.02504391      -0.01989792       0.05863072 </v>
   <v>       0.02030458      -0.04761081      -0.02722612 </v>
   <v>       0.00605576       0.01606006      -0.05594687 </v>
   <v>       0.04364620       0.06420590       0.01690210 </v>
   <v>      -0.03527688       0.05991570       0.05231068 </v>
   <v>      -0.01824963       0.05539218      -0.02917998 </v>
   <v>      -0.11979718      -0.03109202       0.01074838 </v>
   <v>      -0.12105942      -0.01710921       0.01654479 </v>
   <v>      -0.13890411      -0.03461480      -0.13666687 </v>
   <v>      -0.00301532       0.06590755      -0.08843843 </v>
   <v>       0.01080850       0.03284393       0.05617074 </v>
   <v>       0.11629151      -0.05038668       0.05821561 </v>
   <v>      -0.04581060       0.00872361       0.20315164 </v>
   <v>       0.08666537      -0.09516073      -0.03458222 </v>
   <v>       0.03076369       0.07291356       0.01223232 </v>
   <v>       0.16309603       0.05196059      -0.08225133 </v>
   <v>      -0.18216776       0.04982692       0.02718703 </v>
   <v>      -0.03366027       0.07055613       0.01697258 </v>
   <v>      -0.02753692      -0.00163482      -0.01506844 </v>
   <v>       0.08204187      -0.00164056      -0.06398813 </v>
  </varray>
  <varray name="stress" >
   <v>      -7.54736383      -0.14822346       0.34103721 </v>
   <v>      -0.14822622     -11.01566283       0.06451316 </v>
   <v>       0.34103588       0.06451272      -4.23685589 </v>
  </varray>
  <energy>
   <i name="e_fr_energy">   -627.00720143 </i>
   <i name="e_wo_entrp">   -626.93680917 </i>
   <i name="e_0_energy">     -0.14078453 </i>
  </energy>
  <time name="totalsc">  829.62  836.36</time>
 </calculation>
 <calculation>
  <scstep>
   <time name="dav">   28.34   28.37</time>
   <time name="total">   28.61   28.64</time>
   <energy>
    <i name="alphaZ">   4929.45257945 </i>
    <i name="ewald"> -46822.49223916 </i>
    <i name="hartreedc">  -9685.39683068 </i>
    <i name="XCdc">   2281.16509775 </i>
    <i name="pawpsdc">  37746.43726458 </i>
    <i name="pawaedc"> -37870.34786907 </i>
    <i name="eentropy">     -0.13674735 </i>
    <i name="bandstr">  -6689.10427958 </i>
    <i name="atom">  55483.33875125 </i>
    <i name="e_fr_energy">   -627.08427282 </i>
    <i name="e_wo_entrp">   -626.94752547 </i>
    <i name="e_0_energy">   -627.01589914 </i>
   </energy>
  </scstep>
  <scstep>
   <time name="diag">    1.84    1.84</time>
   <time name="diis">   18.75   18.83</time>
   <time name="orth">    0.47    0.47</time>
   <time name="total">   21.32   21.40</time>
   <energy>
    <i name="e_fr_energy">   -628.42684624 </i>
    <i name="e_wo_entrp">   -628.28281691 </i>
    <i name="e_0_energy">   -628.35483158 </i>
   </energy>
  </scstep>
  <scstep>
   <time name="diag">    1.83    1.86</time>
   <time name="diis">   18.71   18.81</time>
   <time name="orth">    1.24    1.37</time>
   <time name="total">   22.07   22.34</time>
   <energy>
    <i name="e_fr_energy">   -627.35316364 </i>
    <i name="e_wo_entrp">   -627.20116406 </i>
    <i name="e_0_energy">   -627.27716385 </i>
   </energy>
  </scstep>
  <scstep>
   <time name="diag">    4.28    4.56</time>
   <time name="diis">   19.91   19.95</time>
   <time name="orth">    0.47    0.47</time>
   <time name="total">   24.99   25.31</time>
   <energy>
    <i name="e_fr_energy">   -627.12105305 </i>
    <i name="e_wo_entrp">   -626.98564541 </i>
    <i name="e_0_energy">   -627.05334923 </i>
   </energy>
  </scstep>
  <scstep>
   <time name="diag">    1.87    1.92</time>
   <time name="diis">   19.30   19.92</time>
   <time name="orth">    0.46    0.47</time>
   <time name="total">   21.89   22.57</time>
   <energy>
    <i name="e_fr_energy">   -627.09125054 </i>
    <i name="e_wo_entrp">   -626.95521308 </i>
    <i name="e_0_energy">   -627.02323181 </i>
   </energy>
  </scstep>
  <scstep>
   <time name="diag">    1.85    1.85</time>
   <time name="diis">   20.26   20.27</time>
   <time name="orth">    0.47    0.47</time>
   <time name="total">   22.85   22.87</time>
   <energy>
    <i name="e_fr_energy">   -627.05371280 </i>
    <i name="e_wo_entrp">   -626.91494120 </i>
    <i name="e_0_energy">   -626.98432700 </i>
   </energy>
  </scstep>
  <scstep>
   <time name="diag">    1.85    1.86</time>
   <time name="diis">   20.34   20.39</time>
   <time name="orth">    0.47    0.47</time>
   <time name="total">   22.92   22.97</time>
   <energy>
    <i name="e_fr_energy">   -627.03370929 </i>
    <i name="e_wo_entrp">   -626.89546703 </i>
    <i name="e_0_energy">   -626.96458816 </i>
   </energy>
  </scstep>
  <scstep>
   <time name="diag">    1.82    1.85</time>
   <time name="diis">   19.61   20.24</time>
   <time name="orth">    0.47    0.48</time>
   <time name="total">   22.17   22.84</time>
   <energy>
    <i name="e_fr_energy">   -627.03943705 </i>
    <i name="e_wo_entrp">   -626.89956872 </i>
    <i name="e_0_energy">   -626.96950289 </i>
   </energy>
  </scstep>
  <scstep>
   <time name="diag">    1.85    1.85</time>
   <time name="diis">   19.94   19.99</time>
   <time name="orth">    0.49    0.49</time>
   <time name="total">   22.57   22.63</time>
   <energy>
    <i name="e_fr_energy">   -627.02615290 </i>
    <i name="e_wo_entrp">   -626.88812487 </i>
    <i name="e_0_energy">   -626.95713888 </i>
   </energy>
  </scstep>
  <scstep>
   <time name="diag">    1.86    1.87</time>
   <time name="diis">   21.36   21.47</time>
   <time name="orth">    0.47    0.47</time>
   <time name="total">   23.96   24.08</time>
   <energy>
    <i name="e_fr_energy">   -627.02511749 </i>
    <i name="e_wo_entrp">   -626.88598478 </i>
    <i name="e_0_energy">   -626.95555113 </i>
   </energy>
  </scstep>
  <scstep>
   <time name="diag">    1.86    1.87</time>
   <time name="diis">   19.92   19.97</time>
   <time name="orth">    0.47    0.47</time>
   <time name="total">   22.51   22.57</time>
   <energy>
    <i name="e_fr_energy">   -627.02417390 </i>
    <i name="e_wo_entrp">   -626.88512461 </i>
    <i name="e_0_energy">   -626.95464925 </i>
   </energy>
  </scstep>
  <scstep>
   <time name="diag">    1.85    1.85</time>
   <time name="diis">   19.97   20.02</time>
   <time name="orth">    0.47    0.47</time>
   <time name="total">   22.54   22.59</time>
   <energy>
    <i name="e_fr_energy">   -627.02367321 </i>
    <i name="e_wo_entrp">   -626.88480670 </i>
    <i name="e_0_energy">   -626.95423995 </i>
   </energy>
  </scstep>
  <scstep>
   <time name="diag">    1.85    1.85</time>
   <time name="diis">   19.67   19.72</time>
   <time name="orth">    0.47    0.47</time>
   <time name="total">   22.25   22.31</time>
   <energy>
    <i name="e_fr_energy">   -627.02378713 </i>
    <i name="e_wo_entrp">   -626.88483089 </i>
    <i name="e_0_energy">   -626.95430901 </i>
   </energy>
  </scstep>
  <scstep>
   <time name="diag">    1.85    1.85</time>
   <time name="diis">   19.11   19.15</time>
   <time name="orth">    0.47    0.47</time>
   <time name="total">   21.68   21.73</time>
   <energy>
    <i name="e_fr_energy">   -627.02379907 </i>
    <i name="e_wo_entrp">   -626.88489877 </i>
    <i name="e_0_energy">   -626.95434892 </i>
   </energy>
  </scstep>
  <scstep>
   <time name="diag">    1.87    1.87</time>
   <time name="diis">   18.52   18.58</time>
   <time name="orth">    0.47    0.47</time>
   <time name="total">   21.12   21.18</time>
   <energy>
    <i name="e_fr_energy">   -627.02389046 </i>
    <i name="e_wo_entrp">   -626.88500328 </i>
    <i name="e_0_energy">   -626.95444687 </i>
   </energy>
  </scstep>
  <scstep>
   <time name="diag">    1.85    1.86</time>
   <time name="diis">   19.16   19.18</time>
   <time name="orth">    0.47    0.47</time>
   <time name="total">   21.74   21.77</time>
   <energy>
    <i name="e_fr_energy">   -627.02396372 </i>
    <i name="e_wo_entrp">   -626.88500413 </i>
    <i name="e_0_energy">   -626.95448393 </i>
   </energy>
  </scstep>
  <scstep>
   <time name="diag">    1.88    1.88</time>
   <time name="diis">   18.17   18.18</time>
   <time name="orth">    0.47    0.47</time>
   <time name="total">   20.78   20.80</time>
   <energy>
    <i name="e_fr_energy">   -627.02403824 </i>
    <i name="e_wo_entrp">   -626.88515416 </i>
    <i name="e_0_energy">   -626.95459620 </i>
   </energy>
  </scstep>
  <scstep>
   <time name="diag">    1.90    1.91</time>
   <time name="diis">   17.79   17.83</time>
   <time name="orth">    0.47    0.47</time>
   <time name="total">   20.41   20.46</time>
   <energy>
    <i name="e_fr_energy">   -627.02404305 </i>
    <i name="e_wo_entrp">   -626.88513503 </i>
    <i name="e_0_energy">   -626.95458904 </i>
   </energy>
  </scstep>
  <scstep>
   <time name="diag">    1.85    1.85</time>
   <time name="diis">   17.43   17.45</time>
   <time name="orth">    0.47    0.47</time>
   <time name="total">   20.00   20.03</time>
   <energy>
    <i name="e_fr_energy">   -627.02404126 </i>
    <i name="e_wo_entrp">   -626.88509148 </i>
    <i name="e_0_energy">   -626.95456637 </i>
   </energy>
  </scstep>
  <scstep>
   <time name="diag">    1.84    1.84</time>
   <time name="diis">   15.69   15.72</time>
   <time name="orth">    0.47    0.47</time>
   <time name="total">   18.03   18.07</time>
   <energy>
    <i name="alphaZ">   4929.45257945 </i>
    <i name="ewald"> -46822.49223916 </i>
    <i name="hartreedc">  -9623.38945884 </i>
    <i name="XCdc">   2277.73527064 </i>
    <i name="pawpsdc">  37834.46283424 </i>
    <i name="pawaedc"> -37957.69565402 </i>
    <i name="eentropy">     -0.13894389 </i>
    <i name="bandstr">  -6748.29718231 </i>
    <i name="atom">  55483.33875125 </i>
    <i name="e_fr_energy">   -627.02404264 </i>
    <i name="e_wo_entrp">   -626.88509875 </i>
    <i name="e_0_energy">   -626.95457069 </i>
   </energy>
  </scstep>
  <structure>
   <crystal>
    <varray name="basis" >
     <v>       8.67034669       0.01856568      -0.00638482 </v>
     <v>       0.02448427       8.70796941      -0.01483369 </v>
     <v>       0.02472674      -0.02966528       8.65457415 </v>
    </varray>
    <i name="volume">    653.42361025 </i>
    <varray name="rec_basis" >
     <v>       0.11533609      -0.00032485      -0.00033064 </v>
     <v>      -0.00024561       0.11483870       0.00039433 </v>
     <v>       0.00008467       0.00019659       0.11554627 </v>
    </varray>
   </crystal>
   <varray name="positions" >
    <v>       0.99640426       0.00331656       0.99152269 </v>
    <v>       0.26721482       0.00137318       0.24639288 </v>
    <v>       0.24169866       0.49337495       0.24650615 </v>
    <v>       0.49825081       0.49910477       0.99933626 </v>
    <v>       0.51236037       0.24480963       0.73897959 </v>
    <v>       0.99848551       0.50057856       0.50298768 </v>
    <v>       0.49118221       0.75829215       0.75575630 </v>
    <v>       0.98566318       0.22699372       0.26569773 </v>
    <v>       0.76797854       0.74149187       0.00665273 </v>
    <v>       0.00290061       0.24786354       0.73518383 </v>
    <v>       0.76185587       0.24646964       0.48701600 </v>
    <v>       0.00190715       0.73718408       0.76146138 </v>
    <v>       0.23939869       0.48400105       0.75318196 </v>
    <v>       0.24520191       0.24617737       0.99126247 </v>
    <v>       0.51360479       0.25288705       0.25253338 </v>
    <v>       0.74047980       0.99603009       0.26376745 </v>
    <v>       0.75636926       0.25338350       0.99961340 </v>
    <v>       0.24103967       0.74780878       0.99605779 </v>
    <v>       0.25199928       0.24832937       0.50218197 </v>
    <v>       0.24735645       0.75187694       0.50629532 </v>
    <v>       0.24862069       0.24675550       0.24945580 </v>
    <v>       0.25648683       0.00288656       0.98757428 </v>
    <v>       0.00065248       0.25828022       0.00294423 </v>
    <v>       0.75368432       0.24883962       0.24911956 </v>
    <v>       0.74358407       0.99869261       0.00147891 </v>
    <v>       0.51357814       0.00267350       0.25226167 </v>
    <v>       0.98750464       0.49645249       0.24174619 </v>
    <v>       0.49772029       0.76314796       0.01071054 </v>
    <v>       0.98404955       0.00679802       0.73980049 </v>
    <v>       0.76482733       0.25540819       0.75041427 </v>
    <v>       0.75294995       0.00745341       0.50526153 </v>
    <v>       0.50473916       0.25037824       0.48778733 </v>
    <v>       0.51920028       0.00107328       0.74454047 </v>
    <v>       0.99534223       0.00191819       0.25466067 </v>
    <v>       0.50413369       0.23752983       0.00166512 </v>
    <v>       0.25066753       0.74808844       0.24982519 </v>
    <v>       0.23865184       0.49873749       0.98875626 </v>
    <v>       0.99953763       0.74153389       0.00166680 </v>
    <v>       0.74380415       0.75122768       0.24560032 </v>
    <v>       0.76228332       0.50319824       0.00478091 </v>
    <v>       0.49816472       0.49649046       0.25259776 </v>
    <v>       0.24398580       0.24958764       0.74724378 </v>
    <v>       0.25858306       0.00086323       0.51601850 </v>
    <v>       0.00110605       0.24594146       0.50081355 </v>
    <v>       0.23356797       0.75331950       0.75231233 </v>
    <v>       0.25640524       0.49988877       0.50858888 </v>
    <v>       0.99757315       0.75868862       0.50669560 </v>
    <v>       0.00403053       0.49658584       0.75835517 </v>
    <v>       0.75619743       0.75433448       0.75567963 </v>
    <v>       0.74480693       0.49315382       0.50605771 </v>
    <v>       0.49615381       0.76094827       0.48896172 </v>
    <v>       0.50085622       0.50191896       0.74164671 </v>
    <v>       0.52467473       0.01121593       0.97508349 </v>
    <v>       0.99944899       0.50909971       0.98246516 </v>
    <v>       0.49250170       0.73069043       0.25342005 </v>
    <v>       0.21708096       0.02097626       0.74545644 </v>
    <v>       0.48381694       0.98555232       0.50719708 </v>
    <v>       0.73958057       0.96808872       0.77623765 </v>
    <v>       0.00508759       0.76811892       0.24997595 </v>
    <v>       0.74038718       0.50917560       0.25439344 </v>
    <v>       0.01441488       0.00422252       0.50408116 </v>
    <v>       0.50256877       0.51664645       0.49335312 </v>
    <v>       0.75800579       0.51583363       0.75843081 </v>
    <v>       0.74763140       0.74623805       0.49249697 </v>
   </varray>
  </structure>
  <varray name="forces" >
   <v>       0.00794811      -0.05045175      -0.00466291 </v>
   <v>      -0.00723134      -0.00179970      -0.01441757 </v>
   <v>      -0.05724205       0.02639059      -0.02722514 </v>
   <v>       0.00392241       0.01538441       0.06129820 </v>
   <v>       0.00605496       0.08884959       0.01029040 </v>
   <v>      -0.00250616      -0.02652792       0.00355665 </v>
   <v>      -0.01761077      -0.00344421      -0.03831278 </v>
   <v>       0.08424061       0.02796177      -0.10873772 </v>
   <v>      -0.06952362       0.01793832       0.00316550 </v>
   <v>      -0.04164885       0.06592809       0.06370337 </v>
   <v>       0.00460124      -0.16329099      -0.05548486 </v>
   <v>      -0.02295863       0.07370095      -0.02139835 </v>
   <v>       0.05420793       0.03121551       0.01066524 </v>
   <v>       0.03076826      -0.02420870      -0.01966895 </v>
   <v>      -0.07349920       0.01791435      -0.02906408 </v>
   <v>      -0.04073555       0.05103656      -0.13510088 </v>
   <v>       0.04700032       0.02612498       0.12480262 </v>
   <v>       0.02151838       0.02504130      -0.01296365 </v>
   <v>      -0.00335329       0.01035856       0.03442579 </v>
   <v>      -0.04970314       0.00571390       0.03896780 </v>
   <v>       0.01726787      -0.01035882      -0.00967736 </v>
   <v>       0.11071631      -0.03905804      -0.01022469 </v>
   <v>       0.04265809      -0.00292702       0.06197606 </v>
   <v>       0.01238144      -0.00943237      -0.03600382 </v>
   <v>      -0.04261260      -0.01455530       0.01262510 </v>
   <v>      -0.01270220      -0.00121541       0.04523592 </v>
   <v>       0.00028284      -0.01876681      -0.04268956 </v>
   <v>       0.02906228       0.05563679      -0.00153406 </v>
   <v>      -0.02177718      -0.00495419       0.03146167 </v>
   <v>       0.03249585      -0.00040198       0.01582911 </v>
   <v>      -0.10723540       0.03911237      -0.01511164 </v>
   <v>      -0.01193263      -0.06689885       0.00263732 </v>
   <v>       0.16909283      -0.09219453      -0.03667440 </v>
   <v>      -0.00277249       0.02553440      -0.02902996 </v>
   <v>      -0.00389620       0.00204795      -0.00006658 </v>
   <v>       0.05221111       0.01164810       0.01119610 </v>
   <v>      -0.00767950       0.00752700       0.00615274 </v>
   <v>       0.00292088      -0.02635845      -0.00683872 </v>
   <v>       0.00006791       0.06021865      -0.03109133 </v>
   <v>       0.02078027      -0.01488529      -0.02626395 </v>
   <v>       0.03424919       0.00905912      -0.00763787 </v>
   <v>      -0.00494156      -0.01003064       0.01140602 </v>
   <v>      -0.07548406       0.01928053      -0.00627316 </v>
   <v>      -0.00060896       0.06192774      -0.02466861 </v>
   <v>       0.00421991       0.00128023       0.01086049 </v>
   <v>      -0.03043438      -0.01732559       0.01400994 </v>
   <v>       0.00225904      -0.00686389       0.00505978 </v>
   <v>       0.00255164       0.03657483      -0.02334501 </v>
   <v>       0.00126519      -0.04369339       0.00974335 </v>
   <v>      -0.02149606      -0.01210709      -0.02059923 </v>
   <v>      -0.04481387       0.02744220       0.03160155 </v>
   <v>      -0.07653614      -0.02943103       0.01451102 </v>
   <v>      -0.07455795      -0.06214598      -0.01141528 </v>
   <v>       0.02214034       0.00604276      -0.00304075 </v>
   <v>      -0.00064146       0.05299577       0.03046516 </v>
   <v>       0.02365127      -0.10097920       0.00008988 </v>
   <v>       0.00405567       0.04064545       0.16041226 </v>
   <v>       0.16107716       0.05663246       0.03838150 </v>
   <v>       0.01001323      -0.07909100       0.00460390 </v>
   <v>       0.01078803      -0.07560098      -0.02100768 </v>
   <v>      -0.03108930       0.02107361       0.01803662 </v>
   <v>      -0.01784289      -0.05643801      -0.00081040 </v>
   <v>      -0.05674164      -0.06253693      -0.05689308 </v>
   <v>       0.00533850       0.10973522       0.00076292 </v>
  </varray>
  <varray name="stress" >
   <v>      11.90087434      -0.36275377       0.10348475 </v>
   <v>      -0.36275349      16.87551415      -0.29234901 </v>
   <v>       0.10348565      -0.29234824      12.71713063 </v>
  </varray>
  <energy>
   <i name="e_fr_energy">   -627.02404264 </i>
   <i name="e_wo_entrp">   -626.95457069 </i>
   <i name="e_0_energy">     -0.13894389 </i>
  </energy>
  <time name="totalsc">  488.03  490.88</time>
 </calculation>
 <calculation>
  <scstep>
   <time name="dav">   28.33   28.41</time>
   <time name="total">   28.60   28.68</time>
   <energy>
    <i name="alphaZ">   4918.58448322 </i>
    <i name="ewald"> -46788.11340081 </i>
    <i name="hartreedc">  -9616.29222904 </i>
    <i name="XCdc">   2276.06946932 </i>
    <i name="pawpsdc">  37834.54009383 </i>
    <i name="pawaedc"> -37957.68732223 </i>
    <i name="eentropy">     -0.14040926 </i>
    <i name="bandstr">  -6777.33502390 </i>
    <i name="atom">  55483.33875125 </i>
    <i name="e_fr_energy">   -627.03558763 </i>
    <i name="e_wo_entrp">   -626.89517837 </i>
    <i name="e_0_energy">   -626.96538300 </i>
   </energy>
  </scstep>
  <scstep>
   <time name="diag">    1.88    1.88</time>
   <time name="diis">   19.48   19.53</time>
   <time name="orth">    0.47    0.47</time>
   <time name="total">   22.09   22.15</time>
   <energy>
    <i name="e_fr_energy">   -627.17213081 </i>
    <i name="e_wo_entrp">   -627.02920182 </i>
    <i name="e_0_energy">   -627.10066632 </i>
   </energy>
  </scstep>
  <scstep>
   <time name="diag">    1.85    1.86</time>
   <time name="diis">   18.17   18.20</time>
   <time name="orth">    0.47    0.47</time>
   <time name="total">   20.75   20.79</time>
   <energy>
    <i name="e_fr_energy">   -627.06910246 </i>
    <i name="e_wo_entrp">   -626.93403295 </i>
    <i name="e_0_energy">   -627.00156771 </i>
   </energy>
  </scstep>
  <scstep>
   <time name="diag">    1.88    1.88</time>
   <time name="diis">   19.22   19.29</time>
   <time name="orth">    0.47    0.47</time>
   <time name="total">   21.83   21.90</time>
   <energy>
    <i name="e_fr_energy">   -627.03977408 </i>
    <i name="e_wo_entrp">   -626.90023587 </i>
    <i name="e_0_energy">   -626.97000498 </i>
   </energy>
  </scstep>
  <scstep>
   <time name="diag">    1.85    1.85</time>
   <time name="diis">   19.51   19.56</time>
   <time name="orth">    0.47    0.47</time>
   <time name="total">   22.08   22.13</time>
   <energy>
    <i name="e_fr_energy">   -627.03498048 </i>
    <i name="e_wo_entrp">   -626.89465537 </i>
    <i name="e_0_energy">   -626.96481792 </i>
   </energy>
  </scstep>
  <scstep>
   <time name="diag">    1.86    1.88</time>
   <time name="diis">   19.99   20.03</time>
   <time name="orth">    0.47    0.48</time>
   <time name="total">   22.58   22.64</time>
   <energy>
    <i name="e_fr_energy">   -627.03166032 </i>
    <i name="e_wo_entrp">   -626.89247811 </i>
    <i name="e_0_energy">   -626.96206922 </i>
   </energy>
  </scstep>
  <scstep>
   <time name="diag">    1.90    1.91</time>
   <time name="diis">   19.40   19.56</time>
   <time name="orth">    0.47    0.47</time>
   <time name="total">   22.03   22.19</time>
   <energy>
    <i name="e_fr_energy">   -627.02951119 </i>
    <i name="e_wo_entrp">   -626.88996771 </i>
    <i name="e_0_energy">   -626.95973945 </i>
   </energy>
  </scstep>
  <scstep>
   <time name="diag">    1.87    1.89</time>
   <time name="diis">   18.98   19.04</time>
   <time name="orth">    0.47    0.47</time>
   <time name="total">   21.57   21.67</time>
   <energy>
    <i name="e_fr_energy">   -627.03010184 </i>
    <i name="e_wo_entrp">   -626.89109120 </i>
    <i name="e_0_energy">   -626.96059652 </i>
   </energy>
  </scstep>
  <scstep>
   <time name="diag">    1.86    1.86</time>
   <time name="diis">   19.23   19.30</time>
   <time name="orth">    0.47    0.47</time>
   <time name="total">   21.82   21.89</time>
   <energy>
    <i name="e_fr_energy">   -627.02864816 </i>
    <i name="e_wo_entrp">   -626.88888159 </i>
    <i name="e_0_energy">   -626.95876487 </i>
   </energy>
  </scstep>
  <scstep>
   <time name="diag">    1.85    1.85</time>
   <time name="diis">   19.09   19.17</time>
   <time name="orth">    0.47    0.47</time>
   <time name="total">   21.67   21.75</time>
   <energy>
    <i name="e_fr_energy">   -627.02856519 </i>
    <i name="e_wo_entrp">   -626.88915509 </i>
    <i name="e_0_energy">   -626.95886014 </i>
   </energy>
  </scstep>
  <scstep>
   <time name="diag">    1.85    1.85</time>
   <time name="diis">   17.46   17.49</time>
   <time name="orth">    0.47    0.47</time>
   <time name="total">   20.04   20.07</time>
   <energy>
    <i name="e_fr_energy">   -627.02844010 </i>
    <i name="e_wo_entrp">   -626.88898479 </i>
    <i name="e_0_energy">   -626.95871244 </i>
   </energy>
  </scstep>
  <scstep>
   <time name="diag">    1.85    1.85</time>
   <time name="diis">   18.05   18.12</time>
   <time name="orth">    0.47    0.47</time>
   <time name="total">   20.63   20.70</time>
   <energy>
    <i name="e_fr_energy">   -627.02838823 </i>
    <i name="e_wo_entrp">   -626.88889235 </i>
    <i name="e_0_energy">   -626.95864029 </i>
   </energy>
  </scstep>
  <scstep>
   <time name="diag">    1.89    1.89</time>
   <time name="diis">   16.75   16.80</time>
   <time name="orth">    0.47    0.48</time>
   <time name="total">   19.37   19.43</time>
   <energy>
    <i name="e_fr_energy">   -627.02839276 </i>
    <i name="e_wo_entrp">   -626.88891337 </i>
    <i name="e_0_energy">   -626.95865307 </i>
   </energy>
  </scstep>
  <scstep>
   <time name="diag">    1.85    1.85</time>
   <time name="diis">   15.95   15.97</time>
   <time name="orth">    0.47    0.48</time>
   <time name="total">   18.30   18.33</time>
   <energy>
    <i name="alphaZ">   4918.58448322 </i>
    <i name="ewald"> -46788.11340081 </i>
    <i name="hartreedc">  -9636.16383544 </i>
    <i name="XCdc">   2277.16594642 </i>
    <i name="pawpsdc">  37810.91446020 </i>
    <i name="pawaedc"> -37933.76436235 </i>
    <i name="eentropy">     -0.13949021 </i>
    <i name="bandstr">  -6758.85093601 </i>
    <i name="atom">  55483.33875125 </i>
    <i name="e_fr_energy">   -627.02838373 </i>
    <i name="e_wo_entrp">   -626.88889352 </i>
    <i name="e_0_energy">   -626.95863862 </i>
   </energy>
  </scstep>
  <structure>
   <crystal>
    <varray name="basis" >
     <v>       8.67668254       0.01871039      -0.00667420 </v>
     <v>       0.02462805       8.71726665      -0.01489511 </v>
     <v>       0.02445825      -0.02975079       8.65811990 </v>
    </varray>
    <i name="volume">    654.86741399 </i>
    <varray name="rec_basis" >
     <v>       0.11525187      -0.00032617      -0.00032669 </v>
     <v>      -0.00024707       0.11471623       0.00039488 </v>
     <v>       0.00008842       0.00019710       0.11549894 </v>
    </varray>
   </crystal>
   <varray name="positions" >
    <v>       0.99644359       0.00345443       0.99153722 </v>
    <v>       0.26722876       0.00133114       0.24647861 </v>
    <v>       0.24177355       0.49340735       0.24645901 </v>
    <v>       0.49821851       0.49906758       0.99935458 </v>
    <v>       0.51231816       0.24500579       0.73889767 </v>
    <v>       0.99855917       0.50051052       0.50285870 </v>
    <v>       0.49115583       0.75839256       0.75569448 </v>
    <v>       0.98552970       0.22716965       0.26591094 </v>
    <v>       0.76803835       0.74157054       0.00669860 </v>
    <v>       0.00298499       0.24768887       0.73511502 </v>
    <v>       0.76180642       0.24678514       0.48703995 </v>
    <v>       0.00194678       0.73715202       0.76146309 </v>
    <v>       0.23942360       0.48398754       0.75309751 </v>
    <v>       0.24521982       0.24634065       0.99134824 </v>
    <v>       0.51376084       0.25281833       0.25270337 </v>
    <v>       0.74050742       0.99586203       0.26395886 </v>
    <v>       0.75622152       0.25326128       0.99933760 </v>
    <v>       0.24102189       0.74778554       0.99614747 </v>
    <v>       0.25203080       0.24827845       0.50211356 </v>
    <v>       0.24748685       0.75186235       0.50621495 </v>
    <v>       0.24855497       0.24665577       0.24949854 </v>
    <v>       0.25633296       0.00290612       0.98757639 </v>
    <v>       0.00056303       0.25843103       0.00281511 </v>
    <v>       0.75363403       0.24886130       0.24923489 </v>
    <v>       0.74352370       0.99870165       0.00139278 </v>
    <v>       0.51372326       0.00260897       0.25220509 </v>
    <v>       0.98746701       0.49647298       0.24184008 </v>
    <v>       0.49767290       0.76307387       0.01077837 </v>
[...]
      </set>
     </set>
    </set>
   </array>
  </eigenvalues>
  <separator name="orbital magnetization" >
   <v name="MAGDIPOLOUT">      0.00000000      0.00000000      0.00000000</v>
  </separator>
  <dos>
   <i name="efermi">      7.86726218 </i>
   <total>
    <array>
     <dimension dim="1">gridpoints</dimension>
     <dimension dim="2">spin</dimension>
     <field>energy</field>
     <field>total</field>
     <field>integrated</field>
     <set>
      <set comment="spin 1">
       <r>   -60.5412     0.0000     0.0000 </r>
       <r>   -60.2919     0.0000     0.0000 </r>
       <r>   -60.0426     0.0000     0.0000 </r>
       <r>   -59.7933     0.0000     0.0000 </r>
       <r>   -59.5441     0.0000     0.0000 </r>
       <r>   -59.2948     0.0000     0.0000 </r>
       <r>   -59.0455     0.0000     0.0000 </r>
       <r>   -58.7962     0.0000     0.0000 </r>
       <r>   -58.5470     0.0000     0.0000 </r>
       <r>   -58.2977     0.0000     0.0000 </r>
       <r>   -58.0484     0.0000     0.0000 </r>
       <r>   -57.7991     0.0000     0.0000 </r>
       <r>   -57.5498     0.0000     0.0000 </r>
       <r>   -57.3006     0.1524     0.0380 </r>
       <r>   -57.0513    22.4650     5.6380 </r>
       <r>   -56.8020    25.0445    11.8810 </r>
       <r>   -56.5527     0.4772    12.0000 </r>
       <r>   -56.3035     0.0000    12.0000 </r>
       <r>   -56.0542     0.0000    12.0000 </r>
       <r>   -55.8049     0.0000    12.0000 </r>
       <r>   -55.5556     0.0000    12.0000 </r>
       <r>   -55.3063     0.0000    12.0000 </r>
       <r>   -55.0571     0.0000    12.0000 </r>
       <r>   -54.8078     0.0000    12.0000 </r>
       <r>   -54.5585     0.0000    12.0000 </r>
       <r>   -54.3092     0.0000    12.0000 </r>
       <r>   -54.0600     0.0000    12.0000 </r>
       <r>   -53.8107     0.0000    12.0000 </r>
       <r>   -53.5614     0.0000    12.0000 </r>
       <r>   -53.3121     0.0000    12.0000 </r>
       <r>   -53.0628     0.0000    12.0000 </r>
       <r>   -52.8136     0.0000    12.0000 </r>
       <r>   -52.5643     0.0000    12.0000 </r>
       <r>   -52.3150     0.0000    12.0000 </r>
       <r>   -52.0657     0.0000    12.0000 </r>
       <r>   -51.8165     0.0000    12.0000 </r>
       <r>   -51.5672     0.0000    12.0000 </r>
       <r>   -51.3179     0.0000    12.0000 </r>
       <r>   -51.0686     0.0000    12.0000 </r>
       <r>   -50.8193     0.0000    12.0000 </r>
       <r>   -50.5701     0.0000    12.0000 </r>
       <r>   -50.3208     0.0000    12.0000 </r>
       <r>   -50.0715     0.0000    12.0000 </r>
       <r>   -49.8222     1.4128    12.3522 </r>
       <r>   -49.5730    23.6391    18.2449 </r>
       <r>   -49.3237    20.3167    23.3094 </r>
       <r>   -49.0744    10.7556    25.9905 </r>
       <r>   -48.8251     0.0381    26.0000 </r>
       <r>   -48.5758     0.0000    26.0000 </r>
       <r>   -48.3266     0.0000    26.0000 </r>
       <r>   -48.0773     0.0000    26.0000 </r>
       <r>   -47.8280     0.0000    26.0000 </r>
       <r>   -47.5787     0.0000    26.0000 </r>
       <r>   -47.3295     0.0000    26.0000 </r>
       <r>   -47.0802     0.0000    26.0000 </r>
       <r>   -46.8309     0.0000    26.0000 </r>
       <r>   -46.5816     0.0000    26.0000 </r>
       <r>   -46.3324     0.0000    26.0000 </r>
       <r>   -46.0831     0.0000    26.0000 </r>
       <r>   -45.8338     0.0000    26.0000 </r>
       <r>   -45.5845     0.0000    26.0000 </r>
       <r>   -45.3352     0.0000    26.0000 </r>
       <r>   -45.0860     0.0000    26.0000 </r>
       <r>   -44.8367     0.0000    26.0000 </r>
       <r>   -44.5874     0.0000    26.0000 </r>
       <r>   -44.3381     0.0000    26.0000 </r>
       <r>   -44.0889     0.0000    26.0000 </r>
       <r>   -43.8396     0.0000    26.0000 </r>
       <r>   -43.5903     0.0000    26.0000 </r>
       <r>   -43.3410     0.0000    26.0000 </r>
       <r>   -43.0917     0.0000    26.0000 </r>
       <r>   -42.8425     0.0000    26.0000 </r>
       <r>   -42.5932     0.0000    26.0000 </r>
       <r>   -42.3439     0.0000    26.0000 </r>
       <r>   -42.0946     0.0000    26.0000 </r>
       <r>   -41.8454     0.0000    26.0000 </r>
       <r>   -41.5961     0.0000    26.0000 </r>
       <r>   -41.3468     0.0653    26.0163 </r>
       <r>   -41.0975     6.9233    27.7421 </r>
       <r>   -40.8482    11.0891    30.5064 </r>
       <r>   -40.5990    25.6950    36.9115 </r>
       <r>   -40.3497    12.3773    39.9969 </r>
       <r>   -40.1004     0.0123    40.0000 </r>
       <r>   -39.8511     0.0000    40.0000 </r>
       <r>   -39.6019     0.0000    40.0000 </r>
       <r>   -39.3526     0.0000    40.0000 </r>
       <r>   -39.1033     0.0000    40.0000 </r>
       <r>   -38.8540     0.0000    40.0000 </r>
       <r>   -38.6047     0.0000    40.0000 </r>
       <r>   -38.3555     0.0000    40.0000 </r>
       <r>   -38.1062     0.0000    40.0000 </r>
       <r>   -37.8569     0.0000    40.0000 </r>
       <r>   -37.6076     0.0000    40.0000 </r>
       <r>   -37.3584     0.0000    40.0000 </r>
       <r>   -37.1091     0.0000    40.0000 </r>
       <r>   -36.8598     0.0000    40.0000 </r>
       <r>   -36.6105     0.0000    40.0000 </r>
       <r>   -36.3612     0.0001    40.0000 </r>
       <r>   -36.1120     1.9835    40.4945 </r>
       <r>   -35.8627    24.2449    46.5382 </r>
       <r>   -35.6134    98.3634    71.0580 </r>
       <r>   -35.3641    19.7965    75.9928 </r>
       <r>   -35.1149     0.0289    76.0000 </r>
       <r>   -34.8656     0.0000    76.0000 </r>
       <r>   -34.6163     0.0000    76.0000 </r>
       <r>   -34.3670     0.0000    76.0000 </r>
       <r>   -34.1177     0.0000    76.0000 </r>
       <r>   -33.8685     0.0000    76.0000 </r>
       <r>   -33.6192     0.0000    76.0000 </r>
       <r>   -33.3699     0.0000    76.0000 </r>
       <r>   -33.1206     0.0000    76.0000 </r>
       <r>   -32.8714     0.0000    76.0000 </r>
       <r>   -32.6221     0.0000    76.0000 </r>
       <r>   -32.3728     0.0000    76.0000 </r>
       <r>   -32.1235     0.0000    76.0000 </r>
       <r>   -31.8742     0.0007    76.0002 </r>
       <r>   -31.6250     5.5481    77.3832 </r>
       <r>   -31.3757    59.9820    92.3354 </r>
       <r>   -31.1264    92.3841   115.3647 </r>
       <r>   -30.8771   103.0502   141.0528 </r>
       <r>   -30.6279    27.7985   147.9823 </r>
       <r>   -30.3786     0.0710   148.0000 </r>
       <r>   -30.1293     0.0000   148.0000 </r>
       <r>   -29.8800     0.0000   148.0000 </r>
       <r>   -29.6308     0.0000   148.0000 </r>
       <r>   -29.3815     0.0000   148.0000 </r>
       <r>   -29.1322     0.0000   148.0000 </r>
       <r>   -28.8829     0.0000   148.0000 </r>
       <r>   -28.6336     0.0000   148.0000 </r>
       <r>   -28.3844     0.0000   148.0000 </r>
       <r>   -28.1351     0.0000   148.0000 </r>
       <r>   -27.8858     0.0000   148.0000 </r>
       <r>   -27.6365     0.0000   148.0000 </r>
       <r>   -27.3873     0.0000   148.0000 </r>
       <r>   -27.1380     0.0000   148.0000 </r>
       <r>   -26.8887     0.0000   148.0000 </r>
       <r>   -26.6394     0.0000   148.0000 </r>
       <r>   -26.3901     0.1104   148.0275 </r>
       <r>   -26.1409    22.5643   153.6523 </r>
       <r>   -25.8916    63.5872   169.5032 </r>
       <r>   -25.6423    66.1063   185.9820 </r>
       <r>   -25.3930    16.1127   189.9985 </r>
       <r>   -25.1438     0.0059   190.0000 </r>
       <r>   -24.8945     0.0000   190.0000 </r>
       <r>   -24.6452     0.0000   190.0000 </r>
       <r>   -24.3959     0.0000   190.0000 </r>
       <r>   -24.1466     0.0000   190.0000 </r>
       <r>   -23.8974     0.0000   190.0000 </r>
       <r>   -23.6481     0.0000   190.0000 </r>
       <r>   -23.3988     0.0000   190.0000 </r>
       <r>   -23.1495     0.0000   190.0000 </r>
       <r>   -22.9003     0.0000   190.0000 </r>
       <r>   -22.6510     0.0000   190.0000 </r>
       <r>   -22.4017     0.0000   190.0000 </r>
       <r>   -22.1524     0.0000   190.0000 </r>
       <r>   -21.9031     0.0000   190.0000 </r>
       <r>   -21.6539     0.0000   190.0000 </r>
       <r>   -21.4046     0.0000   190.0000 </r>
       <r>   -21.1553     0.0000   190.0000 </r>
       <r>   -20.9060     0.0000   190.0000 </r>
       <r>   -20.6568     0.0000   190.0000 </r>
       <r>   -20.4075     0.0000   190.0000 </r>
       <r>   -20.1582     0.0000   190.0000 </r>
       <r>   -19.9089     0.0002   190.0001 </r>
       <r>   -19.6596     3.0655   190.7642 </r>
       <r>   -19.4104    22.6962   196.4219 </r>
       <r>   -19.1611    55.0271   210.1389 </r>
       <r>   -18.9118    60.9496   225.3323 </r>
       <r>   -18.6625    21.7138   230.7450 </r>
       <r>   -18.4133     5.0315   231.9993 </r>
       <r>   -18.1640     0.0030   232.0000 </r>
       <r>   -17.9147     0.0000   232.0000 </r>
       <r>   -17.6654     0.0000   232.0000 </r>
       <r>   -17.4161     0.0000   232.0000 </r>
       <r>   -17.1669     0.0000   232.0000 </r>
       <r>   -16.9176     0.0000   232.0000 </r>
       <r>   -16.6683     0.0000   232.0000 </r>
       <r>   -16.4190     0.0000   232.0000 </r>
       <r>   -16.1698     0.0000   232.0000 </r>
       <r>   -15.9205     0.0000   232.0000 </r>
       <r>   -15.6712     0.0000   232.0000 </r>
       <r>   -15.4219     0.0000   232.0000 </r>
       <r>   -15.1726     0.0000   232.0000 </r>
       <r>   -14.9234     0.0000   232.0000 </r>
       <r>   -14.6741     0.0000   232.0000 </r>
       <r>   -14.4248     0.0000   232.0000 </r>
       <r>   -14.1755     0.0000   232.0000 </r>
       <r>   -13.9263     0.0000   232.0000 </r>
       <r>   -13.6770     0.0000   232.0000 </r>
       <r>   -13.4277     0.0000   232.0000 </r>
       <r>   -13.1784     0.0000   232.0000 </r>
       <r>   -12.9292     0.0000   232.0000 </r>
       <r>   -12.6799     0.0000   232.0000 </r>
       <r>   -12.4306     0.0000   232.0000 </r>
       <r>   -12.1813     0.0000   232.0000 </r>
       <r>   -11.9320     0.0000   232.0000 </r>
       <r>   -11.6828     0.0000   232.0000 </r>
       <r>   -11.4335     0.0000   232.0000 </r>
       <r>   -11.1842     0.0000   232.0000 </r>
       <r>   -10.9349     0.0000   232.0000 </r>
       <r>   -10.6857     0.0000   232.0000 </r>
       <r>   -10.4364     0.0000   232.0000 </r>
       <r>   -10.1871     0.0000   232.0000 </r>
       <r>    -9.9378     0.0000   232.0000 </r>
       <r>    -9.6885     0.0000   232.0000 </r>
       <r>    -9.4393     0.0000   232.0000 </r>
       <r>    -9.1900     0.0000   232.0000 </r>
       <r>    -8.9407     0.0000   232.0000 </r>
       <r>    -8.6914     0.0000   232.0000 </r>
       <r>    -8.4422     0.0660   232.0165 </r>
       <r>    -8.1929     4.3477   233.1002 </r>
       <r>    -7.9436     6.4832   234.7164 </r>
       <r>    -7.6943    10.6313   237.3665 </r>
       <r>    -7.4450    10.6260   240.0153 </r>
       <r>    -7.1958    12.8531   243.2193 </r>
       <r>    -6.9465    15.9774   247.2021 </r>
       <r>    -6.6972    23.3946   253.0339 </r>
       <r>    -6.4479    13.5521   256.4121 </r>
       <r>    -6.1987     6.3440   257.9935 </r>
       <r>    -5.9494     0.0259   258.0000 </r>
       <r>    -5.7001     0.0000   258.0000 </r>
       <r>    -5.4508     0.0001   258.0000 </r>
       <r>    -5.2015     0.6783   258.1691 </r>
       <r>    -4.9523     6.4646   259.7806 </r>
       <r>    -4.7030     1.5045   260.1556 </r>
       <r>    -4.4537     9.3801   262.4939 </r>
       <r>    -4.2044     8.0382   264.4976 </r>
       <r>    -3.9552    14.4717   268.1051 </r>
       <r>    -3.7059    19.0642   272.8574 </r>
       <r>    -3.4566    22.0798   278.3614 </r>
       <r>    -3.2073    15.1048   282.1267 </r>
       <r>    -2.9580    17.9062   286.5903 </r>
       <r>    -2.7088    15.4882   290.4512 </r>
       <r>    -2.4595    14.1898   293.9884 </r>
       <r>    -2.2102     7.6945   295.9064 </r>
       <r>    -1.9609     0.3754   296.0000 </r>
       <r>    -1.7117     0.0000   296.0000 </r>
       <r>    -1.4624     0.0000   296.0000 </r>
       <r>    -1.2131     0.0000   296.0000 </r>
       <r>    -0.9638     0.0000   296.0000 </r>
       <r>    -0.7145     0.0000   296.0000 </r>
       <r>    -0.4653     0.0000   296.0000 </r>
       <r>    -0.2160     0.0017   296.0004 </r>
       <r>     0.0333     0.6479   296.1620 </r>
       <r>     0.2826     3.4195   297.0143 </r>
       <r>     0.5318    11.2004   299.8063 </r>
       <r>     0.7811    12.4921   302.9203 </r>
       <r>     1.0304    12.6852   306.0825 </r>
       <r>     1.2797    23.0872   311.8376 </r>
       <r>     1.5290    28.0918   318.8403 </r>
       <r>     1.7782    28.1108   325.8477 </r>
       <r>     2.0275    29.9794   333.3209 </r>
       <r>     2.2768    36.8447   342.5054 </r>
       <r>     2.5261    38.0923   352.0010 </r>
       <r>     2.7753    45.9744   363.4614 </r>
       <r>     3.0246    55.8675   377.3879 </r>
       <r>     3.2739    60.4404   392.4543 </r>
       <r>     3.5232    59.0570   407.1759 </r>
       <r>     3.7724    57.3580   421.4740 </r>
       <r>     4.0217    52.7562   434.6249 </r>
       <r>     4.2710    47.0104   446.3436 </r>
       <r>     4.5203    42.2766   456.8822 </r>
       <r>     4.7696    34.7140   465.5356 </r>
       <r>     5.0188    28.0408   472.5255 </r>
       <r>     5.2681    25.7456   478.9433 </r>
       <r>     5.5174    17.8485   483.3925 </r>
       <r>     5.7667    14.3209   486.9624 </r>
       <r>     6.0159     8.5147   489.0850 </r>
       <r>     6.2652    14.2777   492.6441 </r>
       <r>     6.5145    17.4485   496.9936 </r>
       <r>     6.7638    20.7137   502.1570 </r>
       <r>     7.0131    23.7687   508.0821 </r>
       <r>     7.2623    23.0351   513.8242 </r>
       <r>     7.5116    28.4046   520.9048 </r>
       <r>     7.7609    28.6941   528.0576 </r>
       <r>     8.0102    27.9677   535.0293 </r>
       <r>     8.2594    38.7170   544.6806 </r>
       <r>     8.5087    48.9333   556.8786 </r>
       <r>     8.7580    56.0327   570.8463 </r>
       <r>     9.0073    57.1177   585.0845 </r>
       <r>     9.2566    53.6660   598.4622 </r>
       <r>     9.5058    55.2902   612.2448 </r>
       <r>     9.7551    54.1373   625.7400 </r>
       <r>    10.0044    54.4748   639.3194 </r>
       <r>    10.2537    47.9710   651.2775 </r>
       <r>    10.5029    44.5742   662.3888 </r>
       <r>    10.7522    32.5189   670.4951 </r>
       <r>    11.0015     6.0184   671.9953 </r>
       <r>    11.2508     0.0188   672.0000 </r>
       <r>    11.5001     0.0000   672.0000 </r>
       <r>    11.7493     0.0000   672.0000 </r>
       <r>    11.9986     0.0000   672.0000 </r>
       <r>    12.2479     0.0000   672.0000 </r>
       <r>    12.4972     0.0000   672.0000 </r>
       <r>    12.7464     0.0000   672.0000 </r>
       <r>    12.9957     0.0000   672.0000 </r>
       <r>    13.2450     0.0000   672.0000 </r>
       <r>    13.4943     0.0000   672.0000 </r>
       <r>    13.7436     0.0000   672.0000 </r>
       <r>    13.9928     0.0000   672.0000 </r>
       <r>    14.2421     0.0000   672.0000 </r>
      </set>
     </set>
    </array>
   </total>
  </dos>
 </calculation>
 <structure name="finalpos" >
  <crystal>
   <varray name="basis" >
    <v>       8.67344041       0.01160916      -0.00697421 </v>
    <v>       0.01744271       8.73450080      -0.02353108 </v>
    <v>       0.02419954      -0.03838635       8.67501009 </v>
   </varray>
   <i name="volume">    657.19478971 </i>
   <varray name="rec_basis" >
    <v>       0.11529455      -0.00023111      -0.00032264 </v>
    <v>      -0.00015283       0.11449018       0.00050704 </v>
    <v>       0.00009228       0.00031037       0.11527476 </v>
   </varray>
  </crystal>
  <varray name="positions" >
   <v>       0.99955566       0.00283896       0.99177959 </v>
   <v>       0.26791138       0.00090845       0.24706524 </v>
   <v>       0.24022044       0.49349262       0.24668059 </v>
   <v>       0.49849429       0.49963254       0.00030801 </v>
   <v>       0.51435756       0.24532944       0.73879551 </v>
   <v>       0.99639138       0.50041748       0.50272919 </v>
   <v>       0.49080328       0.75855704       0.75674705 </v>
   <v>       0.98920518       0.22508514       0.26197132 </v>
   <v>       0.76930966       0.73751760       0.00573922 </v>
   <v>       0.00146535       0.25238754       0.74013672 </v>
   <v>       0.76531043       0.22874469       0.48185891 </v>
   <v>       0.00174996       0.73676397       0.76242481 </v>
   <v>       0.24176907       0.48274659       0.75239236 </v>
   <v>       0.24870205       0.24521370       0.99056932 </v>
   <v>       0.51150825       0.25448604       0.25417995 </v>
   <v>       0.73846673       0.99549383       0.24962814 </v>
   <v>       0.75804000       0.25686582       0.00413976 </v>
   <v>       0.24193059       0.74701111       0.99613671 </v>
   <v>       0.24872757       0.24837631       0.50342468 </v>
   <v>       0.24593620       0.75173685       0.50778462 </v>
   <v>       0.24948268       0.24664846       0.24966375 </v>
   <v>       0.26011005       0.00202257       0.98806258 </v>
   <v>       0.00248832       0.25826125       0.00322524 </v>
   <v>       0.75412530       0.24966216       0.24929467 </v>
   <v>       0.74441971       0.99860424       0.00263476 </v>
   <v>       0.51296877       0.00446369       0.25435525 </v>
   <v>       0.98636374       0.49717346       0.24146163 </v>
   <v>       0.49839417       0.76325801       0.01086247 </v>
   <v>       0.98127105       0.01000638       0.73923661 </v>
   <v>       0.76520183       0.25837302       0.75023763 </v>
   <v>       0.74757726       0.00781983       0.49962287 </v>
   <v>       0.50505332       0.25148577       0.48821516 </v>
   <v>       0.53073598       0.00031279       0.74697865 </v>
   <v>       0.99618171       0.00146733       0.25307335 </v>
   <v>       0.50515974       0.23829795       0.00191195 </v>
   <v>       0.25114052       0.74810999       0.25086990 </v>
   <v>       0.23904779       0.49816341       0.98884311 </v>
   <v>       0.00041860       0.73933993       0.00164246 </v>
   <v>       0.74282690       0.75186699       0.24397783 </v>
   <v>       0.76307227       0.50276948       0.00360221 </v>
   <v>       0.49757421       0.49756492       0.25375828 </v>
   <v>       0.24419478       0.24843859       0.74751769 </v>
   <v>       0.25576959       0.00157972       0.51579160 </v>
   <v>       0.00011912       0.24668274       0.50056573 </v>
   <v>       0.23303284       0.75397035       0.75296355 </v>
   <v>       0.25430303       0.49933924       0.50845601 </v>
   <v>       0.99547346       0.75866875       0.50673539 </v>
   <v>       0.00330809       0.49918525       0.75705657 </v>
   <v>       0.75653833       0.75241346       0.75575895 </v>
   <v>       0.74273303       0.49575281       0.50407896 </v>
   <v>       0.49364580       0.76156515       0.49063971 </v>
   <v>       0.49821346       0.50178420       0.74288796 </v>
   <v>       0.52208289       0.01187008       0.97564296 </v>
   <v>       0.00068390       0.50530257       0.97994722 </v>
   <v>       0.49287322       0.73052458       0.25755638 </v>
   <v>       0.21425162       0.01990583       0.74198359 </v>
   <v>       0.48406052       0.98413673       0.51814104 </v>
   <v>       0.74759063       0.96410274       0.78273649 </v>
   <v>       0.00545784       0.76794487       0.24913511 </v>
   <v>       0.74010926       0.51178528       0.25620338 </v>
   <v>       0.01118940       0.00478078       0.50214380 </v>
   <v>       0.50069679       0.51832953       0.49501934 </v>
   <v>       0.75415997       0.51546319       0.75227125 </v>
   <v>       0.74604386       0.75719597       0.49074541 </v>
  </varray>
 </structure>
</modeling>
