HECN                                    
           1
     8.690656    0.019030   -0.007312
     0.024945    8.737771   -0.015031
     0.023866   -0.029939    8.665940
   Zr   V    Ti   N    C    Cr   W 
   7   6   7  13  19   6   6
Direct configuration=     1
   0.99653003  0.00375697  0.99156922
   0.26725944  0.00123888  0.24666731
   0.24193813  0.49347842  0.24635527
   0.49814753  0.49898597  0.99939489
   0.51222534  0.24543626  0.73871736
   0.99872103  0.50036117  0.50257482
   0.49109784  0.75861290  0.75555841
   0.98523635  0.22755576  0.26638023
   0.76816981  0.74174317  0.00679961
   0.00317045  0.24730553  0.73496356
   0.76169769  0.24747752  0.48709269
   0.00203391  0.73708168  0.76146687
   0.23947832  0.48395786  0.75291163
   0.24525918  0.24669897  0.99153706
   0.51410387  0.25266751  0.25307762
   0.74056823  0.99549324  0.26438020
   0.75589675  0.25299306  0.99873044
   0.24098283  0.74773454  0.99634488
   0.25210007  0.24816669  0.50196298
   0.24777343  0.75183032  0.50603808
   0.24841057  0.24643694  0.24959260
   0.25599477  0.00294907  0.98758097
   0.00036637  0.25876198  0.00253085
   0.75352351  0.24890889  0.24948874
   0.74339097  0.99872148  0.00120316
   0.51404222  0.00246735  0.25208059
   0.98738433  0.49651797  0.24204673
   0.49756879  0.76291129  0.01092767
   0.98419329  0.00675717  0.73968998
   0.76477252  0.25536247  0.75014271
   0.75367185  0.00733807  0.50564467
   0.50486141  0.25060725  0.48759134
   0.51750184  0.00076306  0.74442534
   0.99523966  0.00207949  0.25432789
   0.50409758  0.23750539  0.00172214
   0.25018680  0.74807821  0.24978152
   0.23845948  0.49858805  0.98880318
   0.99984985  0.74148157  0.00188694
   0.74383478  0.75153109  0.24526831
   0.76214555  0.50318042  0.00509359
   0.49864741  0.49670888  0.25225008
   0.24415056  0.24960694  0.74705674
   0.25852085  0.00090197  0.51620119
   0.00121914  0.24593880  0.50122889
   0.23342953  0.75342854  0.75198601
   0.25629136  0.50015240  0.50874081
   0.99753893  0.75860109  0.50700687
   0.00378952  0.49623155  0.75826026
   0.75639501  0.75400225  0.75538801
   0.74490867  0.49284833  0.50621971
   0.49681849  0.76111829  0.48890274
   0.50152822  0.50201165  0.74155533
   0.52544316  0.01140798  0.97584528
   0.99946542  0.50873747  0.98295687
   0.49244308  0.73050815  0.25310698
   0.21643551  0.02125475  0.74513230
   0.48407450  0.98549972  0.50606628
   0.73909744  0.96861583  0.77643067
   0.00491816  0.76771649  0.24990701
   0.73948138  0.50889226  0.25485007
   0.01542733  0.00394469  0.50393018
   0.50275700  0.51625616  0.49325811
   0.75815839  0.51584261  0.75851484
   0.74717497  0.74624932  0.49285282
HECN                                    
           1
     8.670347    0.018566   -0.006385
     0.024484    8.707969   -0.014834
     0.024727   -0.029665    8.654574
   Zr   V    Ti   N    C    Cr   W 
   7   6   7  13  19   6   6
Direct configuration=     2
   0.99640426  0.00331656  0.99152269
   0.26721482  0.00137318  0.24639288
   0.24169866  0.49337495  0.24650615
   0.49825081  0.49910477  0.99933626
   0.51236037  0.24480963  0.73897959
   0.99848551  0.50057856  0.50298768
   0.49118221  0.75829215  0.75575630
   0.98566318  0.22699372  0.26569773
   0.76797854  0.74149187  0.00665273
   0.00290061  0.24786354  0.73518383
   0.76185587  0.24646964  0.48701600
   0.00190715  0.73718408  0.76146138
   0.23939869  0.48400105  0.75318196
   0.24520191  0.24617737  0.99126247
   0.51360479  0.25288705  0.25253338
   0.74047980  0.99603009  0.26376745
   0.75636926  0.25338350  0.99961340
   0.24103967  0.74780878  0.99605779
   0.25199928  0.24832937  0.50218197
   0.24735645  0.75187694  0.50629532
   0.24862069  0.24675550  0.24945580
   0.25648683  0.00288656  0.98757428
   0.00065248  0.25828022  0.00294423
   0.75368432  0.24883962  0.24911956
   0.74358407  0.99869261  0.00147891
   0.51357814  0.00267350  0.25226167
   0.98750464  0.49645249  0.24174619
   0.49772029  0.76314796  0.01071054
   0.98404955  0.00679802  0.73980049
   0.76482733  0.25540819  0.75041427
   0.75294995  0.00745341  0.50526153
   0.50473916  0.25037824  0.48778733
   0.51920028  0.00107328  0.74454047
   0.99534223  0.00191819  0.25466067
   0.50413369  0.23752983  0.00166512
   0.25066753  0.74808844  0.24982519
   0.23865184  0.49873749  0.98875626
   0.99953763  0.74153389  0.00166680
   0.74380415  0.75122768  0.24560032
   0.76228332  0.50319824  0.00478091
   0.49816472  0.49649046  0.25259776
   0.24398580  0.24958764  0.74724378
   0.25858306  0.00086323  0.51601850
   0.00110605  0.24594146  0.50081355
   0.23356797  0.75331950  0.75231233
   0.25640524  0.49988877  0.50858888
   0.99757315  0.75868862  0.50669560
   0.00403053  0.49658584  0.75835517
   0.75619743  0.75433448  0.75567963
   0.74480693  0.49315382  0.50605771
   0.49615381  0.76094827  0.48896172
   0.50085622  0.50191896  0.74164671
   0.52467473  0.01121593  0.97508349
   0.99944899  0.50909971  0.98246516
   0.49250170  0.73069043  0.25342005
   0.21708096  0.02097626  0.74545644
   0.48381694  0.98555232  0.50719708
   0.73958057  0.96808872  0.77623765
   0.00508759  0.76811892  0.24997595
   0.74038718  0.50917560  0.25439344
   0.01441488  0.00422252  0.50408116
   0.50256877  0.51664645  0.49335312
   0.75800579  0.51583363  0.75843081
   0.74763140  0.74623805  0.49249697
HECN                                    
           1
     8.676683    0.018710   -0.006674
     0.024628    8.717267   -0.014895
     0.024458   -0.029751    8.658120
   Zr   V    Ti   N    C    Cr   W 
   7   6   7  13  19   6   6
Direct configuration=     3
   0.99644359  0.00345443  0.99153722
   0.26722876  0.00133114  0.24647861
   0.24177355  0.49340735  0.24645901
   0.49821851  0.49906758  0.99935458
   0.51231816  0.24500579  0.73889767
   0.99855917  0.50051052  0.50285870
   0.49115583  0.75839256  0.75569448
   0.98552970  0.22716965  0.26591094
   0.76803835  0.74157054  0.00669860
   0.00298499  0.24768887  0.73511502
   0.76180642  0.24678514  0.48703995
   0.00194678  0.73715202  0.76146309
   0.23942360  0.48398754  0.75309751
   0.24521982  0.24634065  0.99134824
   0.51376084  0.25281833  0.25270337
   0.74050742  0.99586203  0.26395886
   0.75622152  0.25326128  0.99933760
   0.24102189  0.74778554  0.99614747
   0.25203080  0.24827845  0.50211356
   0.24748685  0.75186235  0.50621495
   0.24855497  0.24665577  0.24949854
   0.25633296  0.00290612  0.98757639
   0.00056303  0.25843103  0.00281511
   0.75363403  0.24886130  0.24923489
   0.74352370  0.99870165  0.00139278
   0.51372326  0.00260897  0.25220509
   0.98746701  0.49647298  0.24184008
   0.49767290  0.76307387  0.01077837
   0.98409450  0.00678524  0.73976596
   0.76481020  0.25539388  0.75032944
   0.75317568  0.00741731  0.50538119
   0.50477740  0.25044994  0.48772610
   0.51866917  0.00097614  0.74450456
   0.99531017  0.00196869  0.25455671
   0.50412240  0.23752218  0.00168293
   0.25051720  0.74808523  0.24981156
   0.23859168  0.49869071  0.98877093
   0.99963526  0.74151751  0.00173556
   0.74381374  0.75132266  0.24549660
   0.76224023  0.50319265  0.00487859
   0.49831567  0.49655884  0.25248914
   0.24403733  0.24959368  0.74718535
   0.25856360  0.00087535  0.51607557
   0.00114140  0.24594062  0.50094329
   0.23352469  0.75335364  0.75221040
   0.25636963  0.49997129  0.50863635
   0.99756244  0.75866122  0.50679284
   0.00395517  0.49647493  0.75832553
   0.75625922  0.75423048  0.75558853
   0.74483873  0.49305819  0.50610831
   0.49636166  0.76100151  0.48894327
   0.50106636  0.50194799  0.74161814
   0.52491500  0.01127605  0.97532143
   0.99945410  0.50898631  0.98261876
   0.49248337  0.73063337  0.25332225
   0.21687914  0.02106343  0.74535520
   0.48389752  0.98553587  0.50684383
   0.73942949  0.96825372  0.77629796
   0.00503460  0.76799294  0.24995442
   0.74010391  0.50908689  0.25453611
   0.01473148  0.00413556  0.50403396
   0.50262763  0.51652427  0.49332344
   0.75805350  0.51583644  0.75845706
   0.74748867  0.74624157  0.49260815
HECN                                    
           1
     8.679335    0.017826   -0.005747
     0.023738    8.720456   -0.015265
     0.025404   -0.030115    8.669327
   Zr   V    Ti   N    C    Cr   W 
   7   6   7  13  19   6   6
Direct configuration=     4
   0.99636867  0.00290725  0.99147538
   0.26716875  0.00143964  0.24619107
   0.24137076  0.49340530  0.24649610
   0.49832094  0.49922645  0.99951518
   0.51245608  0.24475486  0.73915143
   0.99834637  0.50060931  0.50321740
   0.49116381  0.75811340  0.75573598
   0.98617703  0.22678108  0.26496456
   0.76764019  0.74141672  0.00658226
   0.00260822  0.24838295  0.73551813
   0.76196418  0.24537146  0.48678103
   0.00176139  0.73748669  0.76138916
   0.23953903  0.48413193  0.75336429
   0.24527525  0.24580825  0.99105089
   0.51308945  0.25306213  0.25214725
   0.74029323  0.99649564  0.26298427
   0.75677912  0.25368205  0.00051379
   0.24114298  0.74793426  0.99585935
   0.25193752  0.24844911  0.50241163
   0.24696562  0.75192385  0.50656558
   0.24879662  0.24689752  0.24935030
   0.25713017  0.00272710  0.98754126
   0.00094653  0.25801127  0.00337437
   0.75381219  0.24876429  0.24878815
   0.74354577  0.99862815  0.00167374
   0.51328511  0.00278011  0.25251224
   0.98756984  0.49635094  0.24143924
   0.49789651  0.76346468  0.01058799
   0.98389728  0.00680633  0.73997139
   0.76496339  0.25542805  0.75061385
   0.75219694  0.00765297  0.50500124
   0.50463089  0.25002739  0.48790196
   0.52069144  0.00093759  0.74447986
   0.99538452  0.00191926  0.25473828
   0.50413706  0.23754865  0.00164262
   0.25110362  0.74813300  0.24988757
   0.23873018  0.49884880  0.98875606
   0.99938150  0.74147227  0.00152158
   0.74378523  0.75126022  0.24567287
   0.76242719  0.50315433  0.00452503
   0.49801780  0.49639858  0.25275772
   0.24388218  0.24954025  0.74738615
   0.25836648  0.00090499  0.51590295
   0.00104152  0.24615111  0.50050468
   0.23365496  0.75326752  0.75252698
   0.25636334  0.49968787  0.50855034
   0.99760359  0.75871011  0.50654905
   0.00416986  0.49690423  0.75832609
   0.75609531  0.75437542  0.75587237
   0.74468094  0.49327181  0.50590091
   0.49564066  0.76095078  0.48909992
   0.50023595  0.50177347  0.74174846
   0.52400604  0.01090002  0.97462874
   0.99951607  0.50932193  0.98218303
   0.49253404  0.73097147  0.25369288
   0.21750664  0.02048143  0.74563011
   0.48369322  0.98572137  0.50835329
   0.74037805  0.96798533  0.77626469
   0.00521401  0.76807429  0.25002993
   0.74091634  0.50907768  0.25407442
   0.01376510  0.00444378  0.50422675
   0.50240522  0.51667249  0.49340034
   0.75773369  0.51561728  0.75819100
   0.74789875  0.74660126  0.49230495
HECN                                    
           1
     8.680491    0.017440   -0.005342
     0.023350    8.721847   -0.015427
     0.025816   -0.030274    8.674212
   Zr   V    Ti   N    C    Cr   W 
   7   6   7  13  19   6   6
Direct configuration=     5
   0.99633600  0.00266879  0.99144846
   0.26714262  0.00148692  0.24606588
   0.24119522  0.49340440  0.24651227
   0.49836557  0.49929569  0.99958511
   0.51251616  0.24464551  0.73926190
   0.99825362  0.50065236  0.50337359
   0.49116728  0.75799175  0.75575405
   0.98645917  0.22661176  0.26455248
   0.76746666  0.74134967  0.00653162
   0.00244403  0.24868541  0.73569367
   0.76203289  0.24475540  0.48666826
   0.00168061  0.73763252  0.76135698
   0.23958933  0.48419487  0.75348044
   0.24529940  0.24557624  0.99092141
   0.51279689  0.25316833  0.25190516
   0.74019996  0.99677173  0.26255997
   0.75702209  0.25386547  0.00102587
   0.24119577  0.74799907  0.99573390
   0.25189685  0.24852348  0.50254142
   0.24673845  0.75195063  0.50671827
   0.24890196  0.24700288  0.24928575
   0.25747760  0.00264912  0.98752592
   0.00111362  0.25782837  0.00361784
   0.75388985  0.24872201  0.24859364
   0.74355537  0.99859613  0.00179607
   0.51309415  0.00285468  0.25264600
   0.98761467  0.49629775  0.24126472
   0.49799399  0.76363500  0.01050510
   0.98381132  0.00681552  0.74006084
   0.76503015  0.25544295  0.75073767
   0.75177042  0.00775562  0.50483586
   0.50456702  0.24984325  0.48797853
   0.52157278  0.00092088  0.74446900
   0.99541692  0.00189772  0.25481733
   0.50414346  0.23756018  0.00162507
   0.25135919  0.74815384  0.24992064
   0.23879055  0.49891770  0.98874959
   0.99927092  0.74145254  0.00142843
   0.74377279  0.75123302  0.24574961
   0.76250869  0.50313763  0.00437108
   0.49788797  0.49632872  0.25287467
   0.24381455  0.24951697  0.74747358
   0.25828059  0.00091790  0.51582780
   0.00099802  0.24624283  0.50031372
   0.23371172  0.75323000  0.75266481
   0.25636060  0.49956436  0.50851288
   0.99762154  0.75873142  0.50644291
   0.00426344  0.49709133  0.75832633
   0.75602387  0.75443858  0.75599597
   0.74461220  0.49336490  0.50581062
   0.49532643  0.76092865  0.48916815
   0.49987404  0.50169738  0.74180524
   0.52360992  0.01073610  0.97432718
   0.99954311  0.50946819  0.98199333
   0.49255613  0.73111882  0.25385425
   0.21778008  0.02022784  0.74574976
   0.48360412  0.98580222  0.50901050
   0.74079144  0.96786842  0.77625015
   0.00529220  0.76810975  0.25006280
   0.74127043  0.50907369  0.25387337
   0.01334395  0.00457806  0.50431074
   0.50230830  0.51673707  0.49343383
   0.75759431  0.51552175  0.75807517
   0.74807750  0.74675803  0.49217293
HECN                                    
           1
     8.673087    0.015609   -0.005542
     0.021477    8.728425   -0.016823
     0.025601   -0.031699    8.669693
   Zr   V    Ti   N    C    Cr   W 
   7   6   7  13  19   6   6
Direct configuration=     6
   0.99646689  0.00221543  0.99148997
   0.26710686  0.00144396  0.24598825
   0.24085701  0.49365791  0.24623239
   0.49841957  0.49945092  0.00006798
   0.51275086  0.24522726  0.73940951
   0.99806564  0.50041473  0.50343350
   0.49118255  0.75798802  0.75535570
   0.98711162  0.22641608  0.26379362
   0.76705630  0.74122394  0.00667858
   0.00209436  0.24922059  0.73610063
   0.76241383  0.24290042  0.48569433
   0.00149334  0.73802199  0.76124178
   0.23996348  0.48421871  0.75362834
   0.24564440  0.24537840  0.99062097
   0.51219899  0.25338450  0.25183254
   0.73958111  0.99705355  0.26124954
   0.75743407  0.25419000  0.00224208
   0.24130804  0.74814125  0.99562534
   0.25168884  0.24853501  0.50299104
   0.24629577  0.75203234  0.50709733
   0.24914264  0.24687920  0.24924108
   0.25828583  0.00230814  0.98757423
   0.00151533  0.25756025  0.00418070
   0.75394781  0.24874353  0.24842736
   0.74311777  0.99853645  0.00166577
   0.51302206  0.00302108  0.25327988
   0.98757602  0.49628796  0.24106829
   0.49823101  0.76397226  0.01030712
   0.98389069  0.00697644  0.74015588
   0.76522088  0.25570438  0.75093880
   0.75087415  0.00816854  0.50436224
   0.50442163  0.24934722  0.48801293
   0.52354304  0.00026764  0.74424463
   0.99545942  0.00176765  0.25465024
   0.50420379  0.23758084  0.00157417
   0.25159186  0.74830847  0.25003339
   0.23874575  0.49900283  0.98881052
   0.99923892  0.74117162  0.00146694
   0.74389930  0.75147014  0.24565986
   0.76266530  0.50308695  0.00403983
   0.49834453  0.49664192  0.25300218
   0.24372073  0.24932992  0.74756865
   0.25733805  0.00115464  0.51579687
   0.00095089  0.24651647  0.50016611
   0.23370064  0.75327513  0.75272928
   0.25608623  0.49944141  0.50855180
   0.99744974  0.75877188  0.50640066
   0.00405335  0.49763130  0.75821689
   0.75603377  0.75392558  0.75599393
   0.74424855  0.49344585  0.50548455
   0.49517679  0.76100462  0.48941368
   0.49935453  0.50148001  0.74195205
   0.52327648  0.01039837  0.97390353
   0.99971908  0.50970453  0.98162836
   0.49250132  0.73115938  0.25439960
   0.21752706  0.01960636  0.74546583
   0.48330134  0.98579323  0.51086732
   0.74215534  0.96762012  0.77700438
   0.00547988  0.76812889  0.24999509
   0.74114052  0.50885394  0.25388046
   0.01324974  0.00502323  0.50443214
   0.50226982  0.51670713  0.49325024
   0.75721653  0.51544235  0.75752752
   0.74797876  0.74766689  0.49190173
HECN                                    
           1
     8.668782    0.014545   -0.005658
     0.020388    8.732249   -0.017634
     0.025476   -0.032527    8.667065
   Zr   V    Ti   N    C    Cr   W 
   7   6   7  13  19   6   6
Direct configuration=     7
   0.99654299  0.00195208  0.99151407
   0.26708604  0.00141899  0.24594308
   0.24066025  0.49380511  0.24606962
   0.49845102  0.49954115  0.00034887
   0.51288751  0.24556525  0.73949543
   0.99795624  0.50027667  0.50346832
   0.49119143  0.75798582  0.75512399
   0.98749122  0.22630241  0.26335221
   0.76681750  0.74115086  0.00676405
   0.00189097  0.24953150  0.73633739
   0.76263524  0.24182276  0.48512766
   0.00138442  0.73824822  0.76117480
   0.24018119  0.48423263  0.75371437
   0.24584511  0.24526349  0.99044620
   0.51185112  0.25351000  0.25179031
   0.73922104  0.99721706  0.26048731
   0.75767384  0.25437869  0.00294955
   0.24137337  0.74822385  0.99556220
   0.25156781  0.24854173  0.50325257
   0.24603821  0.75207979  0.50731781
   0.24928267  0.24680737  0.24921509
   0.25875607  0.00211015  0.98760231
   0.00174904  0.25740459  0.00450808
   0.75398154  0.24875601  0.24833064
   0.74286314  0.99850172  0.00158997
   0.51298014  0.00311780  0.25364860
   0.98755353  0.49628225  0.24095404
   0.49836896  0.76416819  0.01019200
   0.98393689  0.00706995  0.74021118
   0.76533189  0.25585629  0.75105581
   0.75035269  0.00840827  0.50408678
   0.50433696  0.24905906  0.48803289
   0.52468938 -0.00011163  0.74411409
   0.99548413  0.00169208  0.25455303
   0.50423890  0.23759284  0.00154457
   0.25172727  0.74839833  0.25009900
   0.23871970  0.49905229  0.98884597
   0.99922027  0.74100843  0.00148931
   0.74397294  0.75160789  0.24560768
   0.76275642  0.50305749  0.00384714
   0.49861023  0.49682393  0.25307639
   0.24366611  0.24922126  0.74762394
   0.25678965  0.00129206  0.51577889
   0.00092350  0.24667541  0.50008028
   0.23369421  0.75330135  0.75276678
   0.25592657  0.49936996  0.50857442
   0.99734978  0.75879535  0.50637609
   0.00393117  0.49794495  0.75815327
   0.75603947  0.75362756  0.75599269
   0.74403696  0.49349280  0.50529488
   0.49508973  0.76104876  0.48955650
   0.49905221  0.50135369  0.74203743
   0.52308241  0.01020209  0.97365706
   0.99982150  0.50984181  0.98141610
   0.49246944  0.73118299  0.25471682
   0.21737976  0.01924526  0.74530061
   0.48312518  0.98578816  0.51194738
   0.74294892  0.96747611  0.77744309
   0.00558908  0.76814003  0.24995571
   0.74106490  0.50872627  0.25388456
   0.01319499  0.00528184  0.50450280
   0.50224743  0.51668972  0.49314344
   0.75699669  0.51539613  0.75720895
   0.74792142  0.74819485  0.49174407
HECN                                    
           1
     8.674447    0.013961   -0.006210
     0.019822    8.727192   -0.018391
     0.024946   -0.033251    8.670893
   Zr   V    Ti   N    C    Cr   W 
   7   6   7  13  19   6   6
Direct configuration=     8
   0.99697247  0.00184595  0.99188484
   0.26719000  0.00131412  0.24607255
   0.24083050  0.49380723  0.24610362
   0.49849811  0.49981448  0.00023247
   0.51342903  0.24557833  0.73949675
   0.99762070  0.50016297  0.50305463
   0.49127915  0.75763251  0.75487248
   0.98821162  0.22601353  0.26287046
   0.76650768  0.74077142  0.00704251
   0.00158996  0.24980749  0.73690130
   0.76318131  0.23941099  0.48366284
   0.00115106  0.73839988  0.76106868
   0.24052899  0.48405315  0.75348122
   0.24645720  0.24524849  0.99047494
   0.51123363  0.25364719  0.25225291
   0.73869085  0.99699086  0.25893801
   0.75777705  0.25465177  0.00381235
   0.24169049  0.74825649  0.99562650
   0.25123463  0.24861420  0.50339916
   0.24600621  0.75198724  0.50744682
   0.24947677  0.24677269  0.24928043
   0.25917525  0.00175970  0.98768483
   0.00202139  0.25730603  0.00483111
   0.75382010  0.24902497  0.24848617
   0.74283808  0.99857752  0.00168770
   0.51299666  0.00330282  0.25453185
   0.98740571  0.49647648  0.24098076
   0.49862834  0.76422034  0.01014118
   0.98392059  0.00741372  0.74006158
   0.76546323  0.25635087  0.75106646
   0.74974030  0.00887434  0.50344705
   0.50423124  0.24885811  0.48793113
   0.52625581  0.00018932  0.74396786
   0.99549832  0.00155287  0.25431432
   0.50435986  0.23770316  0.00163329
   0.25159035  0.74845365  0.25025771
   0.23861826  0.49906208  0.98877608
   0.99936508  0.74067414  0.00164360
   0.74407300  0.75164423  0.24532505
   0.76282403  0.50303999  0.00377226
   0.49842114  0.49719279  0.25299857
   0.24373472  0.24895834  0.74766869
   0.25608566  0.00142049  0.51580167
   0.00094136  0.24669034  0.50027595
   0.23350940  0.75349994  0.75255272
   0.25557100  0.49945120  0.50859614
   0.99691362  0.75887314  0.50653378
   0.00362666  0.49842539  0.75798720
   0.75625874  0.75314883  0.75580386
   0.74377620  0.49341350  0.50504250
   0.49515779  0.76109766  0.48948978
   0.49900940  0.50138710  0.74226470
   0.52286560  0.01015951  0.97327976
   0.99995498  0.50988685  0.98140098
   0.49243850  0.73099322  0.25542759
   0.21662098  0.01907545  0.74471198
   0.48275644  0.98570947  0.51403892
   0.74434473  0.96635603  0.77827712
   0.00569493  0.76832904  0.24985928
   0.74100735  0.50900728  0.25437069
   0.01302276  0.00570517  0.50394081
   0.50200286  0.51696563  0.49332111
   0.75647266  0.51555135  0.75636518
   0.74742991  0.74943667  0.49147568
HECN                                    
           1
     8.678041    0.013591   -0.006561
     0.019463    8.723984   -0.018871
     0.024610   -0.033711    8.673321
   Zr   V    Ti   N    C    Cr   W 
   7   6   7  13  19   6   6
Direct configuration=     9
   0.99724476  0.00177862  0.99211996
   0.26725590  0.00124757  0.24615464
   0.24093844  0.49380859  0.24612519
   0.49852797  0.49998798  0.00015868
   0.51377235  0.24558665  0.73949761
   0.99740795  0.50009076  0.50279227
   0.49133474  0.75740823  0.75471297
   0.98866831  0.22583017  0.26256499
   0.76631126  0.74053057  0.00721905
   0.00139915  0.24998269  0.73725889
   0.76352735  0.23788003  0.48273387
   0.00100311  0.73849614  0.76100139
   0.24074946  0.48393923  0.75333338
   0.24684526  0.24523899  0.99049319
   0.51084218  0.25373428  0.25254623
   0.73835466  0.99684718  0.25795553
   0.75784253  0.25482517  0.00435948
   0.24189154  0.74827723  0.99566728
   0.25102341  0.24866020  0.50349211
   0.24598593  0.75192850  0.50752863
   0.24959983  0.24675069  0.24932187
   0.25944100  0.00153727  0.98773716
   0.00219406  0.25724350  0.00503595
   0.75371777  0.24919569  0.24858480
   0.74282219  0.99862564  0.00174967
   0.51300717  0.00342031  0.25509195
   0.98731201  0.49659977  0.24099770
   0.49879278  0.76425346  0.01010896
   0.98391026  0.00763193  0.73996673
   0.76554651  0.25666482  0.75107325
   0.74935205  0.00917013  0.50304139
   0.50416419  0.24873054  0.48786659
   0.52724891  0.00038042  0.74387522
   0.99550730  0.00146449  0.25416295
   0.50443655  0.23777320  0.00168957
   0.25150356  0.74848876  0.25035835
   0.23855394  0.49906828  0.98873176
   0.99945687  0.74046197  0.00174142
   0.74413642  0.75166728  0.24514583
   0.76286689  0.50302888  0.00372477
   0.49830127  0.49742692  0.25294924
   0.24377821  0.24879145  0.74769706
   0.25563935  0.00150199  0.51581610
   0.00095269  0.24669983  0.50040003
   0.23339224  0.75362597  0.75241698
   0.25534558  0.49950275  0.50860991
   0.99663710  0.75892251  0.50663377
   0.00343362  0.49873034  0.75788190
   0.75639773  0.75284494  0.75568410
   0.74361087  0.49336314  0.50488245
   0.49520094  0.76112870  0.48944748
   0.49898227  0.50140833  0.74240882
   0.52272813  0.01013246  0.97304050
   0.00003961  0.50991545  0.98139140
   0.49241891  0.73087280  0.25587830
   0.21613990  0.01896759  0.74433869
   0.48252274  0.98565962  0.51536519
   0.74522964  0.96564515  0.77880599
   0.00576204  0.76844902  0.24979814
   0.74097088  0.50918569  0.25467896
   0.01291357  0.00597385  0.50358446
   0.50184783  0.51714077  0.49343378
   0.75614040  0.51564981  0.75583011
   0.74711835  0.75022490  0.49130555
HECN                                    
           1
     8.672031    0.013456   -0.006140
     0.019308    8.727732   -0.018976
     0.025015   -0.033827    8.675063
   Zr   V    Ti   N    C    Cr   W 
   7   6   7  13  19   6   6
Direct configuration=    10
   0.99775179  0.00201320  0.99217029
   0.26767945  0.00108972  0.24641478
   0.24100246  0.49374634  0.24639753
   0.49856786  0.50005818 -0.00011540
   0.51459727  0.24562555  0.73913632
   0.99693901  0.50027413  0.50255453
   0.49129500  0.75788630  0.75488149
   0.98912706  0.22588328  0.26221009
   0.76678537  0.74000701  0.00719737
   0.00131206  0.25025161  0.73799932
   0.76439753  0.23493109  0.48147911
   0.00117264  0.73840068  0.76132733
   0.24055530  0.48359291  0.75291053
   0.24747024  0.24515514  0.99052288
   0.51048933  0.25405950  0.25316714
   0.73807727  0.99640907  0.25602425
   0.75773192  0.25514403  0.00480044
   0.24208326  0.74824855  0.99548482
   0.25057197  0.24886121  0.50355960
   0.24626088  0.75163750  0.50746819
   0.24970454  0.24686256  0.24947521
   0.25932685  0.00145729  0.98796910
   0.00227707  0.25740971  0.00502820
   0.75360973  0.24951989  0.24874632
   0.74341740  0.99871942  0.00209281
   0.51271762  0.00353487  0.25599191
   0.98718968  0.49692080  0.24118245
   0.49899541  0.76411247  0.01006003
   0.98325890  0.00803149  0.73969302
   0.76555729  0.25723147  0.75105842
   0.74916587  0.00928273  0.50222270
   0.50414856  0.24889689  0.48799441
   0.52882949  0.00014534  0.74462296
   0.99567377  0.00169905  0.25400378
   0.50460077  0.23777850  0.00174183
   0.25124943  0.74832482  0.25050979
   0.23874991  0.49895180  0.98869180
   0.99958898  0.74032878  0.00182217
   0.74398511  0.75152938  0.24505263
   0.76278634  0.50304416  0.00390441
   0.49783061  0.49744372  0.25299913
   0.24396334  0.24860231  0.74774145
   0.25573983  0.00141754  0.51580566
   0.00080777  0.24679943  0.50063682
   0.23326859  0.75385411  0.75230471
   0.25508497  0.49963103  0.50849684
   0.99603617  0.75905858  0.50660203
   0.00340684  0.49901934  0.75771549
   0.75637940  0.75258626  0.75555579
   0.74333422  0.49333113  0.50488424
   0.49469646  0.76147786  0.48937617
   0.49913409  0.50148283  0.74241737
   0.52263111  0.01035256  0.97267903
  -0.00001181  0.50932650  0.98120936
   0.49247046  0.73096732  0.25657832
   0.21541015  0.01926406  0.74362623
   0.48195106  0.98579733  0.51714848
   0.74614490  0.96476020  0.77949772
   0.00590356  0.76797460  0.24981193
   0.74059001  0.50975010  0.25519605
   0.01212867  0.00569670  0.50282558
   0.50164193  0.51718171  0.49387765
   0.75593069  0.51535207  0.75474911
   0.74682696  0.75181608  0.49081035
HECN                                    
           1
     8.669730    0.013405   -0.005979
     0.019248    8.729167   -0.019016
     0.025171   -0.033872    8.675730
   Zr   V    Ti   N    C    Cr   W 
   7   6   7  13  19   6   6
Direct configuration=    11
   0.99794609  0.00210299  0.99218955
   0.26784175  0.00102931  0.24651437
   0.24102699  0.49372252  0.24650179
   0.49858315  0.50008505 -0.00022033
   0.51491339  0.24564044  0.73899798
   0.99675932  0.50034431  0.50246352
   0.49127978  0.75806928  0.75494602
   0.98930286  0.22590361  0.26207421
   0.76696705  0.73980660  0.00718905
   0.00127867  0.25035455  0.73828280
   0.76473099  0.23380232  0.48099869
   0.00123760  0.73836414  0.76145211
   0.24048089  0.48346035  0.75274864
   0.24770973  0.24512305  0.99053424
   0.51035412  0.25418399  0.25340487
   0.73797101  0.99624137  0.25528485
   0.75768952  0.25526608  0.00496927
   0.24215674  0.74823758  0.99541496
   0.25039898  0.24893815  0.50358545
   0.24636623  0.75152612  0.50744504
   0.24974467  0.24690538  0.24953392
   0.25928311  0.00142667  0.98805789
   0.00230888  0.25747334  0.00502523
   0.75356832  0.24964398  0.24880817
   0.74364547  0.99875532  0.00222417
   0.51260665  0.00357872  0.25633648
   0.98714281  0.49704368  0.24125319
   0.49907306  0.76405850  0.01004129
   0.98300930  0.00818442  0.73958825
   0.76556143  0.25744837  0.75105274
   0.74909455  0.00932582  0.50190926
   0.50414256  0.24896057  0.48804335
   0.52943515  0.00005537  0.74490920
   0.99573757  0.00178884  0.25394283
   0.50466370  0.23778052  0.00176184
   0.25115204  0.74826207  0.25056777
   0.23882500  0.49890721  0.98867650
   0.99963961  0.74027781  0.00185309
   0.74392713  0.75147659  0.24501695
   0.76275547  0.50305000  0.00397319
   0.49765025  0.49745015  0.25301825
   0.24403427  0.24852991  0.74775845
   0.25577834  0.00138522  0.51580167
   0.00075223  0.24683755  0.50072748
   0.23322122  0.75394143  0.75226173
   0.25498511  0.49968013  0.50845356
   0.99580590  0.75911066  0.50658989
   0.00339658  0.49912995  0.75765179
   0.75637238  0.75248724  0.75550667
   0.74322821  0.49331887  0.50488494
   0.49450315  0.76161151  0.48934889
   0.49919226  0.50151135  0.74242064
   0.52259394  0.01043681  0.97254065
  -0.00003151  0.50910106  0.98113967
   0.49249020  0.73100350  0.25684632
   0.21513052  0.01937753  0.74335348
   0.48173196  0.98585004  0.51783124
   0.74649560  0.96442148  0.77976254
   0.00595778  0.76779301  0.24981721
   0.74044405  0.50996614  0.25539404
   0.01182791  0.00559061  0.50253505
   0.50156302  0.51719738  0.49404760
   0.75585034  0.51523810  0.75433524
   0.74671532  0.75242513  0.49062078
HECN                                    
           1
     8.677777    0.012720   -0.004756
     0.018568    8.732874   -0.019424
     0.026423   -0.034289    8.679168
   Zr   V    Ti   N    C    Cr   W 
   7   6   7  13  19   6   6
Direct configuration=    12
   0.99845198  0.00237176  0.99212416
   0.26761525  0.00093037  0.24665305
   0.24069376  0.49375169  0.24637179