   64   64    1    1
  0.1154088E+02  0.9039738E-09  0.9060331E-09  0.9018348E-09  0.5000000E-15
  1.000000000000000E-004
  CAR 
 HEBCN                                   
    475    112    308
 
  0.0000000E+00  0.0000000E+00  0.0000000E+00  0.4629630E-02
      1        -47.218288   1.000000
      2        -47.195570   1.000000
      3        -47.163136   1.000000
      4        -47.152860   1.000000
      5        -47.105333   1.000000
      6        -46.998823   1.000000
      7        -40.757442   1.000000
      8        -40.511856   1.000000
      9        -40.421573   1.000000
     10        -40.287131   1.000000
     11        -40.211364   1.000000
     12        -40.181473   1.000000
     13        -40.160009   1.000000
     14        -27.289783   1.000000
     15        -27.238870   1.000000
     16        -27.201988   1.000000
     17        -27.190512   1.000000
     18        -27.169081   1.000000
     19        -27.139917   1.000000
     20        -27.092762   1.000000
     21        -27.044807   1.000000
     22        -26.963184   1.000000
     23        -26.939856   1.000000
     24        -26.927295   1.000000
     25        -26.853927   1.000000
     26        -26.791128   1.000000
     27        -26.701845   1.000000
     28        -26.658430   1.000000
     29        -26.644231   1.000000
     30        -26.593817   1.000000
     31        -26.575709   1.000000
     32        -23.541753   1.000000
     33        -23.507315   1.000000
     34        -23.495703   1.000000
     35        -23.422677   1.000000
     36        -23.394654   1.000000
     37        -23.367104   1.000000
     38        -23.339678   1.000000
     39        -23.334736   1.000000
     40        -23.312148   1.000000
     41        -23.281033   1.000000
     42        -23.248021   1.000000
     43        -23.241613   1.000000
     44        -23.216870   1.000000
     45        -23.177734   1.000000
     46        -23.155782   1.000000
     47        -23.120632   1.000000
     48        -23.081053   1.000000
     49        -23.056211   1.000000
     50        -22.729768   1.000000
     51        -22.622185   1.000000
     52        -22.593863   1.000000
     53        -22.569809   1.000000
     54        -22.558794   1.000000
     55        -22.521772   1.000000
     56        -22.475736   1.000000
     57        -22.455254   1.000000
     58        -22.396119   1.000000
     59        -22.153900   1.000000
     60        -22.120642   1.000000
     61        -22.118572   1.000000
     62        -22.079858   1.000000
     63        -22.042217   1.000000
     64        -22.013928   1.000000
     65        -22.001943   1.000000
     66        -21.980176   1.000000
     67        -21.946935   1.000000
     68        -21.685735   1.000000
     69        -21.658255   1.000000
     70        -21.651748   1.000000
     71        -19.095193   1.000000
     72        -19.044652   1.000000
     73        -19.042005   1.000000
     74        -18.869889   1.000000
     75        -18.810158   1.000000
     76        -18.805460   1.000000
     77        -18.789206   1.000000
     78        -18.728694   1.000000
     79        -18.719331   1.000000
     80        -18.707484   1.000000
     81        -18.623009   1.000000
     82        -18.600587   1.000000
     83        -18.568144   1.000000
     84        -18.549238   1.000000
     85        -18.501936   1.000000
     86        -18.491143   1.000000
     87        -18.466642   1.000000
     88        -18.454784   1.000000
     89        -18.428319   1.000000
     90        -18.390176   1.000000
     91        -18.251606   1.000000
     92         -7.863036   1.000000
     93         -7.368177   1.000000
     94         -7.338932   1.000000
     95         -7.170257   1.000000
     96         -6.952978   1.000000
     97         -6.785059   1.000000
     98         -6.579575   1.000000
     99         -6.527041   1.000000
    100         -6.456092   1.000000
    101         -6.379653   1.000000
    102         -6.364801   1.000000
    103         -6.253245   1.000000
    104         -6.116651   1.000000
    105         -3.913218   1.000000
    106         -3.395213   1.000000
    107         -3.254060   1.000000
    108         -3.122692   1.000000
    109         -3.089788   1.000000
    110         -2.982011   1.000000
    111         -2.878171   1.000000
    112         -2.743788   1.000000
    113         -2.689651   1.000000
    114         -2.624997   1.000000
    115         -2.547577   1.000000
    116         -2.506384   1.000000
    117         -2.347349   1.000000
    118         -2.249565   1.000000
    119         -2.217131   1.000000
    120         -1.905826   1.000000
    121         -1.824996   1.000000
    122         -1.463740   1.000000
    123         -1.458629   1.000000
    124          0.542746   1.000000
    125          0.589538   1.000000
    126          0.640682   1.000000
    127          0.660306   1.000000
    128          1.435602   1.000000
    129          1.487241   1.000000
    130          1.555989   1.000000
    131          1.740229   1.000000
    132          1.774276   1.000000
    133          1.812696   1.000000
    134          1.830312   1.000000
    135          1.877299   1.000000
    136          1.930050   1.000000
    137          1.957288   1.000000
    138          2.042297   1.000000
    139          2.175651   1.000000
    140          2.433625   1.000000
    141          2.514289   1.000000
    142          2.534507   1.000000
    143          2.643601   1.000000
    144          2.720635   1.000000
    145          2.770787   1.000000
    146          2.834375   1.000000
    147          2.878194   1.000000
    148          2.950460   1.000000
    149          2.982010   1.000000
    150          3.017304   1.000000
    151          3.025051   1.000000
    152          3.092342   1.000000
    153          3.136143   1.000000
    154          3.213300   1.000000
    155          3.243006   1.000000
    156          3.280176   1.000000
    157          3.303779   1.000000
    158          3.317524   1.000000
    159          3.358354   1.000000
    160          3.388455   1.000000
    161          3.442749   1.000000
    162          3.477281   1.000000
    163          3.535766   1.000000
    164          3.536707   1.000000
    165          3.601646   1.000000
    166          3.611803   1.000000
    167          3.660339   1.000000
    168          3.683846   1.000000
    169          3.718518   1.000000
    170          3.754167   1.000000
    171          3.757019   1.000000
    172          3.799527   1.000000
    173          3.882036   1.000000
    174          3.912188   1.000000
    175          3.923924   1.000000
    176          3.978588   1.000000
    177          3.996827   1.000000
    178          4.020262   1.000000
    179          4.042148   1.000000
    180          4.063148   1.000000
    181          4.083820   1.000000
    182          4.110784   1.000000
    183          4.141167   1.000000
    184          4.183046   1.000000
    185          4.205683   1.000000
    186          4.228421   1.000000
    187          4.250428   1.000000
    188          4.312969   1.000000
    189          4.329193   1.000000
    190          4.374974   1.000000
    191          4.404928   1.000000
    192          4.439134   1.000000
    193          4.454282   1.000000
    194          4.520523   1.000000
    195          4.614087   1.000000
    196          4.638801   1.000000
    197          4.693301   1.000000
    198          4.734472   1.000000
    199          4.797479   1.000000
    200          4.846533   1.000000
    201          4.885917   1.000000
    202          5.415469   1.000000
    203          5.432813   1.000000
    204          5.507538   1.000000
    205          5.598592   1.000000
    206          5.680082   1.000000
    207          5.725038   1.000000
    208          5.761759   1.000000
    209          5.771424   1.000000
    210          5.807646   1.000000
    211          5.878130   1.000000
    212          5.915398   1.000000
    213          5.962666   1.000000
    214          6.003333   1.000000
    215          6.030842   1.000000
    216          6.153410   1.000000
    217          6.208138   1.000000
    218          6.235911   1.000000
    219          6.262337   1.000000
    220          6.354995   1.000000
    221          6.404560   1.000000
    222          6.528033   1.000000
    223          6.649589   1.000000
    224          6.750235   1.000000
    225          6.924305   1.000000
    226          7.241577   1.000000
    227          7.281149   1.000000
    228          7.307104   1.000000
    229          7.492411   1.000000
    230          7.572407   1.000000
    231          7.652334   1.000000
    232          8.313107   0.999975
    233          8.332417   0.999924
    234          8.658070   0.206579
    235          8.703940   0.071180
    236          8.814369   0.001228
    237          8.889985   0.000021
    238          8.998545   0.000000
    239          9.125190   0.000000
    240          9.190808   0.000000
    241          9.229349   0.000000
    242          9.289311   0.000000
    243          9.319322   0.000000
    244          9.420601   0.000000
    245          9.462937   0.000000
    246          9.518763   0.000000
    247          9.548507   0.000000
    248          9.613495   0.000000
    249          9.667858   0.000000
    250          9.724866   0.000000
    251          9.788936   0.000000
    252          9.845858   0.000000
    253          9.851044   0.000000
    254          9.934920   0.000000
    255          9.967544   0.000000
    256         10.020542   0.000000
    257         10.086251   0.000000
    258         10.104197   0.000000
    259         10.123039   0.000000
    260         10.169713   0.000000
    261         10.222782   0.000000
    262         10.251573   0.000000
    263         10.281929   0.000000
    264         10.313856   0.000000
    265         10.359359   0.000000
    266         10.398639   0.000000
    267         10.449647   0.000000
    268         10.491530   0.000000
    269         10.523150   0.000000
    270         10.574402   0.000000
    271         10.600135   0.000000
    272         10.657639   0.000000
    273         10.674129   0.000000
    274         10.759239   0.000000
    275         10.789231   0.000000
    276         10.821266   0.000000
    277         10.829921   0.000000
    278         10.883923   0.000000
    279         10.918649   0.000000
    280         10.935656   0.000000
    281         10.997499   0.000000
    282         11.050604   0.000000
    283         11.090057   0.000000
    284         11.133312   0.000000
    285         11.140532   0.000000
    286         11.161819   0.000000
    287         11.193739   0.000000
    288         11.275594   0.000000
    289         11.283896   0.000000
    290         11.326967   0.000000
    291         11.372880   0.000000
    292         11.439023   0.000000
    293         11.458011   0.000000
    294         11.491043   0.000000
    295         11.524127   0.000000
    296         11.589493   0.000000
    297         11.639458   0.000000
    298         11.682849   0.000000
    299         11.728865   0.000000
    300         11.831100   0.000000
    301         11.864578   0.000000
    302         11.892385   0.000000
    303         11.919109   0.000000
    304         11.981484   0.000000
    305         12.072732   0.000000
    306         12.116086   0.000000
    307         12.210375   0.000000
    308         12.282821   0.000000
 
  0.1666667E+00 -0.1007656E-19  0.3427667E-14  0.9259259E-02
      1        -47.218289   1.000000
      2        -47.195570   1.000000
      3        -47.163136   1.000000
      4        -47.152860   1.000000
      5        -47.105334   1.000000
      6        -46.998824   1.000000
      7        -40.757444   1.000000
      8        -40.511858   1.000000
      9        -40.421575   1.000000
     10        -40.287133   1.000000
     11        -40.211377   1.000000
     12        -40.181449   1.000000
     13        -40.160025   1.000000
     14        -27.289507   1.000000
     15        -27.239046   1.000000
     16        -27.201963   1.000000
     17        -27.190522   1.000000
     18        -27.169096   1.000000
     19        -27.139621   1.000000
     20        -27.093961   1.000000
     21        -27.043892   1.000000
     22        -26.963158   1.000000
     23        -26.939956   1.000000
     24        -26.927296   1.000000
     25        -26.853976   1.000000
     26        -26.791127   1.000000
     27        -26.701844   1.000000
     28        -26.658420   1.000000
     29        -26.644244   1.000000
     30        -26.593817   1.000000
     31        -26.575708   1.000000
     32        -23.541040   1.000000
     33        -23.507179   1.000000
     34        -23.494882   1.000000
     35        -23.422497   1.000000
     36        -23.394349   1.000000
     37        -23.366890   1.000000
     38        -23.338819   1.000000
     39        -23.334270   1.000000
     40        -23.312068   1.000000
     41        -23.281618   1.000000
     42        -23.247205   1.000000
     43        -23.241402   1.000000
     44        -23.216635   1.000000
     45        -23.178299   1.000000
     46        -23.154819   1.000000
     47        -23.120657   1.000000
     48        -23.081032   1.000000
     49        -23.054698   1.000000
     50        -22.730093   1.000000
     51        -22.622237   1.000000
     52        -22.593637   1.000000
     53        -22.569548   1.000000
     54        -22.558750   1.000000
     55        -22.521676   1.000000
     56        -22.475800   1.000000
     57        -22.455637   1.000000
     58        -22.395837   1.000000
     59        -22.153923   1.000000
     60        -22.120636   1.000000
     61        -22.118553   1.000000
     62        -22.079872   1.000000
     63        -22.042241   1.000000
     64        -22.013981   1.000000
     65        -22.001968   1.000000
     66        -21.980164   1.000000
     67        -21.946992   1.000000
     68        -21.685747   1.000000
     69        -21.658265   1.000000
     70        -21.651754   1.000000
     71        -19.095180   1.000000
     72        -19.044675   1.000000
     73        -19.041834   1.000000
     74        -18.870108   1.000000
     75        -18.810215   1.000000
     76        -18.805600   1.000000
     77        -18.789239   1.000000
     78        -18.728938   1.000000
     79        -18.720319   1.000000
     80        -18.706807   1.000000
     81        -18.623017   1.000000
     82        -18.600580   1.000000
     83        -18.568338   1.000000
     84        -18.549668   1.000000
     85        -18.501145   1.000000
     86        -18.491033   1.000000
     87        -18.464881   1.000000
     88        -18.454178   1.000000
     89        -18.428870   1.000000
     90        -18.390224   1.000000
     91        -18.252948   1.000000
     92         -7.836617   1.000000
     93         -7.375177   1.000000
     94         -7.322364   1.000000
     95         -7.155920   1.000000
     96         -6.949495   1.000000
     97         -6.788223   1.000000
     98         -6.603761   1.000000
     99         -6.524241   1.000000
    100         -6.470193   1.000000
    101         -6.396210   1.000000
    102         -6.365969   1.000000
    103         -6.257297   1.000000
    104         -6.116014   1.000000
    105         -3.879641   1.000000
    106         -3.361179   1.000000
    107         -3.306052   1.000000
    108         -3.129653   1.000000
    109         -3.065543   1.000000
    110         -2.976104   1.000000
    111         -2.883164   1.000000
    112         -2.765231   1.000000
    113         -2.699277   1.000000
    114         -2.625069   1.000000
    115         -2.552013   1.000000
    116         -2.496125   1.000000
    117         -2.368023   1.000000
    118         -2.301904   1.000000
    119         -2.211876   1.000000
    120         -1.946898   1.000000
    121         -1.880318   1.000000
    122         -1.532613   1.000000
    123         -1.518386   1.000000
    124          0.625248   1.000000
    125          0.669122   1.000000
    126          0.709932   1.000000
    127          0.764680   1.000000
    128          1.434864   1.000000
    129          1.475138   1.000000
    130          1.572200   1.000000
    131          1.745453   1.000000
    132          1.778056   1.000000
    133          1.855291   1.000000
    134          1.895540   1.000000
    135          1.923782   1.000000
    136          1.989081   1.000000
    137          2.044641   1.000000
    138          2.064425   1.000000
    139          2.227676   1.000000
    140          2.452742   1.000000
    141          2.520526   1.000000
    142          2.535364   1.000000
    143          2.645711   1.000000
    144          2.729755   1.000000
    145          2.778539   1.000000
    146          2.848078   1.000000
    147          2.902194   1.000000
    148          2.922150   1.000000
    149          2.978019   1.000000
    150          3.012050   1.000000
    151          3.030223   1.000000
    152          3.101993   1.000000
    153          3.138555   1.000000
    154          3.181187   1.000000
    155          3.205781   1.000000
    156          3.234539   1.000000
    157          3.289004   1.000000
    158          3.331062   1.000000
    159          3.377888   1.000000
    160          3.407879   1.000000
    161          3.464253   1.000000
    162          3.505254   1.000000
    163          3.535964   1.000000
    164          3.571639   1.000000
    165          3.600087   1.000000
    166          3.620503   1.000000
    167          3.665668   1.000000
    168          3.720351   1.000000
    169          3.751311   1.000000
    170          3.770579   1.000000
    171          3.793652   1.000000
    172          3.815132   1.000000
    173          3.872640   1.000000
    174          3.919342   1.000000
    175          3.936115   1.000000
    176          3.976325   1.000000
    177          3.994379   1.000000
    178          4.024847   1.000000
    179          4.057999   1.000000
    180          4.084261   1.000000
    181          4.107073   1.000000
    182          4.134683   1.000000
    183          4.173315   1.000000
    184          4.209747   1.000000
    185          4.223375   1.000000
    186          4.261270   1.000000
    187          4.279222   1.000000
    188          4.323038   1.000000
    189          4.345119   1.000000
    190          4.386293   1.000000
    191          4.423465   1.000000
    192          4.459327   1.000000
    193          4.473776   1.000000
    194          4.536921   1.000000
    195          4.590201   1.000000
    196          4.619309   1.000000
    197          4.679762   1.000000
    198          4.722980   1.000000
    199          4.766177   1.000000
    200          4.822803   1.000000
    201          4.852371   1.000000
    202          5.222012   1.000000
    203          5.290587   1.000000
    204          5.305680   1.000000
    205          5.416554   1.000000
    206          5.485014   1.000000
    207          5.592951   1.000000
    208          5.640945   1.000000
    209          5.704036   1.000000
    210          5.740247   1.000000
    211          5.817226   1.000000
    212          5.857513   1.000000
    213          5.946600   1.000000
    214          5.988092   1.000000
    215          6.101472   1.000000
    216          6.161115   1.000000
    217          6.233597   1.000000
    218          6.380760   1.000000
    219          6.414667   1.000000
    220          6.458572   1.000000
    221          6.556291   1.000000
    222          6.618472   1.000000
    223          6.665607   1.000000
    224          6.733819   1.000000
    225          6.846550   1.000000
    226          6.883228   1.000000
    227          7.072077   1.000000
    228          7.161249   1.000000
    229          7.503008   1.000000
    230          7.723393   1.000000
    231          7.896894   1.000000
    232          8.267394   0.999999
    233          8.303376   0.999987
    234          8.486750   0.945696
    235          8.638424   0.294421
    236          8.755312   0.014133
    237          8.852429   0.000181
    238          8.891575   0.000019
    239          9.121359   0.000000
    240          9.165810   0.000000
    241          9.181788   0.000000
    242          9.246633   0.000000
    243          9.361206   0.000000
    244          9.419957   0.000000
    245          9.448874   0.000000
    246          9.485105   0.000000
    247          9.545347   0.000000
    248          9.597733   0.000000
    249          9.629460   0.000000
    250          9.663338   0.000000
    251          9.760504   0.000000
    252          9.808956   0.000000
    253          9.861711   0.000000
    254          9.897609   0.000000
    255          9.948005   0.000000
    256         10.000988   0.000000
    257         10.062203   0.000000
    258         10.120649   0.000000
    259         10.133698   0.000000
    260         10.163002   0.000000
    261         10.182665   0.000000
    262         10.220096   0.000000
    263         10.277373   0.000000
    264         10.311682   0.000000
    265         10.341921   0.000000
    266         10.388196   0.000000
    267         10.418841   0.000000
    268         10.476344   0.000000
    269         10.498605   0.000000
    270         10.544859   0.000000
    271         10.609907   0.000000
    272         10.658474   0.000000
    273         10.696375   0.000000
    274         10.730948   0.000000
    275         10.767205   0.000000
    276         10.809362   0.000000
    277         10.836136   0.000000
    278         10.859755   0.000000
    279         10.914499   0.000000
    280         10.971463   0.000000
    281         10.974743   0.000000
    282         11.038560   0.000000
    283         11.075382   0.000000
    284         11.117915   0.000000
    285         11.151300   0.000000
    286         11.185900   0.000000
    287         11.218665   0.000000
    288         11.280352   0.000000
    289         11.299628   0.000000
    290         11.329278   0.000000
    291         11.375510   0.000000
    292         11.458463   0.000000
    293         11.478597   0.000000
    294         11.525991   0.000000
    295         11.548564   0.000000
    296         11.590311   0.000000
    297         11.670056   0.000000
    298         11.733226   0.000000
    299         11.768551   0.000000
    300         11.806324   0.000000
    301         11.864106   0.000000
    302         11.930860   0.000000
    303         11.979166   0.000000
    304         12.021252   0.000000
    305         12.053979   0.000000
    306         12.085932   0.000000
    307         12.213741   0.000000
    308         12.397537   0.000000
 
  0.3333333E+00  0.4175001E-21  0.6822728E-14  0.9259259E-02
      1        -47.218289   1.000000
      2        -47.195570   1.000000
      3        -47.163137   1.000000
      4        -47.152859   1.000000
      5        -47.105334   1.000000
      6        -46.998824   1.000000
      7        -40.757443   1.000000
      8        -40.511858   1.000000
      9        -40.421575   1.000000
     10        -40.287132   1.000000
     11        -40.211399   1.000000
     12        -40.181395   1.000000
     13        -40.160056   1.000000
     14        -27.288943   1.000000
     15        -27.239412   1.000000
     16        -27.201917   1.000000
     17        -27.190544   1.000000
     18        -27.169127   1.000000
     19        -27.138996   1.000000
     20        -27.096295   1.000000
     21        -27.042161   1.000000
     22        -26.963108   1.000000
     23        -26.940167   1.000000
     24        -26.927301   1.000000
     25        -26.854075   1.000000
     26        -26.791127   1.000000
     27        -26.701848   1.000000
     28        -26.658404   1.000000
     29        -26.644272   1.000000
     30        -26.593817   1.000000
     31        -26.575708   1.000000
     32        -23.539567   1.000000
     33        -23.506593   1.000000
     34        -23.493307   1.000000
     35        -23.422143   1.000000
     36        -23.393795   1.000000
     37        -23.363621   1.000000
     38        -23.337691   1.000000
     39        -23.335479   1.000000
     40        -23.309241   1.000000
     41        -23.283896   1.000000
     42        -23.245118   1.000000
     43        -23.236920   1.000000
     44        -23.213872   1.000000
     45        -23.178746   1.000000
     46        -23.150541   1.000000
     47        -23.120064   1.000000
     48        -23.080813   1.000000
     49        -23.052637   1.000000
     50        -22.730728   1.000000
     51        -22.622336   1.000000
     52        -22.593191   1.000000
     53        -22.568984   1.000000
     54        -22.558697   1.000000
     55        -22.521459   1.000000
     56        -22.475941   1.000000
     57        -22.456411   1.000000
     58        -22.395268   1.000000
     59        -22.153967   1.000000
     60        -22.120621   1.000000
     61        -22.118512   1.000000
     62        -22.079896   1.000000
     63        -22.042288   1.000000
     64        -22.014078   1.000000
     65        -22.002015   1.000000
     66        -21.980137   1.000000
     67        -21.947105   1.000000
     68        -21.685764   1.000000
     69        -21.658281   1.000000
     70        -21.651763   1.000000
     71        -19.095155   1.000000
     72        -19.044720   1.000000
     73        -19.041494   1.000000
     74        -18.870545   1.000000
     75        -18.810334   1.000000
     76        -18.805881   1.000000
     77        -18.789303   1.000000
     78        -18.729541   1.000000
     79        -18.721869   1.000000
     80        -18.705744   1.000000
     81        -18.623032   1.000000
     82        -18.600569   1.000000
     83        -18.568754   1.000000
     84        -18.550474   1.000000
     85        -18.499558   1.000000
     86        -18.490823   1.000000
     87        -18.462121   1.000000
     88        -18.452039   1.000000
     89        -18.430139   1.000000
     90        -18.390323   1.000000
     91        -18.255708   1.000000
     92         -7.774833   1.000000
     93         -7.398318   1.000000
     94         -7.285552   1.000000
     95         -7.130212   1.000000
     96         -6.934185   1.000000
     97         -6.801914   1.000000
     98         -6.639450   1.000000
     99         -6.531582   1.000000
    100         -6.506315   1.000000
    101         -6.429895   1.000000
    102         -6.362590   1.000000
    103         -6.262800   1.000000
    104         -6.114244   1.000000
    105         -3.788160   1.000000
    106         -3.436771   1.000000
    107         -3.271110   1.000000
    108         -3.122968   1.000000
    109         -3.057352   1.000000
    110         -2.954876   1.000000
    111         -2.898198   1.000000
    112         -2.814262   1.000000
    113         -2.726282   1.000000
    114         -2.633178   1.000000
    115         -2.534665   1.000000
    116         -2.459373   1.000000
    117         -2.414384   1.000000
    118         -2.363319   1.000000
    119         -2.225344   1.000000
    120         -2.031207   1.000000
    121         -1.995672   1.000000
    122         -1.683266   1.000000
    123         -1.636882   1.000000
    124          0.830104   1.000000
    125          0.857464   1.000000
    126          0.914138   1.000000
    127          0.993066   1.000000
    128          1.370563   1.000000
    129          1.399126   1.000000
    130          1.522956   1.000000
    131          1.575964   1.000000
    132          1.916158   1.000000
    133          1.960274   1.000000
    134          2.037519   1.000000
    135          2.077189   1.000000
    136          2.161380   1.000000
    137          2.197369   1.000000
    138          2.222863   1.000000
    139          2.355024   1.000000
    140          2.459724   1.000000
    141          2.509699   1.000000
    142          2.556309   1.000000
    143          2.630969   1.000000
    144          2.692451   1.000000
    145          2.741510   1.000000
    146          2.770142   1.000000
    147          2.853194   1.000000
    148          2.873425   1.000000
    149          2.976482   1.000000
    150          2.983195   1.000000
    151          3.051127   1.000000
    152          3.100231   1.000000
    153          3.121163   1.000000
    154          3.141362   1.000000
    155          3.180538   1.000000
    156          3.212670   1.000000
    157          3.316855   1.000000
    158          3.351851   1.000000
    159          3.389055   1.000000
    160          3.448212   1.000000
    161          3.478651   1.000000
    162          3.500663   1.000000
    163          3.571166   1.000000
    164          3.605910   1.000000
    165          3.674734   1.000000
    166          3.685186   1.000000
    167          3.750241   1.000000
    168          3.760081   1.000000
    169          3.792034   1.000000
    170          3.810511   1.000000
    171          3.835792   1.000000
    172          3.874300   1.000000
    173          3.901431   1.000000
    174          3.946044   1.000000
    175          3.985771   1.000000
    176          4.026455   1.000000
    177          4.030995   1.000000
    178          4.079169   1.000000
    179          4.117518   1.000000
    180          4.130375   1.000000
    181          4.161281   1.000000
    182          4.211328   1.000000
    183          4.225830   1.000000
    184          4.259232   1.000000