 vasp.6.4.3 19Mar24 (build Sep 18 2024 11:30:23) complex                        
  
 executed on             LinuxIFC date 2025.11.17  18:45:51
 running   28 mpi-ranks, on    1 nodes
 distrk:  each k-point on   28 cores,    1 groups
 distr:  one band on NCORE=   1 cores,   28 groups


--------------------------------------------------------------------------------------------------------


 INCAR:
   SYSTEM = HEBCN
   ISTART = 1
   ICHARG = 11
   PREC = Normal
   LREAL = .F.
   IBRION = -1
   ISIF = 2
   NSW = 0
   POTIM = 0.5
   EDIFFG = -0.01
   ENCUT = 400
   NELM = 60
   EDIFF = 1E-5
   LCHARG = .T.
   LWAVE = .F.
   ISMEAR = 0
   SIGMA = 0.1
   ALGO = Fast
   NEDOS = 1000
   LORBIT = 10
   NBANDS = 288
   EMIN = -50
   EMAX = 15

 POTCAR:   PAW_PBE Zr_sv 07Sep2000                
 POTCAR:   PAW_PBE Mo 08Apr2002                   
 POTCAR:   PAW_PBE Hf_pv 06Sep2000                
 POTCAR:   PAW_PBE N 08Apr2002                    
 POTCAR:   PAW_PBE C 08Apr2002                    
 POTCAR:   PAW_PBE Ta_pv 07Sep2000                
 POTCAR:   PAW_PBE Nb_sv 17Jan2003                
 -----------------------------------------------------------------------------
|                                                                             |
|           W    W    AA    RRRRR   N    N  II  N    N   GGGG   !!!           |
|           W    W   A  A   R    R  NN   N  II  NN   N  G    G  !!!           |
|           W    W  A    A  R    R  N N  N  II  N N  N  G       !!!           |
|           W WW W  AAAAAA  RRRRR   N  N N  II  N  N N  G  GGG   !            |
|           WW  WW  A    A  R   R   N   NN  II  N   NN  G    G                |
|           W    W  A    A  R    R  N    N  II  N    N   GGGG   !!!           |
|                                                                             |
|     For optimal performance we recommend to set                             |
|       NCORE = 2 up to number-of-cores-per-socket                            |
|     NCORE specifies how many cores store one orbital (NPAR=cpu/NCORE).      |
|     This setting can greatly improve the performance of VASP for DFT.       |
|     The default, NCORE=1 might be grossly inefficient on modern             |
|     multi-core architectures or massively parallel machines. Do your        |
|     own testing! More info at https://www.vasp.at/wiki/index.php/NCORE      |
|     Unfortunately you need to use the default for GW and RPA                |
|     calculations (for HF NCORE is supported but not extensively tested      |
|     yet).                                                                   |
|                                                                             |
 -----------------------------------------------------------------------------

 POTCAR:   PAW_PBE Zr_sv 07Sep2000                
   VRHFIN =Zr: 4s4p5s4d                                                                             
   LEXCH  = PE                                                                                      
   EATOM  =  1283.3934 eV,   94.3268 Ry                                                             
                                                                                                    
   TITEL  = PAW_PBE Zr_sv 07Sep2000                                                                 
   LULTRA =        F    use ultrasoft PP ?                                                          
   IUNSCR =        1    unscreen: 0-lin 1-nonlin 2-no                                               
   RPACOR =    2.200    partial core radius                                                         
   POMASS =   91.224; ZVAL   =   12.000    mass and valenz                                          
   RCORE  =    2.500    outmost cutoff radius                                                       
   RWIGS  =    3.070; RWIGS  =    1.625    wigner-seitz radius (au A)                               
   ENMAX  =  229.839; ENMIN  =  172.379 eV                                                          
   RCLOC  =    2.213    cutoff for local pot                                                        
   LCOR   =        T    correct aug charges                                                         
   LPAW   =        T    paw PP                                                                      
   EAUG   =  357.078                                                                                
   DEXC   =     .000                                                                                
   RMAX   =    3.041    core radius for proj-oper                                                   
   RAUG   =    1.300    factor for augmentation sphere                                              
   RDEP   =    2.597    radius for radial grids                                                     
   QCUT   =   -4.110; QGAM   =    8.220    optimization parameters                                  
                                                                                                    
   Description                                                                                      
     l     E      TYP  RCUT    TYP  RCUT                                                            
     0   .000     23  2.500                                                                         
     0   .000     23  2.500                                                                         
     1   .000     23  2.500                                                                         
     1   .000     23  2.500                                                                         
     2   .000     23  2.500                                                                         
     2   .000     23  2.500                                                                         
     3   .000      7   .000                                                                         
  local pseudopotential read in
  partial core-charges read in
  atomic valenz-charges read in
  non local Contribution for L=           0  read in
    real space projection operators read in
  non local Contribution for L=           0  read in
    real space projection operators read in
  non local Contribution for L=           1  read in
    real space projection operators read in
  non local Contribution for L=           1  read in
    real space projection operators read in
  non local Contribution for L=           2  read in
    real space projection operators read in
  non local Contribution for L=           2  read in
    real space projection operators read in
    PAW grid and wavefunctions read in
 
   number of l-projection  operators is LMAX  =           6
   number of lm-projection operators is LMMAX =          18
 
 POTCAR:   PAW_PBE Mo 08Apr2002                   
   VRHFIN =Mo: 4p5s4d                                                                               
   LEXCH  = PE                                                                                      
   EATOM  =   217.5180 eV,   15.9871 Ry                                                             
                                                                                                    
   TITEL  = PAW_PBE Mo 08Apr2002                                                                    
   LULTRA =        F    use ultrasoft PP ?                                                          
   IUNSCR =        1    unscreen: 0-lin 1-nonlin 2-no                                               
   RPACOR =    2.200    partial core radius                                                         
   POMASS =   95.940; ZVAL   =    6.000    mass and valenz                                          
   RCORE  =    2.750    outmost cutoff radius                                                       
   RWIGS  =    2.750; RWIGS  =    1.455    wigner-seitz radius (au A)                               
   ENMAX  =  224.584; ENMIN  =  168.438 eV                                                          
   RCLOC  =    2.111    cutoff for local pot                                                        
   LCOR   =        T    correct aug charges                                                         
   LPAW   =        T    paw PP                                                                      
   EAUG   =  345.278                                                                                
   DEXC   =    -.088                                                                                
   RMAX   =    3.077    core radius for proj-oper                                                   
   RAUG   =    1.300    factor for augmentation sphere                                              
   RDEP   =    2.815    radius for radial grids                                                     
   QCUT   =   -4.063; QGAM   =    8.126    optimization parameters                                  
                                                                                                    
   Description                                                                                      
     l     E      TYP  RCUT    TYP  RCUT                                                            
     2   .000     23  2.500                                                                         
     2   .000     23  2.500                                                                         
     0   .000     23  2.600                                                                         
     0  1.000     23  2.600                                                                         
     1   .400     23  2.750                                                                         
     1  2.000     23  2.750                                                                         
     3   .000      7   .000                                                                         
  local pseudopotential read in
  partial core-charges read in
  atomic valenz-charges read in
  non local Contribution for L=           2  read in
    real space projection operators read in
  non local Contribution for L=           2  read in
    real space projection operators read in
  non local Contribution for L=           0  read in
    real space projection operators read in
  non local Contribution for L=           0  read in
    real space projection operators read in
  non local Contribution for L=           1  read in
    real space projection operators read in
  non local Contribution for L=           1  read in
    real space projection operators read in
    PAW grid and wavefunctions read in
 
   number of l-projection  operators is LMAX  =           6
   number of lm-projection operators is LMMAX =          18
 
 POTCAR:   PAW_PBE Hf_pv 06Sep2000                
   VRHFIN =Hf: 5p6s5d                                                                               
   LEXCH  = PE                                                                                      
   EATOM  =   859.6195 eV,   63.1803 Ry                                                             
                                                                                                    
   TITEL  = PAW_PBE Hf_pv 06Sep2000                                                                 
   LULTRA =        F    use ultrasoft PP ?                                                          
   IUNSCR =        1    unscreen: 0-lin 1-nonlin 2-no                                               
   RPACOR =    2.500    partial core radius                                                         
   POMASS =  178.490; ZVAL   =   10.000    mass and valenz                                          
   RCORE  =    2.600    outmost cutoff radius                                                       
   RWIGS  =    3.050; RWIGS  =    1.614    wigner-seitz radius (au A)                               
   ENMAX  =  220.342; ENMIN  =  165.256 eV                                                          
   RCLOC  =    2.212    cutoff for local pot                                                        
   LCOR   =        T    correct aug charges                                                         
   LPAW   =        T    paw PP                                                                      
   EAUG   =  380.878                                                                                
   DEXC   =    -.057                                                                                
   RMAX   =    3.106    core radius for proj-oper                                                   
   RAUG   =    1.300    factor for augmentation sphere                                              
   RDEP   =    2.681    radius for radial grids                                                     
   QCUT   =   -4.024; QGAM   =    8.049    optimization parameters                                  
                                                                                                    
   Description                                                                                      
     l     E      TYP  RCUT    TYP  RCUT                                                            
     1   .000     23  2.500                                                                         
     1   .000     23  2.500                                                                         
     2   .000     23  2.500                                                                         
     2   .000     23  2.500                                                                         
     0   .000     23  2.600                                                                         
     0   .000     23  2.600                                                                         
     3   .000      7   .000                                                                         
  local pseudopotential read in
  partial core-charges read in
  atomic valenz-charges read in
  non local Contribution for L=           1  read in
    real space projection operators read in
  non local Contribution for L=           1  read in
    real space projection operators read in
  non local Contribution for L=           2  read in
    real space projection operators read in
  non local Contribution for L=           2  read in
    real space projection operators read in
  non local Contribution for L=           0  read in
    real space projection operators read in
  non local Contribution for L=           0  read in
    real space projection operators read in
    PAW grid and wavefunctions read in
 
   number of l-projection  operators is LMAX  =           6
   number of lm-projection operators is LMMAX =          18
 
 POTCAR:   PAW_PBE N 08Apr2002                    
   VRHFIN =N: s2p3                                                                                  
   LEXCH  = PE                                                                                      
   EATOM  =   264.5486 eV,   19.4438 Ry                                                             
                                                                                                    
   TITEL  = PAW_PBE N 08Apr2002                                                                     
   LULTRA =        F    use ultrasoft PP ?                                                          
   IUNSCR =        0    unscreen: 0-lin 1-nonlin 2-no                                               
   RPACOR =     .000    partial core radius                                                         
   POMASS =   14.001; ZVAL   =    5.000    mass and valenz                                          
   RCORE  =    1.500    outmost cutoff radius                                                       
   RWIGS  =    1.400; RWIGS  =     .741    wigner-seitz radius (au A)                               
   ENMAX  =  400.000; ENMIN  =  300.000 eV                                                          
   ICORE  =        2    local potential                                                             
   LCOR   =        T    correct aug charges                                                         
   LPAW   =        T    paw PP                                                                      
   EAUG   =  627.112                                                                                
   DEXC   =     .000                                                                                
   RMAX   =    2.247    core radius for proj-oper                                                   
   RAUG   =    1.300    factor for augmentation sphere                                              
   RDEP   =    1.514    radius for radial grids                                                     
   QCUT   =   -5.562; QGAM   =   11.124    optimization parameters                                  
                                                                                                    
   Description                                                                                      
     l     E      TYP  RCUT    TYP  RCUT                                                            
     0   .000     23  1.200                                                                         
     0   .000     23  1.200                                                                         
     1   .000     23  1.500                                                                         
     1   .700     23  1.500                                                                         
     2   .000      7  1.500                                                                         
  local pseudopotential read in
  atomic valenz-charges read in
  non local Contribution for L=           0  read in
    real space projection operators read in
  non local Contribution for L=           0  read in
    real space projection operators read in
  non local Contribution for L=           1  read in
    real space projection operators read in
  non local Contribution for L=           1  read in
    real space projection operators read in
    PAW grid and wavefunctions read in
 
   number of l-projection  operators is LMAX  =           4
   number of lm-projection operators is LMMAX =           8
 
 POTCAR:   PAW_PBE C 08Apr2002                    
   VRHFIN =C: s2p2                                                                                  
   LEXCH  = PE                                                                                      
   EATOM  =   147.1560 eV,   10.8157 Ry                                                             
                                                                                                    
   TITEL  = PAW_PBE C 08Apr2002                                                                     
   LULTRA =        F    use ultrasoft PP ?                                                          
   IUNSCR =        0    unscreen: 0-lin 1-nonlin 2-no                                               
   RPACOR =     .000    partial core radius                                                         
   POMASS =   12.011; ZVAL   =    4.000    mass and valenz                                          
   RCORE  =    1.500    outmost cutoff radius                                                       
   RWIGS  =    1.630; RWIGS  =     .863    wigner-seitz radius (au A)                               
   ENMAX  =  400.000; ENMIN  =  300.000 eV                                                          
   ICORE  =        2    local potential                                                             
   LCOR   =        T    correct aug charges                                                         
   LPAW   =        T    paw PP                                                                      
   EAUG   =  644.873                                                                                
   DEXC   =     .000                                                                                
   RMAX   =    2.266    core radius for proj-oper                                                   
   RAUG   =    1.300    factor for augmentation sphere                                              
   RDEP   =    1.501    radius for radial grids                                                     
   RDEPT  =    1.300    core radius for aug-charge                                                  
   QCUT   =   -5.516; QGAM   =   11.032    optimization parameters                                  
                                                                                                    
   Description                                                                                      
     l     E      TYP  RCUT    TYP  RCUT                                                            
     0   .000     23  1.200                                                                         
     0   .000     23  1.200                                                                         
     1   .000     23  1.500                                                                         
     1  2.500     23  1.500                                                                         
     2   .000      7  1.500                                                                         
  local pseudopotential read in
  atomic valenz-charges read in
  non local Contribution for L=           0  read in
    real space projection operators read in
  non local Contribution for L=           0  read in
    real space projection operators read in
  non local Contribution for L=           1  read in
    real space projection operators read in
  non local Contribution for L=           1  read in
    real space projection operators read in
    PAW grid and wavefunctions read in
 
   number of l-projection  operators is LMAX  =           4
   number of lm-projection operators is LMMAX =           8
 
 POTCAR:   PAW_PBE Ta_pv 07Sep2000                
   VRHFIN =Ta:  5p6s5d                                                                              
   LEXCH  = PE                                                                                      
   EATOM  =  1045.8051 eV,   76.8645 Ry                                                             
                                                                                                    
   TITEL  = PAW_PBE Ta_pv 07Sep2000                                                                 
   LULTRA =        F    use ultrasoft PP ?                                                          
   IUNSCR =        1    unscreen: 0-lin 1-nonlin 2-no                                               
   RPACOR =    2.330    partial core radius                                                         
   POMASS =  180.948; ZVAL   =   11.000    mass and valenz                                          
   RCORE  =    2.500    outmost cutoff radius                                                       
   RWIGS  =    2.840; RWIGS  =    1.503    wigner-seitz radius (au A)                               
   ENMAX  =  223.675; ENMIN  =  167.756 eV                                                          
   RCLOC  =    2.205    cutoff for local pot                                                        
   LCOR   =        T    correct aug charges                                                         
   LPAW   =        T    paw PP                                                                      
   EAUG   =  377.421                                                                                
   DEXC   =    -.043                                                                                
   RMAX   =    3.083    core radius for proj-oper                                                   
   RAUG   =    1.300    factor for augmentation sphere                                              
   RDEP   =    2.526    radius for radial grids                                                     
   QCUT   =   -4.055; QGAM   =    8.109    optimization parameters                                  
                                                                                                    
   Description                                                                                      
     l     E      TYP  RCUT    TYP  RCUT                                                            
     1   .000     23  2.500                                                                         
     1   .100     23  2.500                                                                         
     2   .000     23  2.500                                                                         
     2   .000     23  2.500                                                                         
     0   .000     23  2.500                                                                         
     0   .000     23  2.500                                                                         
     3   .000      7   .000                                                                         
  local pseudopotential read in
  partial core-charges read in
  atomic valenz-charges read in
  non local Contribution for L=           1  read in
    real space projection operators read in
  non local Contribution for L=           1  read in
    real space projection operators read in
  non local Contribution for L=           2  read in
    real space projection operators read in
  non local Contribution for L=           2  read in
    real space projection operators read in
  non local Contribution for L=           0  read in
    real space projection operators read in
  non local Contribution for L=           0  read in
    real space projection operators read in
    PAW grid and wavefunctions read in
 
   number of l-projection  operators is LMAX  =           6
   number of lm-projection operators is LMMAX =          18
 
 POTCAR:   PAW_PBE Nb_sv 17Jan2003                
   VRHFIN =Nb: 4p5s4d                                                                               
   LEXCH  = PE                                                                                      
   EATOM  =  1555.1913 eV,  114.3033 Ry                                                             
                                                                                                    
   TITEL  = PAW_PBE Nb_sv 17Jan2003                                                                 
   LULTRA =        F    use ultrasoft PP ?                                                          
   IUNSCR =        1    unscreen: 0-lin 1-nonlin 2-no                                               
   RPACOR =    1.800    partial core radius                                                         
   POMASS =   92.910; ZVAL   =   13.000    mass and valenz                                          
   RCORE  =    2.200    outmost cutoff radius                                                       
   RWIGS  =    2.400; RWIGS  =    1.270    wigner-seitz radius (au A)                               
   ENMAX  =  293.235; ENMIN  =  219.927 eV                                                          
   RCLOC  =    1.411    cutoff for local pot                                                        
   LCOR   =        T    correct aug charges                                                         
   LPAW   =        T    paw PP                                                                      
   EAUG   =  455.659                                                                                
   DEXC   =     .000                                                                                
   RMAX   =    2.693    core radius for proj-oper                                                   
   RAUG   =    1.300    factor for augmentation sphere                                              
   RDEP   =    2.299    radius for radial grids                                                     
   QCUT   =   -4.642; QGAM   =    9.285    optimization parameters                                  
                                                                                                    
   Description                                                                                      
     l     E      TYP  RCUT    TYP  RCUT                                                            
     0   .000     23  2.200                                                                         
     0   .000     23  2.200                                                                         
     0   .000     23  2.200                                                                         
     0   .000     23  2.200                                                                         
     1   .000     23  2.200                                                                         
     1  1.000     23  2.200                                                                         
     2   .000     23  2.200                                                                         
     2   .000     23  2.200                                                                         
     3   .000      7   .000                                                                         
  local pseudopotential read in
  partial core-charges read in
  atomic valenz-charges read in
  non local Contribution for L=           0  read in
    real space projection operators read in
  non local Contribution for L=           0  read in
    real space projection operators read in
  non local Contribution for L=           1  read in
    real space projection operators read in
  non local Contribution for L=           1  read in
    real space projection operators read in
  non local Contribution for L=           2  read in
    real space projection operators read in
  non local Contribution for L=           2  read in
    real space projection operators read in
    PAW grid and wavefunctions read in
 
   number of l-projection  operators is LMAX  =           6
   number of lm-projection operators is LMMAX =          18
 
 -----------------------------------------------------------------------------
|                                                                             |
|               ----> ADVICE to this user running VASP <----                  |
|                                                                             |
|     You have a (more or less) 'large supercell' and for larger cells it     |
|     might be more efficient to use real-space projection operators.         |
|     Therefore, try LREAL= Auto in the INCAR file.                           |
|     Mind: If you want to do very accurate calculations, keep the            |
|     reciprocal projection scheme (i.e. LREAL=.FALSE.).                      |
|                                                                             |
 -----------------------------------------------------------------------------

 PAW_PBE Zr_sv 07Sep2000                :
 energy of atom  1       EATOM=-1283.3934
 kinetic energy error for atom=    0.0044 (will be added to EATOM!!)
 PAW_PBE Mo 08Apr2002                   :
 energy of atom  2       EATOM= -217.5180
 kinetic energy error for atom=    0.0025 (will be added to EATOM!!)
 PAW_PBE Hf_pv 06Sep2000                :
 energy of atom  3       EATOM= -859.6195
 kinetic energy error for atom=    0.0038 (will be added to EATOM!!)
 PAW_PBE N 08Apr2002                    :
 energy of atom  4       EATOM= -264.5486
 kinetic energy error for atom=    0.0736 (will be added to EATOM!!)
 PAW_PBE C 08Apr2002                    :
 energy of atom  5       EATOM= -147.1560
 kinetic energy error for atom=    0.0288 (will be added to EATOM!!)
 PAW_PBE Ta_pv 07Sep2000                :
 energy of atom  6       EATOM=-1045.8051
 kinetic energy error for atom=    0.0046 (will be added to EATOM!!)
 PAW_PBE Nb_sv 17Jan2003                :
 energy of atom  7       EATOM=-1555.1913
 kinetic energy error for atom=    0.0212 (will be added to EATOM!!)
 
 
 POSCAR: 42-ZrHfNbTaMo
  positions in direct lattice
  velocities in cartesian coordinates


 exchange-correlation table for PE
   RHO(1)=    0.500       N(1)  =     2000
   RHO(2)=  100.500       N(2)  =     4000
 


--------------------------------------------------------------------------------------------------------


 ion  position               nearest neighbor table
   1  0.996  0.999  1.000-  29 2.27  25 2.28  38 2.29  34 2.29  23 2.32  22 2.35  56 3.11  58 3.12
                            59 3.13   9 3.13  18 3.18  17 3.19  16 3.20   8 3.21  14 3.21   2 3.24
   2  0.250  0.000  0.251-  21 2.25  36 2.26  26 2.28  43 2.29  34 2.30  22 2.31  57 3.09  59 3.14
                            53 3.16   8 3.17  61 3.18  19 3.22  20 3.22   1 3.24  18 3.24  55 3.25
   3  0.249  0.500  0.251-  36 2.28  21 2.28  46 2.28  37 2.29  41 2.29  27 2.30  55 3.17   6 3.19
                            15 3.19  62 3.20   4 3.20  18 3.21  20 3.21  19 3.22  54 3.22  14 3.22
   4  0.501  0.502  0.999-  52 2.28  41 2.29  40 2.32  37 2.32  35 2.35  28 2.38  13 3.13  63 3.14
                            55 3.17  15 3.20  60 3.20   3 3.20  17 3.21   7 3.21  18 3.23   9 3.23
   5  0.501  0.246  0.743-  33 2.23  32 2.24  42 2.24  52 2.30  30 2.32  35 2.33  13 3.07  19 3.17
                            53 3.23  17 3.23  14 3.24  57 3.27   4 3.27  62 3.27  63 3.28  56 3.29
   6  0.998  0.500  0.500-  50 2.27  44 2.28  48 2.29  46 2.30  47 2.31  27 2.31  11 3.01  10 3.05
                            12 3.12  64 3.13  20 3.17  19 3.18   3 3.19  60 3.19   8 3.21  63 3.21
   7  0.498  0.754  0.750-  33 2.23  49 2.26  51 2.28  28 2.29  52 2.30  45 2.31  63 3.08  62 3.14
                            57 3.16  20 3.20  58 3.21  18 3.21   4 3.21  13 3.22  64 3.23  53 3.27
   8  0.987  0.231  0.268-  34 2.12  24 2.17  44 2.22  23 2.33  21 2.38  27 2.42  11 2.74  61 2.94
                            16 3.02   2 3.17  19 3.18   1 3.21   6 3.21  17 3.26  14 3.38   3 3.40
   9  0.770  0.737  0.997-  38 2.09  40 2.14  49 2.24  39 2.26  25 2.41  28 2.48  54 2.96  12 2.96
                            63 3.01  59 3.11   1 3.13  60 3.15  58 3.21   4 3.23  16 3.32   7 3.33
  10  0.019  0.276  0.751-  48 2.05  42 2.13  44 2.16  23 2.36  30 2.39  29 2.50  13 2.92  14 3.01
                            19 3.02   6 3.05  54 3.06  56 3.12  17 3.21  11 3.35   1 3.38  58 3.48
  11  0.770  0.259  0.479-  44 2.06  24 2.15  50 2.16  31 2.35  32 2.43  30 2.44   8 2.74   6 3.01
                            60 3.01  16 3.11  61 3.12  15 3.16  10 3.35   5 3.39  58 3.43  57 3.50
  12  0.991  0.733  0.754-  48 2.10  49 2.20  38 2.24  47 2.26  45 2.29  29 2.43   9 2.96  63 2.98
                            54 3.03  58 3.09   6 3.12  18 3.17  64 3.18  20 3.20  56 3.27   1 3.27
  13  0.263  0.488  0.748-  52 2.16  42 2.20  46 2.21  37 2.25  48 2.36  45 2.43  10 2.92  19 3.07
                             5 3.07  14 3.09  62 3.10   4 3.13   7 3.22  20 3.24  18 3.26  54 3.28
  14  0.244  0.252  0.995-  23 2.21  42 2.22  37 2.24  22 2.29  21 2.32  35 2.35  10 3.01  13 3.09
                            56 3.18  54 3.19   1 3.21   3 3.22  53 3.23   4 3.24   5 3.24   2 3.25
  15  0.504  0.256  0.253-  32 2.19  41 2.23  24 2.23  35 2.27  21 2.30  26 2.32  60 3.12  53 3.16
                            11 3.16   3 3.19   4 3.20  62 3.21  16 3.22  57 3.24  19 3.25   2 3.26
  16  0.749  0.999  0.254-  26 2.22  34 2.23  31 2.25  24 2.27  39 2.27  25 2.32   8 3.02  59 3.09
                            11 3.11  57 3.13  53 3.15  61 3.17  64 3.19   1 3.20  55 3.21  15 3.22
  17  0.757  0.258  0.992-  30 2.20  23 2.21  40 2.21  24 2.26  35 2.30  25 2.32  54 3.13   1 3.19
                             4 3.21  10 3.21  63 3.23  60 3.23   5 3.23  53 3.24   8 3.26  15 3.27
  18  0.242  0.748  0.997-  38 2.19  45 2.22  37 2.25  36 2.28  22 2.29  28 2.31  54 3.11  12 3.17
                             1 3.18  59 3.20   7 3.21   3 3.21   4 3.23   2 3.24  56 3.24  13 3.26
  19  0.246  0.251  0.505-  42 2.21  46 2.25  44 2.27  43 2.28  21 2.28  32 2.32  10 3.02  13 3.07
                            56 3.13  61 3.16   5 3.17   8 3.18   6 3.18   3 3.22   2 3.22  15 3.25
  20  0.244  0.749  0.504-  45 2.22  47 2.25  46 2.26  43 2.27  51 2.30  36 2.30  57 3.12  62 3.15
                            56 3.17   6 3.17  61 3.19   7 3.20  59 3.20  12 3.20   3 3.21   2 3.22
  21  0.250  0.248  0.252-   2 2.25   3 2.28  19 2.28  15 2.30  14 2.32   8 2.38
  22  0.256  1.000  0.995-  53 2.23  56 2.26  14 2.29  18 2.29   2 2.31   1 2.35
  23  0.001  0.254  0.011-  14 2.21  17 2.21  54 2.27   1 2.32   8 2.33  10 2.36
  24  0.750  0.249  0.242-  11 2.15   8 2.17  15 2.23  17 2.26  16 2.27  60 2.30
  25  0.743  0.002  0.997-  53 2.18  58 2.28   1 2.28  17 2.32  16 2.32   9 2.41
  26  0.503  0.001  0.249-  53 2.17  57 2.18  16 2.22   2 2.28  15 2.32  55 2.32
  27  0.995  0.497  0.244-  54 2.20  60 2.25   3 2.30   6 2.31   8 2.42
  28  0.497  0.764  0.004-  53 2.20  55 2.25   7 2.29  18 2.31   4 2.38   9 2.48
  29  0.999  0.001  0.749-  56 2.09  58 2.12  61 2.25   1 2.27  12 2.43  10 2.50
  30  0.758  0.238  0.749-  17 2.20  58 2.26   5 2.32  10 2.39  11 2.44
  31  0.744  0.002  0.504-  58 2.19  16 2.25  57 2.27  61 2.30  11 2.35  64 2.35
  32  0.502  0.241  0.495-  15 2.19   5 2.24  57 2.29  19 2.32  11 2.43
  33  0.506  0.000  0.750-   5 2.23   7 2.23  53 2.33  58 2.34  57 2.35  56 2.50
  34  0.996  0.998  0.254-   8 2.12  59 2.12  61 2.21  16 2.23   1 2.29   2 2.30
  35  0.504  0.242  0.001-  53 2.14  15 2.27  17 2.30   5 2.33  14 2.35   4 2.35
  36  0.251  0.751  0.249-   2 2.26  55 2.26   3 2.28  18 2.28  20 2.30  59 2.31
  37  0.244  0.499  0.997-  54 2.22  14 2.24  18 2.25  13 2.25   3 2.29   4 2.32
  38  0.000  0.746  0.002-   9 2.09  54 2.19  18 2.19  12 2.24  59 2.27   1 2.29
  39  0.747  0.748  0.246-  55 2.22  60 2.23   9 2.26  59 2.26  64 2.27  16 2.27
  40  0.757  0.502  1.000-   9 2.14  54 2.18  17 2.21  63 2.28  60 2.29   4 2.32
  41  0.503  0.502  0.253-  55 2.19  60 2.20  62 2.23  15 2.23   4 2.29   3 2.29
  42  0.253  0.245  0.749-  10 2.13  56 2.20  13 2.20  19 2.21  14 2.22   5 2.24
  43  0.250  1.000  0.505-  56 2.18  57 2.20  20 2.27  61 2.27  19 2.28   2 2.29
  44  0.995  0.249  0.514-  11 2.06  10 2.16   8 2.22  61 2.23  19 2.27   6 2.28
  45  0.243  0.755  0.751-  18 2.22  20 2.22  56 2.25  12 2.29   7 2.31  13 2.43
  46  0.253  0.500  0.504-  13 2.21  62 2.24  19 2.25  20 2.26   3 2.28   6 2.30
  47  0.995  0.755  0.504-  64 2.20  61 2.25  20 2.25  59 2.26  12 2.26   6 2.31
  48  0.003  0.501  0.754-  10 2.05  12 2.10  54 2.22   6 2.29  13 2.36  63 2.36
  49  0.749  0.752  0.750-  63 2.13  58 2.14  12 2.20   9 2.24   7 2.26  64 2.28
  50  0.747  0.496  0.501-  11 2.16  60 2.23  63 2.24  62 2.24  64 2.24   6 2.27
  51  0.499  0.751  0.497-  57 2.15  62 2.16  55 2.21   7 2.28  64 2.29  20 2.30
  52  0.502  0.500  0.746-  13 2.16  63 2.18  62 2.22   4 2.28   5 2.30   7 2.30
  53  0.502  0.007  0.008-  35 2.14  26 2.17  25 2.18  28 2.20  22 2.23  33 2.33  16 3.15   2 3.16
                            15 3.16   5 3.23  14 3.23  17 3.24  55 3.24   7 3.27  18 3.32  58 3.35
  54  0.999  0.505  0.999-  40 2.18  38 2.19  27 2.20  48 2.22  37 2.22  23 2.27   9 2.96  12 3.03
                            10 3.06  18 3.11  17 3.13  14 3.19   3 3.22  60 3.23  63 3.25  59 3.27
  55  0.501  0.744  0.252-  41 2.19  51 2.21  39 2.22  28 2.25  36 2.26  26 2.32  62 3.06  57 3.08
                            60 3.12   4 3.17   3 3.17  64 3.18  16 3.21  20 3.24  53 3.24   2 3.25
  56  0.230  0.004  0.746-  29 2.09  43 2.18  42 2.20  45 2.25  22 2.26  33 2.50  61 3.06   1 3.11
                            10 3.12  19 3.13  20 3.17  14 3.18  18 3.24  12 3.27   5 3.29  57 3.31
  57  0.494  0.988  0.490-  51 2.15  26 2.18  43 2.20  31 2.27  32 2.29  33 2.35  55 3.08   2 3.09
                            20 3.12  16 3.13   7 3.16  64 3.23  15 3.24   5 3.27  19 3.28  56 3.31
  58  0.765  0.988  0.745-  29 2.12  49 2.14  31 2.19  30 2.26  25 2.28  33 2.34  61 3.06  12 3.09
                             1 3.12  64 3.15   7 3.21   9 3.21  17 3.31   5 3.34  53 3.35  57 3.37
  59  0.996  0.764  0.253-  34 2.12  39 2.26  47 2.26  38 2.27  36 2.31  16 3.09   9 3.11   1 3.13
                             2 3.14  20 3.20  18 3.20   6 3.27  54 3.27   3 3.31
  60  0.746  0.502  0.253-  41 2.20  39 2.23  50 2.23  27 2.25  40 2.29  24 2.30  11 3.01  55 3.12
                            15 3.12   9 3.15   6 3.19   4 3.20  54 3.23  17 3.23
  61  0.999  0.003  0.499-  34 2.21  44 2.23  29 2.25  47 2.25  43 2.27  31 2.30   8 2.94  58 3.06
                            56 3.06  11 3.12  19 3.16  16 3.17   2 3.18  20 3.19
  62  0.500  0.513  0.499-  51 2.16  52 2.22  41 2.23  50 2.24  46 2.24  55 3.06  13 3.10   7 3.14
                            20 3.15   3 3.20  15 3.21   5 3.27  19 3.30
  63  0.742  0.517  0.748-  49 2.13  52 2.18  50 2.24  40 2.28  48 2.36  12 2.98   9 3.01   7 3.08
                             4 3.14   6 3.21  17 3.23  54 3.25   5 3.28
  64  0.752  0.743  0.497-  47 2.20  50 2.24  39 2.27  49 2.28  51 2.29  31 2.35   6 3.13  58 3.15
                            55 3.18  12 3.18  16 3.19   7 3.23  57 3.23
 
  LATTYP: Found a triclinic cell.
 ALAT       =     9.0183483021
 B/A-ratio  =     1.4118388175
 C/A-ratio  =     1.0046552417
 COS(alpha) =     0.0001148216
 COS(beta)  =     0.0014840014
 COS(gamma) =     0.7042374829
  
  Lattice vectors:
  
 A1 = (   0.0420280953,  -0.0145310510,   9.0182386632)
 A2 = (  -8.9977005761,  -0.0057341425,   9.0087036515)
 A3 = (   0.0031327258,  -9.0603302760,  -0.0011677652)


Analysis of symmetry for initial positions (statically):
=====================================================================
 Subroutine PRICEL returns:
 Original cell was already a primitive cell.
 

 Routine SETGRP: Setting up the symmetry group for a 
 triclinic supercell.


 Subroutine GETGRP returns: Found  1 space group operations
 (whereof  1 operations were pure point group operations)
 out of a pool of  2 trial point group operations.


The static configuration has the point symmetry C_1 .


Analysis of symmetry for dynamics (positions and initial velocities):
=====================================================================
 Subroutine PRICEL returns:
 Original cell was already a primitive cell.
 

 Routine SETGRP: Setting up the symmetry group for a 
 triclinic supercell.


 Subroutine GETGRP returns: Found  1 space group operations
 (whereof  1 operations were pure point group operations)
 out of a pool of  2 trial point group operations.


The dynamic configuration has the point symmetry C_1 .


 Subroutine INISYM returns: Found  1 space group operations
 (whereof  1 operations are pure point group operations),
 and found     1 'primitive' translations


----------------------------------------------------------------------------------------

                                     Primitive cell                                     

  volume of cell :     738.6164

  direct lattice vectors                    reciprocal lattice vectors
     9.039728671 -0.008796908  0.009535012     0.110623370  0.000038316 -0.000515481
    -0.003132726  9.060330276  0.001167765     0.000107219  0.110371267  0.000177341
     0.042028095 -0.014531051  9.018238663    -0.000116976 -0.000014332  0.110886920

  length of vectors
     9.039737980  9.060330893  9.018348302     0.110624578  0.110371461  0.110886982

  position of ions in fractional coordinates (direct lattice)
     0.996143884  0.998885719  0.999859402
     0.250183389  0.000442274  0.251397473
     0.249457168  0.499874907  0.250852901
     0.500641170  0.501900990  0.998996946
     0.501167914  0.245898374  0.743396232
     0.997700829  0.499935878  0.499722876
     0.498361549  0.754219055  0.749511958
     0.987423207  0.231072165  0.268242190
     0.769519604  0.737382551  0.996884720
     0.019481106  0.275929370  0.750962380
     0.769751272  0.258845056  0.479144194
     0.991223080  0.732796273  0.754159067
     0.262695793  0.487553059  0.748412053
     0.244259666  0.252268496  0.994878450
     0.503557307  0.256300590  0.253079164
     0.748614053  0.998916423  0.254291253
     0.757099011  0.257791452  0.992354479
     0.242198276  0.747677757  0.997086131
     0.245653742  0.251145860  0.504795513
     0.244301525  0.749388436  0.504426036
     0.249731893  0.248494229  0.252109201
     0.256329490  0.999932938  0.994812439
     0.000570654  0.254219497  0.011249519
     0.749677038  0.248854761  0.242273064
     0.743449336  0.002066899  0.996675739
     0.502597869  0.000809950  0.249027769
     0.994850144  0.496669953  0.243507166
     0.496588004  0.764106994  0.003554980
     0.999219586  0.000989627  0.748601181
     0.757544480  0.237551377  0.749042440
     0.744436721  0.001986117  0.504019243
     0.501773819  0.240818083  0.495406143
     0.506363328  0.000169669  0.750223967
     0.995837560  0.997622487  0.254164581
     0.503623566  0.242461825  0.001204183
     0.250996591  0.751086951  0.249474872
     0.244050538  0.499435661  0.997253439
     0.000009101  0.746020044  0.001508276
     0.746871401  0.748305298  0.245847092
     0.757181054  0.501828938  0.999541719
     0.502986107  0.502111113  0.252792137
     0.253353811  0.244971623  0.749425716
     0.250470218  0.999983659  0.505161862
     0.995030405  0.248564227  0.514027623
     0.243371911  0.755317529  0.751003812
     0.252513305  0.499649930  0.503698203
     0.995364178  0.754821099  0.504025254
     0.002563289  0.501242392  0.753612864
     0.748906263  0.752482222  0.749972415
     0.746765214  0.495552461  0.500730768
     0.498638311  0.750542423  0.496970201
     0.501737498  0.500036091  0.745801793
     0.502338748  0.006818995  0.008062528
     0.998737039  0.504806068  0.999324562
     0.501204913  0.744315923  0.252212347
     0.230283262  0.003690107  0.746271530
     0.493610128  0.987973463  0.490168776
     0.765065469  0.987862721  0.744911193
     0.996303453  0.763516187  0.253176237
     0.745995790  0.502198724  0.253160526
     0.999090081  0.002930784  0.499305027
     0.499919215  0.512655338  0.499488234
     0.742246056  0.516966465  0.747819630
     0.752371146  0.742645363  0.496926037

  ion indices of the primitive-cell ions
   primitive index   ion index
                 1           1
                 2           2
                 3           3
                 4           4
                 5           5
                 6           6
                 7           7
                 8           8
                 9           9
                10          10
                11          11
                12          12
                13          13
                14          14
                15          15
                16          16
                17          17
                18          18
                19          19
                20          20
                21          21
                22          22
                23          23
                24          24
                25          25
                26          26
                27          27
                28          28
                29          29
                30          30
                31          31
                32          32
                33          33
                34          34
                35          35
                36          36
                37          37
                38          38
                39          39
                40          40
                41          41
                42          42
                43          43
                44          44
                45          45
                46          46
                47          47
                48          48
                49          49
                50          50
                51          51
                52          52
                53          53
                54          54
                55          55
                56          56
                57          57
                58          58
                59          59
                60          60
                61          61
                62          62
                63          63
                64          64

----------------------------------------------------------------------------------------

 
 
 KPOINTS: HECN                                    

Automatic generation of k-mesh.
 Grid dimensions read from file:
 generate k-points for:    6    6    6

 Generating k-lattice:

  Cartesian coordinates                     Fractional coordinates (reciprocal lattice)
     0.018437228  0.000006386 -0.000085914     0.166666667  0.000000000 -0.000000000
     0.000017870  0.018395211  0.000029557     0.000000000  0.166666667 -0.000000000
    -0.000019496 -0.000002389  0.018481153    -0.000000000  0.000000000  0.166666667

  Length of vectors
     0.018437430  0.018395244  0.018481164

  Shift w.r.t. Gamma in fractional coordinates (k-lattice)
     0.000000000  0.000000000  0.000000000

 
 Subroutine IBZKPT returns following result:
 ===========================================
 
 Found    112 irreducible k-points:
 
 Following reciprocal coordinates:
            Coordinates               Weight
  0.000000  0.000000  0.000000      1.000000
  0.166667 -0.000000  0.000000      2.000000
  0.333333  0.000000  0.000000      2.000000
  0.500000  0.000000 -0.000000      1.000000
  0.000000  0.166667 -0.000000      2.000000
  0.166667  0.166667 -0.000000      2.000000
  0.333333  0.166667  0.000000      2.000000
  0.500000  0.166667  0.000000      2.000000
 -0.333333  0.166667 -0.000000      2.000000
 -0.166667  0.166667  0.000000      2.000000
  0.000000  0.333333  0.000000      2.000000
  0.166667  0.333333  0.000000      2.000000
  0.333333  0.333333 -0.000000      2.000000
  0.500000  0.333333 -0.000000      2.000000
 -0.333333  0.333333 -0.000000      2.000000
 -0.166667  0.333333  0.000000      2.000000
  0.000000  0.500000 -0.000000      1.000000
  0.166667  0.500000  0.000000      2.000000
  0.333333  0.500000  0.000000      2.000000
  0.500000  0.500000  0.000000      1.000000
  0.000000 -0.000000  0.166667      2.000000
  0.166667 -0.000000  0.166667      2.000000
  0.333333 -0.000000  0.166667      2.000000
  0.500000  0.000000  0.166667      2.000000
 -0.333333 -0.000000  0.166667      2.000000
 -0.166667  0.000000  0.166667      2.000000
  0.000000  0.166667  0.166667      2.000000
  0.166667  0.166667  0.166667      2.000000
  0.333333  0.166667  0.166667      2.000000
  0.500000  0.166667  0.166667      2.000000
 -0.333333  0.166667  0.166667      2.000000
 -0.166667  0.166667  0.166667      2.000000
  0.000000  0.333333  0.166667      2.000000
  0.166667  0.333333  0.166667      2.000000
  0.333333  0.333333  0.166667      2.000000
  0.500000  0.333333  0.166667      2.000000
 -0.333333  0.333333  0.166667      2.000000
 -0.166667  0.333333  0.166667      2.000000
  0.000000  0.500000  0.166667      2.000000
  0.166667  0.500000  0.166667      2.000000
  0.333333  0.500000  0.166667      2.000000
  0.500000  0.500000  0.166667      2.000000
 -0.333333  0.500000  0.166667      2.000000
 -0.166667  0.500000  0.166667      2.000000
  0.000000 -0.333333  0.166667      2.000000
  0.166667 -0.333333  0.166667      2.000000
  0.333333 -0.333333  0.166667      2.000000
  0.500000 -0.333333  0.166667      2.000000
 -0.333333 -0.333333  0.166667      2.000000
 -0.166667 -0.333333  0.166667      2.000000
 -0.000000 -0.166667  0.166667      2.000000
  0.166667 -0.166667  0.166667      2.000000
  0.333333 -0.166667  0.166667      2.000000
  0.500000 -0.166667  0.166667      2.000000
 -0.333333 -0.166667  0.166667      2.000000
 -0.166667 -0.166667  0.166667      2.000000
  0.000000 -0.000000  0.333333      2.000000
  0.166667 -0.000000  0.333333      2.000000
  0.333333 -0.000000  0.333333      2.000000
  0.500000  0.000000  0.333333      2.000000
 -0.333333 -0.000000  0.333333      2.000000
 -0.166667 -0.000000  0.333333      2.000000
  0.000000  0.166667  0.333333      2.000000
  0.166667  0.166667  0.333333      2.000000
  0.333333  0.166667  0.333333      2.000000
  0.500000  0.166667  0.333333      2.000000
 -0.333333  0.166667  0.333333      2.000000
 -0.166667  0.166667  0.333333      2.000000
  0.000000  0.333333  0.333333      2.000000
  0.166667  0.333333  0.333333      2.000000
  0.333333  0.333333  0.333333      2.000000
  0.500000  0.333333  0.333333      2.000000
 -0.333333  0.333333  0.333333      2.000000
 -0.166667  0.333333  0.333333      2.000000
  0.000000  0.500000  0.333333      2.000000
  0.166667  0.500000  0.333333      2.000000
  0.333333  0.500000  0.333333      2.000000
  0.500000  0.500000  0.333333      2.000000
 -0.333333  0.500000  0.333333      2.000000
 -0.166667  0.500000  0.333333      2.000000
  0.000000 -0.333333  0.333333      2.000000
  0.166667 -0.333333  0.333333      2.000000
  0.333333 -0.333333  0.333333      2.000000
  0.500000 -0.333333  0.333333      2.000000
 -0.333333 -0.333333  0.333333      2.000000
 -0.166667 -0.333333  0.333333      2.000000
  0.000000 -0.166667  0.333333      2.000000
  0.166667 -0.166667  0.333333      2.000000
  0.333333 -0.166667  0.333333      2.000000
  0.500000 -0.166667  0.333333      2.000000
 -0.333333 -0.166667  0.333333      2.000000
 -0.166667 -0.166667  0.333333      2.000000
  0.000000 -0.000000  0.500000      1.000000
  0.166667 -0.000000  0.500000      2.000000
  0.333333 -0.000000  0.500000      2.000000
  0.500000  0.000000  0.500000      1.000000
  0.000000  0.166667  0.500000      2.000000
  0.166667  0.166667  0.500000      2.000000
  0.333333  0.166667  0.500000      2.000000
  0.500000  0.166667  0.500000      2.000000
 -0.333333  0.166667  0.500000      2.000000
 -0.166667  0.166667  0.500000      2.000000
  0.000000  0.333333  0.500000      2.000000
  0.166667  0.333333  0.500000      2.000000
  0.333333  0.333333  0.500000      2.000000
  0.500000  0.333333  0.500000      2.000000
 -0.333333  0.333333  0.500000      2.000000
 -0.166667  0.333333  0.500000      2.000000
  0.000000  0.500000  0.500000      1.000000
  0.166667  0.500000  0.500000      2.000000
  0.333333  0.500000  0.500000      2.000000
  0.500000  0.500000  0.500000      1.000000
 
 Following cartesian coordinates:
            Coordinates               Weight
  0.000000  0.000000  0.000000      1.000000
  0.018437  0.000006 -0.000086      2.000000
  0.036874  0.000013 -0.000172      2.000000
  0.055312  0.000019 -0.000258      1.000000
  0.000018  0.018395  0.000030      2.000000
  0.018455  0.018402 -0.000056      2.000000
  0.036892  0.018408 -0.000142      2.000000
  0.055330  0.018414 -0.000228      2.000000
 -0.036857  0.018382  0.000201      2.000000
 -0.018419  0.018389  0.000115      2.000000
  0.000036  0.036790  0.000059      2.000000
  0.018473  0.036797 -0.000027      2.000000
  0.036910  0.036803 -0.000113      2.000000
  0.055347  0.036810 -0.000199      2.000000
 -0.036839  0.036778  0.000231      2.000000
 -0.018401  0.036784  0.000145      2.000000
  0.000054  0.055186  0.000089      1.000000
  0.018491  0.055192  0.000003      2.000000
  0.036928  0.055198 -0.000083      2.000000
  0.055365  0.055205 -0.000169      1.000000
 -0.000019 -0.000002  0.018481      2.000000
  0.018418  0.000004  0.018395      2.000000
  0.036855  0.000010  0.018309      2.000000
  0.055292  0.000017  0.018223      2.000000
 -0.036894 -0.000015  0.018653      2.000000
 -0.018457 -0.000009  0.018567      2.000000
 -0.000002  0.018393  0.018511      2.000000
  0.018436  0.018399  0.018425      2.000000
  0.036873  0.018406  0.018339      2.000000
  0.055310  0.018412  0.018253      2.000000
 -0.036876  0.018380  0.018683      2.000000
 -0.018439  0.018386  0.018597      2.000000
  0.000016  0.036788  0.018540      2.000000
  0.018453  0.036794  0.018454      2.000000
  0.036891  0.036801  0.018368      2.000000
  0.055328  0.036807  0.018283      2.000000
 -0.036858  0.036775  0.018712      2.000000
 -0.018421  0.036782  0.018626      2.000000
  0.000034  0.055183  0.018570      2.000000
  0.018471  0.055190  0.018484      2.000000
  0.036909  0.055196  0.018398      2.000000
  0.055346  0.055202  0.018312      2.000000
 -0.036840  0.055170  0.018742      2.000000
 -0.018403  0.055177  0.018656      2.000000
 -0.000055 -0.036793  0.018422      2.000000
  0.018382 -0.036786  0.018336      2.000000
  0.036819 -0.036780  0.018250      2.000000
  0.055256 -0.036774  0.018164      2.000000
 -0.036930 -0.036806  0.018594      2.000000
 -0.018492 -0.036799  0.018508      2.000000
 -0.000037 -0.018398  0.018452      2.000000
  0.018400 -0.018391  0.018366      2.000000
  0.036837 -0.018385  0.018280      2.000000
  0.055274 -0.018378  0.018194      2.000000
 -0.036912 -0.018410  0.018623      2.000000
 -0.018475 -0.018404  0.018538      2.000000
 -0.000039 -0.000005  0.036962      2.000000
  0.018398  0.000002  0.036876      2.000000
  0.036835  0.000008  0.036790      2.000000
  0.055273  0.000014  0.036705      2.000000
 -0.036913 -0.000018  0.037134      2.000000
 -0.018476 -0.000011  0.037048      2.000000
 -0.000021  0.018390  0.036992      2.000000
  0.018416  0.018397  0.036906      2.000000
  0.036853  0.018403  0.036820      2.000000
  0.055291  0.018410  0.036734      2.000000
 -0.036896  0.018378  0.037164      2.000000
 -0.018458  0.018384  0.037078      2.000000
 -0.000003  0.036786  0.037021      2.000000
  0.018434  0.036792  0.036936      2.000000
  0.036871  0.036798  0.036850      2.000000
  0.055308  0.036805  0.036764      2.000000
 -0.036878  0.036773  0.037193      2.000000
 -0.018440  0.036779  0.037107      2.000000
  0.000015  0.055181  0.037051      2.000000
  0.018452  0.055187  0.036965      2.000000
  0.036889  0.055194  0.036879      2.000000
  0.055326  0.055200  0.036793      2.000000
 -0.036860  0.055168  0.037223      2.000000
 -0.018423  0.055174  0.037137      2.000000
 -0.000075 -0.036795  0.036903      2.000000
  0.018362 -0.036789  0.036817      2.000000
  0.036800 -0.036782  0.036731      2.000000
  0.055237 -0.036776  0.036645      2.000000
 -0.036949 -0.036808  0.037075      2.000000
 -0.018512 -0.036802  0.036989      2.000000
 -0.000057 -0.018400  0.036933      2.000000
  0.018380 -0.018394  0.036847      2.000000
  0.036818 -0.018387  0.036761      2.000000
  0.055255 -0.018381  0.036675      2.000000
 -0.036931 -0.018413  0.037105      2.000000
 -0.018494 -0.018406  0.037019      2.000000
 -0.000058 -0.000007  0.055443      1.000000
  0.018379 -0.000001  0.055358      2.000000
  0.036816  0.000006  0.055272      2.000000
  0.055253  0.000012  0.055186      1.000000
 -0.000041  0.018388  0.055473      2.000000
  0.018397  0.018394  0.055387      2.000000
  0.036834  0.018401  0.055301      2.000000
  0.055271  0.018407  0.055215      2.000000
 -0.036915  0.018375  0.055645      2.000000
 -0.018478  0.018382  0.055559      2.000000
 -0.000023  0.036783  0.055503      2.000000
  0.018414  0.036790  0.055417      2.000000
  0.036852  0.036796  0.055331      2.000000
  0.055289  0.036802  0.055245      2.000000
 -0.036897  0.036770  0.055674      2.000000
 -0.018460  0.036777  0.055588      2.000000
 -0.000005  0.055178  0.055532      1.000000
  0.018432  0.055185  0.055446      2.000000
  0.036870  0.055191  0.055360      2.000000
  0.055307  0.055198  0.055274      1.000000
 
 -----------------------------------------------------------------------------
|                                                                             |
|           W    W    AA    RRRRR   N    N  II  N    N   GGGG   !!!           |
|           W    W   A  A   R    R  NN   N  II  NN   N  G    G  !!!           |
|           W    W  A    A  R    R  N N  N  II  N N  N  G       !!!           |
|           W WW W  AAAAAA  RRRRR   N  N N  II  N  N N  G  GGG   !            |
|           WW  WW  A    A  R   R   N   NN  II  N   NN  G    G                |
|           W    W  A    A  R    R  N    N  II  N    N   GGGG   !!!           |
|                                                                             |
|     The number of bands has been changed from the values supplied in        |
|     the INCAR file. This is a result of running the parallel version.       |
|     The orbitals not found in the WAVECAR file will be initialized with     |
|     random numbers, which is usually adequate. For correlated               |
|     calculations, however, you should redo the groundstate calculation.     |
|     I found NBANDS = 288. Now, NBANDS = 308.                                |
|                                                                             |
 -----------------------------------------------------------------------------



--------------------------------------------------------------------------------------------------------




 Dimension of arrays:
   k-points           NKPTS =    112   k-points in BZ     NKDIM =    112   number of bands    NBANDS=    308
   number of dos      NEDOS =   1000   number of ions     NIONS =     64
   non local maximal  LDIM  =      6   non local SUM 2l+1 LMDIM =     18
   total plane-waves  NPLWV = 110592
   max r-space proj   IRMAX =      1   max aug-charges    IRDMAX=   9812
   dimension x,y,z NGX =    48 NGY =   48 NGZ =   48
   dimension x,y,z NGXF=    96 NGYF=   96 NGZF=   96
   support grid    NGXF=    96 NGYF=   96 NGZF=   96
   ions per type =               7   6   7  13  19   6   6
   NGX,Y,Z   is equivalent  to a cutoff of   8.83,  8.81,  8.85 a.u.
   NGXF,Y,Z  is equivalent  to a cutoff of  17.65, 17.61, 17.70 a.u.

 SYSTEM =  HEBCN                                   
 POSCAR =  42-ZrHfNbTaMo                           

 Startparameter for this run:
   NWRITE =      2    write-flag & timer
   PREC   = normal    normal or accurate (medium, high low for compatibility)
   ISTART =      1    job   : 0-new  1-cont  2-samecut
   ICHARG =     11    charge: 1-file 2-atom 10-const
   ISPIN  =      1    spin polarized calculation?
   LNONCOLLINEAR =      F non collinear calculations
   LSORBIT =      F    spin-orbit coupling
   INIWAV =      1    electr: 0-lowe 1-rand  2-diag
   LASPH  =      F    aspherical Exc in radial PAW
 Electronic Relaxation 1
   ENCUT  =  400.0 eV  29.40 Ry    5.42 a.u.  14.74 14.78 14.71*2*pi/ulx,y,z
   ENINI  =  400.0     initial cutoff
   ENAUG  =  644.9 eV  augmentation charge cutoff
   NELM   =     60;   NELMIN=  2; NELMDL=  0     # of ELM steps 
   EDIFF  = 0.1E-04   stopping-criterion for ELM
   LREAL  =      F    real-space projection
   NLSPLINE    = F    spline interpolate recip. space projectors
   LCOMPAT=      F    compatible to vasp.4.4
   GGA_COMPAT  = T    GGA compatible to vasp.4.4-vasp.4.6
   LMAXPAW     = -100 max onsite density
   LMAXMIX     =    2 max onsite mixed and CHGCAR
   VOSKOWN=      0    Vosko Wilk Nusair interpolation
   ROPT   =    0.00000   0.00000   0.00000   0.00000
   ROPT   =    0.00000   0.00000   0.00000
 Ionic relaxation
   EDIFFG = -.1E-01   stopping-criterion for IOM
   NSW    =      0    number of steps for IOM
   NBLOCK =      1;   KBLOCK =      1    inner block; outer block 
   IBRION =     -1    ionic relax: 0-MD 1-quasi-New 2-CG
   NFREE  =      0    steps in history (QN), initial steepest desc. (CG)
   ISIF   =      2    stress and relaxation
   IWAVPR =     10    prediction:  0-non 1-charg 2-wave 3-comb
   ISYM   =      2    0-nonsym 1-usesym 2-fastsym
   LCORR  =      T    Harris-Foulkes like correction to forces

   POTIM  = 0.5000    time-step for ionic-motion
   TEIN   =    0.0    initial temperature
   TEBEG  =    0.0;   TEEND  =   0.0 temperature during run
   SMASS  =  -3.00    Nose mass-parameter (am)
   estimated Nose-frequenzy (Omega)   =  0.10E-29 period in steps = 0.13E+47 mass=  -0.187E-26a.u.
   SCALEE = 1.0000    scale energy and forces
   NPACO  =    256;   APACO  = 10.0  distance and # of slots for P.C.
   PSTRESS=    0.0 pullay stress

  Mass of Ions in am
   POMASS =  91.22 95.94178.49 14.00 12.01180.95 92.91
  Ionic Valenz
   ZVAL   =  12.00  6.00 10.00  5.00  4.00 11.00 13.00
  Atomic Wigner-Seitz radii
   RWIGS  =  -1.00 -1.00 -1.00 -1.00 -1.00 -1.00 -1.00
  virtual crystal weights 
   VCA    =   1.00  1.00  1.00  1.00  1.00  1.00  1.00
   NELECT =     475.0000    total number of electrons
   NUPDOWN=      -1.0000    fix difference up-down

 DOS related values:
   EMIN   = -50.00;   EMAX   = 15.00  energy-range for DOS
   EFERMI =   0.00;   METHOD = LEGACY      
   ISMEAR =     0;   SIGMA  =   0.10  broadening in eV -4-tet -1-fermi 0-gaus

 Electronic relaxation 2 (details)
   IALGO  =     68    algorithm
   LDIAG  =      T    sub-space diagonalisation (order eigenvalues)
   LSUBROT=      F    optimize rotation matrix (better conditioning)
   TURBO    =      0    0=normal 1=particle mesh
   IRESTART =      0    0=no restart 2=restart with 2 vectors
   NREBOOT  =      0    no. of reboots
   NMIN     =      0    reboot dimension
   EREF     =   0.00    reference energy to select bands
   IMIX   =      4    mixing-type and parameters
     AMIX     =   0.40;   BMIX     =  1.00
     AMIX_MAG =   1.60;   BMIX_MAG =  1.00
     AMIN     =   0.10
     WC   =   100.;   INIMIX=   1;  MIXPRE=   1;  MAXMIX= -45

 Intra band minimization:
   WEIMIN = 0.0000     energy-eigenvalue tresh-hold
   EBREAK =  0.81E-08  absolut break condition
   DEPER  =   0.30     relativ break condition  

   TIME   =   0.40     timestep for ELM

  volume/ion in A,a.u.               =      11.54        77.88
  Fermi-wavevector in a.u.,A,eV,Ry     =   1.413079  2.670332 27.168000  1.996792
  Thomas-Fermi vector in A             =   2.534761
 
 Write flags
   LWAVE        =      F    write WAVECAR
   LDOWNSAMPLE  =      F    k-point downsampling of WAVECAR
   LCHARG       =      T    write CHGCAR
   LVTOT        =      F    write LOCPOT, total local potential
   LVHAR        =      F    write LOCPOT, Hartree potential only
   WRT_POTENTIAL= false  ! write potential to hdf5 file
   LELF         =      F    write electronic localiz. function (ELF)
   LORBIT       =     10    0 simple, 1 ext, 2 COOP (PROOUT), +10 PAW based schemes


 Dipole corrections
   LMONO      =      F    monopole corrections only (constant potential shift)
   LDIPOL     =      F    correct potential (dipole corrections)
   IDIPOL     =      0    1-x, 2-y, 3-z, 4-all directions 
   EPSILON    =  1.0000000 bulk dielectric constant
   LVACPOTAV  =      F  vacuum potentials using an averaging scheme for the charge density
   VACPOTFLAT =  0.1000000 required flatness to determine vacuum potential
 Exchange correlation treatment:
   GGA     = PE    functional components
   XC_C    = 1    coefficients multiplying the functional components
   LIBXC   =     F    Libxc                    
   VOSKOWN =     0    Vosko Wilk Nusair interpolation
   LHFCALC =     F    Hartree Fock is set to
   LHFONE  =     F    Hartree Fock one center treatment
   AEXX    =    0.0000 exact exchange contribution

 Parameters of functionals:
   PE:
     No parameter
 
 Van der Waals corrections
   IVDW    =     0    specifies the selected vdW correction

 Linear response parameters
   LEPSILON=     F    determine dielectric tensor
   LRPA    =     F    only Hartree local field effects (RPA)
   LNABLA  =     F    use nabla operator in PAW spheres
   LVEL    =     F    velocity operator in full k-point grid
   CSHIFT  =0.1000    complex shift for real part using Kramers Kronig
   OMEGAMAX=  -1.0    maximum frequency
   DEG_THRESHOLD= 0.2000000E-02 threshold for treating states as degnerate
   RTIME   =   -0.100 relaxation time in fs
  (WPLASMAI=    0.000 imaginary part of plasma frequency in eV, 0.658/RTIME)
   DFIELD  = 0.0000000 0.0000000 0.0000000 field for delta impulse in time
 
  Optional k-point grid parameters
   LKPOINTS_OPT  =     F    use optional k-point grid
   KPOINTS_OPT_MODE=     1    mode for optional k-point grid
 
 Orbital magnetization related:
   ORBITALMAG=     F  switch on orbital magnetization
   LCHIMAG   =     F  perturbation theory with respect to B field
   DQ        =  0.001000  dq finite difference perturbation B field
   LLRAUG    =     F  two centre corrections for induced B field
   LBONE     =     F  B-component reconstruction in AE one-centre
   LVGVCALC  =     T  calculate vGv susceptibility
   LVGVAPPL  =     F  apply vGv susceptibility instead of pGv for G=0

 Random number generation:
   RANDOM_GENERATOR = DEFAULT
   PCG_SEED         = not used


--------------------------------------------------------------------------------------------------------


 Static calculation
 charge density and potential remain constant during run
 non-spin polarized calculation
 RMM-DIIS sequential band-by-band and
  variant of blocked Davidson during initial phase
 perform sub-space diagonalisation
    before iterative eigenvector-optimisation
 no mixing
 using additional bands           70
 reciprocal scheme for non local part
 use partial core corrections
 calculate Harris-corrections to forces 
   (improved forces if not selfconsistent)
 use gradient corrections 
 WARNING: stress and forces are not correct
  (second derivative of E(xc) not defined)
 use of overlap-Matrix (Vanderbilt PP)
 Gauss-broadening in eV      SIGMA  =   0.10


--------------------------------------------------------------------------------------------------------


  energy-cutoff  :      400.00
  volume of cell :      738.62
      direct lattice vectors                 reciprocal lattice vectors
     9.039728671 -0.008796908  0.009535012     0.110623370  0.000038316 -0.000515481
    -0.003132726  9.060330276  0.001167765     0.000107219  0.110371267  0.000177341
     0.042028095 -0.014531051  9.018238663    -0.000116976 -0.000014332  0.110886920

  length of vectors
     9.039737980  9.060330893  9.018348302     0.110624578  0.110371461  0.110886982


 
 old parameters found on file WAVECAR:
  energy-cutoff  :      400.00
  volume of cell :      738.62
      direct lattice vectors                 reciprocal lattice vectors
     9.039728671 -0.008796908  0.009535012     0.110623370  0.000038316 -0.000515481
    -0.003132726  9.060330276  0.001167765     0.000107219  0.110371267  0.000177341
     0.042028095 -0.014531051  9.018238663    -0.000116976 -0.000014332  0.110886920

  length of vectors

 
 k-points in units of 2pi/SCALE and weight: HECN                                    
   0.00000000  0.00000000  0.00000000       0.005
   0.01843723  0.00000639 -0.00008591       0.009
   0.03687446  0.00001277 -0.00017183       0.009
   0.05531169  0.00001916 -0.00025774       0.005
   0.00001787  0.01839521  0.00002956       0.009
   0.01845510  0.01840160 -0.00005636       0.009
   0.03689233  0.01840798 -0.00014227       0.009
   0.05532956  0.01841437 -0.00022818       0.009
  -0.03685659  0.01838244  0.00020138       0.009
  -0.01841936  0.01838883  0.00011547       0.009
   0.00003574  0.03679042  0.00005911       0.009
   0.01847297  0.03679681 -0.00002680       0.009
   0.03691020  0.03680319 -0.00011271       0.009
   0.05534742  0.03680958 -0.00019863       0.009
  -0.03683872  0.03677765  0.00023094       0.009
  -0.01840149  0.03678404  0.00014503       0.009
   0.00005361  0.05518563  0.00008867       0.005
   0.01849084  0.05519202  0.00000276       0.009
   0.03692807  0.05519841 -0.00008316       0.009
   0.05536529  0.05520479 -0.00016907       0.005
  -0.00001950 -0.00000239  0.01848115       0.009
   0.01841773  0.00000400  0.01839524       0.009
   0.03685496  0.00001038  0.01830933       0.009
   0.05529219  0.00001677  0.01822341       0.009
  -0.03689395 -0.00001516  0.01865298       0.009
  -0.01845672 -0.00000877  0.01856707       0.009
  -0.00000163  0.01839282  0.01851071       0.009
   0.01843560  0.01839921  0.01842480       0.009
   0.03687283  0.01840559  0.01833888       0.009
   0.05531006  0.01841198  0.01825297       0.009
  -0.03687608  0.01838005  0.01868254       0.009
  -0.01843885  0.01838644  0.01859662       0.009
   0.00001624  0.03678803  0.01854027       0.009
   0.01845347  0.03679442  0.01845435       0.009
   0.03689070  0.03680081  0.01836844       0.009
   0.05532793  0.03680719  0.01828253       0.009
  -0.03685821  0.03677526  0.01871209       0.009
  -0.01842098  0.03678165  0.01862618       0.009
   0.00003411  0.05518324  0.01856982       0.009
   0.01847134  0.05518963  0.01848391       0.009
   0.03690857  0.05519602  0.01839800       0.009
   0.05534580  0.05520240  0.01831208       0.009
  -0.03684034  0.05517047  0.01874165       0.009
  -0.01840311  0.05517686  0.01865574       0.009
  -0.00005524 -0.03679281  0.01842204       0.009
   0.01838199 -0.03678642  0.01833613       0.009
   0.03681922 -0.03678004  0.01825021       0.009
   0.05525645 -0.03677365  0.01816430       0.009
  -0.03692969 -0.03680558  0.01859387       0.009
  -0.01849246 -0.03679920  0.01850795       0.009
  -0.00003737 -0.01839760  0.01845160       0.009
   0.01839986 -0.01839121  0.01836568       0.009
   0.03683709 -0.01838483  0.01827977       0.009
   0.05527432 -0.01837844  0.01819386       0.009
  -0.03691182 -0.01841037  0.01862342       0.009
  -0.01847459 -0.01840399  0.01853751       0.009
  -0.00003899 -0.00000478  0.03696231       0.009
   0.01839824  0.00000161  0.03687639       0.009
   0.03683546  0.00000799  0.03679048       0.009
   0.05527269  0.00001438  0.03670457       0.009
  -0.03691345 -0.00001755  0.03713413       0.009
  -0.01847622 -0.00001116  0.03704822       0.009
  -0.00002112  0.01839043  0.03699186       0.009
   0.01841611  0.01839682  0.03690595       0.009
   0.03685333  0.01840321  0.03682004       0.009
   0.05529056  0.01840959  0.03673412       0.009
  -0.03689558  0.01837766  0.03716369       0.009
  -0.01845835  0.01838405  0.03707778       0.009
  -0.00000325  0.03678564  0.03702142       0.009
   0.01843398  0.03679203  0.03693551       0.009
   0.03687120  0.03679842  0.03684959       0.009
   0.05530843  0.03680480  0.03676368       0.009
  -0.03687771  0.03677287  0.03719325       0.009
  -0.01844048  0.03677926  0.03710733       0.009
   0.00001462  0.05518086  0.03705098       0.009
   0.01845185  0.05518724  0.03696506       0.009
   0.03688907  0.05519363  0.03687915       0.009
   0.05532630  0.05520001  0.03679324       0.009
  -0.03685984  0.05516808  0.03722280       0.009
  -0.01842261  0.05517447  0.03713689       0.009
  -0.00007473 -0.03679520  0.03690319       0.009
   0.01836250 -0.03678881  0.03681728       0.009
   0.03679972 -0.03678243  0.03673137       0.009
   0.05523695 -0.03677604  0.03664545       0.009
  -0.03694919 -0.03680797  0.03707502       0.009
  -0.01851196 -0.03680159  0.03698911       0.009
  -0.00005686 -0.01839999  0.03693275       0.009
   0.01838037 -0.01839360  0.03684684       0.009
   0.03681759 -0.01838722  0.03676092       0.009
   0.05525482 -0.01838083  0.03667501       0.009
  -0.03693132 -0.01841276  0.03710458       0.009
  -0.01849409 -0.01840637  0.03701866       0.009
  -0.00005849 -0.00000717  0.05544346       0.005
   0.01837874 -0.00000078  0.05535755       0.009
   0.03681597  0.00000561  0.05527163       0.009
   0.05525320  0.00001199  0.05518572       0.005
  -0.00004062  0.01838804  0.05547302       0.009
   0.01839661  0.01839443  0.05538710       0.009
   0.03683384  0.01840082  0.05530119       0.009
   0.05527107  0.01840720  0.05521528       0.009
  -0.03691508  0.01837527  0.05564484       0.009
  -0.01847785  0.01838166  0.05555893       0.009
  -0.00002275  0.03678326  0.05550257       0.009
   0.01841448  0.03678964  0.05541666       0.009
   0.03685171  0.03679603  0.05533075       0.009
   0.05528894  0.03680241  0.05524483       0.009
  -0.03689721  0.03677048  0.05567440       0.009
  -0.01845998  0.03677687  0.05558849       0.009
  -0.00000488  0.05517847  0.05553213       0.005
   0.01843235  0.05518485  0.05544622       0.009
   0.03686958  0.05519124  0.05536030       0.009
   0.05530681  0.05519763  0.05527439       0.005
 
 k-points in reciprocal lattice and weights: HECN                                    
   0.00000000  0.00000000  0.00000000       0.005
   0.16666667 -0.00000000  0.00000000       0.009
   0.33333333  0.00000000  0.00000000       0.009
   0.50000000  0.00000000 -0.00000000       0.005
   0.00000000  0.16666667 -0.00000000       0.009
   0.16666667  0.16666667 -0.00000000       0.009
   0.33333333  0.16666667  0.00000000       0.009
   0.50000000  0.16666667  0.00000000       0.009
  -0.33333333  0.16666667 -0.00000000       0.009
  -0.16666667  0.16666667  0.00000000       0.009
   0.00000000  0.33333333  0.00000000       0.009
   0.16666667  0.33333333  0.00000000       0.009
   0.33333333  0.33333333 -0.00000000       0.009
   0.50000000  0.33333333 -0.00000000       0.009
  -0.33333333  0.33333333 -0.00000000       0.009
  -0.16666667  0.33333333  0.00000000       0.009
   0.00000000  0.50000000 -0.00000000       0.005
   0.16666667  0.50000000  0.00000000       0.009
   0.33333333  0.50000000  0.00000000       0.009
   0.50000000  0.50000000  0.00000000       0.005
   0.00000000 -0.00000000  0.16666667       0.009
   0.16666667 -0.00000000  0.16666667       0.009
   0.33333333 -0.00000000  0.16666667       0.009
   0.50000000  0.00000000  0.16666667       0.009
  -0.33333333 -0.00000000  0.16666667       0.009
  -0.16666667  0.00000000  0.16666667       0.009
   0.00000000  0.16666667  0.16666667       0.009
   0.16666667  0.16666667  0.16666667       0.009
   0.33333333  0.16666667  0.16666667       0.009
   0.50000000  0.16666667  0.16666667       0.009
  -0.33333333  0.16666667  0.16666667       0.009
  -0.16666667  0.16666667  0.16666667       0.009
   0.00000000  0.33333333  0.16666667       0.009
   0.16666667  0.33333333  0.16666667       0.009
   0.33333333  0.33333333  0.16666667       0.009
   0.50000000  0.33333333  0.16666667       0.009
  -0.33333333  0.33333333  0.16666667       0.009
  -0.16666667  0.33333333  0.16666667       0.009
   0.00000000  0.50000000  0.16666667       0.009
   0.16666667  0.50000000  0.16666667       0.009
   0.33333333  0.50000000  0.16666667       0.009
   0.50000000  0.50000000  0.16666667       0.009
  -0.33333333  0.50000000  0.16666667       0.009
  -0.16666667  0.50000000  0.16666667       0.009
   0.00000000 -0.33333333  0.16666667       0.009
   0.16666667 -0.33333333  0.16666667       0.009
   0.33333333 -0.33333333  0.16666667       0.009
   0.50000000 -0.33333333  0.16666667       0.009
  -0.33333333 -0.33333333  0.16666667       0.009
  -0.16666667 -0.33333333  0.16666667       0.009
  -0.00000000 -0.16666667  0.16666667       0.009
   0.16666667 -0.16666667  0.16666667       0.009
   0.33333333 -0.16666667  0.16666667       0.009
   0.50000000 -0.16666667  0.16666667       0.009
  -0.33333333 -0.16666667  0.16666667       0.009
  -0.16666667 -0.16666667  0.16666667       0.009
   0.00000000 -0.00000000  0.33333333       0.009
   0.16666667 -0.00000000  0.33333333       0.009
   0.33333333 -0.00000000  0.33333333       0.009
   0.50000000  0.00000000  0.33333333       0.009
  -0.33333333 -0.00000000  0.33333333       0.009
  -0.16666667 -0.00000000  0.33333333       0.009
   0.00000000  0.16666667  0.33333333       0.009
   0.16666667  0.16666667  0.33333333       0.009
   0.33333333  0.16666667  0.33333333       0.009
   0.50000000  0.16666667  0.33333333       0.009
  -0.33333333  0.16666667  0.33333333       0.009
  -0.16666667  0.16666667  0.33333333       0.009
   0.00000000  0.33333333  0.33333333       0.009
   0.16666667  0.33333333  0.33333333       0.009
[...]
  in kB       0.08652     0.12742    -1.55712     0.42984     0.48498    -0.02659
  external pressure =       -0.45 kB  Pullay stress =        0.00 kB


 VOLUME and BASIS-vectors are now :
 -----------------------------------------------------------------------------
  energy-cutoff  :      400.00
  volume of cell :      738.62
      direct lattice vectors                 reciprocal lattice vectors
     9.039728671 -0.008796908  0.009535012     0.110623370  0.000038316 -0.000515481
    -0.003132726  9.060330276  0.001167765     0.000107219  0.110371267  0.000177341
     0.042028095 -0.014531051  9.018238663    -0.000116976 -0.000014332  0.110886920

  length of vectors
     9.039737980  9.060330893  9.018348302     0.110624578  0.110371461  0.110886982


 FORCES acting on ions
    electron-ion (+dipol)            ewald-force                    non-local-force                 convergence-correction
 -----------------------------------------------------------------------------------------------
   0.185E+02 -.346E+02 0.467E+02   -.185E+02 0.342E+02 -.458E+02   0.179E+00 0.133E+01 -.124E+01   -.186E+00 -.872E+00 0.382E+00
   0.382E+02 -.607E+02 0.210E+02   -.395E+02 0.600E+02 -.195E+02   0.136E+01 0.137E+01 -.156E+01   -.124E+00 -.575E+00 0.148E+00
   0.517E+02 0.601E+02 0.305E+02   -.505E+02 -.595E+02 -.306E+02   -.792E+00 -.115E+01 -.108E+00   -.428E+00 0.547E+00 0.159E+00
   0.545E+02 0.204E+02 0.562E+02   -.554E+02 -.231E+02 -.571E+02   0.379E+00 0.190E+01 -.123E+00   0.494E+00 0.807E+00 0.993E+00
   0.114E+02 -.377E+02 -.165E+02   -.121E+02 0.397E+02 0.172E+02   0.577E+00 -.573E+00 -.508E+00   0.952E-01 -.134E+01 -.166E+00
   -.948E+02 0.108E+03 -.119E+03   0.954E+02 -.109E+03 0.120E+03   -.354E+00 -.238E+00 -.454E+00   -.303E+00 0.992E+00 -.813E+00
   0.922E+02 0.180E+02 -.846E+02   -.932E+02 -.201E+02 0.841E+02   0.370E+00 0.740E+00 0.860E+00   0.544E+00 0.136E+01 -.305E+00
   -.201E+02 -.345E+02 0.104E+02   0.196E+02 0.334E+02 -.909E+01   0.473E+00 0.178E+01 -.122E+01   0.824E-01 -.532E+00 -.928E-01
   0.776E+01 -.301E+02 0.241E+02   -.630E+01 0.276E+02 -.244E+02   -.176E+01 0.191E+01 -.268E+00   0.180E+00 0.589E+00 0.463E+00
   0.923E+01 -.897E+01 -.567E+01   -.779E+01 0.118E+02 0.395E+01   -.134E+01 -.234E+01 0.178E+01   -.417E-01 -.543E+00 -.234E-02
   -.941E+01 0.203E+02 -.489E+02   0.112E+02 -.181E+02 0.489E+02   -.197E+01 -.169E+01 0.382E+00   0.102E+00 -.521E+00 -.347E+00
   -.579E+02 0.120E+02 -.297E+02   0.584E+02 -.147E+02 0.294E+02   -.378E+00 0.194E+01 0.328E+00   -.244E+00 0.705E+00 -.533E-01
   0.693E+02 -.158E+02 -.192E+02   -.680E+02 0.150E+02 0.191E+02   -.911E+00 0.440E+00 0.264E+00   -.247E+00 0.242E+00 -.792E-01
   0.346E+02 -.551E+02 0.411E+02   -.336E+02 0.579E+02 -.425E+02   -.659E+00 -.173E+01 0.838E+00   -.365E+00 -.103E+01 0.598E+00
   0.561E+01 0.977E+01 0.197E+02   -.588E+01 -.680E+01 -.205E+02   0.182E+00 -.202E+01 0.552E+00   0.719E-01 -.900E+00 0.144E+00
   -.222E+02 -.654E+02 0.548E+02   0.235E+02 0.651E+02 -.547E+02   -.133E+01 0.145E+01 -.245E+00   0.898E-01 -.106E+01 0.126E+00
   -.439E+02 0.971E+01 0.275E+02   0.429E+02 -.731E+01 -.288E+02   0.800E+00 -.155E+01 0.728E+00   0.271E+00 -.832E+00 0.637E+00
   0.300E+02 0.568E+02 0.959E+02   -.303E+02 -.594E+02 -.965E+02   0.904E+00 0.139E+01 0.196E-01   -.454E+00 0.109E+01 0.621E+00
   0.648E+02 -.483E+02 -.428E+02   -.654E+02 0.499E+02 0.443E+02   0.792E+00 -.494E+00 -.742E+00   -.221E+00 -.107E+01 -.669E+00
   0.464E+02 0.492E+02 -.961E+02   -.465E+02 -.507E+02 0.968E+02   0.414E+00 0.330E+00 -.764E-01   -.326E+00 0.109E+01 -.624E+00
   0.560E+02 -.143E+02 0.115E+02   -.557E+02 0.156E+02 -.119E+02   -.418E-01 -.875E+00 0.320E+00   -.144E+00 -.492E+00 0.844E-01
   0.132E+02 -.938E+01 0.243E+02   -.138E+02 0.905E+01 -.237E+02   0.708E+00 0.567E+00 -.848E+00   -.159E+00 -.221E+00 0.212E+00
   -.931E+01 -.947E+01 0.844E+01   0.962E+01 0.937E+01 -.815E+01   -.318E+00 0.507E+00 -.656E+00   -.189E-01 -.416E+00 0.369E+00
   -.467E+02 0.275E+02 -.151E+02   0.449E+02 -.268E+02 0.117E+02   0.178E+01 -.291E+00 0.350E+01   0.317E-01 -.384E+00 -.208E+00
   -.147E+02 0.273E+02 0.205E+01   0.152E+02 -.270E+02 -.118E+01   -.574E+00 0.250E+00 -.106E+01   0.150E+00 -.460E+00 0.186E+00
   -.163E+02 -.247E+02 0.132E+02   0.156E+02 0.260E+02 -.133E+02   0.522E+00 -.916E+00 -.258E-01   0.114E+00 -.386E+00 0.177E+00
   -.304E+02 0.803E+02 0.116E+02   0.316E+02 -.808E+02 -.103E+02   -.102E+01 0.147E+00 -.125E+01   -.194E+00 0.338E+00 0.304E-01
   -.327E+02 0.133E+02 0.145E+02   0.329E+02 -.151E+02 -.164E+02   -.565E+00 0.928E+00 0.147E+01   0.326E+00 0.497E+00 0.448E+00
   0.508E+00 -.187E+02 -.276E+02   -.997E+00 0.201E+02 0.280E+02   0.598E+00 -.891E+00 -.333E+00   -.158E+00 -.419E+00 -.796E-01
   -.703E+02 -.175E+02 0.484E+02   0.701E+02 0.190E+02 -.491E+02   0.104E+00 -.827E+00 0.639E+00   0.973E-01 -.630E+00 0.131E+00
   0.942E+01 -.980E+02 -.506E+01   -.101E+02 0.995E+02 0.461E+01   0.604E+00 -.762E+00 0.599E+00   0.960E-01 -.752E+00 -.155E+00
   -.375E+02 -.111E+01 -.657E+01   0.384E+02 0.267E+01 0.770E+01   -.788E+00 -.955E+00 -.784E+00   -.105E+00 -.583E+00 -.363E+00
   0.122E+02 -.165E+02 -.108E+02   -.131E+02 0.170E+02 0.109E+02   0.684E+00 -.197E+00 -.395E-01   0.192E+00 -.324E+00 -.117E+00
   0.693E+01 -.797E+02 0.301E+02   -.651E+01 0.790E+02 -.306E+02   -.324E+00 0.108E+01 0.519E+00   -.738E-01 -.314E+00 0.365E-01
   0.102E+02 -.199E+02 0.433E+01   -.102E+02 0.216E+02 -.483E+01   -.759E-01 -.107E+01 0.257E+00   0.681E-01 -.448E+00 0.260E+00
   -.366E+01 0.112E+02 0.992E+01   0.337E+01 -.120E+02 -.993E+01   0.453E+00 0.283E+00 -.581E-01   -.118E+00 0.411E+00 0.605E-01
   0.114E+02 0.832E+01 0.655E+02   -.103E+02 -.815E+01 -.647E+02   -.846E+00 -.306E+00 -.110E+01   -.205E+00 0.159E+00 0.262E+00
   0.156E+02 0.360E+01 0.699E+02   -.136E+02 -.320E+01 -.694E+02   -.174E+01 -.802E+00 -.723E+00   -.236E+00 0.376E+00 0.221E+00
   0.695E+01 -.300E+02 0.820E+02   -.682E+01 0.302E+02 -.817E+02   -.143E+00 -.517E+00 -.386E+00   0.431E-01 0.308E+00 0.104E+00
   -.966E+01 -.129E+02 0.151E+02   0.855E+01 0.111E+02 -.156E+02   0.955E+00 0.141E+01 0.133E+00   0.165E+00 0.335E+00 0.365E+00
   0.279E+02 0.282E+02 0.312E+02   -.290E+02 -.294E+02 -.319E+02   0.768E+00 0.816E+00 0.606E+00   0.247E+00 0.323E+00 0.788E-01
   0.455E+02 -.513E+02 -.873E+01   -.439E+02 0.515E+02 0.857E+01   -.151E+01 0.401E+00 0.214E+00   -.633E-01 -.524E+00 -.480E-01
   -.995E+00 -.142E+02 -.162E+02   0.851E+00 0.142E+02 0.155E+02   0.182E+00 0.132E+00 0.780E+00   -.586E-01 -.175E+00 -.162E+00
   0.136E+02 -.238E+02 -.243E+02   -.132E+02 0.246E+02 0.256E+02   -.578E+00 -.366E+00 -.105E+01   0.165E+00 -.419E+00 -.282E+00
   0.533E+02 0.599E+02 -.974E+01   -.523E+02 -.603E+02 0.963E+01   -.845E+00 -.608E-01 0.167E+00   -.190E+00 0.464E+00 -.475E-01
   0.367E+02 0.139E+02 -.653E+02   -.374E+02 -.139E+02 0.645E+02   0.835E+00 -.192E+00 0.111E+01   -.150E+00 0.156E+00 -.263E+00
   -.499E+02 0.225E+02 -.786E+02   0.507E+02 -.234E+02 0.783E+02   -.498E+00 0.442E+00 0.465E+00   -.308E+00 0.389E+00 -.235E+00
   -.623E+02 0.999E+01 -.590E+01   0.619E+02 -.102E+02 0.483E+01   0.456E+00 -.167E+00 0.107E+01   -.101E+00 0.340E+00 -.630E-02
   -.512E+02 -.217E+02 -.730E+02   0.495E+02 0.208E+02 0.724E+02   0.151E+01 0.189E+00 0.652E+00   0.172E+00 0.573E+00 -.103E+00
   -.308E+02 0.927E+02 -.234E+02   0.312E+02 -.930E+02 0.244E+02   -.453E+00 -.309E+00 -.623E+00   0.806E-01 0.589E+00 -.347E+00
   0.417E+02 -.204E+02 -.157E+02   -.425E+02 0.193E+02 0.171E+02   0.526E+00 0.595E+00 -.108E+01   0.292E+00 0.445E+00 -.363E+00
   0.721E+02 0.219E+02 -.294E+02   -.715E+02 -.220E+02 0.301E+02   -.724E+00 -.713E-01 -.580E+00   0.123E+00 0.227E+00 -.855E-01
   -.190E+02 -.116E+02 0.463E+02   0.190E+02 0.137E+02 -.474E+02   -.110E+00 -.124E+01 0.184E+00   0.183E+00 -.759E+00 0.770E+00
   -.544E+02 0.353E+02 0.115E+03   0.554E+02 -.355E+02 -.115E+03   -.624E+00 -.581E+00 -.392E+00   -.375E+00 0.796E+00 0.770E+00
   0.232E+02 -.239E+02 0.873E+02   -.245E+02 0.207E+02 -.869E+02   0.504E+00 0.213E+01 -.707E+00   0.755E+00 0.106E+01 0.285E+00
   0.268E+01 -.297E+01 -.242E+02   -.250E+01 0.309E+01 0.230E+02   0.510E+00 0.398E+00 0.143E+01   -.522E+00 -.533E+00 -.162E+00
   0.885E+01 -.822E+02 -.518E+02   -.106E+02 0.818E+02 0.529E+02   0.148E+01 0.108E+01 -.414E-01   0.254E+00 -.716E+00 -.836E+00
   -.267E+02 -.561E+02 -.641E+02   0.264E+02 0.567E+02 0.637E+02   -.189E+00 0.306E+00 0.641E+00   0.437E+00 -.889E+00 -.228E+00
   -.316E+02 0.418E+02 0.834E+02   0.323E+02 -.425E+02 -.835E+02   0.653E-01 -.508E+00 -.775E-01   -.678E+00 0.105E+01 0.177E+00
   -.546E+02 0.957E+02 0.815E+02   0.547E+02 -.970E+02 -.814E+02   -.208E+00 -.312E+00 -.113E+00   0.209E+00 0.145E+01 -.352E-02
   -.166E+02 -.121E+03 -.603E+02   0.170E+02 0.123E+03 0.604E+02   -.177E-01 -.452E-02 0.574E-01   -.315E+00 -.112E+01 -.344E+00
   0.102E+03 0.132E+03 -.698E+02   -.103E+03 -.133E+03 0.710E+02   0.124E+00 -.666E+00 -.432E-02   0.576E+00 0.114E+01 -.114E+01
   -.133E+03 0.121E+03 -.771E+02   0.132E+03 -.121E+03 0.773E+02   0.497E+00 -.620E+00 0.501E-01   0.566E+00 0.108E+01 -.177E+00
   -.530E+02 -.406E+02 -.600E+02   0.528E+02 0.388E+02 0.611E+02   -.158E+00 0.332E+00 0.128E-01   0.367E+00 0.142E+01 -.103E+01
 -----------------------------------------------------------------------------------------------
   0.101E+01 -.238E+01 -.150E+01   -.171E-12 -.597E-12 -.625E-12   -.154E+01 0.126E+01 0.215E+01   0.524E+00 0.109E+01 -.634E+00
 
 
 POSITION                                       TOTAL-FORCE (eV/Angst)
 -----------------------------------------------------------------------------------
      9.04376      9.02694      9.02764        -0.035924      0.057731      0.066554
      2.27215     -0.00185      2.26955        -0.087533      0.018703      0.041932
      2.26400      4.52319      2.26521        -0.008328     -0.007401     -0.014925
      4.56607      4.52847      9.01455        -0.036256     -0.026123     -0.052748
      4.56090      2.21271      6.70919        -0.041712      0.047248      0.046911
      9.03838      4.51355      4.51672         0.017551     -0.008974      0.000728
      4.53419      6.81820      6.76491        -0.024153     -0.018013      0.032000
      8.93659      2.08101      2.42876         0.018069      0.099273      0.007805
      6.99584      6.65967      8.99834        -0.119123      0.070310     -0.105760
      0.20680      2.48893      6.77287         0.061286     -0.039949      0.049452
      6.97767      2.33149      4.32868        -0.065714      0.006031     -0.001957
      8.98979      6.61970      6.81149        -0.042608     -0.009074     -0.038266
      2.40463      4.40421      6.75243         0.082598     -0.054886      0.020284
      2.24906      2.26903      8.97467         0.033638      0.037199      0.027949
      4.56185      2.31406      2.28743        -0.019781      0.048014     -0.051360
      6.77483      9.04023      2.30156         0.053915      0.094122     -0.004769
      6.88487      2.31460      8.95681        -0.011273      0.017137     -0.031622
      2.22897      6.75759      8.99514         0.070469     -0.044651      0.005146
      2.24107      2.26597      4.55500         0.004385      0.021940     -0.000626
      2.22727      6.78023      4.55224        -0.004685     -0.036525      0.004144
      2.26733      2.24558      2.27625         0.024242     -0.007860     -0.005749
      2.35583      9.04301      8.97507        -0.028484      0.016225     -0.000635
      0.00483      2.30314      0.10175        -0.024752     -0.000320      0.000576
      6.78628      2.24459      2.19232        -0.027892      0.018809     -0.059368
      6.76246     -0.00230      8.99535         0.029795      0.027797     -0.008437
      4.55381     -0.00070      2.25059        -0.010646      0.007212     -0.006368
      9.00185      4.48770      2.20607         0.003576      0.005105     -0.006159
      4.48678      6.91864      0.03769        -0.009962     -0.372766      0.026293
      9.06413     -0.01070      6.76059        -0.048976      0.052869     -0.009962
      6.87873      2.13475      6.76254        -0.034881     -0.007149      0.011911
      6.75068      0.00412      4.55247        -0.014813     -0.007855     -0.013348
      4.55597      2.17028      4.47276        -0.025532      0.021524     -0.020078
      4.60892     -0.01382      6.77053        -0.006135      0.021990     -0.035679
      9.00966      9.02634      2.30278         0.014796      0.005883      0.013768
      4.55191      2.19234      0.01594        -0.009505      0.133602      0.020685
      2.27707      6.79926      2.25309         0.043306     -0.017531     -0.008398
      2.24650      4.50841      8.99638         0.000735      0.023993     -0.014806
     -0.00219      6.75917      0.01447         0.008112     -0.025289      0.044555
      6.75950      6.76975      2.22510         0.032151     -0.027313      0.023711
      6.88515      4.52555      9.02191         0.004014     -0.005236      0.006642
      4.55591      4.54119      2.28512        -0.035899     -0.008733      0.004088
      2.32098      2.20641      6.76120         0.058965      0.045364      0.004165
      2.28228      9.05064      4.55923        -0.019619      0.013925     -0.032653
      9.01563      2.23585      4.64540        -0.010187     -0.001195     -0.006437
      2.22921      6.83037      6.77593         0.037814     -0.001035      0.009024
      2.30226      4.51745      4.54546         0.010056      0.008982     -0.000798
      9.01664      6.82285      4.55579         0.038970     -0.000625     -0.030900
      0.05327      4.53045      6.79687        -0.036559      0.005381     -0.008471
      6.79907      6.80025      6.77145        -0.012191     -0.076302     -0.018500
      6.77005      4.47602      4.52341         0.023693      0.024306      0.025258
      4.52609      6.78855      4.48743         0.006356     -0.015198     -0.012181
      4.56535      4.51524      6.73119         0.011204      0.006304     -0.000581
      4.54132      0.05725      0.07751         0.055404      0.071536     -0.194191
      9.06873      4.55040      9.02226         0.002107     -0.052625      0.003293
      4.53902      6.73567      2.28016        -0.103413     -0.018590     -0.068267
      2.11305      0.02056      6.73225         0.169304     -0.013109     -0.019830
      4.47961      8.93990      4.42632        -0.037333      0.049193      0.252574
      6.94420      8.93281      6.72624        -0.058581     -0.012316      0.047393
      9.01456      6.90527      2.29360         0.067752     -0.077267     -0.001769
      6.75267      4.53985      2.29076         0.085777     -0.091538     -0.007713
      9.05248      0.01051      4.51238         0.078379      0.010096     -0.091107
      4.53852      4.63317      4.50987        -0.085014     -0.085785      0.063321
      6.73951      4.66649      6.75170        -0.036319      0.126648      0.034984
      6.81979      6.71477      4.48944         0.025359     -0.043215      0.089271
 -----------------------------------------------------------------------------------
    total drift:                               -0.012614     -0.021177      0.021463


--------------------------------------------------------------------------------------------------------



  FREE ENERGIE OF THE ION-ELECTRON SYSTEM (eV)
  ---------------------------------------------------
  free  energy   TOTEN  =      -664.44658591 eV

  energy  without entropy=     -664.35620550  energy(sigma->0) =     -664.40139571
 


--------------------------------------------------------------------------------------------------------


    POTLOK:  cpu time      0.0504: real time      0.0736


--------------------------------------------------------------------------------------------------------


     LOOP+:  cpu time  13754.2794: real time  14249.0071
    4ORBIT:  cpu time      0.0000: real time      0.0000



 total charge

# of ion       s       p       d       tot
------------------------------------------
    1        2.160   6.294   1.730  10.184
    2        2.168   6.336   1.768  10.271
    3        2.173   6.345   1.740  10.257
    4        2.166   6.325   1.769  10.260
    5        2.171   6.335   1.709  10.215
    6        2.169   6.344   1.774  10.288
    7        2.171   6.342   1.748  10.262
    8        0.388   0.548   4.377   5.313
    9        0.407   0.584   4.400   5.391
   10        0.414   0.569   4.476   5.459
   11        0.402   0.555   4.441   5.397
   12        0.413   0.609   4.406   5.428
   13        0.409   0.618   4.367   5.395
   14        0.308   6.622   1.760   8.690
   15        0.307   6.617   1.716   8.640
   16        0.298   6.596   1.745   8.639
   17        0.309   6.611   1.695   8.615
   18        0.319   6.656   1.769   8.744
   19        0.311   6.642   1.787   8.740
   20        0.319   6.678   1.809   8.806
   21        1.252   2.422   0.000   3.674
   22        1.251   2.430   0.000   3.682
   23        1.251   2.420   0.000   3.671
   24        1.254   2.437   0.000   3.691
   25        1.249   2.415   0.000   3.665
   26        1.252   2.450   0.000   3.702
   27        1.252   2.400   0.000   3.652
   28        1.252   2.414   0.000   3.666
   29        1.258   2.423   0.000   3.681
   30        1.248   2.385   0.000   3.633
   31        1.248   2.407   0.000   3.655
   32        1.252   2.416   0.000   3.668
   33        1.248   2.412   0.000   3.660
   34        0.888   1.567   0.000   2.455
   35        0.878   1.570   0.000   2.448
   36        0.880   1.549   0.000   2.429
   37        0.881   1.558   0.000   2.439
   38        0.883   1.566   0.000   2.449
   39        0.871   1.537   0.000   2.408
   40        0.881   1.555   0.000   2.436
   41        0.884   1.569   0.000   2.453
   42        0.885   1.574   0.000   2.459
   43        0.877   1.568   0.000   2.445
   44        0.883   1.549   0.000   2.431
   45        0.874   1.534   0.000   2.408
   46        0.885   1.545   0.000   2.430
   47        0.879   1.532   0.000   2.411
   48        0.885   1.537   0.000   2.422
   49        0.883   1.553   0.000   2.436
   50        0.883   1.532   0.000   2.415
   51        0.883   1.572   0.000   2.455
   52        0.889   1.545   0.000   2.433
   53        0.297   6.242   2.276   8.815
   54        0.306   6.267   2.344   8.917
   55        0.296   6.245   2.344   8.886
   56        0.301   6.239   2.323   8.863
   57        0.291   6.226   2.315   8.832
   58        0.294   6.228   2.270   8.792
   59        2.112   5.954   2.161  10.228
   60        2.111   5.957   2.162  10.231
   61        2.111   5.955   2.178  10.243
   62        2.116   5.960   2.200  10.276
   63        2.113   5.950   2.213  10.276
   64        2.109   5.953   2.169  10.231
--------------------------------------------------
tot         67.256 228.346  77.942 373.544
 

 total amount of memory used by VASP MPI-rank0  1857048. kBytes
=======================================================================

   base      :      30000. kBytes
   nonl-proj :    1534274. kBytes
   fftplans  :       1680. kBytes
   grid      :       8060. kBytes
   one-center:        995. kBytes
   wavefun   :     282039. kBytes
 
  
  
 General timing and accounting informations for this job:
 ========================================================
  
                  Total CPU time used (sec):    13897.421
                            User time (sec):    13751.867
                          System time (sec):      145.555
                         Elapsed time (sec):    14399.973
  
                   Maximum memory used (kb):     1772340.
                   Average memory used (kb):          N/A
  
                          Minor page faults:     21844702
                          Major page faults:           17
                 Voluntary context switches:         5706
