   2   2   0   0
  0.2232131E+02  0.3194600E-09  0.3194600E-09  0.5051100E-09  0.5000000E-15
  1.000000000000000E-004
  CAR 
 HECN                                    
     27.91802405    -28.74531999  301      4.82942049      1.00000000
    -28.745  0.0000E+00  0.0000E+00
    -28.556  0.0000E+00  0.0000E+00
    -28.368  0.0000E+00  0.0000E+00
    -28.179  0.0000E+00  0.0000E+00
    -27.990  0.0000E+00  0.0000E+00
    -27.801  0.0000E+00  0.0000E+00
    -27.612  0.0000E+00  0.0000E+00
    -27.423  0.0000E+00  0.0000E+00
    -27.234  0.0000E+00  0.0000E+00
    -27.045  0.0000E+00  0.0000E+00
    -26.857  0.0000E+00  0.0000E+00
    -26.668  0.3714E-14  0.7014E-15
    -26.479  0.2426E-07  0.4582E-08
    -26.290  0.1756E-03  0.3317E-04
    -26.101  0.7033E-02  0.1362E-02
    -25.912  0.9668E-01  0.1962E-01
    -25.723  0.1247E+00  0.4317E-01
    -25.534  0.1482E+00  0.7116E-01
    -25.346  0.2115E+00  0.1111E+00
    -25.157  0.4671E-01  0.1199E+00
    -24.968  0.3654E-03  0.1200E+00
    -24.779  0.2511E-07  0.1200E+00
    -24.590  0.2986E-14  0.1200E+00
    -24.401  0.0000E+00  0.1200E+00
    -24.212  0.0000E+00  0.1200E+00
    -24.023  0.0000E+00  0.1200E+00
    -23.834  0.0000E+00  0.1200E+00
    -23.646  0.0000E+00  0.1200E+00
    -23.457  0.0000E+00  0.1200E+00
    -23.268  0.0000E+00  0.1200E+00
    -23.079  0.0000E+00  0.1200E+00
    -22.890  0.0000E+00  0.1200E+00
    -22.701  0.0000E+00  0.1200E+00
    -22.512  0.0000E+00  0.1200E+00
    -22.323  0.0000E+00  0.1200E+00
    -22.135  0.0000E+00  0.1200E+00
    -21.946  0.0000E+00  0.1200E+00
    -21.757  0.0000E+00  0.1200E+00
    -21.568  0.0000E+00  0.1200E+00
    -21.379  0.0000E+00  0.1200E+00
    -21.190  0.0000E+00  0.1200E+00
    -21.001  0.0000E+00  0.1200E+00
    -20.812  0.0000E+00  0.1200E+00
    -20.624  0.0000E+00  0.1200E+00
    -20.435  0.0000E+00  0.1200E+00
    -20.246  0.0000E+00  0.1200E+00
    -20.057  0.0000E+00  0.1200E+00
    -19.868  0.0000E+00  0.1200E+00
    -19.679  0.0000E+00  0.1200E+00
    -19.490  0.0000E+00  0.1200E+00
    -19.301  0.0000E+00  0.1200E+00
    -19.113  0.0000E+00  0.1200E+00
    -18.924  0.0000E+00  0.1200E+00
    -18.735  0.0000E+00  0.1200E+00
    -18.546  0.0000E+00  0.1200E+00
    -18.357  0.0000E+00  0.1200E+00
    -18.168  0.0000E+00  0.1200E+00
    -17.979  0.0000E+00  0.1200E+00
    -17.790  0.0000E+00  0.1200E+00
    -17.602  0.0000E+00  0.1200E+00
    -17.413  0.0000E+00  0.1200E+00
    -17.224  0.0000E+00  0.1200E+00
    -17.035  0.0000E+00  0.1200E+00
    -16.846  0.0000E+00  0.1200E+00
    -16.657  0.0000E+00  0.1200E+00
    -16.468  0.0000E+00  0.1200E+00
    -16.279  0.0000E+00  0.1200E+00
    -16.091  0.0000E+00  0.1200E+00
    -15.902  0.0000E+00  0.1200E+00
    -15.713  0.0000E+00  0.1200E+00
    -15.524  0.0000E+00  0.1200E+00
    -15.335  0.0000E+00  0.1200E+00
    -15.146  0.0000E+00  0.1200E+00
    -14.957  0.0000E+00  0.1200E+00
    -14.768  0.0000E+00  0.1200E+00
    -14.579  0.0000E+00  0.1200E+00
    -14.391  0.0000E+00  0.1200E+00
    -14.202  0.0000E+00  0.1200E+00
    -14.013  0.0000E+00  0.1200E+00
    -13.824  0.0000E+00  0.1200E+00
    -13.635  0.0000E+00  0.1200E+00
    -13.446  0.0000E+00  0.1200E+00
    -13.257  0.0000E+00  0.1200E+00
    -13.068  0.0000E+00  0.1200E+00
    -12.880  0.0000E+00  0.1200E+00
    -12.691  0.0000E+00  0.1200E+00
    -12.502  0.0000E+00  0.1200E+00
    -12.313  0.0000E+00  0.1200E+00
    -12.124  0.0000E+00  0.1200E+00
    -11.935  0.0000E+00  0.1200E+00
    -11.746  0.0000E+00  0.1200E+00
    -11.557  0.0000E+00  0.1200E+00
    -11.369  0.0000E+00  0.1200E+00
    -11.180  0.0000E+00  0.1200E+00
    -10.991  0.0000E+00  0.1200E+00
    -10.802  0.0000E+00  0.1200E+00
    -10.613  0.0000E+00  0.1200E+00
    -10.424  0.0000E+00  0.1200E+00
    -10.235  0.0000E+00  0.1200E+00
    -10.046  0.0000E+00  0.1200E+00
     -9.858  0.0000E+00  0.1200E+00
     -9.669  0.0000E+00  0.1200E+00
     -9.480  0.0000E+00  0.1200E+00
     -9.291  0.0000E+00  0.1200E+00
     -9.102  0.0000E+00  0.1200E+00
     -8.913  0.0000E+00  0.1200E+00
     -8.724  0.0000E+00  0.1200E+00
     -8.535  0.0000E+00  0.1200E+00
     -8.347  0.0000E+00  0.1200E+00
     -8.158  0.0000E+00  0.1200E+00
     -7.969  0.0000E+00  0.1200E+00
     -7.780  0.0000E+00  0.1200E+00
     -7.591  0.0000E+00  0.1200E+00
     -7.402  0.0000E+00  0.1200E+00
     -7.213  0.0000E+00  0.1200E+00
     -7.024  0.0000E+00  0.1200E+00
     -6.835  0.0000E+00  0.1200E+00
     -6.647  0.0000E+00  0.1200E+00
     -6.458  0.0000E+00  0.1200E+00
     -6.269  0.0000E+00  0.1200E+00
     -6.080  0.0000E+00  0.1200E+00
     -5.891  0.0000E+00  0.1200E+00
     -5.702  0.0000E+00  0.1200E+00
     -5.513  0.0000E+00  0.1200E+00
     -5.324  0.0000E+00  0.1200E+00
     -5.136  0.0000E+00  0.1200E+00
     -4.947  0.0000E+00  0.1200E+00
     -4.758  0.0000E+00  0.1200E+00
     -4.569  0.0000E+00  0.1200E+00
     -4.380  0.0000E+00  0.1200E+00
     -4.191  0.0000E+00  0.1200E+00
     -4.002  0.0000E+00  0.1200E+00
     -3.813  0.0000E+00  0.1200E+00
     -3.625  0.0000E+00  0.1200E+00
     -3.436  0.0000E+00  0.1200E+00
     -3.247  0.0000E+00  0.1200E+00
     -3.058  0.0000E+00  0.1200E+00
     -2.869  0.4977E-11  0.1200E+00
     -2.680  0.1980E-05  0.1200E+00
     -2.491  0.1052E-02  0.1202E+00
     -2.302  0.2790E-02  0.1207E+00
     -2.114  0.7830E-04  0.1207E+00
     -1.925  0.4500E-08  0.1207E+00
     -1.736  0.2422E-06  0.1207E+00
     -1.547  0.7133E-03  0.1209E+00
     -1.358  0.6418E-02  0.1221E+00
     -1.169  0.7114E-03  0.1222E+00
     -0.980  0.2407E-06  0.1222E+00
     -0.791  0.9462E-13  0.1222E+00
     -0.603  0.0000E+00  0.1222E+00
     -0.414  0.0000E+00  0.1222E+00
     -0.225  0.8647E-11  0.1222E+00
     -0.036  0.5742E-05  0.1222E+00
      0.153  0.4870E-02  0.1231E+00
      0.342  0.1791E-01  0.1265E+00
      0.531  0.3298E-02  0.1271E+00
      0.720  0.3566E-01  0.1339E+00
      0.908  0.1664E-01  0.1370E+00
      1.097  0.1191E-03  0.1370E+00
      1.286  0.2709E-02  0.1376E+00
      1.475  0.1144E-02  0.1378E+00
      1.664  0.2544E-05  0.1378E+00
      1.853  0.3993E-03  0.1379E+00
      2.042  0.2839E-01  0.1432E+00
      2.231  0.1820E-01  0.1467E+00
      2.420  0.4286E-03  0.1467E+00
      2.608  0.1660E-01  0.1499E+00
      2.797  0.1369E-01  0.1525E+00
      2.986  0.1233E-01  0.1548E+00
      3.175  0.4768E-01  0.1638E+00
      3.364  0.3383E-01  0.1702E+00
      3.553  0.5425E-01  0.1804E+00
      3.742  0.9498E-02  0.1822E+00
      3.931  0.6393E-03  0.1823E+00
      4.119  0.1803E-01  0.1857E+00
      4.308  0.3545E-01  0.1924E+00
      4.497  0.1643E-01  0.1955E+00
      4.686  0.2598E-02  0.1960E+00
      4.875  0.2702E-01  0.2011E+00
      5.064  0.9352E-02  0.2029E+00
      5.253  0.1420E-01  0.2056E+00
      5.442  0.4676E-01  0.2144E+00
      5.630  0.8562E-02  0.2160E+00
      5.819  0.4291E-01  0.2241E+00
      6.008  0.7350E-01  0.2380E+00
      6.197  0.4132E-01  0.2458E+00
      6.386  0.1646E-01  0.2489E+00
      6.575  0.3654E-01  0.2558E+00
      6.764  0.3969E-02  0.2566E+00
      6.953  0.1314E-01  0.2591E+00
      7.141  0.1688E-01  0.2623E+00
      7.330  0.6761E-02  0.2635E+00
      7.519  0.8771E-03  0.2637E+00
      7.708  0.4598E-06  0.2637E+00
      7.897  0.1014E-02  0.2639E+00
      8.086  0.3389E-01  0.2703E+00
      8.275  0.1370E-01  0.2729E+00
      8.464  0.1304E-01  0.2753E+00
      8.652  0.1332E-01  0.2779E+00
      8.841  0.2451E-01  0.2825E+00
      9.030  0.8527E-02  0.2841E+00
      9.219  0.2297E-01  0.2884E+00
      9.408  0.9158E-01  0.3057E+00
      9.597  0.2061E-01  0.3096E+00
      9.786  0.9560E-02  0.3114E+00
      9.975  0.2218E-01  0.3156E+00
     10.164  0.2187E-01  0.3198E+00
     10.352  0.3317E-01  0.3260E+00
     10.541  0.4076E-01  0.3337E+00
     10.730  0.7532E-02  0.3351E+00
     10.919  0.5903E-02  0.3363E+00
     11.108  0.5643E-02  0.3373E+00
     11.297  0.2279E-01  0.3416E+00
     11.486  0.3898E-01  0.3490E+00
     11.675  0.3401E-02  0.3496E+00
     11.863  0.1353E-02  0.3499E+00
     12.052  0.2470E-01  0.3546E+00
     12.241  0.5319E-02  0.3556E+00
     12.430  0.6691E-03  0.3557E+00
     12.619  0.6416E-02  0.3569E+00
     12.808  0.7638E-03  0.3570E+00
     12.997  0.2717E-02  0.3576E+00
     13.186  0.1916E-01  0.3612E+00
     13.374  0.1654E-02  0.3615E+00
     13.563  0.8315E-05  0.3615E+00
     13.752  0.1636E-02  0.3618E+00
     13.941  0.2252E-02  0.3622E+00
     14.130  0.2898E-02  0.3628E+00
     14.319  0.3839E-01  0.3700E+00
     14.508  0.2189E-01  0.3741E+00
     14.697  0.7508E-02  0.3756E+00
     14.885  0.8520E-02  0.3772E+00
     15.074  0.8379E-02  0.3788E+00
     15.263  0.3258E-01  0.3849E+00
     15.452  0.2835E-01  0.3903E+00
     15.641  0.5824E-03  0.3904E+00
     15.830  0.2451E-02  0.3908E+00
     16.019  0.1426E-02  0.3911E+00
     16.208  0.2682E-02  0.3916E+00
     16.396  0.1407E+00  0.4182E+00
     16.585  0.1024E+00  0.4375E+00
     16.774  0.1403E-01  0.4402E+00
     16.963  0.3338E-01  0.4465E+00
     17.152  0.4950E-01  0.4558E+00
     17.341  0.2410E-02  0.4563E+00
     17.530  0.1692E-02  0.4566E+00
     17.719  0.1280E-01  0.4590E+00
     17.907  0.1500E-02  0.4593E+00
     18.096  0.2696E-01  0.4644E+00
     18.285  0.2423E-01  0.4690E+00
     18.474  0.9375E-02  0.4708E+00
     18.663  0.3794E-01  0.4779E+00
     18.852  0.1739E-01  0.4812E+00
     19.041  0.2808E-01  0.4865E+00
     19.230  0.8167E-03  0.4867E+00
     19.419  0.2039E-03  0.4867E+00
     19.607  0.1790E-01  0.4901E+00
     19.796  0.3306E-01  0.4963E+00
     19.985  0.1610E-01  0.4994E+00
     20.174  0.1947E-01  0.5031E+00
     20.363  0.3905E-01  0.5104E+00
     20.552  0.3696E-02  0.5111E+00
     20.741  0.1322E-01  0.5136E+00
     20.930  0.1788E-01  0.5170E+00
     21.118  0.6917E-03  0.5171E+00
     21.307  0.9434E-02  0.5189E+00
     21.496  0.2008E-01  0.5227E+00
     21.685  0.1701E-01  0.5259E+00
     21.874  0.3084E-01  0.5317E+00
     22.063  0.3374E-02  0.5324E+00
     22.252  0.3775E-01  0.5395E+00
     22.441  0.3601E-01  0.5463E+00
     22.629  0.2113E-01  0.5503E+00
     22.818  0.1377E-01  0.5529E+00
     23.007  0.1254E-01  0.5553E+00
     23.196  0.1532E-02  0.5556E+00
     23.385  0.5644E-05  0.5556E+00
     23.574  0.5109E-04  0.5556E+00
     23.763  0.7482E-02  0.5570E+00
     23.952  0.8085E-02  0.5585E+00
     24.140  0.6866E-04  0.5585E+00
     24.329  0.9455E-09  0.5585E+00
     24.518  0.1393E-16  0.5585E+00
     24.707  0.0000E+00  0.5585E+00
     24.896  0.1069E-11  0.5585E+00
     25.085  0.1059E-05  0.5585E+00
     25.274  0.1299E-02  0.5588E+00
     25.463  0.6194E-02  0.5599E+00
     25.651  0.3496E-03  0.5600E+00
     25.840  0.4852E-07  0.5600E+00
     26.029  0.7427E-14  0.5600E+00
     26.218  0.0000E+00  0.5600E+00
     26.407  0.0000E+00  0.5600E+00
     26.596  0.0000E+00  0.5600E+00
     26.785  0.0000E+00  0.5600E+00
     26.974  0.0000E+00  0.5600E+00
     27.163  0.0000E+00  0.5600E+00
     27.351  0.0000E+00  0.5600E+00
     27.540  0.0000E+00  0.5600E+00
     27.729  0.0000E+00  0.5600E+00
     27.918  0.0000E+00  0.5600E+00
