    2    2  100    1
  0.2232131E+02  0.3194600E-09  0.3194600E-09  0.5051100E-09  0.5000000E-15
  1.000000000000000E-004
  CAR 
 HECN                                    
     20      6     28
 
  0.0000000E+00  0.0000000E+00  0.0000000E+00  0.3703704E-01
      1        -26.169713   1.000000
      2        -25.456320   1.000000
      3        -25.456320   1.000000
      4        -25.313356   1.000000
      5        -25.313355   1.000000
      6        -25.279540   1.000000
      7         -2.447697   1.000000
      8          1.247604   1.000000
      9          5.720107   0.000000
     10          5.945825   0.000000
     11          5.945827   0.000000
     12          6.547453   0.000000
     13          6.823926   0.000000
     14          6.823928   0.000000
     15          7.244312   0.000000
     16          7.244313   0.000000
     17         10.066732   0.000000
     18         10.066733   0.000000
     19         13.766625   0.000000
     20         15.805433   0.000000
     21         16.368491   0.000000
     22         16.372786   0.000000
     23         18.220645   0.000000
     24         19.540536   0.000000
     25         22.142421   0.000000
     26         22.142426   0.000000
     27         22.545677   0.000000
     28         22.985325   0.000000
 
  0.3333333E+00  0.2923326E-16  0.0000000E+00  0.2222222E+00
      1        -25.933612   1.000000
      2        -25.836581   1.000000
      3        -25.691255   1.000000
      4        -25.582012   1.000000
      5        -25.422172   1.000000
      6        -25.365820   1.000000
      7          0.210692   1.000000
      8          2.572823   1.000000
      9          3.260667   1.000000
     10          4.067015   1.000000
     11          5.788623   0.000000
     12          5.870099   0.000000
     13          6.079021   0.000000
     14          8.753166   0.000000
     15          9.076609   0.000000
     16          9.333156   0.000000
     17         11.160038   0.000000
     18         13.081368   0.000000
     19         14.473869   0.000000
     20         15.309147   0.000000
     21         16.363917   0.000000
     22         16.372342   0.000000
     23         16.533439   0.000000
     24         16.886105   0.000000
     25         18.895386   0.000000
     26         21.386510   0.000000
     27         22.180977   0.000000
     28         22.806371   0.000000
 
  0.3333333E+00  0.3333333E+00  0.0000000E+00  0.7407407E-01
      1        -25.882897   1.000000
      2        -25.738192   1.000000
      3        -25.738192   1.000000
      4        -25.654170   1.000000
      5        -25.654170   1.000000
      6        -25.581496   1.000000
      7          2.705618   1.000000
      8          2.987691   1.000000
      9          2.987691   1.000000
     10          3.356291   1.000000
     11          5.277687   0.000000
     12          5.277687   0.000000
     13          6.990874   0.000000
     14         10.161872   0.000000
     15         10.161873   0.000000
     16         10.279888   0.000000
     17         10.279889   0.000000
     18         10.784729   0.000000
     19         12.527185   0.000000
     20         16.364971   0.000000
     21         16.364971   0.000000
     22         16.954083   0.000000
     23         17.617265   0.000000
     24         17.617268   0.000000
     25         18.353279   0.000000
     26         18.898654   0.000000
     27         18.898654   0.000000
     28         25.342418   0.000000
 
  0.0000000E+00  0.0000000E+00  0.3333333E+00  0.7407407E-01
      1        -25.959249   1.000000
      2        -25.514983   1.000000
      3        -25.420842   1.000000
      4        -25.420842   1.000000
      5        -25.349357   1.000000
      6        -25.349357   1.000000
      7         -1.452528   1.000000
      8          0.576404   1.000000
      9          4.940881   0.057479
     10          5.660872   0.000000
     11          5.660874   0.000000
     12          5.735835   0.000000
     13          6.140492   0.000000
     14          6.140494   0.000000
     15          8.622865   0.000000
     16          8.622866   0.000000
     17         10.181305   0.000000
     18         10.181306   0.000000
     19         15.156927   0.000000
     20         16.347059   0.000000
     21         16.367486   0.000000
     22         16.657898   0.000000
     23         17.056975   0.000000
     24         19.909834   0.000000
     25         19.909836   0.000000
     26         21.227451   0.000000
     27         22.185670   0.000000
     28         22.185673   0.000000
 
  0.3333333E+00  0.2923326E-16  0.3333333E+00  0.4444444E+00
      1        -25.996065   1.000000
      2        -25.862049   1.000000
      3        -25.601909   1.000000
      4        -25.528793   1.000000
      5        -25.421028   1.000000
      6        -25.420736   1.000000
      7          0.692575   1.000000
      8          2.021695   1.000000
      9          3.489640   1.000000
     10          4.281054   1.000000
     11          5.318839   0.000000
     12          5.944421   0.000000
     13          6.432575   0.000000
     14          8.040019   0.000000
     15          9.318745   0.000000
     16          9.362968   0.000000
     17         10.459385   0.000000
     18         11.382486   0.000000
     19         14.239275   0.000000
     20         16.357391   0.000000
     21         16.371645   0.000000
     22         17.024609   0.000000
     23         18.082812   0.000000
     24         18.589958   0.000000
     25         19.641310   0.000000
     26         20.262194   0.000000
     27         21.715744   0.000000
     28         22.418848   0.000000
 
  0.3333333E+00  0.3333333E+00  0.3333333E+00  0.1481481E+00
      1        -25.933748   1.000000
      2        -25.933748   1.000000
      3        -25.809218   1.000000
      4        -25.658578   1.000000
      5        -25.450582   1.000000
      6        -25.450582   1.000000
      7          3.072059   1.000000
      8          3.072059   1.000000
      9          3.125928   1.000000
     10          3.434254   1.000000
     11          4.784878   0.735631
     12          4.784878   0.735630
     13          6.988185   0.000000
     14          8.365649   0.000000
     15          9.821905   0.000000
     16          9.821905   0.000000
     17         11.984721   0.000000
     18         11.984722   0.000000
     19         14.877069   0.000000
     20         15.235535   0.000000
     21         15.235538   0.000000
     22         16.376020   0.000000
     23         16.376021   0.000000
     24         16.466335   0.000000
     25         20.049519   0.000000
     26         20.754324   0.000000
     27         20.754324   0.000000
     28         23.766219   0.000000
