       N       E                     dE             d eps       ncg     rms          rms(c)
DAV:   1    -0.112085610665E+02   -0.11209E+02   -0.11622E+04   336   0.555E+02
DAV:   2    -0.206510709873E+02   -0.94425E+01   -0.94196E+01   504   0.426E+01
DAV:   3    -0.206618161887E+02   -0.10745E-01   -0.10745E-01   336   0.162E+00
DAV:   4    -0.206618220721E+02   -0.58834E-05   -0.58836E-05   616   0.405E-02
DAV:   5    -0.206618220728E+02   -0.70486E-09   -0.11928E-09   336   0.163E-04    0.388E+00
RMM:   6    -0.201379866311E+02    0.52384E+00   -0.23254E-01   336   0.198E+00    0.216E+00
RMM:   7    -0.199472412130E+02    0.19075E+00   -0.40645E-01   337   0.269E+00    0.358E-01
RMM:   8    -0.199454780307E+02    0.17632E-02   -0.18729E-02   336   0.746E-01    0.127E-01
RMM:   9    -0.199452209744E+02    0.25706E-03   -0.34978E-03   336   0.305E-01    0.240E-02
RMM:  10    -0.199452316801E+02   -0.10706E-04   -0.49545E-04   334   0.128E-01    0.135E-02
RMM:  11    -0.199452258668E+02    0.58133E-05   -0.38892E-05   320   0.365E-02
   1 F= -.19945226E+02 E0= -.19935580E+02  d E =-.199452E+02
       N       E                     dE             d eps       ncg     rms          rms(c)
DAV:   1    -0.199862001608E+02   -0.40968E-01   -0.17271E+00   364   0.540E+00    0.914E-01
RMM:   2    -0.199601584054E+02    0.26042E-01   -0.23614E-02   336   0.805E-01    0.471E-01
RMM:   3    -0.199521903019E+02    0.79681E-02   -0.10475E-02   336   0.495E-01    0.732E-02
RMM:   4    -0.199522550297E+02   -0.64728E-04   -0.76516E-04   336   0.170E-01    0.210E-02
RMM:   5    -0.199522585730E+02   -0.35432E-05   -0.70793E-05   322   0.546E-02
   2 F= -.19952259E+02 E0= -.19944062E+02  d E =-.703271E-02
       N       E                     dE             d eps       ncg     rms          rms(c)
DAV:   1    -0.199548021098E+02   -0.25471E-02   -0.11329E-01   336   0.139E+00    0.233E-01
RMM:   2    -0.199531146730E+02    0.16874E-02   -0.16136E-03   336   0.210E-01    0.122E-01
RMM:   3    -0.199525763200E+02    0.53835E-03   -0.70739E-04   336   0.128E-01    0.177E-02
RMM:   4    -0.199525789841E+02   -0.26641E-05   -0.48846E-05   332   0.429E-02
   3 F= -.19952579E+02 E0= -.19944770E+02  d E =-.735312E-02
       N       E                     dE             d eps       ncg     rms          rms(c)
DAV:   1    -0.199659297872E+02   -0.13353E-01   -0.65592E-01   364   0.335E+00    0.573E-01
RMM:   2    -0.199556690560E+02    0.10261E-01   -0.88265E-03   336   0.478E-01    0.305E-01
RMM:   3    -0.199520775841E+02    0.35915E-02   -0.52534E-03   336   0.343E-01    0.323E-02
RMM:   4    -0.199521214108E+02   -0.43827E-04   -0.34073E-04   336   0.112E-01    0.129E-02
RMM:   5    -0.199521286703E+02   -0.72595E-05   -0.27568E-05   296   0.335E-02
   4 F= -.19952129E+02 E0= -.19945025E+02  d E =0.450314E-03
       N       E                     dE             d eps       ncg     rms          rms(c)
DAV:   1    -0.199577980233E+02   -0.56766E-02   -0.21124E-01   364   0.189E+00    0.325E-01
RMM:   2    -0.199544402996E+02    0.33577E-02   -0.29083E-03   336   0.275E-01    0.173E-01
RMM:   3    -0.199532651204E+02    0.11752E-02   -0.17212E-03   336   0.196E-01    0.182E-02
RMM:   4    -0.199532730115E+02   -0.78911E-05   -0.10701E-04   336   0.633E-02    0.633E-03
RMM:   5    -0.199532723876E+02    0.62390E-06   -0.10405E-05   243   0.203E-02
   5 F= -.19953272E+02 E0= -.19945815E+02  d E =-.693403E-03
