 vasp.6.4.3 19Mar24 (build Sep 18 2024 11:30:23) complex                        
  
 executed on             LinuxIFC date 2026.07.07  16:45:46
 running   28 mpi-ranks, on    1 nodes
 distrk:  each k-point on   28 cores,    1 groups
 distr:  one band on NCORE=   1 cores,   28 groups


--------------------------------------------------------------------------------------------------------


 INCAR:
   SYSTEM = HECN
   ISTART = 0
   ICHARG = 2
   PREC = Normal
   LREAL = .F.
   IBRION = 2
   ISIF = 3
   NSW = 100
   POTIM = 0.5
   EDIFFG = -0.01
   ENCUT = 400
   NELM = 60
   EDIFF = 1E-5
   LCHARG = .F.
   LWAVE = .F.
   ISMEAR = 0
   SIGMA = 0.1
   ALGO = Fast

 POTCAR:   PAW_PBE Hf_pv 06Sep2000                
 -----------------------------------------------------------------------------
|                                                                             |
|           W    W    AA    RRRRR   N    N  II  N    N   GGGG   !!!           |
|           W    W   A  A   R    R  NN   N  II  NN   N  G    G  !!!           |
|           W    W  A    A  R    R  N N  N  II  N N  N  G       !!!           |
|           W WW W  AAAAAA  RRRRR   N  N N  II  N  N N  G  GGG   !            |
|           WW  WW  A    A  R   R   N   NN  II  N   NN  G    G                |
|           W    W  A    A  R    R  N    N  II  N    N   GGGG   !!!           |
|                                                                             |
|     For optimal performance we recommend to set                             |
|       NCORE = 2 up to number-of-cores-per-socket                            |
|     NCORE specifies how many cores store one orbital (NPAR=cpu/NCORE).      |
|     This setting can greatly improve the performance of VASP for DFT.       |
|     The default, NCORE=1 might be grossly inefficient on modern             |
|     multi-core architectures or massively parallel machines. Do your        |
|     own testing! More info at https://www.vasp.at/wiki/index.php/NCORE      |
|     Unfortunately you need to use the default for GW and RPA                |
|     calculations (for HF NCORE is supported but not extensively tested      |
|     yet).                                                                   |
|                                                                             |
 -----------------------------------------------------------------------------

 POTCAR:   PAW_PBE Hf_pv 06Sep2000                
   VRHFIN =Hf: 5p6s5d                                                                               
   LEXCH  = PE                                                                                      
   EATOM  =   859.6195 eV,   63.1803 Ry                                                             
                                                                                                    
   TITEL  = PAW_PBE Hf_pv 06Sep2000                                                                 
   LULTRA =        F    use ultrasoft PP ?                                                          
   IUNSCR =        1    unscreen: 0-lin 1-nonlin 2-no                                               
   RPACOR =    2.500    partial core radius                                                         
   POMASS =  178.490; ZVAL   =   10.000    mass and valenz                                          
   RCORE  =    2.600    outmost cutoff radius                                                       
   RWIGS  =    3.050; RWIGS  =    1.614    wigner-seitz radius (au A)                               
   ENMAX  =  220.342; ENMIN  =  165.256 eV                                                          
   RCLOC  =    2.212    cutoff for local pot                                                        
   LCOR   =        T    correct aug charges                                                         
   LPAW   =        T    paw PP                                                                      
   EAUG   =  380.878                                                                                
   DEXC   =    -.057                                                                                
   RMAX   =    3.106    core radius for proj-oper                                                   
   RAUG   =    1.300    factor for augmentation sphere                                              
   RDEP   =    2.681    radius for radial grids                                                     
   QCUT   =   -4.024; QGAM   =    8.049    optimization parameters                                  
                                                                                                    
   Description                                                                                      
     l     E      TYP  RCUT    TYP  RCUT                                                            
     1   .000     23  2.500                                                                         
     1   .000     23  2.500                                                                         
     2   .000     23  2.500                                                                         
     2   .000     23  2.500                                                                         
     0   .000     23  2.600                                                                         
     0   .000     23  2.600                                                                         
     3   .000      7   .000                                                                         
  local pseudopotential read in
  partial core-charges read in
  atomic valenz-charges read in
  non local Contribution for L=           1  read in
    real space projection operators read in
  non local Contribution for L=           1  read in
    real space projection operators read in
  non local Contribution for L=           2  read in
    real space projection operators read in
  non local Contribution for L=           2  read in
    real space projection operators read in
  non local Contribution for L=           0  read in
    real space projection operators read in
  non local Contribution for L=           0  read in
    real space projection operators read in
    PAW grid and wavefunctions read in
 
   number of l-projection  operators is LMAX  =           6
   number of lm-projection operators is LMMAX =          18
 
 PAW_PBE Hf_pv 06Sep2000                :
 energy of atom  1       EATOM= -859.6195
 kinetic energy error for atom=    0.0038 (will be added to EATOM!!)
 
 
 POSCAR: Hf
  positions in direct lattice
  No initial velocities read in


 exchange-correlation table for PE
   RHO(1)=    0.500       N(1)  =     2000
   RHO(2)=  100.500       N(2)  =     4000
 


--------------------------------------------------------------------------------------------------------


 ion  position               nearest neighbor table
   1  0.333  0.667  0.250-   2 3.13   2 3.13   2 3.13   2 3.13   2 3.13   2 3.13
   2  0.667  0.333  0.750-   1 3.13   1 3.13   1 3.13   1 3.13   1 3.13   1 3.13
 
  LATTYP: Found a hexagonal cell.
 ALAT       =     3.1946001053
 C/A-ratio  =     1.5811367967
  
  Lattice vectors:
  
 A1 = (   3.1946001053,   0.0000000000,   0.0000000000)
 A2 = (  -1.5973000526,   2.7666048461,   0.0000000000)
 A3 = (   0.0000000000,   0.0000000000,   5.0510997772)


Analysis of symmetry for initial positions (statically):
=====================================================================
 Subroutine PRICEL returns:
 Original cell was already a primitive cell.
 

 Routine SETGRP: Setting up the symmetry group for a 
 hexagonal supercell.


 Subroutine GETGRP returns: Found 24 space group operations
 (whereof 12 operations were pure point group operations)
 out of a pool of 24 trial point group operations.


The static configuration has the point symmetry D_3d.
 The point group associated with its full space group is D_6h.


Analysis of symmetry for dynamics (positions and initial velocities):
=====================================================================
 Subroutine PRICEL returns:
 Original cell was already a primitive cell.
 

 Routine SETGRP: Setting up the symmetry group for a 
 hexagonal supercell.


 Subroutine GETGRP returns: Found 24 space group operations
 (whereof 12 operations were pure point group operations)
 out of a pool of 24 trial point group operations.


The dynamic configuration has the point symmetry D_3d.
 The point group associated with its full space group is D_6h.


 Subroutine INISYM returns: Found 24 space group operations
 (whereof 12 operations are pure point group operations),
 and found     1 'primitive' translations


----------------------------------------------------------------------------------------

                                     Primitive cell                                     

  volume of cell :      44.6426

  direct lattice vectors                    reciprocal lattice vectors
     3.194600105  0.000000000  0.000000000     0.313028225  0.180726930  0.000000000
    -1.597300053  2.766604846  0.000000000     0.000000000  0.361453860  0.000000000
     0.000000000  0.000000000  5.051099777     0.000000000  0.000000000  0.197976687

  length of vectors
     3.194600105  3.194600105  5.051099777     0.361453860  0.361453860  0.197976687

  position of ions in fractional coordinates (direct lattice)
     0.333333343  0.666666687  0.250000000
     0.666666657  0.333333313  0.750000000

  ion indices of the primitive-cell ions
   primitive index   ion index
                 1           1
                 2           2

----------------------------------------------------------------------------------------

 
 
 KPOINTS: HECN                                    

Automatic generation of k-mesh.
 Grid dimensions read from file:
 generate k-points for:    3    3    3

 Generating k-lattice:

  Cartesian coordinates                     Fractional coordinates (reciprocal lattice)
     0.104342742  0.060242310  0.000000000     0.333333333 -0.000000000  0.000000000
     0.000000000  0.120484620  0.000000000     0.000000000  0.333333333  0.000000000
     0.000000000  0.000000000  0.065992229     0.000000000  0.000000000  0.333333333

  Length of vectors
     0.120484620  0.120484620  0.065992229

  Shift w.r.t. Gamma in fractional coordinates (k-lattice)
     0.000000000  0.000000000  0.000000000

 
 Subroutine IBZKPT returns following result:
 ===========================================
 
 Found      6 irreducible k-points:
 
 Following reciprocal coordinates:
            Coordinates               Weight
  0.000000  0.000000  0.000000      1.000000
  0.333333  0.000000  0.000000      6.000000
  0.333333  0.333333  0.000000      2.000000
  0.000000  0.000000  0.333333      2.000000
  0.333333  0.000000  0.333333     12.000000
  0.333333  0.333333  0.333333      4.000000
 
 Following cartesian coordinates:
            Coordinates               Weight
  0.000000  0.000000  0.000000      1.000000
  0.104343  0.060242  0.000000      6.000000
  0.104343  0.180727  0.000000      2.000000
  0.000000  0.000000  0.065992      2.000000
  0.104343  0.060242  0.065992     12.000000
  0.104343  0.180727  0.065992      4.000000
 


--------------------------------------------------------------------------------------------------------




 Dimension of arrays:
   k-points           NKPTS =      6   k-points in BZ     NKDIM =      6   number of bands    NBANDS=     28
   number of dos      NEDOS =    301   number of ions     NIONS =      2
   non local maximal  LDIM  =      6   non local SUM 2l+1 LMDIM =     18
   total plane-waves  NPLWV =   7168
   max r-space proj   IRMAX =      1   max aug-charges    IRDMAX=   9096
   dimension x,y,z NGX =    16 NGY =   16 NGZ =   28
   dimension x,y,z NGXF=    32 NGYF=   32 NGZF=   56
   support grid    NGXF=    32 NGYF=   32 NGZF=   56
   ions per type =               2
   NGX,Y,Z   is equivalent  to a cutoff of   8.33,  8.33,  9.22 a.u.
   NGXF,Y,Z  is equivalent  to a cutoff of  16.65, 16.65, 18.43 a.u.

 SYSTEM =  HECN                                    
 POSCAR =  Hf                                      

 Startparameter for this run:
   NWRITE =      2    write-flag & timer
   PREC   = normal    normal or accurate (medium, high low for compatibility)
   ISTART =      0    job   : 0-new  1-cont  2-samecut
   ICHARG =      2    charge: 1-file 2-atom 10-const
   ISPIN  =      1    spin polarized calculation?
   LNONCOLLINEAR =      F non collinear calculations
   LSORBIT =      F    spin-orbit coupling
   INIWAV =      1    electr: 0-lowe 1-rand  2-diag
   LASPH  =      F    aspherical Exc in radial PAW
 Electronic Relaxation 1
   ENCUT  =  400.0 eV  29.40 Ry    5.42 a.u.   5.21  5.21  8.24*2*pi/ulx,y,z
   ENINI  =  400.0     initial cutoff
   ENAUG  =  380.9 eV  augmentation charge cutoff
   NELM   =     60;   NELMIN=  2; NELMDL= -5     # of ELM steps 
   EDIFF  = 0.1E-04   stopping-criterion for ELM
   LREAL  =      F    real-space projection
   NLSPLINE    = F    spline interpolate recip. space projectors
   LCOMPAT=      F    compatible to vasp.4.4
   GGA_COMPAT  = T    GGA compatible to vasp.4.4-vasp.4.6
   LMAXPAW     = -100 max onsite density
   LMAXMIX     =    2 max onsite mixed and CHGCAR
   VOSKOWN=      0    Vosko Wilk Nusair interpolation
   ROPT   =    0.00000
 Ionic relaxation
   EDIFFG = -.1E-01   stopping-criterion for IOM
   NSW    =    100    number of steps for IOM
   NBLOCK =      1;   KBLOCK =    100    inner block; outer block 
   IBRION =      2    ionic relax: 0-MD 1-quasi-New 2-CG
   NFREE  =      1    steps in history (QN), initial steepest desc. (CG)
   ISIF   =      3    stress and relaxation
   IWAVPR =     11    prediction:  0-non 1-charg 2-wave 3-comb
   ISYM   =      2    0-nonsym 1-usesym 2-fastsym
   LCORR  =      T    Harris-Foulkes like correction to forces

   POTIM  = 0.5000    time-step for ionic-motion
   TEIN   =    0.0    initial temperature
   TEBEG  =    0.0;   TEEND  =   0.0 temperature during run
   SMASS  =  -3.00    Nose mass-parameter (am)
   estimated Nose-frequenzy (Omega)   =  0.10E-29 period in steps = 0.13E+47 mass=  -0.233E-27a.u.
   SCALEE = 1.0000    scale energy and forces
   NPACO  =    256;   APACO  = 10.0  distance and # of slots for P.C.
   PSTRESS=    0.0 pullay stress

  Mass of Ions in am
   POMASS = 178.49
  Ionic Valenz
   ZVAL   =  10.00
  Atomic Wigner-Seitz radii
   RWIGS  =  -1.00
  virtual crystal weights 
   VCA    =   1.00
   NELECT =      20.0000    total number of electrons
   NUPDOWN=      -1.0000    fix difference up-down

 DOS related values:
   EMIN   =  10.00;   EMAX   =-10.00  energy-range for DOS
   EFERMI =   0.00;   METHOD = LEGACY      
   ISMEAR =     0;   SIGMA  =   0.10  broadening in eV -4-tet -1-fermi 0-gaus

 Electronic relaxation 2 (details)
   IALGO  =     68    algorithm
   LDIAG  =      T    sub-space diagonalisation (order eigenvalues)
   LSUBROT=      F    optimize rotation matrix (better conditioning)
   TURBO    =      0    0=normal 1=particle mesh
   IRESTART =      0    0=no restart 2=restart with 2 vectors
   NREBOOT  =      0    no. of reboots
   NMIN     =      0    reboot dimension
   EREF     =   0.00    reference energy to select bands
   IMIX   =      4    mixing-type and parameters
     AMIX     =   0.40;   BMIX     =  1.00
     AMIX_MAG =   1.60;   BMIX_MAG =  1.00
     AMIN     =   0.10
     WC   =   100.;   INIMIX=   1;  MIXPRE=   1;  MAXMIX= -45

 Intra band minimization:
   WEIMIN = 0.0010     energy-eigenvalue tresh-hold
   EBREAK =  0.89E-07  absolut break condition
   DEPER  =   0.30     relativ break condition  

   TIME   =   0.40     timestep for ELM

  volume/ion in A,a.u.               =      22.32       150.63
  Fermi-wavevector in a.u.,A,eV,Ry     =   1.252665  2.367194 21.349851  1.569170
  Thomas-Fermi vector in A             =   2.386555
 
 Write flags
   LWAVE        =      F    write WAVECAR
   LDOWNSAMPLE  =      F    k-point downsampling of WAVECAR
   LCHARG       =      F    write CHGCAR
   LVTOT        =      F    write LOCPOT, total local potential
   LVHAR        =      F    write LOCPOT, Hartree potential only
   WRT_POTENTIAL= false  ! write potential to hdf5 file
   LELF         =      F    write electronic localiz. function (ELF)
   LORBIT       =      0    0 simple, 1 ext, 2 COOP (PROOUT), +10 PAW based schemes


 Dipole corrections
   LMONO      =      F    monopole corrections only (constant potential shift)
   LDIPOL     =      F    correct potential (dipole corrections)
   IDIPOL     =      0    1-x, 2-y, 3-z, 4-all directions 
   EPSILON    =  1.0000000 bulk dielectric constant
   LVACPOTAV  =      F  vacuum potentials using an averaging scheme for the charge density
   VACPOTFLAT =  0.1000000 required flatness to determine vacuum potential
 Exchange correlation treatment:
   GGA     = PE    functional components
   XC_C    = 1    coefficients multiplying the functional components
   LIBXC   =     F    Libxc                    
   VOSKOWN =     0    Vosko Wilk Nusair interpolation
   LHFCALC =     F    Hartree Fock is set to
   LHFONE  =     F    Hartree Fock one center treatment
   AEXX    =    0.0000 exact exchange contribution

 Parameters of functionals:
   PE:
     No parameter
 
 Van der Waals corrections
   IVDW    =     0    specifies the selected vdW correction

 Linear response parameters
   LEPSILON=     F    determine dielectric tensor
   LRPA    =     F    only Hartree local field effects (RPA)
   LNABLA  =     F    use nabla operator in PAW spheres
   LVEL    =     F    velocity operator in full k-point grid
   CSHIFT  =0.1000    complex shift for real part using Kramers Kronig
   OMEGAMAX=  -1.0    maximum frequency
   DEG_THRESHOLD= 0.2000000E-02 threshold for treating states as degnerate
   RTIME   =   -0.100 relaxation time in fs
  (WPLASMAI=    0.000 imaginary part of plasma frequency in eV, 0.658/RTIME)
   DFIELD  = 0.0000000 0.0000000 0.0000000 field for delta impulse in time
 
  Optional k-point grid parameters
   LKPOINTS_OPT  =     F    use optional k-point grid
   KPOINTS_OPT_MODE=     1    mode for optional k-point grid
 
 Orbital magnetization related:
   ORBITALMAG=     F  switch on orbital magnetization
   LCHIMAG   =     F  perturbation theory with respect to B field
   DQ        =  0.001000  dq finite difference perturbation B field
   LLRAUG    =     F  two centre corrections for induced B field
   LBONE     =     F  B-component reconstruction in AE one-centre
   LVGVCALC  =     T  calculate vGv susceptibility
   LVGVAPPL  =     F  apply vGv susceptibility instead of pGv for G=0

 Random number generation:
   RANDOM_GENERATOR = DEFAULT
   PCG_SEED         = not used


--------------------------------------------------------------------------------------------------------


 conjugate gradient relaxation of ions
 charge density and potential will be updated during run
 non-spin polarized calculation
 RMM-DIIS sequential band-by-band and
  variant of blocked Davidson during initial phase
 perform sub-space diagonalisation
    before iterative eigenvector-optimisation
 modified Broyden-mixing scheme, WC =      100.0
 initial mixing is a Kerker type mixing with AMIX =  0.4000 and BMIX =      1.0000
 Hartree-type preconditioning will be used
 using additional bands           18
 reciprocal scheme for non local part
 use partial core corrections
 calculate Harris-corrections to forces 
   (improved forces if not selfconsistent)
 use gradient corrections 
 use of overlap-Matrix (Vanderbilt PP)
 Gauss-broadening in eV      SIGMA  =   0.10


--------------------------------------------------------------------------------------------------------


  energy-cutoff  :      400.00
  volume of cell :       44.64
      direct lattice vectors                 reciprocal lattice vectors
     3.194600105  0.000000000  0.000000000     0.313028225  0.180726930  0.000000000
    -1.597300053  2.766604846  0.000000000     0.000000000  0.361453860  0.000000000
     0.000000000  0.000000000  5.051099777     0.000000000  0.000000000  0.197976687

  length of vectors
     3.194600105  3.194600105  5.051099777     0.361453860  0.361453860  0.197976687


 
 k-points in units of 2pi/SCALE and weight: HECN                                    
   0.00000000  0.00000000  0.00000000       0.037
   0.10434274  0.06024231  0.00000000       0.222
   0.10434274  0.18072693  0.00000000       0.074
   0.00000000  0.00000000  0.06599223       0.074
   0.10434274  0.06024231  0.06599223       0.444
   0.10434274  0.18072693  0.06599223       0.148
 
 k-points in reciprocal lattice and weights: HECN                                    
   0.00000000  0.00000000  0.00000000       0.037
   0.33333333  0.00000000  0.00000000       0.222
   0.33333333  0.33333333  0.00000000       0.074
   0.00000000  0.00000000  0.33333333       0.074
   0.33333333  0.00000000  0.33333333       0.444
   0.33333333  0.33333333  0.33333333       0.148
 
 position of ions in fractional coordinates (direct lattice) 
   0.33333334  0.66666669  0.25000000
   0.66666666  0.33333331  0.75000000
 
 position of ions in cartesian coordinates  (Angst):
  -0.00000000  1.84440329  1.26277494
   1.59730005  0.92220156  3.78832483
 


--------------------------------------------------------------------------------------------------------


 k-point     1 :   0.0000 0.0000 0.0000  plane waves:     809
 k-point     2 :   0.3333 0.0000 0.0000  plane waves:     819
 k-point     3 :   0.3333 0.3333 0.0000  plane waves:     813
 k-point     4 :   0.0000 0.0000 0.3333  plane waves:     808
 k-point     5 :   0.3333 0.0000 0.3333  plane waves:     811
 k-point     6 :   0.3333 0.3333 0.3333  plane waves:     795

 maximum and minimum number of plane-waves per node :       819      795

 maximum number of plane-waves:       819
 maximum index in each direction: 
   IXMAX=    5   IYMAX=    5   IZMAX=    8
   IXMIN=   -5   IYMIN=   -5   IZMIN=   -8


 serial   3D FFT for wavefunctions
 parallel 3D FFT for charge:
    minimum data exchange during FFTs selected (reduces bandwidth)


 total amount of memory used by VASP MPI-rank0    31479. kBytes
=======================================================================

   base      :      30000. kBytes
   nonl-proj :        752. kBytes
   fftplans  :        144. kBytes
   grid      :        466. kBytes
   one-center:         31. kBytes
   wavefun   :         86. kBytes
 
     INWAV:  cpu time      0.0000: real time      0.0001
 Broyden mixing: mesh for mixing (old mesh)
   NGX = 11   NGY = 11   NGZ = 17
  (NGX  = 32   NGY  = 32   NGZ  = 56)
  gives a total of   2057 points

 initial charge density was supplied:
 charge density of overlapping atoms calculated
 number of electron      20.0000000 magnetization 
 keeping initial charge density in first step


--------------------------------------------------------------------------------------------------------


 Maximum index for augmentation-charges          548 (set IRDMAX)


--------------------------------------------------------------------------------------------------------


 First call to EWALD:  gamma=   0.500
 Maximum number of real-space cells 3x 3x 2
 Maximum number of reciprocal cells 3x 3x 4

    FEWALD:  cpu time      0.0012: real time      0.0016


--------------------------------------- Ionic step        1  -------------------------------------------




--------------------------------------- Iteration      1(   1)  ---------------------------------------


    POTLOK:  cpu time      0.0063: real time      0.0162
    SETDIJ:  cpu time      0.0031: real time      0.0051
     EDDAV:  cpu time      0.0623: real time      0.0767
       DOS:  cpu time      0.0012: real time      0.0042
    --------------------------------------------
      LOOP:  cpu time      0.0729: real time      0.1023

 eigenvalue-minimisations  :   336
 total energy-change (2. order) :-0.1120856E+02  (-0.1162152E+04)
 number of electron      20.0000000 magnetization 
 augmentation part       20.0000000 magnetization 

 Free energy of the ion-electron system (eV)
  ---------------------------------------------------
  alpha Z        PSCENC =       169.76008151
  Ewald energy   TEWEN  =     -1476.85506767
  -Hartree energ DENC   =      -235.54511071
  -exchange      EXHF   =         0.00000000
  -V(xc)+E(xc)   XCENC  =        41.18641514
  PAW double counting   =      1052.65147157    -1027.23441592
  entropy T*S    EENTRO =        -0.00375580
  eigenvalues    EBANDS =      -254.39957599
  atomic energy  EATOM  =      1719.23139681
  Solvation  Ediel_sol  =         0.00000000
  ---------------------------------------------------
  free energy    TOTEN  =       -11.20856107 eV

  energy without entropy =      -11.20480527  energy(sigma->0) =      -11.20668317


--------------------------------------------------------------------------------------------------------




--------------------------------------- Iteration      1(   2)  ---------------------------------------


     EDDAV:  cpu time      0.0787: real time      0.3954
       DOS:  cpu time      0.0003: real time      0.0003
    --------------------------------------------
      LOOP:  cpu time      0.0790: real time      0.3956

 eigenvalue-minimisations  :   504
 total energy-change (2. order) :-0.9442510E+01  (-0.9419583E+01)
 number of electron      20.0000000 magnetization 
 augmentation part       20.0000000 magnetization 

 Free energy of the ion-electron system (eV)
  ---------------------------------------------------
  alpha Z        PSCENC =       169.76008151
  Ewald energy   TEWEN  =     -1476.85506767
  -Hartree energ DENC   =      -235.54511071
  -exchange      EXHF   =         0.00000000
  -V(xc)+E(xc)   XCENC  =        41.18641514
  PAW double counting   =      1052.65147157    -1027.23441592
  entropy T*S    EENTRO =        -0.01954250
  eigenvalues    EBANDS =      -263.82629920
  atomic energy  EATOM  =      1719.23139681
  Solvation  Ediel_sol  =         0.00000000
  ---------------------------------------------------
  free energy    TOTEN  =       -20.65107099 eV

  energy without entropy =      -20.63152848  energy(sigma->0) =      -20.64129973


--------------------------------------------------------------------------------------------------------




--------------------------------------- Iteration      1(   3)  ---------------------------------------


     EDDAV:  cpu time      0.0352: real time      0.0362
       DOS:  cpu time      0.0003: real time      0.0003
    --------------------------------------------
      LOOP:  cpu time      0.0355: real time      0.0366

 eigenvalue-minimisations  :   336
 total energy-change (2. order) :-0.1074520E-01  (-0.1074502E-01)
 number of electron      20.0000000 magnetization 
 augmentation part       20.0000000 magnetization 

 Free energy of the ion-electron system (eV)
  ---------------------------------------------------
  alpha Z        PSCENC =       169.76008151
  Ewald energy   TEWEN  =     -1476.85506767
  -Hartree energ DENC   =      -235.54511071
  -exchange      EXHF   =         0.00000000
  -V(xc)+E(xc)   XCENC  =        41.18641514
  PAW double counting   =      1052.65147157    -1027.23441592
  entropy T*S    EENTRO =        -0.01952474
  eigenvalues    EBANDS =      -263.83706217
  atomic energy  EATOM  =      1719.23139681
  Solvation  Ediel_sol  =         0.00000000
  ---------------------------------------------------
  free energy    TOTEN  =       -20.66181619 eV

  energy without entropy =      -20.64229145  energy(sigma->0) =      -20.65205382


--------------------------------------------------------------------------------------------------------




--------------------------------------- Iteration      1(   4)  ---------------------------------------


     EDDAV:  cpu time      0.0925: real time      0.0944
       DOS:  cpu time      0.0003: real time      0.0003
    --------------------------------------------
      LOOP:  cpu time      0.0928: real time      0.0947

 eigenvalue-minimisations  :   616
 total energy-change (2. order) :-0.5883448E-05  (-0.5883560E-05)
 number of electron      20.0000000 magnetization 
 augmentation part       20.0000000 magnetization 

 Free energy of the ion-electron system (eV)
  ---------------------------------------------------
  alpha Z        PSCENC =       169.76008151
  Ewald energy   TEWEN  =     -1476.85506767
  -Hartree energ DENC   =      -235.54511071
  -exchange      EXHF   =         0.00000000
  -V(xc)+E(xc)   XCENC  =        41.18641514
  PAW double counting   =      1052.65147157    -1027.23441592
  entropy T*S    EENTRO =        -0.01952474
  eigenvalues    EBANDS =      -263.83706805
  atomic energy  EATOM  =      1719.23139681
  Solvation  Ediel_sol  =         0.00000000
  ---------------------------------------------------
  free energy    TOTEN  =       -20.66182207 eV

  energy without entropy =      -20.64229733  energy(sigma->0) =      -20.65205970


--------------------------------------------------------------------------------------------------------




--------------------------------------- Iteration      1(   5)  ---------------------------------------


     EDDAV:  cpu time      0.0343: real time      0.0350
       DOS:  cpu time      0.0003: real time      0.0003
    CHARGE:  cpu time      0.0030: real time      0.0072
    MIXING:  cpu time      0.0012: real time      0.0068
    --------------------------------------------
      LOOP:  cpu time      0.0388: real time      0.0492

 eigenvalue-minimisations  :   336
 total energy-change (2. order) :-0.7048584E-09  (-0.1192772E-09)
 number of electron      20.0000006 magnetization 
 augmentation part        5.3358864 magnetization 

 Broyden mixing:
  rms(total) = 0.38819E+00    rms(broyden)= 0.38819E+00
  rms(prec ) = 0.88271E+00
  weight for this iteration     100.00

 Free energy of the ion-electron system (eV)
  ---------------------------------------------------
  alpha Z        PSCENC =       169.76008151
  Ewald energy   TEWEN  =     -1476.85506767
  -Hartree energ DENC   =      -235.54511071
  -exchange      EXHF   =         0.00000000
  -V(xc)+E(xc)   XCENC  =        41.18641514
  PAW double counting   =      1052.65147157    -1027.23441592
  entropy T*S    EENTRO =        -0.01952474
  eigenvalues    EBANDS =      -263.83706805
  atomic energy  EATOM  =      1719.23139681
  Solvation  Ediel_sol  =         0.00000000
  ---------------------------------------------------
  free energy    TOTEN  =       -20.66182207 eV

  energy without entropy =      -20.64229733  energy(sigma->0) =      -20.65205970


--------------------------------------------------------------------------------------------------------




--------------------------------------- Iteration      1(   6)  ---------------------------------------


    POTLOK:  cpu time      0.0028: real time      0.0033
    SETDIJ:  cpu time      0.0014: real time      0.0014
    EDDIAG:  cpu time      0.0282: real time      0.0421
  RMM-DIIS:  cpu time      0.0046: real time      0.0072
    ORTHCH:  cpu time      0.0011: real time      0.0011
       DOS:  cpu time      0.0003: real time      0.0003
    CHARGE:  cpu time      0.0018: real time      0.0018
    MIXING:  cpu time      0.0010: real time      0.0013
    --------------------------------------------
      LOOP:  cpu time      0.0412: real time      0.0584

 eigenvalue-minimisations  :   336
 total energy-change (2. order) : 0.5238354E+00  (-0.2325410E-01)
 number of electron      20.0000006 magnetization 
 augmentation part        5.3681824 magnetization 

 Broyden mixing:
  rms(total) = 0.21630E+00    rms(broyden)= 0.21630E+00
  rms(prec ) = 0.48242E+00
  weight for this iteration     100.00

 eigenvalues of (default mixing * dielectric matrix)
  average eigenvalue GAMMA=   2.2044
  2.2044

 Free energy of the ion-electron system (eV)
  ---------------------------------------------------
  alpha Z        PSCENC =       169.76008151
  Ewald energy   TEWEN  =     -1476.85506767
  -Hartree energ DENC   =      -222.77815345
  -exchange      EXHF   =         0.00000000
  -V(xc)+E(xc)   XCENC  =        40.54904953
  PAW double counting   =      1064.35353564    -1040.21216346
  entropy T*S    EENTRO =        -0.01928925
  eigenvalues    EBANDS =      -274.16737629
  atomic energy  EATOM  =      1719.23139681
  Solvation  Ediel_sol  =         0.00000000
  ---------------------------------------------------
  free energy    TOTEN  =       -20.13798663 eV

  energy without entropy =      -20.11869738  energy(sigma->0) =      -20.12834201


--------------------------------------------------------------------------------------------------------




--------------------------------------- Iteration      1(   7)  ---------------------------------------


    POTLOK:  cpu time      0.0024: real time      0.0026
    SETDIJ:  cpu time      0.0012: real time      0.0012
    EDDIAG:  cpu time      0.0123: real time      0.0126
  RMM-DIIS:  cpu time      0.0027: real time      0.0027
    ORTHCH:  cpu time      0.0011: real time      0.0015
       DOS:  cpu time      0.0003: real time      0.0003
    CHARGE:  cpu time      0.0017: real time      0.0017
    MIXING:  cpu time      0.0002: real time      0.0002
    --------------------------------------------
      LOOP:  cpu time      0.0219: real time      0.0228

 eigenvalue-minimisations  :   337
 total energy-change (2. order) : 0.1907454E+00  (-0.4064471E-01)
 number of electron      20.0000006 magnetization 
 augmentation part        5.4127957 magnetization 

 Broyden mixing:
  rms(total) = 0.35768E-01    rms(broyden)= 0.35767E-01
  rms(prec ) = 0.58038E-01
  weight for this iteration     100.00

 eigenvalues of (default mixing * dielectric matrix)
  average eigenvalue GAMMA=   2.5156
  2.5156  2.5156

 Free energy of the ion-electron system (eV)
  ---------------------------------------------------
  alpha Z        PSCENC =       169.76008151
  Ewald energy   TEWEN  =     -1476.85506767
  -Hartree energ DENC   =      -208.89254938
  -exchange      EXHF   =         0.00000000
  -V(xc)+E(xc)   XCENC  =        39.90041949
  PAW double counting   =      1087.26405273    -1064.69582472
  entropy T*S    EENTRO =        -0.01921997
  eigenvalues    EBANDS =      -285.64053001
  atomic energy  EATOM  =      1719.23139681
  Solvation  Ediel_sol  =         0.00000000
  ---------------------------------------------------
  free energy    TOTEN  =       -19.94724121 eV

  energy without entropy =      -19.92802125  energy(sigma->0) =      -19.93763123


--------------------------------------------------------------------------------------------------------




--------------------------------------- Iteration      1(   8)  ---------------------------------------


    POTLOK:  cpu time      0.0023: real time      0.0023
    SETDIJ:  cpu time      0.0012: real time      0.0012
    EDDIAG:  cpu time      0.0118: real time      0.0118
  RMM-DIIS:  cpu time      0.0027: real time      0.0027
    ORTHCH:  cpu time      0.0009: real time      0.0009
       DOS:  cpu time      0.0003: real time      0.0006
    CHARGE:  cpu time      0.0016: real time      0.0016
    MIXING:  cpu time      0.0002: real time      0.0002
    --------------------------------------------
      LOOP:  cpu time      0.0210: real time      0.0213

 eigenvalue-minimisations  :   336
 total energy-change (2. order) : 0.1763182E-02  (-0.1872936E-02)
 number of electron      20.0000006 magnetization 
 augmentation part        5.4126463 magnetization 

 Broyden mixing:
  rms(total) = 0.12732E-01    rms(broyden)= 0.12732E-01
  rms(prec ) = 0.27005E-01
  weight for this iteration     100.00

 eigenvalues of (default mixing * dielectric matrix)
  average eigenvalue GAMMA=   2.0674
  1.2304  2.9893  1.9823

 Free energy of the ion-electron system (eV)
  ---------------------------------------------------
  alpha Z        PSCENC =       169.76008151
  Ewald energy   TEWEN  =     -1476.85506767
  -Hartree energ DENC   =      -211.07888688
  -exchange      EXHF   =         0.00000000
  -V(xc)+E(xc)   XCENC  =        40.02826458
  PAW double counting   =      1104.36442142    -1081.84070490
  entropy T*S    EENTRO =        -0.01927053
  eigenvalues    EBANDS =      -283.53571236
  atomic energy  EATOM  =      1719.23139681
  Solvation  Ediel_sol  =         0.00000000
  ---------------------------------------------------
  free energy    TOTEN  =       -19.94547803 eV

  energy without entropy =      -19.92620750  energy(sigma->0) =      -19.93584276


--------------------------------------------------------------------------------------------------------




--------------------------------------- Iteration      1(   9)  ---------------------------------------


    POTLOK:  cpu time      0.0024: real time      0.0026
    SETDIJ:  cpu time      0.0012: real time      0.0012
    EDDIAG:  cpu time      0.0115: real time      0.0115
  RMM-DIIS:  cpu time      0.0027: real time      0.0027
    ORTHCH:  cpu time      0.0010: real time      0.0016
       DOS:  cpu time      0.0003: real time      0.0003
    CHARGE:  cpu time      0.0016: real time      0.0016
    MIXING:  cpu time      0.0002: real time      0.0002
    --------------------------------------------
      LOOP:  cpu time      0.0209: real time      0.0216

 eigenvalue-minimisations  :   336
 total energy-change (2. order) : 0.2570563E-03  (-0.3497750E-03)
 number of electron      20.0000006 magnetization 
 augmentation part        5.4145320 magnetization 

 Broyden mixing:
  rms(total) = 0.24004E-02    rms(broyden)= 0.24000E-02
  rms(prec ) = 0.47738E-02
  weight for this iteration     100.00

 eigenvalues of (default mixing * dielectric matrix)
  average eigenvalue GAMMA=   2.0202
  3.0841  0.9346  2.0311  2.0311

 Free energy of the ion-electron system (eV)
  ---------------------------------------------------
  alpha Z        PSCENC =       169.76008151
  Ewald energy   TEWEN  =     -1476.85506767
  -Hartree energ DENC   =      -210.35769640
  -exchange      EXHF   =         0.00000000
  -V(xc)+E(xc)   XCENC  =        39.99891418
  PAW double counting   =      1106.45458286    -1083.99967334
  entropy T*S    EENTRO =        -0.01928624
  eigenvalues    EBANDS =      -284.15847268
  atomic energy  EATOM  =      1719.23139681
  Solvation  Ediel_sol  =         0.00000000
  ---------------------------------------------------
  free energy    TOTEN  =       -19.94522097 eV

  energy without entropy =      -19.92593473  energy(sigma->0) =      -19.93557785


--------------------------------------------------------------------------------------------------------




--------------------------------------- Iteration      1(  10)  ---------------------------------------


    POTLOK:  cpu time      0.0024: real time      0.0025
    SETDIJ:  cpu time      0.0012: real time      0.0012
    EDDIAG:  cpu time      0.0115: real time      0.0120
  RMM-DIIS:  cpu time      0.0027: real time      0.0028
    ORTHCH:  cpu time      0.0009: real time      0.0009
       DOS:  cpu time      0.0002: real time      0.0002
    CHARGE:  cpu time      0.0016: real time      0.0016
    MIXING:  cpu time      0.0002: real time      0.0002
    --------------------------------------------
      LOOP:  cpu time      0.0208: real time      0.0214

 eigenvalue-minimisations  :   334
 total energy-change (2. order) :-0.1070572E-04  (-0.4954509E-04)
 number of electron      20.0000006 magnetization 
 augmentation part        5.4145753 magnetization 

 Broyden mixing:
  rms(total) = 0.13488E-02    rms(broyden)= 0.13486E-02
  rms(prec ) = 0.27199E-02
  weight for this iteration     100.00

 eigenvalues of (default mixing * dielectric matrix)
  average eigenvalue GAMMA=   2.0530
  3.6405  2.4384  1.9780  0.9944  1.2139

 Free energy of the ion-electron system (eV)
  ---------------------------------------------------
  alpha Z        PSCENC =       169.76008151
  Ewald energy   TEWEN  =     -1476.85506767
  -Hartree energ DENC   =      -210.42160139
  -exchange      EXHF   =         0.00000000
  -V(xc)+E(xc)   XCENC  =        40.00258282
  PAW double counting   =      1105.42614016    -1082.94039444
  entropy T*S    EENTRO =        -0.01929106
  eigenvalues    EBANDS =      -284.12907841
  atomic energy  EATOM  =      1719.23139681
  Solvation  Ediel_sol  =         0.00000000
  ---------------------------------------------------
  free energy    TOTEN  =       -19.94523168 eV

  energy without entropy =      -19.92594062  energy(sigma->0) =      -19.93558615


--------------------------------------------------------------------------------------------------------




--------------------------------------- Iteration      1(  11)  ---------------------------------------


    POTLOK:  cpu time      0.0023: real time      0.0023
    SETDIJ:  cpu time      0.0013: real time      0.0013
    EDDIAG:  cpu time      0.0112: real time      0.0113
  RMM-DIIS:  cpu time      0.0026: real time      0.0026
    ORTHCH:  cpu time      0.0009: real time      0.0009
       DOS:  cpu time      0.0002: real time      0.0002
    --------------------------------------------
      LOOP:  cpu time      0.0185: real time      0.0186

 eigenvalue-minimisations  :   320
 total energy-change (2. order) : 0.5813329E-05  (-0.3889243E-05)
 number of electron      20.0000006 magnetization 
 augmentation part        5.4145753 magnetization 

 Free energy of the ion-electron system (eV)
  ---------------------------------------------------
  alpha Z        PSCENC =       169.76008151
  Ewald energy   TEWEN  =     -1476.85506767
  -Hartree energ DENC   =      -210.52845002
  -exchange      EXHF   =         0.00000000
  -V(xc)+E(xc)   XCENC  =        40.00846774
  PAW double counting   =      1105.38496759    -1082.89211275
  entropy T*S    EENTRO =        -0.01929162
  eigenvalues    EBANDS =      -284.03521746
  atomic energy  EATOM  =      1719.23139681
  Solvation  Ediel_sol  =         0.00000000
  ---------------------------------------------------
  free energy    TOTEN  =       -19.94522587 eV

  energy without entropy =      -19.92593425  energy(sigma->0) =      -19.93558006


--------------------------------------------------------------------------------------------------------




 average (electrostatic) potential at core
  the test charge radii are     1.1707
  (the norm of the test charge is              1.0000)
       1 -37.4137       2 -37.4137
 
 
 
 E-fermi :   4.9045     XC(G=0): -11.2955     alpha+bet :-11.9639

 val. band max:        4.8754399837   @ k =   0.3333   0.3333   0.3333
 cond. band min:       4.9293937983   @ k =   0.0000   0.0000   0.3333
 fundamental gap:      0.0539538147
 Fermi energy:         4.9044918151

 k-point     1 :       0.0000    0.0000    0.0000
  band No.  band energies     occupation 
      1     -26.0217      2.00000
      2     -25.2824      2.00000
      3     -25.2824      2.00000
      4     -25.1522      2.00000
      5     -25.1522      2.00000
      6     -25.1383      2.00000
      7      -2.4017      2.00000
      8       1.2342      2.00000
      9       5.6405      0.00000
     10       6.1006      0.00000
     11       6.1006      0.00000
     12       6.4065      0.00000
     13       6.9245      0.00000
     14       6.9245      0.00000
     15       7.5773      0.00000
     16       7.5773      0.00000
     17      10.2784      0.00000
     18      10.2784      0.00000
     19      13.8857      0.00000
     20      16.0168      0.00000
     21      16.5254      0.00000
     22      16.5294      0.00000
     23      18.0888      0.00000
     24      19.5248      0.00000
     25      22.6182      0.00000
     26      22.6182      0.00000
     27      22.7910      0.00000
     28      23.1632      0.00000

 k-point     2 :       0.3333    0.0000    0.0000
  band No.  band energies     occupation 
      1     -25.7781      2.00000
      2     -25.7178      2.00000
      3     -25.5814      2.00000
      4     -25.4186      2.00000
      5     -25.2708      2.00000
      6     -25.2185      2.00000
      7       0.3249      2.00000
      8       2.6364      2.00000
      9       3.2706      2.00000
     10       4.2413      2.00000
     11       5.8596      0.00000
     12       6.0677      0.00000
     13       6.1105      0.00000
     14       9.0265      0.00000
     15       9.0558      0.00000
     16       9.5793      0.00000
     17      11.2786      0.00000
     18      13.1243      0.00000
     19      14.5415      0.00000
     20      15.6843      0.00000
     21      16.5211      0.00000
     22      16.5296      0.00000
     23      16.9575      0.00000
     24      16.9954      0.00000
     25      19.3884      0.00000
     26      21.6494      0.00000
     27      22.5938      0.00000
     28      23.3356      0.00000

 k-point     3 :       0.3333    0.3333    0.0000
  band No.  band energies     occupation 
      1     -25.7555      2.00000
      2     -25.6193      2.00000
      3     -25.6193      2.00000
      4     -25.4963      2.00000
      5     -25.4963      2.00000
      6     -25.4722      2.00000
      7       2.7965      2.00000
      8       3.1686      2.00000
      9       3.1686      2.00000
     10       3.4972      2.00000
     11       5.3235      0.00000
     12       5.3235      0.00000
     13       6.9759      0.00000
     14      10.1622      0.00000
     15      10.1622      0.00000
     16      10.6748      0.00000
     17      10.6748      0.00000
     18      10.7070      0.00000
     19      12.9021      0.00000
     20      16.5226      0.00000
     21      16.5226      0.00000
     22      17.4186      0.00000
     23      17.9460      0.00000
     24      17.9460      0.00000
     25      18.7114      0.00000
     26      19.0963      0.00000
     27      19.0963      0.00000
     28      25.2995      0.00000

 k-point     4 :       0.0000    0.0000    0.3333
  band No.  band energies     occupation 
      1     -25.8126      2.00000
      2     -25.3717      2.00000
      3     -25.2501      2.00000
      4     -25.2501      2.00000
      5     -25.1850      2.00000
      6     -25.1850      2.00000
      7      -1.4327      2.00000
      8       0.5456      2.00000
      9       4.9294      0.72471
     10       5.6496      0.00000
     11       5.8758      0.00000
     12       5.8759      0.00000
     13       6.3196      0.00000
     14       6.3196      0.00000
     15       8.8345      0.00000
     16       8.8345      0.00000
     17      10.3135      0.00000
     18      10.3135      0.00000
     19      15.4098      0.00000
     20      16.4959      0.00000
     21      16.5243      0.00000
     22      16.8408      0.00000
     23      17.0547      0.00000
     24      20.3298      0.00000
     25      20.3298      0.00000
     26      20.9017      0.00000
     27      22.5271      0.00000
     28      22.5271      0.00000

 k-point     5 :       0.3333    0.0000    0.3333
  band No.  band energies     occupation 
      1     -25.8536      2.00000
      2     -25.7323      2.00000
      3     -25.4734      2.00000
      4     -25.3693      2.00000
      5     -25.2864      2.00000
      6     -25.2693      2.00000
      7       0.7776      2.00000
      8       2.0538      2.00000
      9       3.5530      2.00000
     10       4.3679      2.00000
     11       5.3809      0.00000
     12       5.9882      0.00000
     13       6.7148      0.00000
     14       8.3131      0.00000
     15       9.3880      0.00000
     16       9.6053      0.00000
     17      10.6093      0.00000
     18      11.4703      0.00000
     19      14.4611      0.00000
     20      16.5160      0.00000
     21      16.5284      0.00000
     22      17.3387      0.00000
     23      18.3479      0.00000
     24      19.0173      0.00000
     25      19.8023      0.00000
     26      20.3623      0.00000
     27      22.1769      0.00000
     28      22.7861      0.00000

 k-point     6 :       0.3333    0.3333    0.3333
  band No.  band energies     occupation 
      1     -25.7906      2.00000
      2     -25.7906      2.00000
      3     -25.6862      2.00000
      4     -25.5446      2.00000
      5     -25.3173      2.00000
      6     -25.3173      2.00000
      7       3.1934      2.00000
      8       3.1934      2.00000
      9       3.2147      2.00000
     10       3.5514      2.00000
     11       4.8754      1.31882
     12       4.8754      1.31882
     13       7.0200      0.00000
     14       8.4164      0.00000
     15      10.1109      0.00000
     16      10.1109      0.00000
     17      12.1843      0.00000
     18      12.1843      0.00000
     19      15.1873      0.00000
     20      15.4808      0.00000
     21      15.4808      0.00000
     22      16.5334      0.00000
     23      16.5334      0.00000
     24      16.8715      0.00000
     25      20.3342      0.00000
     26      20.9205      0.00000
     27      20.9205      0.00000
     28      23.8199      0.00000


--------------------------------------------------------------------------------------------------------


 soft charge-density along one line, spin component           1
         0         1         2         3         4         5         6         7         8         9
 total charge-density along one line
 
 pseudopotential strength for first ion, spin component:           1
-28.432  -0.000   0.000  -0.279  -0.000   0.000  -0.000   0.000
 -0.000 -28.450   0.000  -0.000  -0.278   0.000  -0.000  -0.000
  0.000   0.000 -28.432   0.000   0.000  -0.279   0.001  -0.000
 -0.279  -0.000   0.000  -0.892   0.000  -0.000  -0.000   0.000
 -0.000  -0.278   0.000   0.000  -0.892  -0.000  -0.000  -0.000
  0.000   0.000  -0.279  -0.000  -0.000  -0.892  -0.001  -0.000
 -0.000  -0.000   0.001  -0.000  -0.000  -0.001  -5.399  -0.000
  0.000  -0.000  -0.000   0.000  -0.000  -0.000  -0.000  -5.402
  0.000  -0.000   0.000   0.000  -0.000   0.000  -0.000  -0.000
 -0.000   0.000  -0.000  -0.000   0.000  -0.000   0.000  -0.000
  0.001  -0.000  -0.000  -0.001  -0.000  -0.000  -0.000  -0.000
 -0.000  -0.000   0.000  -0.000  -0.000  -0.000   0.048  -0.000
  0.000  -0.000  -0.000   0.000  -0.000  -0.000  -0.000   0.048
  0.000  -0.000   0.000   0.000  -0.000   0.000  -0.000  -0.000
 -0.000   0.000  -0.000  -0.000   0.000  -0.000   0.000  -0.000
  0.000  -0.000  -0.000  -0.000  -0.000  -0.000  -0.000  -0.000
  0.000   0.000   0.000  -0.000  -0.000  -0.000  -0.000   0.000
 -0.000  -0.000  -0.000  -0.000  -0.000  -0.000   0.000  -0.000
 total augmentation occupancy for first ion, spin component:           1
  2.032   0.000   0.000  -0.172  -0.000  -0.000  -0.000   0.000  -0.000  -0.000   0.031   0.000  -0.000   0.000  -0.000  -0.010
  0.000   2.024  -0.000  -0.000  -0.139  -0.000  -0.000   0.000   0.000   0.000  -0.000   0.000  -0.000   0.000   0.000  -0.000
  0.000  -0.000   2.032  -0.000   0.000  -0.172   0.031  -0.000  -0.000  -0.000   0.000  -0.010  -0.000   0.000   0.000  -0.000
 -0.172   0.000  -0.000   0.649  -0.000   0.000   0.000  -0.000   0.000   0.000  -0.140  -0.000  -0.000  -0.000   0.000   0.092
 -0.000  -0.139   0.000  -0.000   0.504   0.000   0.000   0.000   0.000   0.000  -0.000  -0.000   0.000  -0.000   0.000   0.000
 -0.000   0.000  -0.172   0.000   0.000   0.649  -0.140   0.000   0.000   0.000  -0.000   0.092   0.000  -0.000   0.000   0.000
 -0.000   0.000   0.031   0.000  -0.000  -0.140   0.478  -0.000  -0.000  -0.000  -0.000  -0.457  -0.000   0.000   0.000  -0.000
  0.000   0.000  -0.000  -0.000  -0.000  -0.000   0.000   0.432   0.000   0.000   0.000   0.000  -0.432  -0.000  -0.000  -0.000
 -0.000  -0.000  -0.000   0.000   0.000   0.000  -0.000  -0.000   0.480   0.000  -0.000   0.000  -0.000  -0.465   0.000   0.000
 -0.000   0.000   0.000  -0.000   0.000   0.000  -0.000   0.000   0.000   0.432   0.000   0.000  -0.000   0.000  -0.432  -0.000
  0.031   0.000   0.000  -0.140  -0.000  -0.000   0.000  -0.000  -0.000   0.000   0.478   0.000   0.000   0.000   0.000  -0.457
  0.000   0.000  -0.010  -0.000  -0.000   0.092  -0.457   0.000   0.000   0.000   0.000   0.486  -0.000  -0.000   0.000   0.000
 -0.000  -0.000   0.000   0.000  -0.000  -0.000  -0.000  -0.432  -0.000  -0.000  -0.000   0.000   0.469  -0.000   0.000  -0.000
  0.000   0.000   0.000  -0.000   0.000  -0.000   0.000  -0.000  -0.465   0.000   0.000  -0.000  -0.000   0.496   0.000  -0.000
 -0.000   0.000  -0.000   0.000   0.000   0.000  -0.000  -0.000   0.000  -0.432  -0.000  -0.000   0.000  -0.000   0.469  -0.000
 -0.010  -0.000  -0.000   0.092   0.000   0.000  -0.000   0.000   0.000  -0.000  -0.457  -0.000   0.000  -0.000   0.000   0.486
  0.000   0.000   0.000   0.000   0.000   0.000  -0.000   0.000   0.064  -0.000  -0.000   0.000  -0.000  -0.056   0.000   0.000
 -0.000  -0.000   0.000  -0.000  -0.000   0.000  -0.000   0.000   0.009  -0.000  -0.000   0.000   0.000  -0.008   0.000   0.000


------------------------ aborting loop because EDIFF is reached ----------------------------------------


    CHARGE:  cpu time      0.0023: real time      0.0023
    FORLOC:  cpu time      0.0001: real time      0.0012
    FORNL :  cpu time      0.0018: real time      0.0044
    STRESS:  cpu time      0.0123: real time      0.0156
    FORCOR:  cpu time      0.0019: real time      0.0043
    FORHAR:  cpu time      0.0004: real time      0.0012
    MIXING:  cpu time      0.0004: real time      0.0004
    OFIELD:  cpu time      0.0001: real time      0.0006

  FORCE on cell =-STRESS in cart. coord.  units (eV):
  Direction    XX          YY          ZZ          XY          YZ          ZX
  --------------------------------------------------------------------------------------
  Alpha Z   169.76008   169.76008   169.76008
  Ewald    -498.92681  -498.92679  -479.00249     0.00000    -0.00000    -0.00000
  Hartree    67.31821    67.31821    75.86976     0.00000    -0.00000    -0.00000
  E(xc)     -79.39058   -79.39058   -79.37822     0.00000    -0.00000    -0.00000
  Local     161.83646   161.83641   134.23511    -0.00004    -0.00000    -0.00000
  n-local   -99.31278   -90.84380   -92.78417    -7.33433     0.51152     0.88479
  augment    33.56935    33.56938    33.02607     0.00003     0.00000     0.00000
  Kinetic   244.62919   238.06285   237.98982     5.68662    -0.52962    -0.91732
  Fock        0.00000     0.00000     0.00000     0.00000     0.00000     0.00000
  -------------------------------------------------------------------------------------
  Total       0.43445     0.43445    -0.28403     0.00000    -0.00000     0.00000
  in kB      15.59194    15.59194   -10.19346     0.00000    -0.00000     0.00000
  external pressure =        7.00 kB  Pullay stress =        0.00 kB


 VOLUME and BASIS-vectors are now :
 -----------------------------------------------------------------------------
  energy-cutoff  :      400.00
  volume of cell :       44.64
      direct lattice vectors                 reciprocal lattice vectors
     3.194600105  0.000000000  0.000000000     0.313028225  0.180726930  0.000000000
    -1.597300053  2.766604846  0.000000000     0.000000000  0.361453860  0.000000000
     0.000000000  0.000000000  5.051099777     0.000000000  0.000000000  0.197976687

  length of vectors
     3.194600105  3.194600105  5.051099777     0.361453860  0.361453860  0.197976687


 FORCES acting on ions
    electron-ion (+dipol)            ewald-force                    non-local-force                 convergence-correction
 -----------------------------------------------------------------------------------------------
   0.677E-06 -.181E-04 -.164E-06   0.676E-07 -.242E-05 -.202E-13   -.127E-17 0.294E-16 -.141E-17   -.295E-08 -.352E-07 -.282E-09
   -.835E-06 0.127E-04 -.164E-06   -.676E-07 0.242E-05 0.201E-13   0.556E-16 -.308E-16 -.193E-17   0.266E-08 0.253E-07 -.282E-09
 -----------------------------------------------------------------------------------------------
   -.159E-06 -.538E-05 -.328E-06   -.632E-15 0.193E-14 -.387E-16   0.543E-16 -.135E-17 -.334E-17   -.299E-09 -.996E-08 -.564E-09
 
 
 POSITION                                       TOTAL-FORCE (eV/Angst)
 -----------------------------------------------------------------------------------
     -0.00000      1.84440      1.26277        -0.000000     -0.000000      0.000000
      1.59730      0.92220      3.78832         0.000000      0.000000     -0.000000
 -----------------------------------------------------------------------------------
    total drift:                               -0.000000     -0.000005     -0.000000


--------------------------------------------------------------------------------------------------------



  FREE ENERGIE OF THE ION-ELECTRON SYSTEM (eV)
  ---------------------------------------------------
  free  energy   TOTEN  =       -19.94522587 eV

  energy  without entropy=      -19.92593425  energy(sigma->0) =      -19.93558006
 


--------------------------------------------------------------------------------------------------------


    POTLOK:  cpu time      0.0044: real time      0.0053


--------------------------------------------------------------------------------------------------------




--------------------------------------------------------------------------------------------------------


    WAVPRE:  cpu time      0.0030: real time      0.0077
    FEWALD:  cpu time      0.0001: real time      0.0005
    GENKIN:  cpu time      0.0005: real time      0.0005
    ORTHCH:  cpu time      0.0011: real time      0.0011
     LOOP+:  cpu time      0.4974: real time      0.8981


--------------------------------------- Ionic step        2  -------------------------------------------




--------------------------------------- Iteration      2(   1)  ---------------------------------------


    POTLOK:  cpu time      0.0022: real time      0.0024
    SETDIJ:  cpu time      0.0015: real time      0.0015
     EDDAV:  cpu time      0.0399: real time      0.0400
       DOS:  cpu time      0.0004: real time      0.0004
    CHARGE:  cpu time      0.0017: real time      0.0017
    MIXING:  cpu time      0.0002: real time      0.0002
    --------------------------------------------
      LOOP:  cpu time      0.0459: real time      0.0462

 eigenvalue-minimisations  :   364
 total energy-change (2. order) :-0.4096848E-01  (-0.1727147E+00)
 number of electron      20.0000003 magnetization 
 augmentation part        5.4257659 magnetization 

 Broyden mixing:
  rms(total) = 0.91391E-01    rms(broyden)= 0.91386E-01
  rms(prec ) = 0.18228E+00
  weight for this iteration     100.00

 Free energy of the ion-electron system (eV)
  ---------------------------------------------------
  alpha Z        PSCENC =       167.40414566
  Ewald energy   TEWEN  =     -1469.70905684
  -Hartree energ DENC   =      -209.62238944
  -exchange      EXHF   =         0.00000000
  -V(xc)+E(xc)   XCENC  =        39.72182529
  PAW double counting   =      1105.04637894    -1082.55863839
  entropy T*S    EENTRO =        -0.01909158
  eigenvalues    EBANDS =      -289.48077062
  atomic energy  EATOM  =      1719.23139681
  Solvation  Ediel_sol  =         0.00000000
  ---------------------------------------------------
  free energy    TOTEN  =       -19.98620016 eV

  energy without entropy =      -19.96710858  energy(sigma->0) =      -19.97665437


--------------------------------------------------------------------------------------------------------




--------------------------------------- Iteration      2(   2)  ---------------------------------------


    POTLOK:  cpu time      0.0028: real time      0.0030
    SETDIJ:  cpu time      0.0013: real time      0.0013
    EDDIAG:  cpu time      0.0115: real time      0.0120
  RMM-DIIS:  cpu time      0.0030: real time      0.0030
    ORTHCH:  cpu time      0.0009: real time      0.0009
       DOS:  cpu time      0.0003: real time      0.0003
    CHARGE:  cpu time      0.0017: real time      0.0017
    MIXING:  cpu time      0.0002: real time      0.0002
    --------------------------------------------
      LOOP:  cpu time      0.0218: real time      0.0225

 eigenvalue-minimisations  :   336
 total energy-change (2. order) : 0.2604176E-01  (-0.2361362E-02)
 number of electron      20.0000003 magnetization 
 augmentation part        5.4196368 magnetization 

 Broyden mixing:
  rms(total) = 0.47130E-01    rms(broyden)= 0.47129E-01
  rms(prec ) = 0.89610E-01
  weight for this iteration     100.00

 eigenvalues of (default mixing * dielectric matrix)
  average eigenvalue GAMMA=   2.0069
  2.0069

 Free energy of the ion-electron system (eV)
  ---------------------------------------------------
  alpha Z        PSCENC =       167.40414566
  Ewald energy   TEWEN  =     -1469.70905684
  -Hartree energ DENC   =      -211.33982174
  -exchange      EXHF   =         0.00000000
  -V(xc)+E(xc)   XCENC  =        39.81261641
  PAW double counting   =      1104.79036839    -1082.27496293
  entropy T*S    EENTRO =        -0.01768105
  eigenvalues    EBANDS =      -287.85716310
  atomic energy  EATOM  =      1719.23139681
  Solvation  Ediel_sol  =         0.00000000
  ---------------------------------------------------
  free energy    TOTEN  =       -19.96015841 eV

  energy without entropy =      -19.94247735  energy(sigma->0) =      -19.95131788


--------------------------------------------------------------------------------------------------------




--------------------------------------- Iteration      2(   3)  ---------------------------------------


    POTLOK:  cpu time      0.0024: real time      0.0026
    SETDIJ:  cpu time      0.0012: real time      0.0012
    EDDIAG:  cpu time      0.0115: real time      0.0115
  RMM-DIIS:  cpu time      0.0027: real time      0.0027
    ORTHCH:  cpu time      0.0009: real time      0.0009
       DOS:  cpu time      0.0003: real time      0.0003
    CHARGE:  cpu time      0.0016: real time      0.0016
    MIXING:  cpu time      0.0002: real time      0.0002
    --------------------------------------------
      LOOP:  cpu time      0.0207: real time      0.0209

 eigenvalue-minimisations  :   336
 total energy-change (2. order) : 0.7968104E-02  (-0.1047458E-02)
 number of electron      20.0000003 magnetization 
 augmentation part        5.4131520 magnetization 

 Broyden mixing:
  rms(total) = 0.73190E-02    rms(broyden)= 0.73181E-02
  rms(prec ) = 0.11739E-01
  weight for this iteration     100.00

 eigenvalues of (default mixing * dielectric matrix)
  average eigenvalue GAMMA=   1.8826
  1.6987  2.0664

 Free energy of the ion-electron system (eV)
  ---------------------------------------------------
  alpha Z        PSCENC =       167.40414566
  Ewald energy   TEWEN  =     -1469.70905684
  -Hartree energ DENC   =      -212.98243490
  -exchange      EXHF   =         0.00000000
  -V(xc)+E(xc)   XCENC  =        39.90304751
  PAW double counting   =      1102.87842933    -1080.35704667
  entropy T*S    EENTRO =        -0.01635259
  eigenvalues    EBANDS =      -286.30431860
  atomic energy  EATOM  =      1719.23139681
  Solvation  Ediel_sol  =         0.00000000
  ---------------------------------------------------
  free energy    TOTEN  =       -19.95219030 eV

  energy without entropy =      -19.93583771  energy(sigma->0) =      -19.94401401


--------------------------------------------------------------------------------------------------------




--------------------------------------- Iteration      2(   4)  ---------------------------------------


    POTLOK:  cpu time      0.0023: real time      0.0025
    SETDIJ:  cpu time      0.0012: real time      0.0012
    EDDIAG:  cpu time      0.0111: real time      0.0120
  RMM-DIIS:  cpu time      0.0027: real time      0.0027
    ORTHCH:  cpu time      0.0009: real time      0.0009
       DOS:  cpu time      0.0003: real time      0.0003
    CHARGE:  cpu time      0.0016: real time      0.0016
    MIXING:  cpu time      0.0002: real time      0.0002
    --------------------------------------------
      LOOP:  cpu time      0.0202: real time      0.0213

 eigenvalue-minimisations  :   336
 total energy-change (2. order) :-0.6472786E-04  (-0.7651613E-04)
 number of electron      20.0000003 magnetization 
 augmentation part        5.4123885 magnetization 

 Broyden mixing:
  rms(total) = 0.21031E-02    rms(broyden)= 0.21021E-02
  rms(prec ) = 0.37054E-02
  weight for this iteration     100.00

 eigenvalues of (default mixing * dielectric matrix)
  average eigenvalue GAMMA=   1.8535
  1.1445  2.2080  2.2080

 Free energy of the ion-electron system (eV)
  ---------------------------------------------------
  alpha Z        PSCENC =       167.40414566
  Ewald energy   TEWEN  =     -1469.70905684
  -Hartree energ DENC   =      -212.94142318
  -exchange      EXHF   =         0.00000000
  -V(xc)+E(xc)   XCENC  =        39.90320633
  PAW double counting   =      1100.94372317    -1078.44256584
  entropy T*S    EENTRO =        -0.01637819
  eigenvalues    EBANDS =      -286.32530296
  atomic energy  EATOM  =      1719.23139681
  Solvation  Ediel_sol  =         0.00000000
  ---------------------------------------------------
  free energy    TOTEN  =       -19.95225503 eV

  energy without entropy =      -19.93587684  energy(sigma->0) =      -19.94406594


--------------------------------------------------------------------------------------------------------




--------------------------------------- Iteration      2(   5)  ---------------------------------------


    POTLOK:  cpu time      0.0024: real time      0.0026
    SETDIJ:  cpu time      0.0012: real time      0.0012
    EDDIAG:  cpu time      0.0121: real time      0.0126
  RMM-DIIS:  cpu time      0.0027: real time      0.0027
    ORTHCH:  cpu time      0.0009: real time      0.0009
       DOS:  cpu time      0.0003: real time      0.0003
    --------------------------------------------
      LOOP:  cpu time      0.0196: real time      0.0203

 eigenvalue-minimisations  :   322
 total energy-change (2. order) :-0.3543237E-05  (-0.7079285E-05)
 number of electron      20.0000003 magnetization 
 augmentation part        5.4123885 magnetization 

 Free energy of the ion-electron system (eV)
  ---------------------------------------------------
  alpha Z        PSCENC =       167.40414566
  Ewald energy   TEWEN  =     -1469.70905684
  -Hartree energ DENC   =      -212.86705305
  -exchange      EXHF   =         0.00000000
  -V(xc)+E(xc)   XCENC  =        39.90021624
  PAW double counting   =      1099.98561543    -1077.49963108
  entropy T*S    EENTRO =        -0.01639243
  eigenvalues    EBANDS =      -286.38149931
  atomic energy  EATOM  =      1719.23139681
  Solvation  Ediel_sol  =         0.00000000
  ---------------------------------------------------
  free energy    TOTEN  =       -19.95225857 eV

  energy without entropy =      -19.93586614  energy(sigma->0) =      -19.94406236


--------------------------------------------------------------------------------------------------------




 average (electrostatic) potential at core
  the test charge radii are     1.1707
  (the norm of the test charge is              1.0000)
       1 -37.5675       2 -37.5675
 
 
 
 E-fermi :   4.8176     XC(G=0): -11.2324     alpha+bet :-11.7979

 val. band max:        4.7769345901   @ k =   0.3333   0.3333   0.3333
 cond. band min:       4.8970485129   @ k =   0.0000   0.0000   0.3333
 fundamental gap:      0.1201139228
 Fermi energy:         4.8175933991

 k-point     1 :       0.0000    0.0000    0.0000
  band No.  band energies     occupation 
      1     -26.1598      2.00000
      2     -25.4477      2.00000
      3     -25.4477      2.00000
      4     -25.3114      2.00000
      5     -25.3114      2.00000
      6     -25.2867      2.00000
      7      -2.4503      2.00000
      8       1.2250      2.00000
      9       5.6375      0.00000
     10       5.9635      0.00000
     11       5.9635      0.00000
     12       6.4598      0.00000
     13       6.8171      0.00000
     14       6.8171      0.00000
     15       7.3108      0.00000
     16       7.3108      0.00000
     17      10.0753      0.00000
     18      10.0753      0.00000
     19      13.7166      0.00000
     20      15.8232      0.00000
     21      16.3695      0.00000
     22      16.3736      0.00000
     23      18.1145      0.00000
     24      19.4541      0.00000
     25      22.1886      0.00000
     26      22.1886      0.00000
     27      22.5448      0.00000
     28      22.9544      0.00000

 k-point     2 :       0.3333    0.0000    0.0000
  band No.  band energies     occupation 
      1     -25.9252      2.00000
      2     -25.8389      2.00000
      3     -25.6991      2.00000
      4     -25.5746      2.00000
      5     -25.4237      2.00000
      6     -25.3675      2.00000
      7       0.2200      2.00000
      8       2.5767      2.00000
      9       3.2381      2.00000
     10       4.0925      2.00000
     11       5.8265      0.00000
     12       5.8463      0.00000
     13       6.0459      0.00000
     14       8.7925      0.00000
     15       9.0122      0.00000
     16       9.3580      0.00000
     17      11.1276      0.00000
     18      13.0075      0.00000
     19      14.4071      0.00000
     20      15.3352      0.00000
     21      16.3649      0.00000
     22      16.3733      0.00000
     23      16.5971      0.00000
     24      16.8456      0.00000
     25      18.9473      0.00000
     26      21.3737      0.00000
     27      22.2264      0.00000
     28      22.8782      0.00000

 k-point     3 :       0.3333    0.3333    0.0000
  band No.  band energies     occupation 
      1     -25.8817      2.00000
      2     -25.7423      2.00000
      3     -25.7423      2.00000
      4     -25.6498      2.00000
      5     -25.6498      2.00000
      6     -25.5917      2.00000
      7       2.7190      2.00000
      8       3.0165      2.00000
      9       3.0165      2.00000
     10       3.3731      2.00000
     11       5.2553      0.00000
     12       5.2553      0.00000
     13       6.9400      0.00000
     14      10.0983      0.00000
     15      10.0983      0.00000
     16      10.3432      0.00000
     17      10.3432      0.00000
     18      10.6907      0.00000
     19      12.5770      0.00000
     20      16.3661      0.00000
     21      16.3661      0.00000
     22      17.0089      0.00000
     23      17.6188      0.00000
     24      17.6188      0.00000
     25      18.3939      0.00000
     26      18.8560      0.00000
     27      18.8560      0.00000
     28      25.2317      0.00000

 k-point     4 :       0.0000    0.0000    0.3333
  band No.  band energies     occupation 
      1     -25.9531      2.00000
      2     -25.5173      2.00000
      3     -25.4139      2.00000
      4     -25.4139      2.00000
      5     -25.3457      2.00000
      6     -25.3457      2.00000
      7      -1.4694      2.00000
      8       0.5395      2.00000
      9       4.8970      0.26116
     10       5.6704      0.00000
     11       5.7008      0.00000
     12       5.7008      0.00000
     13       6.1652      0.00000
     14       6.1652      0.00000
     15       8.6387      0.00000
     16       8.6387      0.00000
     17      10.1592      0.00000
     18      10.1592      0.00000
     19      15.1934      0.00000
     20      16.3435      0.00000
     21      16.3684      0.00000
     22      16.6593      0.00000
     23      16.9572      0.00000
     24      19.9682      0.00000
     25      19.9682      0.00000
     26      21.0239      0.00000
     27      22.2047      0.00000
     28      22.2047      0.00000

 k-point     5 :       0.3333    0.0000    0.3333
  band No.  band energies     occupation 
      1     -25.9892      2.00000
      2     -25.8609      2.00000
      3     -25.6068      2.00000
      4     -25.5236      2.00000
      5     -25.4277      2.00000
      6     -25.4201      2.00000
      7       0.6940      2.00000
      8       2.0060      2.00000
      9       3.4871      2.00000
     10       4.2800      2.00000
     11       5.3007      0.00000
     12       5.9151      0.00000
     13       6.4873      0.00000
     14       8.0819      0.00000
     15       9.2848      0.00000
     16       9.3874      0.00000
     17      10.4433      0.00000
     18      11.3400      0.00000
     19      14.2307      0.00000
     20      16.3586      0.00000
     21      16.3725      0.00000
     22      17.0304      0.00000
     23      18.0753      0.00000
     24      18.6317      0.00000
     25      19.5989      0.00000
     26      20.1966      0.00000
     27      21.7611      0.00000
     28      22.4357      0.00000

 k-point     6 :       0.3333    0.3333    0.3333
  band No.  band energies     occupation 
      1     -25.9275      2.00000
      2     -25.9275      2.00000
      3     -25.8107      2.00000
      4     -25.6658      2.00000
      5     -25.4569      2.00000
      6     -25.4569      2.00000
      7       3.0841      2.00000
      8       3.0841      2.00000
      9       3.1327      2.00000
     10       3.4436      2.00000
     11       4.7769      1.43471
     12       4.7769      1.43471
     13       6.9559      0.00000
     14       8.3342      0.00000
     15       9.8587      0.00000
     16       9.8587      0.00000
     17      11.9720      0.00000
     18      11.9720      0.00000
     19      14.8867      0.00000
     20      15.2171      0.00000
     21      15.2171      0.00000
     22      16.3768      0.00000
     23      16.3768      0.00000
     24      16.5018      0.00000
     25      20.0576      0.00000
     26      20.7019      0.00000
     27      20.7019      0.00000
     28      23.6836      0.00000


--------------------------------------------------------------------------------------------------------


 soft charge-density along one line, spin component           1
         0         1         2         3         4         5         6         7         8         9
 total charge-density along one line
 
 pseudopotential strength for first ion, spin component:           1
-28.495   0.000  -0.000  -0.280   0.000  -0.000  -0.000   0.000
  0.000 -28.517   0.000   0.000  -0.280   0.000  -0.000  -0.000
 -0.000   0.000 -28.495  -0.000   0.000  -0.280   0.001  -0.000
 -0.280   0.000  -0.000  -0.892  -0.000   0.000  -0.000   0.000
  0.000  -0.280   0.000  -0.000  -0.892  -0.000  -0.000  -0.000
 -0.000   0.000  -0.280   0.000  -0.000  -0.892  -0.001  -0.000
 -0.000  -0.000   0.001  -0.000  -0.000  -0.001  -5.412  -0.000
  0.000  -0.000  -0.000   0.000  -0.000  -0.000  -0.000  -5.416
  0.000  -0.000   0.000   0.000  -0.000   0.000   0.000  -0.000
 -0.000   0.000  -0.000  -0.000   0.000  -0.000   0.000  -0.000
  0.001  -0.000  -0.000  -0.001  -0.000  -0.000   0.000  -0.000
 -0.000  -0.000   0.000  -0.000  -0.000  -0.000   0.047  -0.000
  0.000  -0.000  -0.000   0.000  -0.000  -0.000  -0.000   0.047
  0.000  -0.000   0.000   0.000  -0.000   0.000   0.000  -0.000
 -0.000   0.000  -0.000  -0.000   0.000  -0.000   0.000  -0.000
  0.000  -0.000  -0.000  -0.000  -0.000  -0.000   0.000  -0.000
  0.000   0.000   0.000  -0.000  -0.000  -0.000   0.000  -0.000
 -0.000  -0.000  -0.000  -0.000  -0.000  -0.000  -0.000   0.000
 total augmentation occupancy for first ion, spin component:           1
  2.033   0.000   0.000  -0.176   0.000  -0.000  -0.000  -0.000  -0.000   0.000   0.031   0.000   0.000   0.000   0.000  -0.009
  0.000   2.024  -0.000   0.000  -0.140   0.000  -0.000  -0.000   0.000   0.000  -0.000  -0.000   0.000   0.000  -0.000   0.000
  0.000  -0.000   2.033  -0.000   0.000  -0.176   0.031   0.000  -0.000  -0.000   0.000  -0.009   0.000   0.000   0.000  -0.000
 -0.176   0.000  -0.000   0.653   0.000   0.000   0.000  -0.000   0.000  -0.000  -0.140  -0.000   0.000  -0.000   0.000   0.091
 -0.000  -0.140   0.000   0.000   0.499   0.000   0.000  -0.000   0.000  -0.000   0.000  -0.000   0.000  -0.000   0.000   0.000
 -0.000   0.000  -0.176   0.000  -0.000   0.653  -0.140   0.000   0.000   0.000  -0.000   0.091  -0.000  -0.000  -0.000   0.000
 -0.000  -0.000   0.031   0.000   0.000  -0.140   0.470   0.000  -0.000  -0.000   0.000  -0.442  -0.000   0.000  -0.000  -0.000
  0.000  -0.000   0.000   0.000  -0.000   0.000   0.000   0.431  -0.000   0.000   0.000   0.000  -0.423   0.000  -0.000  -0.000
 -0.000   0.000  -0.000   0.000   0.000   0.000  -0.000   0.000   0.469  -0.000  -0.000   0.000   0.000  -0.454   0.000   0.000
  0.000   0.000  -0.000  -0.000  -0.000   0.000  -0.000   0.000   0.000   0.431  -0.000   0.000  -0.000  -0.000  -0.423   0.000
  0.031   0.000   0.000  -0.140   0.000  -0.000   0.000   0.000  -0.000  -0.000   0.470  -0.000   0.000   0.000  -0.000  -0.442
  0.000  -0.000  -0.009  -0.000   0.000   0.091  -0.442  -0.000   0.000  -0.000  -0.000   0.462  -0.000  -0.000   0.000   0.000
  0.000   0.000  -0.000   0.000   0.000   0.000   0.000  -0.423  -0.000  -0.000   0.000  -0.000   0.452   0.000   0.000  -0.000
  0.000   0.000   0.000  -0.000  -0.000  -0.000   0.000  -0.000  -0.454   0.000   0.000  -0.000   0.000   0.480  -0.000  -0.000
  0.000  -0.000   0.000   0.000   0.000  -0.000   0.000  -0.000   0.000  -0.423  -0.000   0.000   0.000  -0.000   0.452   0.000
 -0.009   0.000  -0.000   0.091   0.000   0.000  -0.000  -0.000   0.000  -0.000  -0.442   0.000   0.000  -0.000   0.000   0.462
 -0.000   0.000   0.000   0.000   0.000  -0.000  -0.000  -0.000   0.070   0.000  -0.000   0.000   0.000  -0.066  -0.000   0.000
  0.000   0.000   0.000   0.000   0.000  -0.000  -0.000  -0.000   0.011   0.000  -0.000   0.000  -0.000  -0.010  -0.000   0.000


------------------------ aborting loop because EDIFF is reached ----------------------------------------


    CHARGE:  cpu time      0.0017: real time      0.0018
    FORLOC:  cpu time      0.0001: real time      0.0001
    FORNL :  cpu time      0.0014: real time      0.0014
    STRESS:  cpu time      0.0107: real time      0.0107
    FORCOR:  cpu time      0.0015: real time      0.0015
    FORHAR:  cpu time      0.0003: real time      0.0003
    MIXING:  cpu time      0.0002: real time      0.0002
    OFIELD:  cpu time      0.0000: real time      0.0000

  FORCE on cell =-STRESS in cart. coord.  units (eV):
  Direction    XX          YY          ZZ          XY          YZ          ZX
  --------------------------------------------------------------------------------------
  Alpha Z   167.40415   167.40415   167.40415
  Ewald    -499.57079  -499.57078  -470.56852     0.00000     0.00000     0.00000
  Hartree    66.99895    66.99895    78.86056     0.00000    -0.00000    -0.00000
  E(xc)     -79.25095   -79.25095   -79.24616     0.00000    -0.00000    -0.00000
  Local     164.68690   164.68684   125.54437    -0.00004    -0.00000    -0.00000
  n-local   -98.88206   -90.56907   -92.42635    -7.19923     0.47842     0.82718
  augment    33.63349    33.63352    33.00556     0.00002     0.00000     0.00000
  Kinetic   244.52929   237.15524   237.10364     6.38612    -0.40243    -0.69702
  Fock        0.00000     0.00000     0.00000     0.00000     0.00000     0.00000
  -------------------------------------------------------------------------------------
  Total       0.01844     0.01844    -0.32276     0.00000     0.00000     0.00000
  in kB       0.65268     0.65268   -11.42261     0.00000     0.00000     0.00000
  external pressure =       -3.37 kB  Pullay stress =        0.00 kB


 VOLUME and BASIS-vectors are now :
 -----------------------------------------------------------------------------
  energy-cutoff  :      400.00
  volume of cell :       45.27
      direct lattice vectors                 reciprocal lattice vectors
     3.228077906  0.000000000  0.000000000     0.309781867  0.178852644  0.000000000
[...]




--------------------------------------- Iteration      5(   4)  ---------------------------------------


    POTLOK:  cpu time      0.0024: real time      0.0025
    SETDIJ:  cpu time      0.0012: real time      0.0012
    EDDIAG:  cpu time      0.0120: real time      0.0120
  RMM-DIIS:  cpu time      0.0028: real time      0.0028
    ORTHCH:  cpu time      0.0009: real time      0.0009
       DOS:  cpu time      0.0002: real time      0.0002
    CHARGE:  cpu time      0.0017: real time      0.0017
    MIXING:  cpu time      0.0002: real time      0.0002
    --------------------------------------------
      LOOP:  cpu time      0.0214: real time      0.0216

 eigenvalue-minimisations  :   336
 total energy-change (2. order) :-0.7891105E-05  (-0.1070149E-04)
 number of electron      20.0000005 magnetization 
 augmentation part        5.4120911 magnetization 

 Broyden mixing:
  rms(total) = 0.63312E-03    rms(broyden)= 0.63264E-03
  rms(prec ) = 0.10582E-02
  weight for this iteration     100.00

 eigenvalues of (default mixing * dielectric matrix)
  average eigenvalue GAMMA=   1.8826
  1.1889  2.2295  2.2295

 Free energy of the ion-electron system (eV)
  ---------------------------------------------------
  alpha Z        PSCENC =       167.49164561
  Ewald energy   TEWEN  =     -1469.77678959
  -Hartree energ DENC   =      -212.89567935
  -exchange      EXHF   =         0.00000000
  -V(xc)+E(xc)   XCENC  =        39.90537582
  PAW double counting   =      1100.67396762    -1078.19675259
  entropy T*S    EENTRO =        -0.01491403
  eigenvalues    EBANDS =      -286.37152332
  atomic energy  EATOM  =      1719.23139681
  Solvation  Ediel_sol  =         0.00000000
  ---------------------------------------------------
  free energy    TOTEN  =       -19.95327301 eV

  energy without entropy =      -19.93835898  energy(sigma->0) =      -19.94581600


--------------------------------------------------------------------------------------------------------




--------------------------------------- Iteration      5(   5)  ---------------------------------------


    POTLOK:  cpu time      0.0023: real time      0.0025
    SETDIJ:  cpu time      0.0012: real time      0.0012
    EDDIAG:  cpu time      0.0113: real time      0.0113
  RMM-DIIS:  cpu time      0.0026: real time      0.0026
    ORTHCH:  cpu time      0.0009: real time      0.0009
       DOS:  cpu time      0.0003: real time      0.0003
    --------------------------------------------
      LOOP:  cpu time      0.0186: real time      0.0188

 eigenvalue-minimisations  :   243
 total energy-change (2. order) : 0.6239009E-06  (-0.1040538E-05)
 number of electron      20.0000005 magnetization 
 augmentation part        5.4120911 magnetization 

 Free energy of the ion-electron system (eV)
  ---------------------------------------------------
  alpha Z        PSCENC =       167.49164561
  Ewald energy   TEWEN  =     -1469.77678959
  -Hartree energ DENC   =      -212.87053649
  -exchange      EXHF   =         0.00000000
  -V(xc)+E(xc)   XCENC  =        39.90422625
  PAW double counting   =      1100.31321606    -1077.84157559
  entropy T*S    EENTRO =        -0.01491488
  eigenvalues    EBANDS =      -286.38994057
  atomic energy  EATOM  =      1719.23139681
  Solvation  Ediel_sol  =         0.00000000
  ---------------------------------------------------
  free energy    TOTEN  =       -19.95327239 eV

  energy without entropy =      -19.93835751  energy(sigma->0) =      -19.94581495


--------------------------------------------------------------------------------------------------------




 average (electrostatic) potential at core
  the test charge radii are     1.1707
  (the norm of the test charge is              1.0000)
       1 -37.5674       2 -37.5674
 
 
 
 E-fermi :   4.8294     XC(G=0): -11.2348     alpha+bet :-11.8040

 val. band max:        4.7848777326   @ k =   0.3333   0.3333   0.3333
 cond. band min:       4.9408810542   @ k =   0.0000   0.0000   0.3333
 fundamental gap:      0.1560033217
 Fermi energy:         4.8294204940

 k-point     1 :       0.0000    0.0000    0.0000
  band No.  band energies     occupation 
      1     -26.1697      2.00000
      2     -25.4563      2.00000
      3     -25.4563      2.00000
      4     -25.3134      2.00000
      5     -25.3134      2.00000
      6     -25.2795      2.00000
      7      -2.4477      2.00000
      8       1.2476      2.00000
      9       5.7201      0.00000
     10       5.9458      0.00000
     11       5.9458      0.00000
     12       6.5475      0.00000
     13       6.8239      0.00000
     14       6.8239      0.00000
     15       7.2443      0.00000
     16       7.2443      0.00000
     17      10.0667      0.00000
     18      10.0667      0.00000
     19      13.7666      0.00000
     20      15.8054      0.00000
     21      16.3685      0.00000
     22      16.3728      0.00000
     23      18.2206      0.00000
     24      19.5405      0.00000
     25      22.1424      0.00000
     26      22.1424      0.00000
     27      22.5457      0.00000
     28      22.9853      0.00000

 k-point     2 :       0.3333    0.0000    0.0000
  band No.  band energies     occupation 
      1     -25.9336      2.00000
      2     -25.8366      2.00000
      3     -25.6913      2.00000
      4     -25.5820      2.00000
      5     -25.4222      2.00000
      6     -25.3658      2.00000
      7       0.2107      2.00000
      8       2.5728      2.00000
      9       3.2607      2.00000
     10       4.0670      2.00000
     11       5.7886      0.00000
     12       5.8701      0.00000
     13       6.0790      0.00000
     14       8.7532      0.00000
     15       9.0766      0.00000
     16       9.3332      0.00000
     17      11.1600      0.00000
     18      13.0814      0.00000
     19      14.4739      0.00000
     20      15.3091      0.00000
     21      16.3639      0.00000
     22      16.3723      0.00000
     23      16.5334      0.00000
     24      16.8861      0.00000
     25      18.8954      0.00000
     26      21.3865      0.00000
     27      22.1810      0.00000
     28      22.8064      0.00000

 k-point     3 :       0.3333    0.3333    0.0000
  band No.  band energies     occupation 
      1     -25.8829      2.00000
      2     -25.7382      2.00000
      3     -25.7382      2.00000
      4     -25.6542      2.00000
      5     -25.6542      2.00000
      6     -25.5815      2.00000
      7       2.7056      2.00000
      8       2.9877      2.00000
      9       2.9877      2.00000
     10       3.3563      2.00000
     11       5.2777      0.00000
     12       5.2777      0.00000
     13       6.9909      0.00000
     14      10.1619      0.00000
     15      10.1619      0.00000
     16      10.2799      0.00000
     17      10.2799      0.00000
     18      10.7847      0.00000
     19      12.5272      0.00000
     20      16.3650      0.00000
     21      16.3650      0.00000
     22      16.9541      0.00000
     23      17.6173      0.00000
     24      17.6173      0.00000
     25      18.3533      0.00000
     26      18.8987      0.00000
     27      18.8987      0.00000
     28      25.3424      0.00000

 k-point     4 :       0.0000    0.0000    0.3333
  band No.  band energies     occupation 
      1     -25.9592      2.00000
      2     -25.5150      2.00000
      3     -25.4208      2.00000
      4     -25.4208      2.00000
      5     -25.3494      2.00000
      6     -25.3494      2.00000
      7      -1.4525      2.00000
      8       0.5764      2.00000
      9       4.9409      0.11496
     10       5.6609      0.00000
     11       5.6609      0.00000
     12       5.7358      0.00000
     13       6.1405      0.00000
     14       6.1405      0.00000
     15       8.6229      0.00000
     16       8.6229      0.00000
     17      10.1813      0.00000
     18      10.1813      0.00000
     19      15.1569      0.00000
     20      16.3471      0.00000
     21      16.3675      0.00000
     22      16.6579      0.00000
     23      17.0570      0.00000
     24      19.9098      0.00000
     25      19.9098      0.00000
     26      21.2275      0.00000
     27      22.1857      0.00000
     28      22.1857      0.00000

 k-point     5 :       0.3333    0.0000    0.3333
  band No.  band energies     occupation 
      1     -25.9961      2.00000
      2     -25.8620      2.00000
      3     -25.6019      2.00000
      4     -25.5288      2.00000
      5     -25.4210      2.00000
      6     -25.4207      2.00000
      7       0.6926      2.00000
      8       2.0217      2.00000
      9       3.4896      2.00000
     10       4.2811      2.00000
     11       5.3188      0.00000
     12       5.9444      0.00000
     13       6.4326      0.00000
     14       8.0400      0.00000
     15       9.3187      0.00000
     16       9.3630      0.00000
     17      10.4594      0.00000
     18      11.3825      0.00000
     19      14.2393      0.00000
     20      16.3574      0.00000
     21      16.3716      0.00000
     22      17.0246      0.00000
     23      18.0828      0.00000
     24      18.5900      0.00000
     25      19.6413      0.00000
     26      20.2622      0.00000
     27      21.7157      0.00000
     28      22.4188      0.00000

 k-point     6 :       0.3333    0.3333    0.3333
  band No.  band energies     occupation 
      1     -25.9337      2.00000
      2     -25.9337      2.00000
      3     -25.8092      2.00000
      4     -25.6586      2.00000
      5     -25.4506      2.00000
      6     -25.4506      2.00000
      7       3.0721      2.00000
      8       3.0721      2.00000
      9       3.1259      2.00000
     10       3.4343      2.00000
     11       4.7849      1.47126
     12       4.7849      1.47126
     13       6.9882      0.00000
     14       8.3656      0.00000
     15       9.8219      0.00000
     16       9.8219      0.00000
     17      11.9847      0.00000
     18      11.9847      0.00000
     19      14.8771      0.00000
     20      15.2355      0.00000
     21      15.2355      0.00000
     22      16.3760      0.00000
     23      16.3760      0.00000
     24      16.4663      0.00000
     25      20.0495      0.00000
     26      20.7543      0.00000
     27      20.7543      0.00000
     28      23.7662      0.00000


--------------------------------------------------------------------------------------------------------


 soft charge-density along one line, spin component           1
         0         1         2         3         4         5         6         7         8         9
 total charge-density along one line
 
 pseudopotential strength for first ion, spin component:           1
-28.494   0.000  -0.000  -0.280   0.000  -0.000  -0.000   0.000
  0.000 -28.517   0.000   0.000  -0.280   0.000  -0.000  -0.000
 -0.000   0.000 -28.494  -0.000   0.000  -0.280   0.001  -0.000
 -0.280   0.000  -0.000  -0.892  -0.000   0.000  -0.000   0.000
  0.000  -0.280   0.000  -0.000  -0.892  -0.000  -0.000  -0.000
 -0.000   0.000  -0.280   0.000  -0.000  -0.892  -0.001  -0.000
 -0.000  -0.000   0.001  -0.000  -0.000  -0.001  -5.412  -0.000
  0.000  -0.000  -0.000   0.000  -0.000  -0.000  -0.000  -5.416
  0.000  -0.000   0.000   0.000  -0.000   0.000  -0.000  -0.000
 -0.000   0.000  -0.000  -0.000   0.000  -0.000   0.000  -0.000
  0.001  -0.000  -0.000  -0.001  -0.000  -0.000   0.000  -0.000
 -0.000  -0.000   0.000  -0.000  -0.000  -0.000   0.047  -0.000
  0.000  -0.000  -0.000   0.000  -0.000  -0.000  -0.000   0.047
  0.000  -0.000   0.000   0.000  -0.000   0.000  -0.000  -0.000
 -0.000   0.000  -0.000  -0.000   0.000  -0.000   0.000  -0.000
  0.000  -0.000  -0.000  -0.000  -0.000  -0.000   0.000  -0.000
  0.000   0.000   0.000  -0.000  -0.000  -0.000   0.000  -0.000
 -0.000  -0.000  -0.000  -0.000  -0.000  -0.000  -0.000   0.000
 total augmentation occupancy for first ion, spin component:           1
  2.033   0.000   0.000  -0.178   0.000  -0.000  -0.000   0.000  -0.000  -0.000   0.031   0.000  -0.000   0.000   0.000  -0.009
  0.000   2.024   0.000  -0.000  -0.139   0.000   0.000   0.000   0.000   0.000   0.000   0.000   0.000  -0.000  -0.000  -0.000
  0.000   0.000   2.033  -0.000  -0.000  -0.178   0.031   0.000  -0.000  -0.000   0.000  -0.009   0.000   0.000  -0.000  -0.000
 -0.178  -0.000  -0.000   0.657   0.000   0.000   0.000   0.000   0.000  -0.000  -0.140  -0.000   0.000  -0.000   0.000   0.091
 -0.000  -0.139   0.000   0.000   0.501   0.000  -0.000  -0.000   0.000  -0.000  -0.000  -0.000   0.000  -0.000   0.000   0.000
 -0.000  -0.000  -0.178   0.000   0.000   0.657  -0.140   0.000   0.000  -0.000  -0.000   0.091  -0.000  -0.000   0.000   0.000
 -0.000  -0.000   0.031   0.000   0.000  -0.140   0.467   0.000  -0.000  -0.000   0.000  -0.440  -0.000   0.000  -0.000  -0.000
  0.000  -0.000   0.000  -0.000  -0.000   0.000  -0.000   0.432  -0.000   0.000   0.000  -0.000  -0.424   0.000  -0.000  -0.000
 -0.000   0.000  -0.000   0.000   0.000   0.000  -0.000  -0.000   0.468  -0.000  -0.000   0.000   0.000  -0.456   0.000   0.000
  0.000   0.000  -0.000  -0.000  -0.000  -0.000   0.000   0.000  -0.000   0.432   0.000  -0.000  -0.000   0.000  -0.424   0.000
  0.031  -0.000   0.000  -0.140  -0.000  -0.000   0.000  -0.000  -0.000   0.000   0.467  -0.000   0.000   0.000   0.000  -0.440
  0.000  -0.000  -0.009  -0.000  -0.000   0.091  -0.440   0.000   0.000  -0.000  -0.000   0.460   0.000  -0.000  -0.000   0.000
  0.000  -0.000   0.000  -0.000   0.000   0.000  -0.000  -0.424   0.000  -0.000  -0.000   0.000   0.453  -0.000   0.000  -0.000
  0.000   0.000   0.000  -0.000   0.000  -0.000   0.000   0.000  -0.456   0.000   0.000  -0.000  -0.000   0.483   0.000  -0.000
  0.000  -0.000  -0.000   0.000   0.000   0.000   0.000  -0.000  -0.000  -0.424   0.000  -0.000   0.000   0.000   0.453  -0.000
 -0.009  -0.000  -0.000   0.091   0.000   0.000  -0.000   0.000   0.000   0.000  -0.440   0.000  -0.000  -0.000   0.000   0.460
  0.000   0.000   0.000   0.000   0.000  -0.000  -0.000  -0.000   0.074   0.000  -0.000   0.000   0.000  -0.071  -0.000   0.000
  0.000   0.000   0.000  -0.000  -0.000  -0.000  -0.000  -0.000   0.012   0.000  -0.000   0.000  -0.000  -0.010  -0.000   0.000


------------------------ aborting loop because EDIFF is reached ----------------------------------------


    CHARGE:  cpu time      0.0017: real time      0.0017
    FORLOC:  cpu time      0.0001: real time      0.0001
    FORNL :  cpu time      0.0014: real time      0.0014
    STRESS:  cpu time      0.0103: real time      0.0103
    FORCOR:  cpu time      0.0015: real time      0.0015
    FORHAR:  cpu time      0.0003: real time      0.0003
    MIXING:  cpu time      0.0002: real time      0.0002
    OFIELD:  cpu time      0.0000: real time      0.0000

  FORCE on cell =-STRESS in cart. coord.  units (eV):
  Direction    XX          YY          ZZ          XY          YZ          ZX
  --------------------------------------------------------------------------------------
  Alpha Z   167.49165   167.49165   167.49165
  Ewald    -501.10704  -501.10703  -467.56376     0.00000    -0.00000    -0.00000
  Hartree    66.44701    66.44701    79.97528     0.00000    -0.00000    -0.00000
  E(xc)     -79.25299   -79.25299   -79.25185     0.00000    -0.00000    -0.00000
  Local     166.56812   166.56805   121.57902    -0.00004    -0.00000    -0.00000
  n-local   -98.79048   -90.50937   -92.34284    -7.17163     0.46706     0.80745
  augment    33.64302    33.64305    32.98670     0.00003     0.00000     0.00000
  Kinetic   244.67787   237.00259   237.12023     6.64699    -0.35705    -0.61843
  Fock        0.00000     0.00000     0.00000     0.00000     0.00000     0.00000
  -------------------------------------------------------------------------------------
  Total      -0.01994    -0.01994    -0.00558    -0.00000     0.00000     0.00000
  in kB      -0.70600    -0.70600    -0.19758    -0.00000     0.00000     0.00000
  external pressure =       -0.54 kB  Pullay stress =        0.00 kB


 VOLUME and BASIS-vectors are now :
 -----------------------------------------------------------------------------
  energy-cutoff  :      400.00
  volume of cell :       45.25
      direct lattice vectors                 reciprocal lattice vectors
     3.237241312  0.000000000  0.000000000     0.308904991  0.178346380 -0.000000000
    -1.618620656  2.803533215  0.000000000    -0.000000000  0.356692760 -0.000000000
    -0.000000000  0.000000000  4.985528786    -0.000000000 -0.000000000  0.200580529

  length of vectors
     3.237241312  3.237241312  4.985528786     0.356692760  0.356692760  0.200580529


 FORCES acting on ions
    electron-ion (+dipol)            ewald-force                    non-local-force                 convergence-correction
 -----------------------------------------------------------------------------------------------
   0.625E-06 -.185E-04 -.160E-06   0.761E-07 -.272E-05 -.161E-13   0.180E-16 0.122E-15 0.177E-16   -.136E-08 0.111E-08 0.168E-10
   -.786E-06 0.130E-04 -.160E-06   -.761E-07 0.272E-05 0.161E-13   -.367E-16 -.126E-15 0.187E-17   0.136E-08 -.108E-08 0.168E-10
 -----------------------------------------------------------------------------------------------
   -.161E-06 -.546E-05 -.320E-06   0.432E-14 -.331E-14 0.333E-16   -.187E-16 -.408E-17 0.196E-16   0.184E-11 0.361E-10 0.336E-10
 
 
 POSITION                                       TOTAL-FORCE (eV/Angst)
 -----------------------------------------------------------------------------------
     -0.00000      1.86902      1.24638         0.000000     -0.000000      0.000000
      1.61862      0.93451      3.73915        -0.000000      0.000000     -0.000000
 -----------------------------------------------------------------------------------
    total drift:                               -0.000000     -0.000005     -0.000000


--------------------------------------------------------------------------------------------------------



  FREE ENERGIE OF THE ION-ELECTRON SYSTEM (eV)
  ---------------------------------------------------
  free  energy   TOTEN  =       -19.95327239 eV

  energy  without entropy=      -19.93835751  energy(sigma->0) =      -19.94581495
 
 d Force = 0.0000000E+00[ 0.000E+00, 0.000E+00]  d Energy = 0.1143717E-02-0.114E-02
 d Force = 0.0000000E+00[ 0.000E+00, 0.000E+00]  d Ewald  =-0.2494305E+01 0.249E+01


--------------------------------------------------------------------------------------------------------


    POTLOK:  cpu time      0.0043: real time      0.0043


--------------------------------------------------------------------------------------------------------




--------------------------------------------------------------------------------------------------------


  
 reached required accuracy - stopping structural energy minimisation
     LOOP+:  cpu time      0.1529: real time      0.1557
    4ORBIT:  cpu time      0.0000: real time      0.0000

 total amount of memory used by VASP MPI-rank0    31479. kBytes
=======================================================================

   base      :      30000. kBytes
   nonl-proj :        752. kBytes
   fftplans  :        144. kBytes
   grid      :        466. kBytes
   one-center:         31. kBytes
   wavefun   :         86. kBytes
 
  
  
 General timing and accounting informations for this job:
 ========================================================
  
                  Total CPU time used (sec):        1.616
                            User time (sec):        1.388
                          System time (sec):        0.228
                         Elapsed time (sec):        2.443
  
                   Maximum memory used (kb):       75296.
                   Average memory used (kb):          N/A
  
                          Minor page faults:        13821
                          Major page faults:            0
                 Voluntary context switches:         1206
