<?xml version="1.0" encoding="ISO-8859-1"?>
<modeling>
 <generator>
  <i name="program" type="string">vasp </i>
  <i name="version" type="string">6.4.3  </i>
  <i name="subversion" type="string">19Mar24 (build Sep 18 2024 11:30:23) complex                          parallel </i>
  <i name="platform" type="string">LinuxIFC </i>
  <i name="date" type="string">2026 07 07 </i>
  <i name="time" type="string">16:45:46 </i>
 </generator>
 <incar>
  <i type="string" name="SYSTEM">HECN</i>
  <i type="int" name="ISTART">     0</i>
  <i type="string" name="PREC">Normal</i>
  <i type="string" name="ALGO">Fast</i>
  <i type="int" name="ICHARG">     2</i>
  <i type="int" name="NELM">    60</i>
  <i type="int" name="IBRION">     2</i>
  <i name="EDIFF">      0.00001000</i>
  <i name="EDIFFG">     -0.01000000</i>
  <i type="int" name="NSW">   100</i>
  <i type="int" name="ISIF">     3</i>
  <i name="ENCUT">    400.00000000</i>
  <i name="POTIM">      0.50000000</i>
  <i type="logical" name="LREAL"> F  </i>
  <i type="int" name="ISMEAR">     0</i>
  <i name="SIGMA">      0.10000000</i>
  <i type="logical" name="LWAVE"> F  </i>
  <i type="logical" name="LCHARG"> F  </i>
 </incar>
 <primitive_cell>
  <structure name="primitive_cell" >
   <crystal>
    <varray name="basis" >
     <v>       3.19460011       0.00000000       0.00000000 </v>
     <v>      -1.59730005       2.76660485       0.00000000 </v>
     <v>       0.00000000       0.00000000       5.05109978 </v>
    </varray>
    <i name="volume">     44.64261052 </i>
    <varray name="rec_basis" >
     <v>       0.31302822       0.18072693       0.00000000 </v>
     <v>       0.00000000       0.36145386       0.00000000 </v>
     <v>       0.00000000       0.00000000       0.19797669 </v>
    </varray>
   </crystal>
   <varray name="positions" >
    <v>       0.33333334       0.66666669       0.25000000 </v>
    <v>       0.66666666       0.33333331       0.75000000 </v>
   </varray>
  </structure>
  <varray name="primitive_index" >
   <v type="int" >        1 </v>
   <v type="int" >        2 </v>
  </varray>
 </primitive_cell>
 <kpoints>
  <generation param="Gamma">
   <v type="int" name="divisions">       3        3        3 </v>
   <v name="usershift">      0.00000000       0.00000000       0.00000000 </v>
   <v name="genvec1">      0.33333333      -0.00000000       0.00000000 </v>
   <v name="genvec2">      0.00000000       0.33333333       0.00000000 </v>
   <v name="genvec3">      0.00000000       0.00000000       0.33333333 </v>
   <v name="shift">      0.00000000       0.00000000       0.00000000 </v>
  </generation>
  <varray name="kpointlist" >
   <v>       0.00000000       0.00000000       0.00000000 </v>
   <v>       0.33333333       0.00000000       0.00000000 </v>
   <v>       0.33333333       0.33333333       0.00000000 </v>
   <v>       0.00000000       0.00000000       0.33333333 </v>
   <v>       0.33333333       0.00000000       0.33333333 </v>
   <v>       0.33333333       0.33333333       0.33333333 </v>
  </varray>
  <varray name="weights" >
   <v>       0.03703704 </v>
   <v>       0.22222222 </v>
   <v>       0.07407407 </v>
   <v>       0.07407407 </v>
   <v>       0.44444444 </v>
   <v>       0.14814815 </v>
  </varray>
 </kpoints>
 <parameters>
  <separator name="general" >
   <i type="string" name="SYSTEM">HECN</i>
   <i type="logical" name="LCOMPAT"> F  </i>
  </separator>
  <separator name="electronic" >
   <i type="string" name="PREC">normal</i>
   <i name="ENMAX">    400.00000000</i>
   <i name="ENAUG">    380.87800000</i>
   <i name="EDIFF">      0.00001000</i>
   <i type="int" name="IALGO">    68</i>
   <i type="int" name="IWAVPR">    11</i>
   <i type="int" name="NBANDS">    28</i>
   <i type="int" name="NBANDSLOW">    -1</i>
   <i type="int" name="NBANDSHIGH">    -1</i>
   <i name="NELECT">     20.00000000</i>
   <i type="int" name="TURBO">     0</i>
   <i type="int" name="IRESTART">     0</i>
   <i type="int" name="NREBOOT">     0</i>
   <i type="int" name="NMIN">     0</i>
   <i name="EREF">      0.00000000</i>
   <separator name="electronic smearing" >
    <i type="int" name="ISMEAR">     0</i>
    <i name="SIGMA">      0.10000000</i>
    <i name="KSPACING">      0.50000000</i>
    <i type="logical" name="KGAMMA"> T  </i>
    <i type="logical" name="KBLOWUP"> T  </i>
   </separator>
   <separator name="electronic projectors" >
    <i type="logical" name="LREAL"> F  </i>
    <v name="ROPT">      0.00000000</v>
    <i type="int" name="LMAXPAW">  -100</i>
    <i type="int" name="LMAXMIX">     2</i>
    <i type="logical" name="NLSPLINE"> F  </i>
   </separator>
   <separator name="electronic startup" >
    <i type="int" name="ISTART">     0</i>
    <i type="int" name="ICHARG">     2</i>
    <i type="int" name="INIWAV">     1</i>
   </separator>
   <separator name="electronic spin" >
    <i type="int" name="ISPIN">     1</i>
    <i type="logical" name="LNONCOLLINEAR"> F  </i>
    <v name="MAGMOM">      1.00000000      1.00000000</v>
    <i name="NUPDOWN">     -1.00000000</i>
    <i type="logical" name="LSORBIT"> F  </i>
    <v name="SAXIS">      0.00000000      0.00000000      1.00000000</v>
    <i type="logical" name="LSPIRAL"> F  </i>
    <v name="QSPIRAL">      0.00000000      0.00000000      0.00000000</v>
    <i type="logical" name="LZEROZ"> F  </i>
   </separator>
   <separator name="electronic exchange-correlation" >
    <i type="logical" name="LASPH"> F  </i>
   </separator>
   <separator name="electronic convergence" >
    <i type="int" name="NELM">    60</i>
    <i type="int" name="NELMDL">    -5</i>
    <i type="int" name="NELMIN">     2</i>
    <i name="ENINI">    400.00000000</i>
    <separator name="electronic convergence detail" >
     <i type="logical" name="LDIAG"> T  </i>
     <i type="logical" name="LSUBROT"> F  </i>
     <i name="WEIMIN">      0.00100000</i>
     <i name="EBREAK">      0.00000009</i>
     <i name="DEPER">      0.30000000</i>
     <i type="int" name="NRMM">     4</i>
     <i name="TIME">      0.40000000</i>
    </separator>
   </separator>
   <separator name="electronic mixer" >
    <i name="AMIX">      0.40000000</i>
    <i name="BMIX">      1.00000000</i>
    <i name="AMIN">      0.10000000</i>
    <i name="AMIX_MAG">      1.60000000</i>
    <i name="BMIX_MAG">      1.00000000</i>
    <separator name="electronic mixer details" >
     <i type="int" name="IMIX">     4</i>
     <i type="logical" name="MIXFIRST"> F  </i>
     <i type="int" name="MAXMIX">   -45</i>
     <i name="WC">    100.00000000</i>
     <i type="int" name="INIMIX">     1</i>
     <i type="int" name="MIXPRE">     1</i>
     <i type="int" name="MREMOVE">     5</i>
    </separator>
   </separator>
   <separator name="electronic dipolcorrection" >
    <i type="logical" name="LDIPOL"> F  </i>
    <i type="logical" name="LMONO"> F  </i>
    <i type="int" name="IDIPOL">     0</i>
    <i name="EPSILON">      1.00000000</i>
    <v name="DIPOL">   -100.00000000   -100.00000000   -100.00000000</v>
    <i name="EFIELD">      0.00000000</i>
    <i type="logical" name="LVACPOTAV"> F  </i>
   </separator>
  </separator>
  <separator name="grids" >
   <i type="int" name="NGX">    16</i>
   <i type="int" name="NGY">    16</i>
   <i type="int" name="NGZ">    28</i>
   <i type="int" name="NGXF">    32</i>
   <i type="int" name="NGYF">    32</i>
   <i type="int" name="NGZF">    56</i>
   <i type="logical" name="ADDGRID"> F  </i>
  </separator>
  <separator name="ionic" >
   <i type="int" name="NSW">   100</i>
   <i type="int" name="IBRION">     2</i>
   <i type="int" name="MDALGO">     0</i>
   <i type="int" name="ISIF">     3</i>
   <i name="PSTRESS">      0.00000000</i>
   <i name="EDIFFG">     -0.01000000</i>
   <i type="int" name="NFREE">     1</i>
   <i name="POTIM">      0.50000000</i>
   <i name="SMASS">     -3.00000000</i>
   <i name="SCALEE">      1.00000000</i>
  </separator>
  <separator name="ionic md" >
   <i name="TEBEG">      0.00010000</i>
   <i name="TEEND">      0.00010000</i>
   <i type="int" name="NBLOCK">     1</i>
   <i type="int" name="KBLOCK">   100</i>
   <i type="int" name="NPACO">   256</i>
   <i name="APACO">     10.00000000</i>
  </separator>
  <separator name="symmetry" >
   <i type="int" name="ISYM">     2</i>
   <i name="SYMPREC">      0.00001000</i>
  </separator>
  <separator name="dos" >
   <i type="int" name="LORBIT">     0</i>
   <v name="RWIGS">     -1.00000000</v>
   <i type="int" name="NEDOS">   301</i>
   <i name="EMIN">     10.00000000</i>
   <i name="EMAX">    -10.00000000</i>
   <i name="EFERMI">      0.00000000</i>
  </separator>
  <separator name="writing" >
   <i type="int" name="NWRITE">     2</i>
   <i type="logical" name="LWAVE"> F  </i>
   <i type="logical" name="LDOWNSAMPLE"> F  </i>
   <i type="logical" name="LCHARG"> F  </i>
   <i type="logical" name="LPARD"> F  </i>
   <i type="logical" name="LVTOT"> F  </i>
   <i type="logical" name="LVHAR"> F  </i>
   <i type="logical" name="LELF"> F  </i>
   <i type="logical" name="LOPTICS"> F  </i>
   <v name="STM">      0.00000000      0.00000000      0.00000000      0.00000000      0.00000000      0.00000000      0.00000000</v>
  </separator>
  <separator name="performance" >
   <i type="int" name="NPAR">    28</i>
   <i type="int" name="NSIM">     4</i>
   <i type="int" name="NBLK">    -1</i>
   <i type="logical" name="LPLANE"> T  </i>
   <i type="logical" name="LSCALAPACK"> T  </i>
   <i type="logical" name="LSCAAWARE"> F  </i>
   <i type="logical" name="LSCALU"> F  </i>
   <i type="logical" name="LASYNC"> F  </i>
   <i type="logical" name="LORBITALREAL"> F  </i>
  </separator>
  <separator name="miscellaneous" >
   <i type="int" name="IDIOT">     3</i>
   <i type="int" name="PHON_NSTRUCT">    -1</i>
   <i type="logical" name="LMUSIC"> F  </i>
   <v name="POMASS">    178.49000000</v>
   <v name="DARWINR">      0.00000000</v>
   <v name="DARWINV">      1.00000000</v>
   <i type="logical" name="LCORR"> T  </i>
  </separator>
  <i type="logical" name="GGA_COMPAT"> T  </i>
  <i type="logical" name="LBERRY"> F  </i>
  <i type="int" name="ICORELEVEL">     0</i>
  <i type="logical" name="LDAU"> F  </i>
  <i type="int" name="I_CONSTRAINED_M">     0</i>
  <separator name="electronic exchange-correlation" >
   <i type="string" name="GGA    ">PE</i>
   <i type="string" name="XC_C">1</i>
   <i type="int" name="VOSKOWN">     0</i>
   <i type="logical" name="LHFCALC"> F  </i>
   <i type="string" name="PRECFOCK"></i>
   <i type="logical" name="LSYMGRAD"> F  </i>
   <i type="logical" name="LHFONE"> F  </i>
   <i type="logical" name="LRHFCALC"> F  </i>
   <i type="logical" name="LTHOMAS"> F  </i>
   <i type="logical" name="LMODELHF"> F  </i>
   <i type="logical" name="LFOCKACE"> F  </i>
   <i name="ENCUT4O">     -1.00000000</i>
   <i type="int" name="EXXOEP">     0</i>
   <i type="int" name="FOURORBIT">     0</i>
   <i name="AEXX">      0.00000000</i>
   <i name="HFALPHA">      0.00000000</i>
   <i name="MCALPHA">      0.00000000</i>
   <i name="ALDAX">      1.00000000</i>
   <i name="AGGAX">      1.00000000</i>
   <i name="AMGGAX">      1.00000000</i>
   <i name="ALDAC">      1.00000000</i>
   <i name="AGGAC">      1.00000000</i>
   <i name="AMGGAC">      1.00000000</i>
   <i type="int" name="NKREDX">     1</i>
   <i type="int" name="NKREDY">     1</i>
   <i type="int" name="NKREDZ">     1</i>
   <i type="logical" name="SHIFTRED"> F  </i>
   <i type="logical" name="ODDONLY"> F  </i>
   <i type="logical" name="EVENONLY"> F  </i>
   <i type="int" name="LMAXFOCK">     0</i>
   <i type="int" name="NMAXFOCKAE">     0</i>
   <i type="logical" name="LFOCKAEDFT"> F  </i>
   <i name="HFSCREEN">      0.00000000</i>
   <i name="HFSCREENC">      0.00000000</i>
   <i type="int" name="NBANDSGWLOW">     0</i>
  </separator>
  <separator name="vdW DFT" >
   <i type="logical" name="LUSE_VDW"> F  </i>
   <i type="int" name="IVDW_NL">    -1</i>
   <i type="logical" name="LSPIN_VDW"> F  </i>
   <i name="ZAB_VDW">     -0.84910000</i>
   <i name="GAMMA_VDW">      1.39626340</i>
   <i name="ALPHA_VDW">      0.00000000</i>
   <i name="PARAM1">      0.12340000</i>
   <i name="PARAM2">      1.00000000</i>
   <i name="BPARAM">      6.30000000</i>
   <i name="CPARAM">      0.00930000</i>
  </separator>
  <separator name="model GW" >
   <i type="int" name="MODEL_GW">     0</i>
   <i name="MODEL_EPS0">     13.39278315</i>
   <i name="MODEL_ALPHA">      1.00000000</i>
  </separator>
  <separator name="linear response parameters" >
   <i type="logical" name="LEPSILON"> F  </i>
   <i type="logical" name="LRPA"> F  </i>
   <i type="logical" name="LNABLA"> F  </i>
   <i type="logical" name="LVEL"> F  </i>
   <i name="CSHIFT">      0.10000000</i>
   <i name="OMEGAMAX">     -1.00000000</i>
   <i name="DEG_THRESHOLD">      0.00200000</i>
   <i name="RTIME">     -0.10000000</i>
   <i name="WPLASMAI">      0.00000000</i>
   <v name="DFIELD">      0.00000000      0.00000000      0.00000000</v>
   <v name="WPLASMA">      0.00000000      0.00000000      0.00000000      0.00000000      0.00000000      0.00000000      0.00000000      0.00000000      0.00000000</v>
  </separator>
  <separator name="orbital magnetization" >
   <i type="logical" name="NUCIND"> F  </i>
   <v name="MAGPOS">      0.00000000      0.00000000      0.00000000</v>
   <i type="logical" name="LNICSALL"> T  </i>
   <i type="logical" name="ORBITALMAG"> F  </i>
   <i type="logical" name="LMAGBLOCH"> F  </i>
   <i type="logical" name="LCHIMAG"> F  </i>
   <i type="logical" name="LGAUGE"> T  </i>
   <i type="int" name="MAGATOM">     0</i>
   <v name="MAGDIPOL">      0.00000000      0.00000000      0.00000000</v>
   <v name="AVECCONST">      0.00000000      0.00000000      0.00000000</v>
  </separator>
  <separator name="response functions" >
   <i type="logical" name="LALL_IN_ONE"> F  </i>
   <i type="int" name="IALL_IN_ONE">    -1</i>
   <i type="int" name="NBANDS_WAVE">    -1</i>
   <i type="logical" name="LFINITE_TEMPERATURE"> F  </i>
   <i type="logical" name="LADDER"> F  </i>
   <i type="logical" name="LRPAFORCE"> F  </i>
   <i type="logical" name="LFXC"> F  </i>
   <i type="logical" name="LHARTREE"> T  </i>
   <i type="int" name="IBSE">     0</i>
   <v type="int" name="KPOINT">    -1     0     0     0</v>
   <i type="logical" name="LTCTC"> F  </i>
   <i type="logical" name="LTCTE"> F  </i>
   <i type="logical" name="LTETE"> F  </i>
   <i type="logical" name="LTRIPLET"> F  </i>
   <i type="logical" name="LFXCEPS"> F  </i>
   <i type="logical" name="LFXHEG"> F  </i>
   <i type="int" name="NATURALO">     2</i>
   <i type="logical" name="LHOLEGF"> F  </i>
   <i type="logical" name="L2ORDER"> F  </i>
   <i type="logical" name="LDMP1"> F  </i>
   <i type="logical" name="LMP2LT"> F  </i>
   <i type="logical" name="LSMP2LT"> F  </i>
   <i type="logical" name="LGWLF"> F  </i>
   <i name="ENCUTGW">     -1.60000002</i>
   <i name="ENCUTGWSOFT">     -1.60000002</i>
   <i name="ENCUTLF">     -1.00000000</i>
   <i type="logical" name="ESF_SPLINES"> F  </i>
   <i name="ESF_CONV">      0.01000000</i>
   <i type="int" name="ESF_NINTER">    15</i>
   <i type="int" name="LMAXMP2">    -1</i>
   <i name="SCISSOR">      0.00000000</i>
   <i type="int" name="NOMEGA">     0</i>
   <i type="int" name="NOMEGAR">     0</i>
   <i type="int" name="NBANDSGW">    -1</i>
   <i type="int" name="NBANDSO">    -1</i>
   <i type="int" name="NBANDSV">    -1</i>
   <i type="int" name="NELMGW">     1</i>
   <i type="int" name="NELMHF">     1</i>
   <i type="int" name="DIM">     3</i>
   <i type="int" name="IESPILON">     4</i>
   <i type="int" name="ANTIRES">     0</i>
   <i name="OMEGAMAX">    -30.00000000</i>
   <i name="OMEGAMIN">    -30.00000000</i>
   <i name="OMEGATL">   -200.00000000</i>
   <i type="int" name="OMEGAGRID">     0</i>
   <i name="CSHIFT">     -0.10000000</i>
   <i type="logical" name="LSELFENERGY"> F  </i>
   <i type="logical" name="LSPECTRAL"> F  </i>
   <i type="logical" name="LSPECTRALGW"> F  </i>
   <i type="logical" name="LSINGLES"> F  </i>
   <i type="logical" name="LFERMIGW"> F  </i>
   <i type="logical" name="ODDONLYGW"> F  </i>
   <i type="logical" name="EVENONLYGW"> F  </i>
   <i type="int" name="NKREDLFX">     1</i>
   <i type="int" name="NKREDLFY">     1</i>
   <i type="int" name="NKREDLFZ">     1</i>
   <i type="int" name="MAXMEM">  2800</i>
   <i type="int" name="TELESCOPE">     0</i>
   <i type="int" name="NTAUPAR">    -1</i>
   <i type="int" name="NOMEGAPAR">    -1</i>
   <i name="DAMP_NEWTON">      0.80000001</i>
   <i name="LAMBDA">      1.00000000</i>
  </separator>
  <separator name="External order field" >
   <i name="OFIELD_KAPPA">      0.00000000</i>
   <v name="OFIELD_K">      0.00000000      0.00000000      0.00000000</v>
   <i name="OFIELD_Q6_NEAR">      0.00000000</i>
   <i name="OFIELD_Q6_FAR">      0.00000000</i>
   <i name="OFIELD_A">      0.00000000</i>
  </separator>
  <separator name="optional k-points parameters" >
   <i type="int" name="KPOINTS_OPT_MODE">     1</i>
   <i type="logical" name="LKPOINTS_OPT"> F  </i>
  </separator>
  <separator name="solvation model" >
   <i type="logical" name="LSOL"> F  </i>
  </separator>
 </parameters>
 <atominfo>
  <atoms>       2 </atoms>
  <types>       1 </types>
  <array name="atoms" >
   <dimension dim="1">ion</dimension>
   <field type="string">element</field>
   <field type="int">atomtype</field>
   <set>
    <rc><c>Hf</c><c>   1</c></rc>
    <rc><c>Hf</c><c>   1</c></rc>
   </set>
  </array>
  <array name="atomtypes" >
   <dimension dim="1">type</dimension>
   <field type="int">atomspertype</field>
   <field type="string">element</field>
   <field>mass</field>
   <field>valence</field>
   <field type="string">pseudopotential</field>
   <set>
    <rc><c>   2</c><c>Hf</c><c>    178.49000000</c><c>     10.00000000</c><c> PAW_PBE Hf_pv 06Sep2000                </c></rc>
   </set>
  </array>
 </atominfo>
 <structure name="initialpos" >
  <crystal>
   <varray name="basis" >
    <v>       3.19460011       0.00000000       0.00000000 </v>
    <v>      -1.59730005       2.76660485       0.00000000 </v>
    <v>       0.00000000       0.00000000       5.05109978 </v>
   </varray>
   <i name="volume">     44.64261052 </i>
   <varray name="rec_basis" >
    <v>       0.31302822       0.18072693       0.00000000 </v>
    <v>       0.00000000       0.36145386       0.00000000 </v>
    <v>       0.00000000       0.00000000       0.19797669 </v>
   </varray>
  </crystal>
  <varray name="positions" >
   <v>       0.33333334       0.66666669       0.25000000 </v>
   <v>       0.66666666       0.33333331       0.75000000 </v>
  </varray>
 </structure>
 <calculation>
  <scstep>
   <time name="dav">    0.06    0.08</time>
   <time name="total">    0.07    0.10</time>
   <energy>
    <i name="alphaZ">    169.76008151 </i>
    <i name="ewald">  -1476.85506767 </i>
    <i name="hartreedc">   -235.54511071 </i>
    <i name="XCdc">     41.18641514 </i>
    <i name="pawpsdc">   1052.65147157 </i>
    <i name="pawaedc">  -1027.23441592 </i>
    <i name="eentropy">     -0.00375580 </i>
    <i name="bandstr">   -254.39957599 </i>
    <i name="atom">   1719.23139681 </i>
    <i name="e_fr_energy">    -11.20856107 </i>
    <i name="e_wo_entrp">    -11.20480527 </i>
    <i name="e_0_energy">    -11.20668317 </i>
   </energy>
  </scstep>
  <scstep>
   <time name="dav">    0.08    0.40</time>
   <time name="total">    0.08    0.40</time>
   <energy>
    <i name="e_fr_energy">    -20.65107099 </i>
    <i name="e_wo_entrp">    -20.63152848 </i>
    <i name="e_0_energy">    -20.64129973 </i>
   </energy>
  </scstep>
  <scstep>
   <time name="dav">    0.04    0.04</time>
   <time name="total">    0.04    0.04</time>
   <energy>
    <i name="e_fr_energy">    -20.66181619 </i>
    <i name="e_wo_entrp">    -20.64229145 </i>
    <i name="e_0_energy">    -20.65205382 </i>
   </energy>
  </scstep>
  <scstep>
   <time name="dav">    0.09    0.09</time>
   <time name="total">    0.09    0.09</time>
   <energy>
    <i name="e_fr_energy">    -20.66182207 </i>
    <i name="e_wo_entrp">    -20.64229733 </i>
    <i name="e_0_energy">    -20.65205970 </i>
   </energy>
  </scstep>
  <scstep>
   <time name="dav">    0.03    0.03</time>
   <time name="total">    0.04    0.05</time>
   <energy>
    <i name="e_fr_energy">    -20.66182207 </i>
    <i name="e_wo_entrp">    -20.64229733 </i>
    <i name="e_0_energy">    -20.65205970 </i>
   </energy>
  </scstep>
  <scstep>
   <time name="diag">    0.03    0.04</time>
   <time name="diis">    0.00    0.01</time>
   <time name="orth">    0.00    0.00</time>
   <time name="total">    0.04    0.06</time>
   <energy>
    <i name="e_fr_energy">    -20.13798663 </i>
    <i name="e_wo_entrp">    -20.11869738 </i>
    <i name="e_0_energy">    -20.12834201 </i>
   </energy>
  </scstep>
  <scstep>
   <time name="diag">    0.01    0.01</time>
   <time name="diis">    0.00    0.00</time>
   <time name="orth">    0.00    0.00</time>
   <time name="total">    0.02    0.02</time>
   <energy>
    <i name="e_fr_energy">    -19.94724121 </i>
    <i name="e_wo_entrp">    -19.92802125 </i>
    <i name="e_0_energy">    -19.93763123 </i>
   </energy>
  </scstep>
  <scstep>
   <time name="diag">    0.01    0.01</time>
   <time name="diis">    0.00    0.00</time>
   <time name="orth">    0.00    0.00</time>
   <time name="total">    0.02    0.02</time>
   <energy>
    <i name="e_fr_energy">    -19.94547803 </i>
    <i name="e_wo_entrp">    -19.92620750 </i>
    <i name="e_0_energy">    -19.93584276 </i>
   </energy>
  </scstep>
  <scstep>
   <time name="diag">    0.01    0.01</time>
   <time name="diis">    0.00    0.00</time>
   <time name="orth">    0.00    0.00</time>
   <time name="total">    0.02    0.02</time>
   <energy>
    <i name="e_fr_energy">    -19.94522097 </i>
    <i name="e_wo_entrp">    -19.92593473 </i>
    <i name="e_0_energy">    -19.93557785 </i>
   </energy>
  </scstep>
  <scstep>
   <time name="diag">    0.01    0.01</time>
   <time name="diis">    0.00    0.00</time>
   <time name="orth">    0.00    0.00</time>
   <time name="total">    0.02    0.02</time>
   <energy>
    <i name="e_fr_energy">    -19.94523168 </i>
    <i name="e_wo_entrp">    -19.92594062 </i>
    <i name="e_0_energy">    -19.93558615 </i>
   </energy>
  </scstep>
  <scstep>
   <time name="diag">    0.01    0.01</time>
   <time name="diis">    0.00    0.00</time>
   <time name="orth">    0.00    0.00</time>
   <time name="total">    0.02    0.02</time>
   <energy>
    <i name="alphaZ">    169.76008151 </i>
    <i name="ewald">  -1476.85506767 </i>
    <i name="hartreedc">   -210.52845002 </i>
    <i name="XCdc">     40.00846774 </i>
    <i name="pawpsdc">   1105.38496759 </i>
    <i name="pawaedc">  -1082.89211275 </i>
    <i name="eentropy">     -0.01929162 </i>
    <i name="bandstr">   -284.03521746 </i>
    <i name="atom">   1719.23139681 </i>
    <i name="e_fr_energy">    -19.94522587 </i>
    <i name="e_wo_entrp">    -19.92593425 </i>
    <i name="e_0_energy">    -19.93558006 </i>
   </energy>
  </scstep>
  <structure>
   <crystal>
    <varray name="basis" >
     <v>       3.19460011       0.00000000       0.00000000 </v>
     <v>      -1.59730005       2.76660485       0.00000000 </v>
     <v>       0.00000000       0.00000000       5.05109978 </v>
    </varray>
    <i name="volume">     44.64261052 </i>
    <varray name="rec_basis" >
     <v>       0.31302822       0.18072693       0.00000000 </v>
     <v>       0.00000000       0.36145386       0.00000000 </v>
     <v>       0.00000000       0.00000000       0.19797669 </v>
    </varray>
   </crystal>
   <varray name="positions" >
    <v>       0.33333334       0.66666669       0.25000000 </v>
    <v>       0.66666666       0.33333331       0.75000000 </v>
   </varray>
  </structure>
  <varray name="forces" >
   <v>      -0.00000000      -0.00000000       0.00000000 </v>
   <v>       0.00000000       0.00000000      -0.00000000 </v>
  </varray>
  <varray name="stress" >
   <v>      15.59194251       0.00000000       0.00000000 </v>
   <v>       0.00000000      15.59194251       0.00000000 </v>
   <v>      -0.00000000      -0.00000000     -10.19346268 </v>
  </varray>
  <energy>
   <i name="e_fr_energy">    -19.94522587 </i>
   <i name="e_wo_entrp">    -19.92593425 </i>
   <i name="e_0_energy">    -19.93558006 </i>
  </energy>
  <time name="totalsc">    0.50    0.90</time>
 </calculation>
 <calculation>
  <scstep>
   <time name="dav">    0.04    0.04</time>
   <time name="total">    0.05    0.05</time>
   <energy>
    <i name="alphaZ">    167.40414566 </i>
    <i name="ewald">  -1469.70905684 </i>
    <i name="hartreedc">   -209.62238944 </i>
    <i name="XCdc">     39.72182529 </i>
    <i name="pawpsdc">   1105.04637894 </i>
    <i name="pawaedc">  -1082.55863839 </i>
    <i name="eentropy">     -0.01909158 </i>
    <i name="bandstr">   -289.48077062 </i>
    <i name="atom">   1719.23139681 </i>
    <i name="e_fr_energy">    -19.98620016 </i>
    <i name="e_wo_entrp">    -19.96710858 </i>
    <i name="e_0_energy">    -19.97665437 </i>
   </energy>
  </scstep>
  <scstep>
   <time name="diag">    0.01    0.01</time>
   <time name="diis">    0.00    0.00</time>
   <time name="orth">    0.00    0.00</time>
   <time name="total">    0.02    0.02</time>
   <energy>
    <i name="e_fr_energy">    -19.96015841 </i>
    <i name="e_wo_entrp">    -19.94247735 </i>
    <i name="e_0_energy">    -19.95131788 </i>
   </energy>
  </scstep>
  <scstep>
   <time name="diag">    0.01    0.01</time>
   <time name="diis">    0.00    0.00</time>
   <time name="orth">    0.00    0.00</time>
   <time name="total">    0.02    0.02</time>
   <energy>
    <i name="e_fr_energy">    -19.95219030 </i>
    <i name="e_wo_entrp">    -19.93583771 </i>
    <i name="e_0_energy">    -19.94401401 </i>
   </energy>
  </scstep>
  <scstep>
   <time name="diag">    0.01    0.01</time>
   <time name="diis">    0.00    0.00</time>
   <time name="orth">    0.00    0.00</time>
   <time name="total">    0.02    0.02</time>
   <energy>
    <i name="e_fr_energy">    -19.95225503 </i>
    <i name="e_wo_entrp">    -19.93587684 </i>
    <i name="e_0_energy">    -19.94406594 </i>
   </energy>
  </scstep>
  <scstep>
   <time name="diag">    0.01    0.01</time>
   <time name="diis">    0.00    0.00</time>
   <time name="orth">    0.00    0.00</time>
   <time name="total">    0.02    0.02</time>
   <energy>
    <i name="alphaZ">    167.40414566 </i>
    <i name="ewald">  -1469.70905684 </i>
    <i name="hartreedc">   -212.86705305 </i>
    <i name="XCdc">     39.90021624 </i>
    <i name="pawpsdc">   1099.98561543 </i>
    <i name="pawaedc">  -1077.49963108 </i>
    <i name="eentropy">     -0.01639243 </i>
    <i name="bandstr">   -286.38149931 </i>
    <i name="atom">   1719.23139681 </i>
    <i name="e_fr_energy">    -19.95225857 </i>
    <i name="e_wo_entrp">    -19.93586614 </i>
    <i name="e_0_energy">    -19.94406236 </i>
   </energy>
  </scstep>
  <structure>
   <crystal>
    <varray name="basis" >
     <v>       3.22807791       0.00000000       0.00000000 </v>
     <v>      -1.61403895       2.79559747       0.00000000 </v>
     <v>      -0.00000000      -0.00000000       5.01649406 </v>
    </varray>
    <i name="volume">     45.27088126 </i>
    <varray name="rec_basis" >
     <v>       0.30978187       0.17885264       0.00000000 </v>
     <v>      -0.00000000       0.35770529       0.00000000 </v>
     <v>       0.00000000      -0.00000000       0.19934241 </v>
    </varray>
   </crystal>
   <varray name="positions" >
    <v>       0.33333334       0.66666669       0.25000000 </v>
    <v>       0.66666666       0.33333331       0.75000000 </v>
   </varray>
  </structure>
  <varray name="forces" >
   <v>       0.00000000      -0.00000000      -0.00000000 </v>
   <v>      -0.00000000       0.00000000       0.00000000 </v>
  </varray>
  <varray name="stress" >
   <v>       0.65267976       0.00000000       0.00000000 </v>
   <v>       0.00000000       0.65267976      -0.00000000 </v>
   <v>       0.00000000       0.00000000     -11.42261249 </v>
  </varray>
  <energy>
   <i name="e_fr_energy">    -19.95225857 </i>
   <i name="e_wo_entrp">    -19.93586614 </i>
   <i name="e_0_energy">    -19.94406236 </i>
  </energy>
  <time name="totalsc">    0.16    0.16</time>
 </calculation>
 <calculation>
  <scstep>
   <time name="dav">    0.04    0.04</time>
   <time name="total">    0.04    0.04</time>
   <energy>
    <i name="alphaZ">    166.80621570 </i>
    <i name="ewald">  -1467.86738204 </i>
    <i name="hartreedc">   -212.64409021 </i>
    <i name="XCdc">     39.82669562 </i>
    <i name="pawpsdc">   1099.92694125 </i>
    <i name="pawaedc">  -1077.44353707 </i>
    <i name="eentropy">     -0.01631567 </i>
    <i name="bandstr">   -287.77472649 </i>
    <i name="atom">   1719.23139681 </i>
    <i name="e_fr_energy">    -19.95480211 </i>
    <i name="e_wo_entrp">    -19.93848644 </i>
    <i name="e_0_energy">    -19.94664427 </i>
   </energy>
  </scstep>
  <scstep>
   <time name="diag">    0.01    0.01</time>
   <time name="diis">    0.00    0.00</time>
   <time name="orth">    0.00    0.00</time>
   <time name="total">    0.02    0.02</time>
   <energy>
    <i name="e_fr_energy">    -19.95311467 </i>
    <i name="e_wo_entrp">    -19.93717551 </i>
    <i name="e_0_energy">    -19.94514509 </i>
   </energy>
  </scstep>
  <scstep>
   <time name="diag">    0.01    0.01</time>
   <time name="diis">    0.00    0.00</time>
   <time name="orth">    0.00    0.00</time>
   <time name="total">    0.02    0.02</time>
   <energy>
    <i name="e_fr_energy">    -19.95257632 </i>
    <i name="e_wo_entrp">    -19.93696577 </i>
    <i name="e_0_energy">    -19.94477104 </i>
   </energy>
  </scstep>
  <scstep>
   <time name="diag">    0.01    0.01</time>
   <time name="diis">    0.00    0.00</time>
   <time name="orth">    0.00    0.00</time>
   <time name="total">    0.02    0.02</time>
   <energy>
    <i name="alphaZ">    166.80621570 </i>
    <i name="ewald">  -1467.86738204 </i>
    <i name="hartreedc">   -213.48890037 </i>
    <i name="XCdc">     39.87307977 </i>
    <i name="pawpsdc">   1098.89348920 </i>
    <i name="pawaedc">  -1076.40648032 </i>
    <i name="eentropy">     -0.01561739 </i>
    <i name="bandstr">   -286.97838034 </i>
    <i name="atom">   1719.23139681 </i>
    <i name="e_fr_energy">    -19.95257898 </i>
    <i name="e_wo_entrp">    -19.93696159 </i>
    <i name="e_0_energy">    -19.94477029 </i>
   </energy>
  </scstep>
  <structure>
   <crystal>
    <varray name="basis" >
     <v>       3.23675247       0.00000000       0.00000000 </v>
     <v>      -1.61837623       2.80310986       0.00000000 </v>
     <v>      -0.00000000      -0.00000000       5.00752724 </v>
    </varray>
    <i name="volume">     45.43315828 </i>
    <varray name="rec_basis" >
     <v>       0.30895165       0.17837332       0.00000000 </v>
     <v>      -0.00000000       0.35674663       0.00000000 </v>
     <v>       0.00000000      -0.00000000       0.19969936 </v>
    </varray>
   </crystal>
   <varray name="positions" >
    <v>       0.33333334       0.66666669       0.25000000 </v>
    <v>       0.66666666       0.33333331       0.75000000 </v>
   </varray>
  </structure>
  <varray name="forces" >
   <v>      -0.00000000       0.00000000       0.00000000 </v>
   <v>       0.00000000      -0.00000000      -0.00000000 </v>
  </varray>
  <varray name="stress" >
   <v>      -3.73891803      -0.00000000       0.00000000 </v>
   <v>      -0.00000000      -3.73891803       0.00000000 </v>
   <v>       0.00000000       0.00000000     -11.29933784 </v>
  </varray>
  <energy>
   <i name="e_fr_energy">    -19.95257898 </i>
   <i name="e_wo_entrp">    -19.93696159 </i>
   <i name="e_0_energy">    -19.94477029 </i>
  </energy>
  <time name="totalsc">    0.13    0.13</time>
 </calculation>
 <calculation>
  <scstep>
   <time name="dav">    0.04    0.04</time>
   <time name="total">    0.05    0.05</time>
   <energy>
    <i name="alphaZ">    168.39362762 </i>
    <i name="ewald">  -1472.27109442 </i>
    <i name="hartreedc">   -214.23694963 </i>
    <i name="XCdc">     40.06686522 </i>
    <i name="pawpsdc">   1098.65713820 </i>
    <i name="pawaedc">  -1076.17397122 </i>
    <i name="eentropy">     -0.01564257 </i>
    <i name="bandstr">   -283.61729982 </i>
    <i name="atom">   1719.23139681 </i>
    <i name="e_fr_energy">    -19.96592979 </i>
    <i name="e_wo_entrp">    -19.95028722 </i>
    <i name="e_0_energy">    -19.95810850 </i>
   </energy>
  </scstep>
  <scstep>
   <time name="diag">    0.01    0.01</time>
   <time name="diis">    0.00    0.00</time>
   <time name="orth">    0.00    0.00</time>
   <time name="total">    0.02    0.02</time>
   <energy>
    <i name="e_fr_energy">    -19.95566906 </i>
    <i name="e_wo_entrp">    -19.94084713 </i>
    <i name="e_0_energy">    -19.94825809 </i>
   </energy>
  </scstep>
  <scstep>
   <time name="diag">    0.01    0.01</time>
   <time name="diis">    0.00    0.00</time>
   <time name="orth">    0.00    0.00</time>
   <time name="total">    0.02    0.02</time>
   <energy>
    <i name="e_fr_energy">    -19.95207758 </i>
    <i name="e_wo_entrp">    -19.93788364 </i>
    <i name="e_0_energy">    -19.94498061 </i>
   </energy>
  </scstep>
  <scstep>
   <time name="diag">    0.01    0.01</time>
   <time name="diis">    0.00    0.00</time>
   <time name="orth">    0.00    0.00</time>
   <time name="total">    0.03    0.03</time>
   <energy>
    <i name="e_fr_energy">    -19.95212141 </i>
    <i name="e_wo_entrp">    -19.93792002 </i>
    <i name="e_0_energy">    -19.94502072 </i>
   </energy>
  </scstep>
  <scstep>
   <time name="diag">    0.01    0.01</time>
   <time name="diis">    0.00    0.00</time>
   <time name="orth">    0.00    0.00</time>
   <time name="total">    0.02    0.02</time>
   <energy>
    <i name="alphaZ">    168.39362762 </i>
    <i name="ewald">  -1472.27109442 </i>
    <i name="hartreedc">   -212.09444410 </i>
    <i name="XCdc">     39.94623379 </i>
    <i name="pawpsdc">   1102.42064815 </i>
    <i name="pawaedc">  -1079.96677331 </i>
    <i name="eentropy">     -0.01420697 </i>
    <i name="bandstr">   -285.59751625 </i>
    <i name="atom">   1719.23139681 </i>
    <i name="e_fr_energy">    -19.95212867 </i>
    <i name="e_wo_entrp">    -19.93792170 </i>
    <i name="e_0_energy">    -19.94502518 </i>
   </energy>
  </scstep>
  <structure>
   <crystal>
    <varray name="basis" >
     <v>       3.23787807       0.00000000       0.00000000 </v>
     <v>      -1.61893903       2.80408466       0.00000000 </v>
     <v>      -0.00000000       0.00000000       4.95687415 </v>
    </varray>
    <i name="volume">     45.00486929 </i>
    <varray name="rec_basis" >
     <v>       0.30884424       0.17831131      -0.00000000 </v>
     <v>      -0.00000000       0.35662261      -0.00000000 </v>
     <v>      -0.00000000      -0.00000000       0.20174004 </v>
    </varray>
   </crystal>
   <varray name="positions" >
    <v>       0.33333334       0.66666669       0.25000000 </v>
    <v>       0.66666666       0.33333331       0.75000000 </v>
   </varray>
  </structure>
  <varray name="forces" >
   <v>       0.00000000      -0.00000000       0.00000000 </v>
   <v>      -0.00000000       0.00000000      -0.00000000 </v>
  </varray>
  <varray name="stress" >
   <v>       2.91545944       0.00000000      -0.00000000 </v>
   <v>       0.00000000       2.91545944      -0.00000000 </v>
   <v>      -0.00000000       0.00000000      14.22592571 </v>
  </varray>
  <energy>
   <i name="e_fr_energy">    -19.95212867 </i>
   <i name="e_wo_entrp">    -19.93792170 </i>
   <i name="e_0_energy">    -19.94502518 </i>
  </energy>
  <time name="totalsc">    0.16    0.17</time>
 </calculation>
 <calculation>
  <scstep>
   <time name="dav">    0.04    0.04</time>
   <time name="total">    0.05    0.05</time>
   <energy>
    <i name="alphaZ">    167.49164561 </i>
    <i name="ewald">  -1469.77678959 </i>
    <i name="hartreedc">   -211.64798889 </i>
    <i name="XCdc">     39.83610578 </i>
    <i name="pawpsdc">   1102.44322867 </i>
    <i name="pawaedc">  -1079.98864090 </i>
    <i name="eentropy">     -0.01419134 </i>
    <i name="bandstr">   -287.53256419 </i>
    <i name="atom">   1719.23139681 </i>
    <i name="e_fr_energy">    -19.95779802 </i>
    <i name="e_wo_entrp">    -19.94360669 </i>
    <i name="e_0_energy">    -19.95070236 </i>
   </energy>
  </scstep>
  <scstep>
   <time name="diag">    0.01    0.01</time>
   <time name="diis">    0.00    0.00</time>
   <time name="orth">    0.00    0.00</time>
   <time name="total">    0.02    0.02</time>
   <energy>
    <i name="e_fr_energy">    -19.95444030 </i>
    <i name="e_wo_entrp">    -19.93991990 </i>
    <i name="e_0_energy">    -19.94718010 </i>
   </energy>
  </scstep>
  <scstep>
   <time name="diag">    0.01    0.01</time>
   <time name="diis">    0.00    0.00</time>
   <time name="orth">    0.00    0.00</time>
   <time name="total">    0.02    0.02</time>
   <energy>
    <i name="e_fr_energy">    -19.95326512 </i>
    <i name="e_wo_entrp">    -19.93833618 </i>
    <i name="e_0_energy">    -19.94580065 </i>
   </energy>
  </scstep>
  <scstep>
   <time name="diag">    0.01    0.01</time>
   <time name="diis">    0.00    0.00</time>
   <time name="orth">    0.00    0.00</time>
   <time name="total">    0.02    0.02</time>
   <energy>
    <i name="e_fr_energy">    -19.95327301 </i>
    <i name="e_wo_entrp">    -19.93835898 </i>
    <i name="e_0_energy">    -19.94581600 </i>
   </energy>
  </scstep>
  <scstep>
   <time name="diag">    0.01    0.01</time>
   <time name="diis">    0.00    0.00</time>
   <time name="orth">    0.00    0.00</time>
   <time name="total">    0.02    0.02</time>
   <energy>
    <i name="alphaZ">    167.49164561 </i>
    <i name="ewald">  -1469.77678959 </i>
    <i name="hartreedc">   -212.87053649 </i>
    <i name="XCdc">     39.90422625 </i>
    <i name="pawpsdc">   1100.31321606 </i>
    <i name="pawaedc">  -1077.84157559 </i>
    <i name="eentropy">     -0.01491488 </i>
    <i name="bandstr">   -286.38994057 </i>
    <i name="atom">   1719.23139681 </i>
    <i name="e_fr_energy">    -19.95327239 </i>
    <i name="e_wo_entrp">    -19.93835751 </i>
    <i name="e_0_energy">    -19.94581495 </i>
   </energy>
  </scstep>
  <structure>
   <crystal>
    <varray name="basis" >
     <v>       3.23724131       0.00000000       0.00000000 </v>
     <v>      -1.61862066       2.80353321       0.00000000 </v>
     <v>      -0.00000000       0.00000000       4.98552879 </v>
    </varray>
    <i name="volume">     45.24723112 </i>
    <varray name="rec_basis" >
     <v>       0.30890499       0.17834638      -0.00000000 </v>
     <v>      -0.00000000       0.35669276      -0.00000000 </v>
     <v>      -0.00000000      -0.00000000       0.20058053 </v>
    </varray>
   </crystal>
   <varray name="positions" >
    <v>       0.33333334       0.66666669       0.25000000 </v>
    <v>       0.66666666       0.33333331       0.75000000 </v>
   </varray>
  </structure>
  <varray name="forces" >
   <v>       0.00000000      -0.00000000       0.00000000 </v>
   <v>      -0.00000000       0.00000000      -0.00000000 </v>
  </varray>
  <varray name="stress" >
   <v>      -0.70600278      -0.00000000       0.00000000 </v>
   <v>      -0.00000000      -0.70600278      -0.00000000 </v>
   <v>       0.00000000       0.00000000      -0.19757519 </v>
  </varray>
  <energy>
   <i name="e_fr_energy">    -19.95327239 </i>
   <i name="e_wo_entrp">    -19.93835751 </i>
   <i name="e_0_energy">    -19.94581495 </i>
  </energy>
  <time name="totalsc">    0.15    0.16</time>
  <eigenvalues>
   <array>
    <dimension dim="1">band</dimension>
    <dimension dim="2">kpoint</dimension>
    <dimension dim="3">spin</dimension>
    <field>eigene</field>
    <field>occ</field>
    <set>
     <set comment="spin 1">
      <set comment="kpoint 1">
       <r>  -26.1697    1.0000 </r>
       <r>  -25.4563    1.0000 </r>
       <r>  -25.4563    1.0000 </r>
       <r>  -25.3134    1.0000 </r>
       <r>  -25.3134    1.0000 </r>
       <r>  -25.2795    1.0000 </r>
       <r>   -2.4477    1.0000 </r>
       <r>    1.2476    1.0000 </r>
       <r>    5.7201    0.0000 </r>
       <r>    5.9458    0.0000 </r>
       <r>    5.9458    0.0000 </r>
       <r>    6.5475    0.0000 </r>
       <r>    6.8239    0.0000 </r>
       <r>    6.8239    0.0000 </r>
       <r>    7.2443    0.0000 </r>
       <r>    7.2443    0.0000 </r>
       <r>   10.0667    0.0000 </r>
       <r>   10.0667    0.0000 </r>
       <r>   13.7666    0.0000 </r>
       <r>   15.8054    0.0000 </r>
       <r>   16.3685    0.0000 </r>
       <r>   16.3728    0.0000 </r>
       <r>   18.2206    0.0000 </r>
       <r>   19.5405    0.0000 </r>
       <r>   22.1424    0.0000 </r>
       <r>   22.1424    0.0000 </r>
       <r>   22.5457    0.0000 </r>
       <r>   22.9853    0.0000 </r>
      </set>
      <set comment="kpoint 2">
       <r>  -25.9336    1.0000 </r>
       <r>  -25.8366    1.0000 </r>
       <r>  -25.6913    1.0000 </r>
       <r>  -25.5820    1.0000 </r>
       <r>  -25.4222    1.0000 </r>
       <r>  -25.3658    1.0000 </r>
       <r>    0.2107    1.0000 </r>
       <r>    2.5728    1.0000 </r>
       <r>    3.2607    1.0000 </r>
       <r>    4.0670    1.0000 </r>
       <r>    5.7886    0.0000 </r>
       <r>    5.8701    0.0000 </r>
       <r>    6.0790    0.0000 </r>
       <r>    8.7532    0.0000 </r>
       <r>    9.0766    0.0000 </r>
       <r>    9.3332    0.0000 </r>
       <r>   11.1600    0.0000 </r>
       <r>   13.0814    0.0000 </r>
       <r>   14.4739    0.0000 </r>
       <r>   15.3091    0.0000 </r>
       <r>   16.3639    0.0000 </r>
       <r>   16.3723    0.0000 </r>
       <r>   16.5334    0.0000 </r>
       <r>   16.8861    0.0000 </r>
       <r>   18.8954    0.0000 </r>
       <r>   21.3865    0.0000 </r>
       <r>   22.1810    0.0000 </r>
       <r>   22.8064    0.0000 </r>
      </set>
      <set comment="kpoint 3">
       <r>  -25.8829    1.0000 </r>
       <r>  -25.7382    1.0000 </r>
       <r>  -25.7382    1.0000 </r>
       <r>  -25.6542    1.0000 </r>
       <r>  -25.6542    1.0000 </r>
       <r>  -25.5815    1.0000 </r>
       <r>    2.7056    1.0000 </r>
       <r>    2.9877    1.0000 </r>
       <r>    2.9877    1.0000 </r>
       <r>    3.3563    1.0000 </r>
       <r>    5.2777    0.0000 </r>
       <r>    5.2777    0.0000 </r>
       <r>    6.9909    0.0000 </r>
       <r>   10.1619    0.0000 </r>
       <r>   10.1619    0.0000 </r>
       <r>   10.2799    0.0000 </r>
       <r>   10.2799    0.0000 </r>
       <r>   10.7847    0.0000 </r>
       <r>   12.5272    0.0000 </r>
       <r>   16.3650    0.0000 </r>
       <r>   16.3650    0.0000 </r>
       <r>   16.9541    0.0000 </r>
       <r>   17.6173    0.0000 </r>
       <r>   17.6173    0.0000 </r>
       <r>   18.3533    0.0000 </r>
       <r>   18.8987    0.0000 </r>
       <r>   18.8987    0.0000 </r>
       <r>   25.3424    0.0000 </r>
      </set>
      <set comment="kpoint 4">
       <r>  -25.9592    1.0000 </r>
       <r>  -25.5150    1.0000 </r>
       <r>  -25.4208    1.0000 </r>
       <r>  -25.4208    1.0000 </r>
       <r>  -25.3494    1.0000 </r>
       <r>  -25.3494    1.0000 </r>
       <r>   -1.4525    1.0000 </r>
       <r>    0.5764    1.0000 </r>
       <r>    4.9409    0.0575 </r>
       <r>    5.6609    0.0000 </r>
       <r>    5.6609    0.0000 </r>
       <r>    5.7358    0.0000 </r>
       <r>    6.1405    0.0000 </r>
       <r>    6.1405    0.0000 </r>
       <r>    8.6229    0.0000 </r>
       <r>    8.6229    0.0000 </r>
       <r>   10.1813    0.0000 </r>
       <r>   10.1813    0.0000 </r>
       <r>   15.1569    0.0000 </r>
       <r>   16.3471    0.0000 </r>
       <r>   16.3675    0.0000 </r>
       <r>   16.6579    0.0000 </r>
       <r>   17.0570    0.0000 </r>
       <r>   19.9098    0.0000 </r>
       <r>   19.9098    0.0000 </r>
       <r>   21.2275    0.0000 </r>
       <r>   22.1857    0.0000 </r>
       <r>   22.1857    0.0000 </r>
      </set>
      <set comment="kpoint 5">
       <r>  -25.9961    1.0000 </r>
       <r>  -25.8620    1.0000 </r>
       <r>  -25.6019    1.0000 </r>
       <r>  -25.5288    1.0000 </r>
       <r>  -25.4210    1.0000 </r>
       <r>  -25.4207    1.0000 </r>
       <r>    0.6926    1.0000 </r>
       <r>    2.0217    1.0000 </r>
       <r>    3.4896    1.0000 </r>
       <r>    4.2811    1.0000 </r>
       <r>    5.3188    0.0000 </r>
       <r>    5.9444    0.0000 </r>
       <r>    6.4326    0.0000 </r>
       <r>    8.0400    0.0000 </r>
       <r>    9.3187    0.0000 </r>
       <r>    9.3630    0.0000 </r>
       <r>   10.4594    0.0000 </r>
       <r>   11.3825    0.0000 </r>
       <r>   14.2393    0.0000 </r>
       <r>   16.3574    0.0000 </r>
       <r>   16.3716    0.0000 </r>
       <r>   17.0246    0.0000 </r>
       <r>   18.0828    0.0000 </r>
       <r>   18.5900    0.0000 </r>
       <r>   19.6413    0.0000 </r>
       <r>   20.2622    0.0000 </r>
       <r>   21.7157    0.0000 </r>
       <r>   22.4188    0.0000 </r>
      </set>
      <set comment="kpoint 6">
       <r>  -25.9337    1.0000 </r>
       <r>  -25.9337    1.0000 </r>
       <r>  -25.8092    1.0000 </r>
       <r>  -25.6586    1.0000 </r>
       <r>  -25.4506    1.0000 </r>
       <r>  -25.4506    1.0000 </r>
       <r>    3.0721    1.0000 </r>
       <r>    3.0721    1.0000 </r>
       <r>    3.1259    1.0000 </r>
       <r>    3.4343    1.0000 </r>
       <r>    4.7849    0.7356 </r>
       <r>    4.7849    0.7356 </r>
       <r>    6.9882    0.0000 </r>
       <r>    8.3656    0.0000 </r>
       <r>    9.8219    0.0000 </r>
       <r>    9.8219    0.0000 </r>
       <r>   11.9847    0.0000 </r>
       <r>   11.9847    0.0000 </r>
       <r>   14.8771    0.0000 </r>
       <r>   15.2355    0.0000 </r>
       <r>   15.2355    0.0000 </r>
       <r>   16.3760    0.0000 </r>
       <r>   16.3760    0.0000 </r>
       <r>   16.4663    0.0000 </r>
       <r>   20.0495    0.0000 </r>
       <r>   20.7543    0.0000 </r>
       <r>   20.7543    0.0000 </r>
       <r>   23.7662    0.0000 </r>
      </set>
     </set>
    </set>
   </array>
  </eigenvalues>
  <separator name="orbital magnetization" >
   <v name="MAGDIPOLOUT">      0.00000000      0.00000000      0.00000000</v>
  </separator>
  <dos>
   <i name="efermi">      4.82942049 </i>
   <total>
    <array>
     <dimension dim="1">gridpoints</dimension>
     <dimension dim="2">spin</dimension>
     <field>energy</field>
     <field>total</field>
     <field>integrated</field>
     <set>
      <set comment="spin 1">
       <r>   -28.7453     0.0000     0.0000 </r>
       <r>   -28.5564     0.0000     0.0000 </r>
       <r>   -28.3676     0.0000     0.0000 </r>
       <r>   -28.1787     0.0000     0.0000 </r>
       <r>   -27.9898     0.0000     0.0000 </r>
       <r>   -27.8009     0.0000     0.0000 </r>
       <r>   -27.6121     0.0000     0.0000 </r>
       <r>   -27.4232     0.0000     0.0000 </r>
       <r>   -27.2343     0.0000     0.0000 </r>
       <r>   -27.0454     0.0000     0.0000 </r>
       <r>   -26.8565     0.0000     0.0000 </r>
       <r>   -26.6677     0.0000     0.0000 </r>
       <r>   -26.4788     0.0000     0.0000 </r>
       <r>   -26.2899     0.0176     0.0033 </r>
       <r>   -26.1010     0.7033     0.1362 </r>
       <r>   -25.9122     9.6676     1.9622 </r>
       <r>   -25.7233    12.4687     4.3172 </r>
       <r>   -25.5344    14.8202     7.1164 </r>
       <r>   -25.3455    21.1484    11.1109 </r>
       <r>   -25.1566     4.6709    11.9931 </r>
       <r>   -24.9678     0.0365    12.0000 </r>
       <r>   -24.7789     0.0000    12.0000 </r>
       <r>   -24.5900     0.0000    12.0000 </r>
       <r>   -24.4011     0.0000    12.0000 </r>
       <r>   -24.2123     0.0000    12.0000 </r>
       <r>   -24.0234     0.0000    12.0000 </r>
       <r>   -23.8345     0.0000    12.0000 </r>
       <r>   -23.6456     0.0000    12.0000 </r>
       <r>   -23.4567     0.0000    12.0000 </r>
       <r>   -23.2679     0.0000    12.0000 </r>
       <r>   -23.0790     0.0000    12.0000 </r>
       <r>   -22.8901     0.0000    12.0000 </r>
       <r>   -22.7012     0.0000    12.0000 </r>
       <r>   -22.5124     0.0000    12.0000 </r>
       <r>   -22.3235     0.0000    12.0000 </r>
       <r>   -22.1346     0.0000    12.0000 </r>
       <r>   -21.9457     0.0000    12.0000 </r>
       <r>   -21.7568     0.0000    12.0000 </r>
       <r>   -21.5680     0.0000    12.0000 </r>
       <r>   -21.3791     0.0000    12.0000 </r>
       <r>   -21.1902     0.0000    12.0000 </r>
       <r>   -21.0013     0.0000    12.0000 </r>
       <r>   -20.8125     0.0000    12.0000 </r>
       <r>   -20.6236     0.0000    12.0000 </r>
       <r>   -20.4347     0.0000    12.0000 </r>
       <r>   -20.2458     0.0000    12.0000 </r>
       <r>   -20.0569     0.0000    12.0000 </r>
       <r>   -19.8681     0.0000    12.0000 </r>
       <r>   -19.6792     0.0000    12.0000 </r>
       <r>   -19.4903     0.0000    12.0000 </r>
       <r>   -19.3014     0.0000    12.0000 </r>
       <r>   -19.1126     0.0000    12.0000 </r>
       <r>   -18.9237     0.0000    12.0000 </r>
       <r>   -18.7348     0.0000    12.0000 </r>
       <r>   -18.5459     0.0000    12.0000 </r>
       <r>   -18.3570     0.0000    12.0000 </r>
       <r>   -18.1682     0.0000    12.0000 </r>
       <r>   -17.9793     0.0000    12.0000 </r>
       <r>   -17.7904     0.0000    12.0000 </r>
       <r>   -17.6015     0.0000    12.0000 </r>
       <r>   -17.4127     0.0000    12.0000 </r>
       <r>   -17.2238     0.0000    12.0000 </r>
       <r>   -17.0349     0.0000    12.0000 </r>
       <r>   -16.8460     0.0000    12.0000 </r>
       <r>   -16.6571     0.0000    12.0000 </r>
       <r>   -16.4683     0.0000    12.0000 </r>
       <r>   -16.2794     0.0000    12.0000 </r>
       <r>   -16.0905     0.0000    12.0000 </r>
       <r>   -15.9016     0.0000    12.0000 </r>
       <r>   -15.7128     0.0000    12.0000 </r>
       <r>   -15.5239     0.0000    12.0000 </r>
       <r>   -15.3350     0.0000    12.0000 </r>
       <r>   -15.1461     0.0000    12.0000 </r>
       <r>   -14.9572     0.0000    12.0000 </r>
       <r>   -14.7684     0.0000    12.0000 </r>
       <r>   -14.5795     0.0000    12.0000 </r>
       <r>   -14.3906     0.0000    12.0000 </r>
       <r>   -14.2017     0.0000    12.0000 </r>
       <r>   -14.0129     0.0000    12.0000 </r>
       <r>   -13.8240     0.0000    12.0000 </r>
       <r>   -13.6351     0.0000    12.0000 </r>
       <r>   -13.4462     0.0000    12.0000 </r>
       <r>   -13.2573     0.0000    12.0000 </r>
       <r>   -13.0685     0.0000    12.0000 </r>
       <r>   -12.8796     0.0000    12.0000 </r>
       <r>   -12.6907     0.0000    12.0000 </r>
       <r>   -12.5018     0.0000    12.0000 </r>
       <r>   -12.3130     0.0000    12.0000 </r>
       <r>   -12.1241     0.0000    12.0000 </r>
       <r>   -11.9352     0.0000    12.0000 </r>
       <r>   -11.7463     0.0000    12.0000 </r>
       <r>   -11.5574     0.0000    12.0000 </r>
       <r>   -11.3686     0.0000    12.0000 </r>
       <r>   -11.1797     0.0000    12.0000 </r>
       <r>   -10.9908     0.0000    12.0000 </r>
       <r>   -10.8019     0.0000    12.0000 </r>
       <r>   -10.6130     0.0000    12.0000 </r>
       <r>   -10.4242     0.0000    12.0000 </r>
       <r>   -10.2353     0.0000    12.0000 </r>
       <r>   -10.0464     0.0000    12.0000 </r>
       <r>    -9.8575     0.0000    12.0000 </r>
       <r>    -9.6687     0.0000    12.0000 </r>
       <r>    -9.4798     0.0000    12.0000 </r>
       <r>    -9.2909     0.0000    12.0000 </r>
       <r>    -9.1020     0.0000    12.0000 </r>
       <r>    -8.9131     0.0000    12.0000 </r>
       <r>    -8.7243     0.0000    12.0000 </r>
       <r>    -8.5354     0.0000    12.0000 </r>
       <r>    -8.3465     0.0000    12.0000 </r>
       <r>    -8.1576     0.0000    12.0000 </r>
       <r>    -7.9688     0.0000    12.0000 </r>
       <r>    -7.7799     0.0000    12.0000 </r>
       <r>    -7.5910     0.0000    12.0000 </r>
       <r>    -7.4021     0.0000    12.0000 </r>
       <r>    -7.2132     0.0000    12.0000 </r>
       <r>    -7.0244     0.0000    12.0000 </r>
       <r>    -6.8355     0.0000    12.0000 </r>
       <r>    -6.6466     0.0000    12.0000 </r>
       <r>    -6.4577     0.0000    12.0000 </r>
       <r>    -6.2689     0.0000    12.0000 </r>
       <r>    -6.0800     0.0000    12.0000 </r>
       <r>    -5.8911     0.0000    12.0000 </r>
       <r>    -5.7022     0.0000    12.0000 </r>
       <r>    -5.5133     0.0000    12.0000 </r>
       <r>    -5.3245     0.0000    12.0000 </r>
       <r>    -5.1356     0.0000    12.0000 </r>
       <r>    -4.9467     0.0000    12.0000 </r>
       <r>    -4.7578     0.0000    12.0000 </r>
       <r>    -4.5690     0.0000    12.0000 </r>
       <r>    -4.3801     0.0000    12.0000 </r>
       <r>    -4.1912     0.0000    12.0000 </r>
       <r>    -4.0023     0.0000    12.0000 </r>
       <r>    -3.8134     0.0000    12.0000 </r>
       <r>    -3.6246     0.0000    12.0000 </r>
       <r>    -3.4357     0.0000    12.0000 </r>
       <r>    -3.2468     0.0000    12.0000 </r>
       <r>    -3.0579     0.0000    12.0000 </r>
       <r>    -2.8691     0.0000    12.0000 </r>
       <r>    -2.6802     0.0002    12.0000 </r>
       <r>    -2.4913     0.1052    12.0199 </r>
       <r>    -2.3024     0.2790    12.0726 </r>
       <r>    -2.1135     0.0078    12.0741 </r>
       <r>    -1.9247     0.0000    12.0741 </r>
       <r>    -1.7358     0.0000    12.0741 </r>
       <r>    -1.5469     0.0713    12.0876 </r>
       <r>    -1.3580     0.6418    12.2088 </r>
       <r>    -1.1692     0.0711    12.2222 </r>
       <r>    -0.9803     0.0000    12.2222 </r>
       <r>    -0.7914     0.0000    12.2222 </r>
       <r>    -0.6025     0.0000    12.2222 </r>
       <r>    -0.4136     0.0000    12.2222 </r>
       <r>    -0.2248     0.0000    12.2222 </r>
       <r>    -0.0359     0.0006    12.2223 </r>
       <r>     0.1530     0.4870    12.3143 </r>
       <r>     0.3419     1.7910    12.6526 </r>
       <r>     0.5307     0.3298    12.7149 </r>
       <r>     0.7196     3.5663    13.3885 </r>
       <r>     0.9085     1.6636    13.7027 </r>
       <r>     1.0974     0.0119    13.7049 </r>
       <r>     1.2863     0.2709    13.7561 </r>
       <r>     1.4751     0.1144    13.7777 </r>
       <r>     1.6640     0.0003    13.7778 </r>
       <r>     1.8529     0.0399    13.7853 </r>
       <r>     2.0418     2.8389    14.3215 </r>
       <r>     2.2306     1.8199    14.6653 </r>
       <r>     2.4195     0.0429    14.6734 </r>
       <r>     2.6084     1.6605    14.9870 </r>
       <r>     2.7973     1.3690    15.2456 </r>
       <r>     2.9862     1.2331    15.4785 </r>
       <r>     3.1750     4.7677    16.3790 </r>
       <r>     3.3639     3.3833    17.0180 </r>
       <r>     3.5528     5.4249    18.0427 </r>
       <r>     3.7417     0.9498    18.2221 </r>
       <r>     3.9305     0.0639    18.2341 </r>
       <r>     4.1194     1.8028    18.5746 </r>
       <r>     4.3083     3.5454    19.2443 </r>
       <r>     4.4972     1.6428    19.5546 </r>
       <r>     4.6861     0.2598    19.6036 </r>
       <r>     4.8749     2.7023    20.1141 </r>
       <r>     5.0638     0.9352    20.2907 </r>
       <r>     5.2527     1.4197    20.5588 </r>
       <r>     5.4416     4.6759    21.4420 </r>
       <r>     5.6304     0.8562    21.6037 </r>
       <r>     5.8193     4.2914    22.4143 </r>
       <r>     6.0082     7.3498    23.8025 </r>
       <r>     6.1971     4.1323    24.5830 </r>
       <r>     6.3860     1.6463    24.8939 </r>
       <r>     6.5748     3.6541    25.5841 </r>
       <r>     6.7637     0.3969    25.6591 </r>
       <r>     6.9526     1.3142    25.9073 </r>
       <r>     7.1415     1.6878    26.2261 </r>
       <r>     7.3303     0.6761    26.3538 </r>
       <r>     7.5192     0.0877    26.3704 </r>
       <r>     7.7081     0.0000    26.3704 </r>
       <r>     7.8970     0.1014    26.3895 </r>
       <r>     8.0859     3.3886    27.0296 </r>
       <r>     8.2747     1.3697    27.2883 </r>
       <r>     8.4636     1.3041    27.5346 </r>
       <r>     8.6525     1.3318    27.7861 </r>
       <r>     8.8414     2.4507    28.2490 </r>
       <r>     9.0302     0.8527    28.4101 </r>
       <r>     9.2191     2.2972    28.8440 </r>
       <r>     9.4080     9.1575    30.5736 </r>
       <r>     9.5969     2.0610    30.9629 </r>
       <r>     9.7858     0.9560    31.1435 </r>
       <r>     9.9746     2.2182    31.5624 </r>
       <r>    10.1635     2.1866    31.9754 </r>
       <r>    10.3524     3.3169    32.6019 </r>
       <r>    10.5413     4.0760    33.3718 </r>
       <r>    10.7301     0.7532    33.5140 </r>
       <r>    10.9190     0.5903    33.6255 </r>
       <r>    11.1079     0.5643    33.7321 </r>
       <r>    11.2968     2.2786    34.1625 </r>
       <r>    11.4857     3.8980    34.8987 </r>
       <r>    11.6745     0.3401    34.9630 </r>
       <r>    11.8634     0.1353    34.9885 </r>
       <r>    12.0523     2.4699    35.4550 </r>
       <r>    12.2412     0.5319    35.5555 </r>
       <r>    12.4300     0.0669    35.5681 </r>
       <r>    12.6189     0.6416    35.6893 </r>
       <r>    12.8078     0.0764    35.7037 </r>
       <r>    12.9967     0.2717    35.7550 </r>
       <r>    13.1856     1.9158    36.1169 </r>
       <r>    13.3744     0.1654    36.1481 </r>
       <r>    13.5633     0.0008    36.1483 </r>
       <r>    13.7522     0.1636    36.1792 </r>
       <r>    13.9411     0.2252    36.2217 </r>
       <r>    14.1299     0.2898    36.2765 </r>
       <r>    14.3188     3.8390    37.0016 </r>
       <r>    14.5077     2.1887    37.4150 </r>
       <r>    14.6966     0.7508    37.5568 </r>
       <r>    14.8855     0.8520    37.7177 </r>
       <r>    15.0743     0.8379    37.8760 </r>
       <r>    15.2632     3.2580    38.4913 </r>
       <r>    15.4521     2.8349    39.0268 </r>
       <r>    15.6410     0.0582    39.0378 </r>
       <r>    15.8298     0.2451    39.0841 </r>
       <r>    16.0187     0.1426    39.1110 </r>
       <r>    16.2076     0.2682    39.1617 </r>
       <r>    16.3965    14.0676    41.8187 </r>
       <r>    16.5854    10.2446    43.7537 </r>
       <r>    16.7742     1.4030    44.0187 </r>
       <r>    16.9631     3.3382    44.6492 </r>
       <r>    17.1520     4.9498    45.5841 </r>
       <r>    17.3409     0.2410    45.6296 </r>
       <r>    17.5297     0.1692    45.6616 </r>
       <r>    17.7186     1.2804    45.9034 </r>
       <r>    17.9075     0.1500    45.9318 </r>
       <r>    18.0964     2.6957    46.4409 </r>
       <r>    18.2853     2.4229    46.8986 </r>
       <r>    18.4741     0.9375    47.0756 </r>
       <r>    18.6630     3.7942    47.7923 </r>
       <r>    18.8519     1.7395    48.1208 </r>
       <r>    19.0408     2.8083    48.6512 </r>
       <r>    19.2296     0.0817    48.6667 </r>
       <r>    19.4185     0.0204    48.6705 </r>
       <r>    19.6074     1.7904    49.0087 </r>
       <r>    19.7963     3.3059    49.6331 </r>
       <r>    19.9852     1.6102    49.9372 </r>
       <r>    20.1740     1.9474    50.3050 </r>
       <r>    20.3629     3.9045    51.0425 </r>
       <r>    20.5518     0.3696    51.1123 </r>
       <r>    20.7407     1.3220    51.3620 </r>
       <r>    20.9295     1.7883    51.6998 </r>
       <r>    21.1184     0.0692    51.7129 </r>
       <r>    21.3073     0.9434    51.8910 </r>
       <r>    21.4962     2.0077    52.2703 </r>
       <r>    21.6851     1.7009    52.5915 </r>
       <r>    21.8739     3.0837    53.1740 </r>
       <r>    22.0628     0.3374    53.2377 </r>
       <r>    22.2517     3.7745    53.9506 </r>
       <r>    22.4406     3.6008    54.6307 </r>
       <r>    22.6294     2.1125    55.0297 </r>
       <r>    22.8183     1.3766    55.2898 </r>
       <r>    23.0072     1.2535    55.5265 </r>
       <r>    23.1961     0.1532    55.5554 </r>
       <r>    23.3850     0.0006    55.5556 </r>
       <r>    23.5738     0.0051    55.5565 </r>
       <r>    23.7627     0.7482    55.6978 </r>
       <r>    23.9516     0.8085    55.8506 </r>
       <r>    24.1405     0.0069    55.8519 </r>
       <r>    24.3293     0.0000    55.8519 </r>
       <r>    24.5182     0.0000    55.8519 </r>
       <r>    24.7071     0.0000    55.8519 </r>
       <r>    24.8960     0.0000    55.8519 </r>
       <r>    25.0849     0.0001    55.8519 </r>
       <r>    25.2737     0.1299    55.8764 </r>
       <r>    25.4626     0.6194    55.9934 </r>
       <r>    25.6515     0.0350    56.0000 </r>
       <r>    25.8404     0.0000    56.0000 </r>
       <r>    26.0292     0.0000    56.0000 </r>
       <r>    26.2181     0.0000    56.0000 </r>
       <r>    26.4070     0.0000    56.0000 </r>
       <r>    26.5959     0.0000    56.0000 </r>
       <r>    26.7848     0.0000    56.0000 </r>
       <r>    26.9736     0.0000    56.0000 </r>
       <r>    27.1625     0.0000    56.0000 </r>
       <r>    27.3514     0.0000    56.0000 </r>
       <r>    27.5403     0.0000    56.0000 </r>
       <r>    27.7291     0.0000    56.0000 </r>
       <r>    27.9180     0.0000    56.0000 </r>
      </set>
     </set>
    </array>
   </total>
  </dos>
 </calculation>
 <structure name="finalpos" >
  <crystal>
   <varray name="basis" >
    <v>       3.23724131       0.00000000       0.00000000 </v>
    <v>      -1.61862066       2.80353321       0.00000000 </v>
    <v>      -0.00000000       0.00000000       4.98552879 </v>
   </varray>
   <i name="volume">     45.24723112 </i>
   <varray name="rec_basis" >
    <v>       0.30890499       0.17834638      -0.00000000 </v>
    <v>      -0.00000000       0.35669276      -0.00000000 </v>
    <v>      -0.00000000      -0.00000000       0.20058053 </v>
   </varray>
  </crystal>
  <varray name="positions" >
   <v>       0.33333334       0.66666669       0.25000000 </v>
   <v>       0.66666666       0.33333331       0.75000000 </v>
  </varray>
 </structure>
</modeling>
