 vasp.5.4.4.18Apr17-6-g9f103f2a35 (build Apr 17 2020 20:39:25) complex          
  
 executed on             LinuxIFC date 2025.11.13  10:41:35
 running on   24 total cores
 distrk:  each k-point on   24 cores,    1 groups
 distr:  one band on NCORES_PER_BAND=   1 cores,   24 groups


--------------------------------------------------------------------------------------------------------


 INCAR:
 POTCAR:   PAW_PBE Zr_sv 07Sep2000                
 POTCAR:   PAW_PBE W_pv 06Sep2000                 
 POTCAR:   PAW_PBE Hf_pv 06Sep2000                
 POTCAR:   PAW_PBE N 08Apr2002                    
 POTCAR:   PAW_PBE C 08Apr2002                    
 POTCAR:   PAW_PBE Ta_pv 07Sep2000                
 POTCAR:   PAW_PBE Nb_sv 17Jan2003                

 ----------------------------------------------------------------------------- 
|                                                                             |
|           W    W    AA    RRRRR   N    N  II  N    N   GGGG   !!!           |
|           W    W   A  A   R    R  NN   N  II  NN   N  G    G  !!!           |
|           W    W  A    A  R    R  N N  N  II  N N  N  G       !!!           |
|           W WW W  AAAAAA  RRRRR   N  N N  II  N  N N  G  GGG   !            |
|           WW  WW  A    A  R   R   N   NN  II  N   NN  G    G                |
|           W    W  A    A  R    R  N    N  II  N    N   GGGG   !!!           |
|                                                                             |
|      For optimal performance we recommend to set                            |
|        NCORE= 4 - approx SQRT( number of cores)                             |
|      NCORE specifies how many cores store one orbital (NPAR=cpu/NCORE).     |
|      This setting can  greatly improve the performance of VASP for DFT.     |
|      The default,   NCORE=1            might be grossly inefficient         |
|      on modern multi-core architectures or massively parallel machines.     |
|      Do your own testing !!!!                                               |
|      Unfortunately you need to use the default for GW and RPA calculations. |
|      (for HF NCORE is supported but not extensively tested yet)             |
|                                                                             |
 ----------------------------------------------------------------------------- 

 POTCAR:   PAW_PBE Zr_sv 07Sep2000                
   VRHFIN =Zr: 4s4p5s4d                                                         
   LEXCH  = PE                                                                  
   EATOM  =  1283.3934 eV,   94.3268 Ry                                         
                                                                                
   TITEL  = PAW_PBE Zr_sv 07Sep2000                                             
   LULTRA =        F    use ultrasoft PP ?                                      
   IUNSCR =        1    unscreen: 0-lin 1-nonlin 2-no                           
   RPACOR =    2.200    partial core radius                                     
   POMASS =   91.224; ZVAL   =   12.000    mass and valenz                      
   RCORE  =    2.500    outmost cutoff radius                                   
   RWIGS  =    3.070; RWIGS  =    1.625    wigner-seitz radius (au A)           
   ENMAX  =  229.839; ENMIN  =  172.379 eV                                      
   RCLOC  =    2.213    cutoff for local pot                                    
   LCOR   =        T    correct aug charges                                     
   LPAW   =        T    paw PP                                                  
   EAUG   =  357.078                                                            
   DEXC   =     .000                                                            
   RMAX   =    3.041    core radius for proj-oper                               
   RAUG   =    1.300    factor for augmentation sphere                          
   RDEP   =    2.597    radius for radial grids                                 
   QCUT   =   -4.110; QGAM   =    8.220    optimization parameters              
                                                                                
   Description                                                                  
     l     E      TYP  RCUT    TYP  RCUT                                        
     0   .000     23  2.500                                                     
     0   .000     23  2.500                                                     
     1   .000     23  2.500                                                     
     1   .000     23  2.500                                                     
     2   .000     23  2.500                                                     
     2   .000     23  2.500                                                     
     3   .000      7   .000                                                     
  local pseudopotential read in
  partial core-charges read in
  atomic valenz-charges read in
  non local Contribution for L=           0  read in
    real space projection operators read in
  non local Contribution for L=           0  read in
    real space projection operators read in
  non local Contribution for L=           1  read in
    real space projection operators read in
  non local Contribution for L=           1  read in
    real space projection operators read in
  non local Contribution for L=           2  read in
    real space projection operators read in
  non local Contribution for L=           2  read in
    real space projection operators read in
    PAW grid and wavefunctions read in
 
   number of l-projection  operators is LMAX  =           6
   number of lm-projection operators is LMMAX =          18
 
 POTCAR:   PAW_PBE W_pv 06Sep2000                 
   VRHFIN =W : 5p6s5d                                                           
   LEXCH  = PE                                                                  
   EATOM  =  1260.0376 eV,   92.6101 Ry                                         
                                                                                
   TITEL  = PAW_PBE W_pv 06Sep2000                                              
   LULTRA =        F    use ultrasoft PP ?                                      
   IUNSCR =        1    unscreen: 0-lin 1-nonlin 2-no                           
   RPACOR =    2.330    partial core radius                                     
   POMASS =  183.850; ZVAL   =   12.000    mass and valenz                      
   RCORE  =    2.500    outmost cutoff radius                                   
   RWIGS  =    2.750; RWIGS  =    1.455    wigner-seitz radius (au A)           
   ENMAX  =  223.065; ENMIN  =  167.299 eV                                      
   RCLOC  =    2.147    cutoff for local pot                                    
   LCOR   =        T    correct aug charges                                     
   LPAW   =        T    paw PP                                                  
   EAUG   =  373.438                                                            
   DEXC   =    -.018                                                            
   RMAX   =    3.087    core radius for proj-oper                               
   RAUG   =    1.300    factor for augmentation sphere                          
   RDEP   =    2.539    radius for radial grids                                 
   QCUT   =   -4.049; QGAM   =    8.098    optimization parameters              
                                                                                
   Description                                                                  
     l     E      TYP  RCUT    TYP  RCUT                                        
     1   .000     23  2.500                                                     
     1  -.200     23  2.500                                                     
     2   .000     23  2.500                                                     
     2   .000     23  2.500                                                     
     0   .000     23  2.500                                                     
     0   .000     23  2.500                                                     
     3   .000      7   .000                                                     
  local pseudopotential read in
  partial core-charges read in
  atomic valenz-charges read in
  non local Contribution for L=           1  read in
    real space projection operators read in
  non local Contribution for L=           1  read in
    real space projection operators read in
  non local Contribution for L=           2  read in
    real space projection operators read in
  non local Contribution for L=           2  read in
    real space projection operators read in
  non local Contribution for L=           0  read in
    real space projection operators read in
  non local Contribution for L=           0  read in
    real space projection operators read in
    PAW grid and wavefunctions read in
 
   number of l-projection  operators is LMAX  =           6
   number of lm-projection operators is LMMAX =          18
 
 POTCAR:   PAW_PBE Hf_pv 06Sep2000                
   VRHFIN =Hf: 5p6s5d                                                           
   LEXCH  = PE                                                                  
   EATOM  =   859.6195 eV,   63.1803 Ry                                         
                                                                                
   TITEL  = PAW_PBE Hf_pv 06Sep2000                                             
   LULTRA =        F    use ultrasoft PP ?                                      
   IUNSCR =        1    unscreen: 0-lin 1-nonlin 2-no                           
   RPACOR =    2.500    partial core radius                                     
   POMASS =  178.490; ZVAL   =   10.000    mass and valenz                      
   RCORE  =    2.600    outmost cutoff radius                                   
   RWIGS  =    3.050; RWIGS  =    1.614    wigner-seitz radius (au A)           
   ENMAX  =  220.342; ENMIN  =  165.256 eV                                      
   RCLOC  =    2.212    cutoff for local pot                                    
   LCOR   =        T    correct aug charges                                     
   LPAW   =        T    paw PP                                                  
   EAUG   =  380.878                                                            
   DEXC   =    -.057                                                            
   RMAX   =    3.106    core radius for proj-oper                               
   RAUG   =    1.300    factor for augmentation sphere                          
   RDEP   =    2.681    radius for radial grids                                 
   QCUT   =   -4.024; QGAM   =    8.049    optimization parameters              
                                                                                
   Description                                                                  
     l     E      TYP  RCUT    TYP  RCUT                                        
     1   .000     23  2.500                                                     
     1   .000     23  2.500                                                     
     2   .000     23  2.500                                                     
     2   .000     23  2.500                                                     
     0   .000     23  2.600                                                     
     0   .000     23  2.600                                                     
     3   .000      7   .000                                                     
  local pseudopotential read in
  partial core-charges read in
  atomic valenz-charges read in
  non local Contribution for L=           1  read in
    real space projection operators read in
  non local Contribution for L=           1  read in
    real space projection operators read in
  non local Contribution for L=           2  read in
    real space projection operators read in
  non local Contribution for L=           2  read in
    real space projection operators read in
  non local Contribution for L=           0  read in
    real space projection operators read in
  non local Contribution for L=           0  read in
    real space projection operators read in
    PAW grid and wavefunctions read in
 
   number of l-projection  operators is LMAX  =           6
   number of lm-projection operators is LMMAX =          18
 
 POTCAR:   PAW_PBE N 08Apr2002                    
   VRHFIN =N: s2p3                                                              
   LEXCH  = PE                                                                  
   EATOM  =   264.5486 eV,   19.4438 Ry                                         
                                                                                
   TITEL  = PAW_PBE N 08Apr2002                                                 
   LULTRA =        F    use ultrasoft PP ?                                      
   IUNSCR =        0    unscreen: 0-lin 1-nonlin 2-no                           
   RPACOR =     .000    partial core radius                                     
   POMASS =   14.001; ZVAL   =    5.000    mass and valenz                      
   RCORE  =    1.500    outmost cutoff radius                                   
   RWIGS  =    1.400; RWIGS  =     .741    wigner-seitz radius (au A)           
   ENMAX  =  400.000; ENMIN  =  300.000 eV                                      
   ICORE  =        2    local potential                                         
   LCOR   =        T    correct aug charges                                     
   LPAW   =        T    paw PP                                                  
   EAUG   =  627.112                                                            
   DEXC   =     .000                                                            
   RMAX   =    2.247    core radius for proj-oper                               
   RAUG   =    1.300    factor for augmentation sphere                          
   RDEP   =    1.514    radius for radial grids                                 
   QCUT   =   -5.562; QGAM   =   11.124    optimization parameters              
                                                                                
   Description                                                                  
     l     E      TYP  RCUT    TYP  RCUT                                        
     0   .000     23  1.200                                                     
     0   .000     23  1.200                                                     
     1   .000     23  1.500                                                     
     1   .700     23  1.500                                                     
     2   .000      7  1.500                                                     
  local pseudopotential read in
  atomic valenz-charges read in
  non local Contribution for L=           0  read in
    real space projection operators read in
  non local Contribution for L=           0  read in
    real space projection operators read in
  non local Contribution for L=           1  read in
    real space projection operators read in
  non local Contribution for L=           1  read in
    real space projection operators read in
    PAW grid and wavefunctions read in
 
   number of l-projection  operators is LMAX  =           4
   number of lm-projection operators is LMMAX =           8
 
 POTCAR:   PAW_PBE C 08Apr2002                    
   VRHFIN =C: s2p2                                                              
   LEXCH  = PE                                                                  
   EATOM  =   147.1560 eV,   10.8157 Ry                                         
                                                                                
   TITEL  = PAW_PBE C 08Apr2002                                                 
   LULTRA =        F    use ultrasoft PP ?                                      
   IUNSCR =        0    unscreen: 0-lin 1-nonlin 2-no                           
   RPACOR =     .000    partial core radius                                     
   POMASS =   12.011; ZVAL   =    4.000    mass and valenz                      
   RCORE  =    1.500    outmost cutoff radius                                   
   RWIGS  =    1.630; RWIGS  =     .863    wigner-seitz radius (au A)           
   ENMAX  =  400.000; ENMIN  =  300.000 eV                                      
   ICORE  =        2    local potential                                         
   LCOR   =        T    correct aug charges                                     
   LPAW   =        T    paw PP                                                  
   EAUG   =  644.873                                                            
   DEXC   =     .000                                                            
   RMAX   =    2.266    core radius for proj-oper                               
   RAUG   =    1.300    factor for augmentation sphere                          
   RDEP   =    1.501    radius for radial grids                                 
   RDEPT  =    1.300    core radius for aug-charge                              
   QCUT   =   -5.516; QGAM   =   11.032    optimization parameters              
                                                                                
   Description                                                                  
     l     E      TYP  RCUT    TYP  RCUT                                        
     0   .000     23  1.200                                                     
     0   .000     23  1.200                                                     
     1   .000     23  1.500                                                     
     1  2.500     23  1.500                                                     
     2   .000      7  1.500                                                     
  local pseudopotential read in
  atomic valenz-charges read in
  non local Contribution for L=           0  read in
    real space projection operators read in
  non local Contribution for L=           0  read in
    real space projection operators read in
  non local Contribution for L=           1  read in
    real space projection operators read in
  non local Contribution for L=           1  read in
    real space projection operators read in
    PAW grid and wavefunctions read in
 
   number of l-projection  operators is LMAX  =           4
   number of lm-projection operators is LMMAX =           8
 
 POTCAR:   PAW_PBE Ta_pv 07Sep2000                
   VRHFIN =Ta:  5p6s5d                                                          
   LEXCH  = PE                                                                  
   EATOM  =  1045.8051 eV,   76.8645 Ry                                         
                                                                                
   TITEL  = PAW_PBE Ta_pv 07Sep2000                                             
   LULTRA =        F    use ultrasoft PP ?                                      
   IUNSCR =        1    unscreen: 0-lin 1-nonlin 2-no                           
   RPACOR =    2.330    partial core radius                                     
   POMASS =  180.948; ZVAL   =   11.000    mass and valenz                      
   RCORE  =    2.500    outmost cutoff radius                                   
   RWIGS  =    2.840; RWIGS  =    1.503    wigner-seitz radius (au A)           
   ENMAX  =  223.675; ENMIN  =  167.756 eV                                      
   RCLOC  =    2.205    cutoff for local pot                                    
   LCOR   =        T    correct aug charges                                     
   LPAW   =        T    paw PP                                                  
   EAUG   =  377.421                                                            
   DEXC   =    -.043                                                            
   RMAX   =    3.083    core radius for proj-oper                               
   RAUG   =    1.300    factor for augmentation sphere                          
   RDEP   =    2.526    radius for radial grids                                 
   QCUT   =   -4.055; QGAM   =    8.109    optimization parameters              
                                                                                
   Description                                                                  
     l     E      TYP  RCUT    TYP  RCUT                                        
     1   .000     23  2.500                                                     
     1   .100     23  2.500                                                     
     2   .000     23  2.500                                                     
     2   .000     23  2.500                                                     
     0   .000     23  2.500                                                     
     0   .000     23  2.500                                                     
     3   .000      7   .000                                                     
  local pseudopotential read in
  partial core-charges read in
  atomic valenz-charges read in
  non local Contribution for L=           1  read in
    real space projection operators read in
  non local Contribution for L=           1  read in
    real space projection operators read in
  non local Contribution for L=           2  read in
    real space projection operators read in
  non local Contribution for L=           2  read in
    real space projection operators read in
  non local Contribution for L=           0  read in
    real space projection operators read in
  non local Contribution for L=           0  read in
    real space projection operators read in
    PAW grid and wavefunctions read in
 
   number of l-projection  operators is LMAX  =           6
   number of lm-projection operators is LMMAX =          18
 
 POTCAR:   PAW_PBE Nb_sv 17Jan2003                
   VRHFIN =Nb: 4p5s4d                                                           
   LEXCH  = PE                                                                  
   EATOM  =  1555.1913 eV,  114.3033 Ry                                         
                                                                                
   TITEL  = PAW_PBE Nb_sv 17Jan2003                                             
   LULTRA =        F    use ultrasoft PP ?                                      
   IUNSCR =        1    unscreen: 0-lin 1-nonlin 2-no                           
   RPACOR =    1.800    partial core radius                                     
   POMASS =   92.910; ZVAL   =   13.000    mass and valenz                      
   RCORE  =    2.200    outmost cutoff radius                                   
   RWIGS  =    2.400; RWIGS  =    1.270    wigner-seitz radius (au A)           
   ENMAX  =  293.235; ENMIN  =  219.927 eV                                      
   RCLOC  =    1.411    cutoff for local pot                                    
   LCOR   =        T    correct aug charges                                     
   LPAW   =        T    paw PP                                                  
   EAUG   =  455.659                                                            
   DEXC   =     .000                                                            
   RMAX   =    2.693    core radius for proj-oper                               
   RAUG   =    1.300    factor for augmentation sphere                          
   RDEP   =    2.299    radius for radial grids                                 
   QCUT   =   -4.642; QGAM   =    9.285    optimization parameters              
                                                                                
   Description                                                                  
     l     E      TYP  RCUT    TYP  RCUT                                        
     0   .000     23  2.200                                                     
     0   .000     23  2.200                                                     
     0   .000     23  2.200                                                     
     0   .000     23  2.200                                                     
     1   .000     23  2.200                                                     
     1  1.000     23  2.200                                                     
     2   .000     23  2.200                                                     
     2   .000     23  2.200                                                     
     3   .000      7   .000                                                     
  local pseudopotential read in
  partial core-charges read in
  atomic valenz-charges read in
  non local Contribution for L=           0  read in
    real space projection operators read in
  non local Contribution for L=           0  read in
    real space projection operators read in
  non local Contribution for L=           1  read in
    real space projection operators read in
  non local Contribution for L=           1  read in
    real space projection operators read in
  non local Contribution for L=           2  read in
    real space projection operators read in
  non local Contribution for L=           2  read in
    real space projection operators read in
    PAW grid and wavefunctions read in
 
   number of l-projection  operators is LMAX  =           6
   number of lm-projection operators is LMMAX =          18
 

 ----------------------------------------------------------------------------- 
|                                                                             |
|  ADVICE TO THIS USER RUNNING 'VASP/VAMP'   (HEAR YOUR MASTER'S VOICE ...):  |
|                                                                             |
|      You have a (more or less) 'large supercell' and for larger cells       |
|      it might be more efficient to use real space projection operators      |
|      So try LREAL= Auto  in the INCAR   file.                               |
|      Mind: If you want to do a very accurate calculations keep the          |
|      reciprocal projection scheme          (i.e. LREAL=.FALSE.)             |
|                                                                             |
 ----------------------------------------------------------------------------- 

 PAW_PBE Zr_sv 07Sep2000                :
 energy of atom  1       EATOM=-1283.3934
 kinetic energy error for atom=    0.0044 (will be added to EATOM!!)
 PAW_PBE W_pv 06Sep2000                 :
 energy of atom  2       EATOM=-1260.0376
 kinetic energy error for atom=    0.0051 (will be added to EATOM!!)
 PAW_PBE Hf_pv 06Sep2000                :
 energy of atom  3       EATOM= -859.6195
 kinetic energy error for atom=    0.0038 (will be added to EATOM!!)
 PAW_PBE N 08Apr2002                    :
 energy of atom  4       EATOM= -264.5486
 kinetic energy error for atom=    0.0736 (will be added to EATOM!!)
 PAW_PBE C 08Apr2002                    :
 energy of atom  5       EATOM= -147.1560
 kinetic energy error for atom=    0.0288 (will be added to EATOM!!)
 PAW_PBE Ta_pv 07Sep2000                :
 energy of atom  6       EATOM=-1045.8051
 kinetic energy error for atom=    0.0046 (will be added to EATOM!!)
 PAW_PBE Nb_sv 17Jan2003                :
 energy of atom  7       EATOM=-1555.1913
 kinetic energy error for atom=    0.0212 (will be added to EATOM!!)
 
 
 POSCAR: 43-ZrHfNbTaW                            
  positions in direct lattice
  velocities in cartesian coordinates
 exchange correlation table for  LEXCH =        8
   RHO(1)=    0.500       N(1)  =     2000
   RHO(2)=  100.500       N(2)  =     4000
 


--------------------------------------------------------------------------------------------------------


 ion  position               nearest neighbor table
   1  0.994  0.999  0.998-  25 2.24  29 2.25  38 2.29  34 2.30  23 2.31  22 2.38  58 3.11   9 3.12
                            59 3.13  18 3.18  16 3.19  17 3.19  56 3.19  14 3.22   8 3.23   2 3.27
   2  0.250  1.000  0.253-  21 2.25  43 2.26  36 2.26  26 2.28  34 2.29  22 2.33  59 3.12  61 3.12
                            57 3.14   8 3.16  20 3.21  19 3.21  18 3.23  55 3.23  14 3.25  15 3.26
   3  0.251  0.500  0.250-  41 2.26  36 2.27  21 2.29  46 2.30  37 2.30  27 2.32  55 3.16   4 3.17
                            62 3.18   6 3.18  15 3.20  18 3.21  54 3.21  20 3.22  19 3.22  14 3.22
   4  0.500  0.500  0.000-  41 2.28  52 2.30  40 2.31  37 2.31  35 2.33  28 2.37  63 3.14  13 3.14
                            60 3.16   3 3.17  17 3.18  55 3.18  15 3.19   7 3.22  14 3.23   5 3.24
   5  0.499  0.248  0.745-  33 2.25  42 2.25  32 2.26  52 2.29  35 2.31  30 2.37  13 3.08  53 3.12
                            19 3.16  14 3.20  56 3.21  57 3.21  17 3.23   4 3.24  63 3.24  62 3.29
   6  0.998  0.500  0.497-  50 2.27  44 2.29  27 2.29  48 2.30  46 2.30  47 2.32  11 3.01  10 3.08
                            12 3.08  64 3.10   3 3.18  19 3.18  20 3.18   8 3.19  60 3.21  63 3.24
   7  0.500  0.752  0.749-  33 2.25  51 2.27  49 2.29  52 2.29  28 2.32  45 2.34  63 3.07  57 3.09
                            62 3.13  58 3.14  13 3.19  53 3.20  20 3.20  64 3.20   4 3.22  18 3.23
   8  0.987  0.230  0.270-  34 2.10  24 2.16  44 2.20  21 2.34  23 2.34  27 2.37  11 2.78  61 2.93
                            16 3.04   2 3.16  19 3.17   6 3.19   1 3.23  17 3.27  14 3.39   3 3.43
   9  0.770  0.736  0.998-  38 2.08  40 2.12  49 2.22  39 2.24  25 2.40  28 2.44  54 2.96  12 2.99
                            63 3.04  60 3.10  59 3.11   1 3.12  58 3.19   4 3.25  16 3.30   7 3.33
  10  0.017  0.275  0.751-  48 2.05  42 2.12  44 2.16  30 2.33  23 2.36  29 2.44  13 2.96  14 3.04
                            19 3.04  54 3.05   6 3.08  56 3.19  17 3.21  11 3.32   1 3.36  58 3.52
  11  0.766  0.263  0.483-  44 2.09  50 2.12  24 2.16  31 2.35  32 2.36  30 2.36   8 2.78   6 3.01
                            60 3.05  15 3.16  16 3.19  61 3.20  10 3.32   5 3.37  58 3.47  57 3.53
  12  0.995  0.725  0.754-  48 2.04  49 2.20  38 2.23  45 2.23  47 2.24  29 2.56   9 2.99  54 3.00
                            63 3.01   6 3.08  18 3.15  64 3.18  20 3.18  13 3.20  58 3.24   1 3.32
  13  0.262  0.492  0.748-  52 2.14  46 2.19  42 2.21  37 2.23  48 2.34  45 2.37  10 2.96   5 3.08
                            19 3.10  62 3.12  14 3.14   4 3.14   7 3.19  12 3.20  20 3.22  18 3.25
  14  0.245  0.250  0.996-  42 2.22  23 2.22  37 2.26  22 2.28  21 2.31  35 2.33  10 3.04  13 3.14
                            56 3.18  54 3.19   5 3.20   1 3.22   3 3.22   4 3.23  53 3.24   2 3.25
  15  0.505  0.254  0.252-  32 2.19  24 2.22  41 2.25  35 2.26  26 2.31  21 2.35  60 3.14  11 3.16
                             4 3.19   3 3.20  16 3.21  53 3.22  62 3.23  17 3.24  19 3.25   2 3.26
  16  0.748  0.996  0.253-  26 2.22  34 2.24  39 2.25  31 2.25  25 2.28  24 2.29   8 3.04  59 3.07
                            11 3.19   1 3.19  55 3.20  53 3.20  15 3.21  64 3.21  61 3.21  57 3.23
  17  0.756  0.259  0.994-  23 2.22  40 2.22  30 2.26  24 2.27  35 2.28  25 2.35  54 3.13   4 3.18
                            53 3.19   1 3.19  63 3.20  10 3.21  60 3.22   5 3.23  15 3.24  58 3.27
  18  0.242  0.750  0.998-  38 2.19  45 2.22  37 2.27  36 2.27  22 2.27  28 2.34  54 3.13  12 3.15
                             1 3.18  59 3.19   3 3.21   7 3.23   2 3.23   4 3.25  13 3.25  56 3.25
  19  0.247  0.251  0.504-  42 2.21  46 2.26  44 2.27  43 2.28  21 2.28  32 2.34  10 3.04  13 3.10
                            56 3.12  61 3.15   5 3.16   8 3.17   6 3.18   2 3.21   3 3.22  57 3.24
  20  0.245  0.750  0.504-  45 2.23  47 2.25  43 2.27  46 2.27  36 2.29  51 2.30  57 3.09  61 3.15
                            62 3.15  56 3.16   6 3.18  12 3.18  59 3.19   7 3.20   2 3.21  55 3.21
  21  0.245  0.249  0.252-   2 2.25  19 2.28   3 2.29  14 2.31   8 2.34  15 2.35
  22  0.257  1.000  0.995-  56 2.27  18 2.27  53 2.27  14 2.28   2 2.33   1 2.38
  23  0.000  0.253  0.012-  17 2.22  14 2.22  54 2.27   1 2.31   8 2.34  10 2.36
  24  0.751  0.248  0.245-  11 2.16   8 2.16  15 2.22  17 2.27  16 2.29  60 2.34
  25  0.746  1.000  0.001-  53 2.14   1 2.24  58 2.25  16 2.28  17 2.35   9 2.40
  26  0.503  1.000  0.249-  16 2.22   2 2.28  57 2.29  15 2.31  53 2.31  55 2.31
  27  0.995  0.489  0.243-  54 2.19  60 2.28   6 2.29   3 2.32   8 2.37
  28  0.501  0.761  0.005-  55 2.24  53 2.24   7 2.32  18 2.34   4 2.37   9 2.44
  29  0.999  0.007  0.748-  56 2.19  58 2.22  61 2.25   1 2.25  10 2.44  12 2.56
  30  0.761  0.241  0.744-  17 2.26  58 2.29  10 2.33  11 2.36   5 2.37
  31  0.743  0.006  0.503-  58 2.25  16 2.25  57 2.29  11 2.35  61 2.36
  32  0.506  0.241  0.494-  15 2.19   5 2.26  57 2.30  19 2.34  11 2.36
  33  0.501  0.000  0.748-  53 2.21  57 2.22   5 2.25   7 2.25  58 2.29  56 2.34
  34  0.996  0.999  0.253-   8 2.10  59 2.12  61 2.22  16 2.24   2 2.29   1 2.30
  35  0.504  0.244  0.001-  53 2.14  15 2.26  17 2.28   5 2.31   4 2.33  14 2.33
  36  0.251  0.751  0.249-  55 2.25   2 2.26  18 2.27   3 2.27  59 2.29  20 2.29
  37  0.244  0.500  0.995-  54 2.21  13 2.23  14 2.26  18 2.27   3 2.30   4 2.31
  38  1.000  0.746  0.000-   9 2.08  18 2.19  54 2.20  12 2.23  59 2.29   1 2.29
  39  0.747  0.748  0.245-  60 2.20  55 2.23   9 2.24  16 2.25  59 2.27  64 2.29
  40  0.756  0.503  0.999-   9 2.12  54 2.20  17 2.22  63 2.27  60 2.27   4 2.31
  41  0.502  0.502  0.253-  60 2.18  55 2.21  62 2.21  15 2.25   3 2.26   4 2.28
  42  0.250  0.249  0.750-  10 2.12  13 2.21  19 2.21  14 2.22  56 2.22   5 2.25
  43  0.249  0.000  0.503-  56 2.17  57 2.18  61 2.21   2 2.26  20 2.27  19 2.28
  44  0.995  0.249  0.514-  11 2.09  10 2.16   8 2.20  61 2.24  19 2.27   6 2.29
  45  0.241  0.752  0.751-  18 2.22  20 2.23  12 2.23  56 2.29   7 2.34  13 2.37
  46  0.253  0.500  0.505-  13 2.19  62 2.24  19 2.26  20 2.27   3 2.30   6 2.30
  47  0.996  0.755  0.507-  64 2.20  12 2.24  61 2.24  20 2.25  59 2.29   6 2.32
  48  0.003  0.500  0.752-  12 2.04  10 2.05  54 2.24   6 2.30  13 2.34  63 2.37
  49  0.753  0.753  0.752-  58 2.15  63 2.18  12 2.20   9 2.22   7 2.29  64 2.29
  50  0.747  0.495  0.499-  11 2.12  64 2.22  62 2.23  60 2.24  63 2.25   6 2.27
  51  0.500  0.751  0.497-  57 2.15  62 2.16  55 2.19   7 2.27  64 2.29  20 2.30
  52  0.499  0.500  0.745-  13 2.14  63 2.19  62 2.24   5 2.29   7 2.29   4 2.30
  53  0.508  0.008  0.993-  35 2.14  25 2.14  33 2.21  28 2.24  22 2.27  26 2.31  58 3.10   5 3.12
                            17 3.19   7 3.20  16 3.20  15 3.22  14 3.24   2 3.30  56 3.31  55 3.35
  54  0.999  0.503  0.001-  27 2.19  40 2.20  38 2.20  37 2.21  48 2.24  23 2.27   9 2.96  12 3.00
                            10 3.05  17 3.13  18 3.13  14 3.19   3 3.21  60 3.22  63 3.28  13 3.28
  55  0.500  0.745  0.254-  51 2.19  41 2.21  39 2.23  28 2.24  36 2.25  26 2.31  62 3.05  60 3.09
                            57 3.14   3 3.16   4 3.18  64 3.19  16 3.20  20 3.21   2 3.23  18 3.29
  56  0.242  0.004  0.744-  43 2.17  29 2.19  42 2.22  22 2.27  45 2.29  33 2.34  61 3.09  19 3.12
                            57 3.12  20 3.16  14 3.18  10 3.19   1 3.19   5 3.21  18 3.25   7 3.27
  57  0.490  0.988  0.503-  51 2.15  43 2.18  33 2.22  31 2.29  26 2.29  32 2.30   7 3.09  20 3.09
                            56 3.12   2 3.14  55 3.14   5 3.21  16 3.23  19 3.24  64 3.27  58 3.28
  58  0.754  0.989  0.752-  49 2.15  29 2.22  25 2.25  31 2.25  30 2.29  33 2.29  53 3.10   1 3.11
                             7 3.14   9 3.19  61 3.21  64 3.21  12 3.24  17 3.27  57 3.28   5 3.29
  59  0.998  0.766  0.254-  34 2.12  39 2.27  47 2.29  38 2.29  36 2.29  16 3.07   9 3.11   2 3.12
                             1 3.13  18 3.19  20 3.19   6 3.26  54 3.29   3 3.32
  60  0.743  0.506  0.251-  41 2.18  39 2.20  50 2.24  40 2.27  27 2.28  24 2.34  11 3.05  55 3.09
                             9 3.10  15 3.14   4 3.16   6 3.21  54 3.22  17 3.22
  61  0.005  0.002  0.499-  43 2.21  34 2.22  44 2.24  47 2.24  29 2.25  31 2.36   8 2.93  56 3.09
                             2 3.12  19 3.15  20 3.15  11 3.20  58 3.21  16 3.21
  62  0.500  0.513  0.498-  51 2.16  41 2.21  50 2.23  46 2.24  52 2.24  55 3.05  13 3.12   7 3.13
                            20 3.15   3 3.18  15 3.23   5 3.29  19 3.30
  63  0.740  0.512  0.748-  49 2.18  52 2.19  50 2.25  40 2.27  48 2.37  12 3.01   9 3.04   7 3.07
                             4 3.14  17 3.20   6 3.24   5 3.24  54 3.28
  64  0.753  0.740  0.499-  47 2.20  50 2.22  49 2.29  39 2.29  51 2.29   6 3.10  12 3.18  55 3.19
                             7 3.20  58 3.21  16 3.21  57 3.27
 
  LATTYP: Found a triclinic cell.
 ALAT       =    12.7205645245
 B/A-ratio  =     0.7099943853
 C/A-ratio  =     0.7131232344
 COS(alpha) =     0.0008346579
 COS(beta)  =     0.0020929807
 COS(gamma) =     0.7056009935
  
  Lattice vectors:
  
 A1 = (  -8.9873488830,  -0.0183236791,   9.0022211771)
 A2 = (  -9.0315217184,  -0.0008932749,  -0.0117381862)
 A3 = (  -0.0066764593,  -9.0713275012,   0.0016985129)


Analysis of symmetry for initial positions (statically):
=====================================================================
 Subroutine PRICEL returns:
 Original cell was already a primitive cell.
 

 Routine SETGRP: Setting up the symmetry group for a 
 triclinic supercell.


 Subroutine GETGRP returns: Found  1 space group operations
 (whereof  1 operations were pure point group operations)
 out of a pool of  2 trial point group operations.


The static configuration has the point symmetry C_1 .


Analysis of symmetry for dynamics (positions and initial velocities):
=====================================================================
 Subroutine PRICEL returns:
 Original cell was already a primitive cell.
 

 Routine SETGRP: Setting up the symmetry group for a 
 triclinic supercell.


 Subroutine GETGRP returns: Found  1 space group operations
 (whereof  1 operations were pure point group operations)
 out of a pool of  2 trial point group operations.


The dynamic configuration has the point symmetry C_1 .


 Subroutine INISYM returns: Found  1 space group operations
 (whereof  1 operations are pure point group operations),
 and found     1 'primitive' translations

 
 
 KPOINTS: HECN                                    

Automatic generation of k-mesh.
Space group operators:
 irot       det(A)        alpha          n_x          n_y          n_z        tau_x        tau_y        tau_z
    1     1.000000     0.000000     1.000000     0.000000     0.000000     0.000000     0.000000     0.000000
 
 Subroutine IBZKPT returns following result:
 ===========================================
 
 Found    112 irreducible k-points:
 
 Following reciprocal coordinates:
            Coordinates               Weight
  0.000000  0.000000  0.000000      1.000000
  0.166667 -0.000000  0.000000      2.000000
  0.333333 -0.000000  0.000000      2.000000
  0.500000 -0.000000  0.000000      1.000000
 -0.000000  0.166667  0.000000      2.000000
  0.166667  0.166667  0.000000      2.000000
  0.333333  0.166667 -0.000000      2.000000
  0.500000  0.166667  0.000000      2.000000
 -0.333333  0.166667 -0.000000      2.000000
 -0.166667  0.166667 -0.000000      2.000000
 -0.000000  0.333333  0.000000      2.000000
  0.166667  0.333333  0.000000      2.000000
  0.333333  0.333333  0.000000      2.000000
  0.500000  0.333333  0.000000      2.000000
 -0.333333  0.333333 -0.000000      2.000000
 -0.166667  0.333333 -0.000000      2.000000
 -0.000000  0.500000 -0.000000      1.000000
  0.166667  0.500000  0.000000      2.000000
  0.333333  0.500000  0.000000      2.000000
  0.500000  0.500000  0.000000      1.000000
 -0.000000  0.000000  0.166667      2.000000
  0.166667 -0.000000  0.166667      2.000000
  0.333333 -0.000000  0.166667      2.000000
  0.500000 -0.000000  0.166667      2.000000
 -0.333333 -0.000000  0.166667      2.000000
 -0.166667 -0.000000  0.166667      2.000000
 -0.000000  0.166667  0.166667      2.000000
  0.166667  0.166667  0.166667      2.000000
  0.333333  0.166667  0.166667      2.000000
  0.500000  0.166667  0.166667      2.000000
 -0.333333  0.166667  0.166667      2.000000
 -0.166667  0.166667  0.166667      2.000000
 -0.000000  0.333333  0.166667      2.000000
  0.166667  0.333333  0.166667      2.000000
  0.333333  0.333333  0.166667      2.000000
  0.500000  0.333333  0.166667      2.000000
 -0.333333  0.333333  0.166667      2.000000
 -0.166667  0.333333  0.166667      2.000000
 -0.000000  0.500000  0.166667      2.000000
  0.166667  0.500000  0.166667      2.000000
  0.333333  0.500000  0.166667      2.000000
  0.500000  0.500000  0.166667      2.000000
 -0.333333  0.500000  0.166667      2.000000
 -0.166667  0.500000  0.166667      2.000000
 -0.000000 -0.333333  0.166667      2.000000
  0.166667 -0.333333  0.166667      2.000000
  0.333333 -0.333333  0.166667      2.000000
  0.500000 -0.333333  0.166667      2.000000
 -0.333333 -0.333333  0.166667      2.000000
 -0.166667 -0.333333  0.166667      2.000000
 -0.000000 -0.166667  0.166667      2.000000
  0.166667 -0.166667  0.166667      2.000000
  0.333333 -0.166667  0.166667      2.000000
  0.500000 -0.166667  0.166667      2.000000
 -0.333333 -0.166667  0.166667      2.000000
 -0.166667 -0.166667  0.166667      2.000000
 -0.000000 -0.000000  0.333333      2.000000
  0.166667  0.000000  0.333333      2.000000
  0.333333 -0.000000  0.333333      2.000000
  0.500000 -0.000000  0.333333      2.000000
 -0.333333 -0.000000  0.333333      2.000000
 -0.166667  0.000000  0.333333      2.000000
 -0.000000  0.166667  0.333333      2.000000
  0.166667  0.166667  0.333333      2.000000
  0.333333  0.166667  0.333333      2.000000
  0.500000  0.166667  0.333333      2.000000
 -0.333333  0.166667  0.333333      2.000000
 -0.166667  0.166667  0.333333      2.000000
 -0.000000  0.333333  0.333333      2.000000
  0.166667  0.333333  0.333333      2.000000
  0.333333  0.333333  0.333333      2.000000
  0.500000  0.333333  0.333333      2.000000
 -0.333333  0.333333  0.333333      2.000000
 -0.166667  0.333333  0.333333      2.000000
 -0.000000  0.500000  0.333333      2.000000
  0.166667  0.500000  0.333333      2.000000
  0.333333  0.500000  0.333333      2.000000
  0.500000  0.500000  0.333333      2.000000
 -0.333333  0.500000  0.333333      2.000000
 -0.166667  0.500000  0.333333      2.000000
 -0.000000 -0.333333  0.333333      2.000000
  0.166667 -0.333333  0.333333      2.000000
  0.333333 -0.333333  0.333333      2.000000
  0.500000 -0.333333  0.333333      2.000000
 -0.333333 -0.333333  0.333333      2.000000
 -0.166667 -0.333333  0.333333      2.000000
 -0.000000 -0.166667  0.333333      2.000000
  0.166667 -0.166667  0.333333      2.000000
  0.333333 -0.166667  0.333333      2.000000
  0.500000 -0.166667  0.333333      2.000000
 -0.333333 -0.166667  0.333333      2.000000
 -0.166667 -0.166667  0.333333      2.000000
 -0.000000  0.000000  0.500000      1.000000
  0.166667 -0.000000  0.500000      2.000000
  0.333333 -0.000000  0.500000      2.000000
  0.500000 -0.000000  0.500000      1.000000
 -0.000000  0.166667  0.500000      2.000000
  0.166667  0.166667  0.500000      2.000000
  0.333333  0.166667  0.500000      2.000000
  0.500000  0.166667  0.500000      2.000000
 -0.333333  0.166667  0.500000      2.000000
 -0.166667  0.166667  0.500000      2.000000
 -0.000000  0.333333  0.500000      2.000000
  0.166667  0.333333  0.500000      2.000000
  0.333333  0.333333  0.500000      2.000000
  0.500000  0.333333  0.500000      2.000000
 -0.333333  0.333333  0.500000      2.000000
 -0.166667  0.333333  0.500000      2.000000
 -0.000000  0.500000  0.500000      1.000000
  0.166667  0.500000  0.500000      2.000000
  0.333333  0.500000  0.500000      2.000000
  0.500000  0.500000  0.500000      1.000000
 
 Following cartesian coordinates:
            Coordinates               Weight
  0.000000  0.000000  0.000000      1.000000
  0.018454 -0.000014 -0.000090      2.000000
  0.036908 -0.000027 -0.000181      2.000000
  0.055362 -0.000041 -0.000271      1.000000
 -0.000002  0.018373  0.000036      2.000000
  0.018452  0.018359 -0.000055      2.000000
  0.036906  0.018346 -0.000145      2.000000
  0.055360  0.018332 -0.000236      2.000000
 -0.036910  0.018400  0.000216      2.000000
 -0.018456  0.018387  0.000126      2.000000
 -0.000004  0.036746  0.000071      2.000000
  0.018450  0.036732 -0.000019      2.000000
  0.036904  0.036719 -0.000110      2.000000
  0.055358  0.036705 -0.000200      2.000000
 -0.036912  0.036773  0.000252      2.000000
 -0.018458  0.036759  0.000162      2.000000
 -0.000006  0.055119  0.000107      1.000000
  0.018448  0.055105  0.000016      2.000000
  0.036902  0.055092 -0.000074      2.000000
  0.055356  0.055078 -0.000165      1.000000
 -0.000024  0.000003  0.018490      2.000000
  0.018430 -0.000010  0.018400      2.000000
  0.036884 -0.000024  0.018309      2.000000
  0.055338 -0.000037  0.018219      2.000000
 -0.036932  0.000031  0.018671      2.000000
 -0.018478  0.000017  0.018580      2.000000
 -0.000026  0.018376  0.018526      2.000000
  0.018428  0.018363  0.018435      2.000000
  0.036882  0.018349  0.018345      2.000000
  0.055336  0.018336  0.018254      2.000000
 -0.036934  0.018404  0.018706      2.000000
 -0.018480  0.018390  0.018616      2.000000
 -0.000028  0.036749  0.018561      2.000000
  0.018426  0.036736  0.018471      2.000000
  0.036880  0.036722  0.018380      2.000000
  0.055334  0.036709  0.018290      2.000000
 -0.036936  0.036777  0.018742      2.000000
 -0.018482  0.036763  0.018651      2.000000
 -0.000030  0.055122  0.018597      2.000000
  0.018424  0.055109  0.018506      2.000000
  0.036878  0.055095  0.018416      2.000000
  0.055332  0.055081  0.018325      2.000000
 -0.036938  0.055149  0.018777      2.000000
 -0.018484  0.055136  0.018687      2.000000
 -0.000020 -0.036742  0.018419      2.000000
  0.018434 -0.036756  0.018328      2.000000
  0.036888 -0.036770  0.018238      2.000000
  0.055342 -0.036783  0.018148      2.000000
 -0.036928 -0.036715  0.018600      2.000000
 -0.018474 -0.036729  0.018509      2.000000
 -0.000022 -0.018369  0.018454      2.000000
  0.018432 -0.018383  0.018364      2.000000
  0.036886 -0.018397  0.018274      2.000000
  0.055340 -0.018410  0.018183      2.000000
 -0.036930 -0.018342  0.018635      2.000000
 -0.018476 -0.018356  0.018545      2.000000
 -0.000048  0.000007  0.036980      2.000000
  0.018406 -0.000007  0.036889      2.000000
  0.036860 -0.000020  0.036799      2.000000
  0.055314 -0.000034  0.036709      2.000000
 -0.036956  0.000034  0.037161      2.000000
 -0.018502  0.000021  0.037070      2.000000
 -0.000050  0.018380  0.037015      2.000000
  0.018404  0.018366  0.036925      2.000000
  0.036858  0.018353  0.036835      2.000000
  0.055312  0.018339  0.036744      2.000000
 -0.036958  0.018407  0.037196      2.000000
 -0.018504  0.018393  0.037106      2.000000
 -0.000052  0.036753  0.037051      2.000000
  0.018402  0.036739  0.036961      2.000000
  0.036856  0.036726  0.036870      2.000000
  0.055310  0.036712  0.036780      2.000000
 -0.036960  0.036780  0.037232      2.000000
 -0.018506  0.036766  0.037141      2.000000
 -0.000054  0.055126  0.037087      2.000000
  0.018400  0.055112  0.036996      2.000000
  0.036854  0.055099  0.036906      2.000000
  0.055308  0.055085  0.036815      2.000000
 -0.036962  0.055153  0.037267      2.000000
 -0.018508  0.055139  0.037177      2.000000
 -0.000044 -0.036739  0.036909      2.000000
  0.018410 -0.036752  0.036818      2.000000
  0.036864 -0.036766  0.036728      2.000000
  0.055318 -0.036780  0.036637      2.000000
 -0.036952 -0.036712  0.037090      2.000000
 -0.018498 -0.036725  0.036999      2.000000
 -0.000046 -0.018366  0.036944      2.000000
  0.018408 -0.018380  0.036854      2.000000
  0.036862 -0.018393  0.036763      2.000000
  0.055316 -0.018407  0.036673      2.000000
 -0.036954 -0.018339  0.037125      2.000000
 -0.018500 -0.018352  0.037035      2.000000
 -0.000072  0.000010  0.055470      1.000000
  0.018382 -0.000003  0.055379      2.000000
  0.036836 -0.000017  0.055289      2.000000
  0.055290 -0.000030  0.055199      1.000000
 -0.000074  0.018383  0.055505      2.000000
  0.018380  0.018370  0.055415      2.000000
  0.036834  0.018356  0.055325      2.000000
  0.055288  0.018343  0.055234      2.000000
 -0.036982  0.018411  0.055686      2.000000
 -0.018528  0.018397  0.055596      2.000000
 -0.000076  0.036756  0.055541      2.000000
  0.018378  0.036743  0.055451      2.000000
  0.036832  0.036729  0.055360      2.000000
  0.055286  0.036715  0.055270      2.000000
 -0.036984  0.036783  0.055722      2.000000
 -0.018530  0.036770  0.055631      2.000000
 -0.000078  0.055129  0.055577      1.000000
  0.018376  0.055116  0.055486      2.000000
  0.036830  0.055102  0.055396      2.000000
  0.055284  0.055088  0.055305      1.000000
 


--------------------------------------------------------------------------------------------------------




 Dimension of arrays:
   k-points           NKPTS =    112   k-points in BZ     NKDIM =    112   number of bands    NBANDS=    312
   number of dos      NEDOS =   1000   number of ions     NIONS =     64
   non local maximal  LDIM  =      6   non local SUM 2l+1 LMDIM =     18
   total plane-waves  NPLWV = 110592
   max r-space proj   IRMAX =      1   max aug-charges    IRDMAX=   9341
   dimension x,y,z NGX =    48 NGY =   48 NGZ =   48
   dimension x,y,z NGXF=    96 NGYF=   96 NGZF=   96
   support grid    NGXF=    96 NGYF=   96 NGZF=   96
   ions per type =               7   6   7  13  19   6   6
   NGX,Y,Z   is equivalent  to a cutoff of   8.84,  8.80,  8.85 a.u.
   NGXF,Y,Z  is equivalent  to a cutoff of  17.67, 17.59, 17.71 a.u.

 SYSTEM =  HEBCN                                   
 POSCAR =  43-ZrHfNbTaW                            

 Startparameter for this run:
   NWRITE =      2    write-flag & timer
   PREC   = normal    normal or accurate (medium, high low for compatibility)
   ISTART =      1    job   : 0-new  1-cont  2-samecut
   ICHARG =     11    charge: 1-file 2-atom 10-const
   ISPIN  =      1    spin polarized calculation?
   LNONCOLLINEAR =      F non collinear calculations
   LSORBIT =      F    spin-orbit coupling
   INIWAV =      1    electr: 0-lowe 1-rand  2-diag
   LASPH  =      F    aspherical Exc in radial PAW
   METAGGA=      F    non-selfconsistent MetaGGA calc.

 Electronic Relaxation 1
   ENCUT  =  400.0 eV  29.40 Ry    5.42 a.u.  14.73 14.79 14.70*2*pi/ulx,y,z
   ENINI  =  400.0     initial cutoff
   ENAUG  =  644.9 eV  augmentation charge cutoff
   NELM   =     60;   NELMIN=  2; NELMDL=  0     # of ELM steps 
   EDIFF  = 0.1E-04   stopping-criterion for ELM
   LREAL  =      F    real-space projection
   NLSPLINE    = F    spline interpolate recip. space projectors
   LCOMPAT=      F    compatible to vasp.4.4
   GGA_COMPAT  = T    GGA compatible to vasp.4.4-vasp.4.6
   LMAXPAW     = -100 max onsite density
   LMAXMIX     =    2 max onsite mixed and CHGCAR
   VOSKOWN=      0    Vosko Wilk Nusair interpolation
   ROPT   =    0.00000   0.00000   0.00000   0.00000
   ROPT   =    0.00000   0.00000   0.00000
 Ionic relaxation
   EDIFFG = -.1E-01   stopping-criterion for IOM
   NSW    =      0    number of steps for IOM
   NBLOCK =      1;   KBLOCK =      1    inner block; outer block 
   IBRION =     -1    ionic relax: 0-MD 1-quasi-New 2-CG
   NFREE  =      0    steps in history (QN), initial steepest desc. (CG)
   ISIF   =      2    stress and relaxation
   IWAVPR =     10    prediction:  0-non 1-charg 2-wave 3-comb
   ISYM   =      2    0-nonsym 1-usesym 2-fastsym
   LCORR  =      T    Harris-Foulkes like correction to forces

   POTIM  = 0.5000    time-step for ionic-motion
   TEIN   =    0.0    initial temperature
   TEBEG  =    0.0;   TEEND  =   0.0 temperature during run
   SMASS  =  -3.00    Nose mass-parameter (am)
   estimated Nose-frequenzy (Omega)   =  0.10E-29 period in steps =****** mass=  -0.186E-26a.u.
   SCALEE = 1.0000    scale energy and forces
   NPACO  =    256;   APACO  = 16.0  distance and # of slots for P.C.
   PSTRESS=    0.0 pullay stress

  Mass of Ions in am
   POMASS =  91.22183.85178.49 14.00 12.01180.95 92.91
  Ionic Valenz
   ZVAL   =  12.00 12.00 10.00  5.00  4.00 11.00 13.00
  Atomic Wigner-Seitz radii
   RWIGS  =  -1.00 -1.00 -1.00 -1.00 -1.00 -1.00 -1.00
  virtual crystal weights 
   VCA    =   1.00  1.00  1.00  1.00  1.00  1.00  1.00
   NELECT =     511.0000    total number of electrons
   NUPDOWN=      -1.0000    fix difference up-down

 DOS related values:
   EMIN   = -48.00;   EMAX   = 13.00  energy-range for DOS
   EFERMI =   0.00
   ISMEAR =     0;   SIGMA  =   0.10  broadening in eV -4-tet -1-fermi 0-gaus

 Electronic relaxation 2 (details)
   IALGO  =     68    algorithm
   LDIAG  =      T    sub-space diagonalisation (order eigenvalues)
   LSUBROT=      F    optimize rotation matrix (better conditioning)
   TURBO    =      0    0=normal 1=particle mesh
   IRESTART =      0    0=no restart 2=restart with 2 vectors
   NREBOOT  =      0    no. of reboots
   NMIN     =      0    reboot dimension
   EREF     =   0.00    reference energy to select bands
   IMIX   =      4    mixing-type and parameters
     AMIX     =   0.40;   BMIX     =  1.00
     AMIX_MAG =   1.60;   BMIX_MAG =  1.00
     AMIN     =   0.10
     WC   =   100.;   INIMIX=   1;  MIXPRE=   1;  MAXMIX= -45

 Intra band minimization:
   WEIMIN = 0.0000     energy-eigenvalue tresh-hold
   EBREAK =  0.80E-08  absolut break condition
   DEPER  =   0.30     relativ break condition  

   TIME   =   0.40     timestep for ELM

  volume/ion in A,a.u.               =      11.54        77.87
  Fermi-wavevector in a.u.,A,eV,Ry     =   1.447995  2.736313 28.527184  2.096689
  Thomas-Fermi vector in A             =   2.565886
 
 Write flags
   LWAVE        =      F    write WAVECAR
   LDOWNSAMPLE  =      F    k-point downsampling of WAVECAR
   LCHARG       =      T    write CHGCAR
   LVTOT        =      F    write LOCPOT, total local potential
   LVHAR        =      F    write LOCPOT, Hartree potential only
   LELF         =      F    write electronic localiz. function (ELF)
   LORBIT       =     10    0 simple, 1 ext, 2 COOP (PROOUT), +10 PAW based schemes


 Dipole corrections
   LMONO  =      F    monopole corrections only (constant potential shift)
   LDIPOL =      F    correct potential (dipole corrections)
   IDIPOL =      0    1-x, 2-y, 3-z, 4-all directions 
   EPSILON=  1.0000000 bulk dielectric constant

 Exchange correlation treatment:
   GGA     =    --    GGA type
   LEXCH   =     8    internal setting for exchange type
   VOSKOWN=      0    Vosko Wilk Nusair interpolation
   LHFCALC =     F    Hartree Fock is set to
   LHFONE  =     F    Hartree Fock one center treatment
   AEXX    =    0.0000 exact exchange contribution

 Linear response parameters
   LEPSILON=     F    determine dielectric tensor
   LRPA    =     F    only Hartree local field effects (RPA)
   LNABLA  =     F    use nabla operator in PAW spheres
   LVEL    =     F    velocity operator in full k-point grid
   LINTERFAST=   F  fast interpolation
   KINTER  =     0    interpolate to denser k-point grid
   CSHIFT  =0.1000    complex shift for real part using Kramers Kronig
   OMEGAMAX=  -1.0    maximum frequency
   DEG_THRESHOLD= 0.2000000E-02 threshold for treating states as degnerate
   RTIME   =   -0.100 relaxation time in fs
  (WPLASMAI=    0.000 imaginary part of plasma frequency in eV, 0.658/RTIME)
   DFIELD  = 0.0000000 0.0000000 0.0000000 field for delta impulse in time
 
 Orbital magnetization related:
   ORBITALMAG=     F  switch on orbital magnetization
   LCHIMAG   =     F  perturbation theory with respect to B field
   DQ        =  0.001000  dq finite difference perturbation B field
   LLRAUG    =     F  two centre corrections for induced B field



--------------------------------------------------------------------------------------------------------


 Static calculation
 charge density and potential remain constant during run
 non-spin polarized calculation
 RMM-DIIS sequential band-by-band and
  variant of blocked Davidson during initial phase
 perform sub-space diagonalisation
    before iterative eigenvector-optimisation
 no mixing
 using additional bands           56
 reciprocal scheme for non local part
 use partial core corrections
 calculate Harris-corrections to forces 
   (improved forces if not selfconsistent)
 use gradient corrections 
 WARNING: stress and forces are not correct
  (second derivative of E(xc) not defined)
 use of overlap-Matrix (Vanderbilt PP)
 Gauss-broadening in eV      SIGMA  =   0.10


--------------------------------------------------------------------------------------------------------


  energy-cutoff  :      400.00
  volume of cell :      738.49
      direct lattice vectors                 reciprocal lattice vectors
     9.031521718  0.000893275  0.011738186     0.110724026 -0.000081594 -0.000542760
     0.006676459  9.071327501 -0.001698513    -0.000011180  0.110237497  0.000213222
     0.044172835 -0.017430404  9.013959363    -0.000144189  0.000020878  0.110939787

  length of vectors
     9.031529391  9.071330117  9.014084449     0.110725386  0.110237704  0.110939883


 
 old parameters found on file WAVECAR:
  energy-cutoff  :      400.00
  volume of cell :      738.49
      direct lattice vectors                 reciprocal lattice vectors
     9.031521718  0.000893275  0.011738186     0.110724026 -0.000081594 -0.000542760
     0.006676459  9.071327501 -0.001698513    -0.000011180  0.110237497  0.000213222
     0.044172835 -0.017430404  9.013959363    -0.000144189  0.000020878  0.110939787

  length of vectors

 
 k-points in units of 2pi/SCALE and weight: HECN                                    
   0.00000000  0.00000000  0.00000000       0.005
   0.01845400 -0.00001360 -0.00009046       0.009
   0.03690801 -0.00002720 -0.00018092       0.009
   0.05536201 -0.00004080 -0.00027138       0.005
  -0.00000186  0.01837292  0.00003554       0.009
   0.01845214  0.01835932 -0.00005492       0.009
   0.03690615  0.01834572 -0.00014538       0.009
   0.05536015  0.01833212 -0.00023584       0.009
  -0.03690987  0.01840011  0.00021646       0.009
  -0.01845587  0.01838652  0.00012600       0.009
  -0.00000373  0.03674583  0.00007107       0.009
   0.01845028  0.03673223 -0.00001939       0.009
   0.03690428  0.03671863 -0.00010985       0.009
   0.05535829  0.03670504 -0.00020031       0.009
  -0.03691174  0.03677303  0.00025199       0.009
  -0.01845773  0.03675943  0.00016153       0.009
  -0.00000559  0.05511875  0.00010661       0.005
   0.01844841  0.05510515  0.00001615       0.009
   0.03690242  0.05509155 -0.00007431       0.009
   0.05535642  0.05507795 -0.00016477       0.005
  -0.00002403  0.00000348  0.01848996       0.009
   0.01842997 -0.00001012  0.01839950       0.009
   0.03688398 -0.00002372  0.01830904       0.009
   0.05533798 -0.00003732  0.01821858       0.009
  -0.03693204  0.00003068  0.01867088       0.009
  -0.01847804  0.00001708  0.01858042       0.009
  -0.00002589  0.01837640  0.01852550       0.009
   0.01842811  0.01836280  0.01843504       0.009
   0.03688211  0.01834920  0.01834458       0.009
   0.05533612  0.01833560  0.01825412       0.009
  -0.03693390  0.01840359  0.01870642       0.009
  -0.01847990  0.01838999  0.01861596       0.009
  -0.00002776  0.03674931  0.01856104       0.009
   0.01842625  0.03673571  0.01847058       0.009
   0.03688025  0.03672211  0.01838012       0.009
   0.05533425  0.03670852  0.01828966       0.009
  -0.03693577  0.03677651  0.01874196       0.009
  -0.01848176  0.03676291  0.01865150       0.009
  -0.00002962  0.05512223  0.01859658       0.009
   0.01842438  0.05510863  0.01850612       0.009
   0.03687839  0.05509503  0.01841566       0.009
   0.05533239  0.05508143  0.01832520       0.009
  -0.03693763  0.05514943  0.01877750       0.009
  -0.01848363  0.05513583  0.01868704       0.009
  -0.00002030 -0.03674235  0.01841889       0.009
   0.01843370 -0.03675595  0.01832843       0.009
   0.03688770 -0.03676955  0.01823797       0.009
   0.05534171 -0.03678315  0.01814751       0.009
  -0.03692831 -0.03671515  0.01859981       0.009
  -0.01847431 -0.03672875  0.01850935       0.009
  -0.00002217 -0.01836944  0.01845443       0.009
   0.01843184 -0.01838304  0.01836397       0.009
   0.03688584 -0.01839663  0.01827351       0.009
   0.05533984 -0.01841023  0.01818305       0.009
  -0.03693018 -0.01834224  0.01863535       0.009
  -0.01847617 -0.01835584  0.01854489       0.009
  -0.00004806  0.00000696  0.03697993       0.009
   0.01840594 -0.00000664  0.03688947       0.009
   0.03685995 -0.00002024  0.03679901       0.009
   0.05531395 -0.00003384  0.03670855       0.009
  -0.03695607  0.00003416  0.03716085       0.009
  -0.01850207  0.00002056  0.03707039       0.009
  -0.00004993  0.01837988  0.03701547       0.009
   0.01840408  0.01836628  0.03692501       0.009
   0.03685808  0.01835268  0.03683455       0.009
   0.05531209  0.01833908  0.03674409       0.009
  -0.03695794  0.01840707  0.03719639       0.009
  -0.01850393  0.01839347  0.03710593       0.009
  -0.00005179  0.03675279  0.03705100       0.009
   0.01840221  0.03673919  0.03696054       0.009
   0.03685622  0.03672559  0.03687008       0.009
   0.05531022  0.03671199  0.03677962       0.009
  -0.03695980  0.03677999  0.03723192       0.009
  -0.01850579  0.03676639  0.03714146       0.009
  -0.00005365  0.05512571  0.03708654       0.009
   0.01840035  0.05511211  0.03699608       0.009
   0.03685436  0.05509851  0.03690562       0.009
   0.05530836  0.05508491  0.03681516       0.009
  -0.03696166  0.05515291  0.03726746       0.009
  -0.01850766  0.05513931  0.03717700       0.009
  -0.00004434 -0.03673887  0.03690885       0.009
   0.01840967 -0.03675247  0.03681839       0.009
   0.03686367 -0.03676607  0.03672793       0.009
   0.05531768 -0.03677967  0.03663747       0.009
  -0.03695234 -0.03671167  0.03708977       0.009
  -0.01849834 -0.03672527  0.03699931       0.009
  -0.00004620 -0.01836596  0.03694439       0.009
   0.01840780 -0.01837956  0.03685393       0.009
   0.03686181 -0.01839315  0.03676347       0.009
   0.05531581 -0.01840675  0.03667301       0.009
  -0.03695421 -0.01833876  0.03712531       0.009
  -0.01850020 -0.01835236  0.03703485       0.009
  -0.00007209  0.00001044  0.05546989       0.005
   0.01838191 -0.00000316  0.05537943       0.009
   0.03683591 -0.00001676  0.05528897       0.009
   0.05528992 -0.00003036  0.05519851       0.005
  -0.00007396  0.01838336  0.05550543       0.009
   0.01838005  0.01836976  0.05541497       0.009
   0.03683405  0.01835616  0.05532451       0.009
   0.05528805  0.01834256  0.05523405       0.009
  -0.03698197  0.01841055  0.05568635       0.009
  -0.01852796  0.01839695  0.05559589       0.009
  -0.00007582  0.03675627  0.05554097       0.009
   0.01837818  0.03674267  0.05545051       0.009
   0.03683219  0.03672907  0.05536005       0.009
   0.05528619  0.03671547  0.05526959       0.009
  -0.03698383  0.03678347  0.05572189       0.009
  -0.01852983  0.03676987  0.05563143       0.009
  -0.00007768  0.05512919  0.05557650       0.005
   0.01837632  0.05511559  0.05548604       0.009
   0.03683032  0.05510199  0.05539558       0.009
   0.05528433  0.05508839  0.05530512       0.005
 
 k-points in reciprocal lattice and weights: HECN                                    
   0.00000000  0.00000000  0.00000000       0.005
   0.16666667 -0.00000000  0.00000000       0.009
   0.33333333 -0.00000000  0.00000000       0.009
   0.50000000 -0.00000000  0.00000000       0.005
  -0.00000000  0.16666667  0.00000000       0.009
   0.16666667  0.16666667  0.00000000       0.009
   0.33333333  0.16666667 -0.00000000       0.009
   0.50000000  0.16666667  0.00000000       0.009
  -0.33333333  0.16666667 -0.00000000       0.009
  -0.16666667  0.16666667 -0.00000000       0.009
  -0.00000000  0.33333333  0.00000000       0.009
   0.16666667  0.33333333  0.00000000       0.009
   0.33333333  0.33333333  0.00000000       0.009
   0.50000000  0.33333333  0.00000000       0.009
  -0.33333333  0.33333333 -0.00000000       0.009
  -0.16666667  0.33333333 -0.00000000       0.009
  -0.00000000  0.50000000 -0.00000000       0.005
   0.16666667  0.50000000  0.00000000       0.009
   0.33333333  0.50000000  0.00000000       0.009
   0.50000000  0.50000000  0.00000000       0.005
  -0.00000000  0.00000000  0.16666667       0.009
   0.16666667 -0.00000000  0.16666667       0.009
   0.33333333 -0.00000000  0.16666667       0.009
   0.50000000 -0.00000000  0.16666667       0.009
  -0.33333333 -0.00000000  0.16666667       0.009
  -0.16666667 -0.00000000  0.16666667       0.009
  -0.00000000  0.16666667  0.16666667       0.009
   0.16666667  0.16666667  0.16666667       0.009
   0.33333333  0.16666667  0.16666667       0.009
   0.50000000  0.16666667  0.16666667       0.009
  -0.33333333  0.16666667  0.16666667       0.009
  -0.16666667  0.16666667  0.16666667       0.009
  -0.00000000  0.33333333  0.16666667       0.009
   0.16666667  0.33333333  0.16666667       0.009
   0.33333333  0.33333333  0.16666667       0.009
   0.50000000  0.33333333  0.16666667       0.009
  -0.33333333  0.33333333  0.16666667       0.009
  -0.16666667  0.33333333  0.16666667       0.009
  -0.00000000  0.50000000  0.16666667       0.009
   0.16666667  0.50000000  0.16666667       0.009
   0.33333333  0.50000000  0.16666667       0.009
   0.50000000  0.50000000  0.16666667       0.009
  -0.33333333  0.50000000  0.16666667       0.009
  -0.16666667  0.50000000  0.16666667       0.009
  -0.00000000 -0.33333333  0.16666667       0.009
   0.16666667 -0.33333333  0.16666667       0.009
   0.33333333 -0.33333333  0.16666667       0.009
   0.50000000 -0.33333333  0.16666667       0.009
  -0.33333333 -0.33333333  0.16666667       0.009
  -0.16666667 -0.33333333  0.16666667       0.009
  -0.00000000 -0.16666667  0.16666667       0.009
   0.16666667 -0.16666667  0.16666667       0.009
   0.33333333 -0.16666667  0.16666667       0.009
   0.50000000 -0.16666667  0.16666667       0.009
  -0.33333333 -0.16666667  0.16666667       0.009
  -0.16666667 -0.16666667  0.16666667       0.009
  -0.00000000 -0.00000000  0.33333333       0.009
   0.16666667  0.00000000  0.33333333       0.009
   0.33333333 -0.00000000  0.33333333       0.009
   0.50000000 -0.00000000  0.33333333       0.009
  -0.33333333 -0.00000000  0.33333333       0.009
  -0.16666667  0.00000000  0.33333333       0.009
  -0.00000000  0.16666667  0.33333333       0.009
   0.16666667  0.16666667  0.33333333       0.009
   0.33333333  0.16666667  0.33333333       0.009
   0.50000000  0.16666667  0.33333333       0.009
  -0.33333333  0.16666667  0.33333333       0.009
  -0.16666667  0.16666667  0.33333333       0.009
  -0.00000000  0.33333333  0.33333333       0.009
   0.16666667  0.33333333  0.33333333       0.009
   0.33333333  0.33333333  0.33333333       0.009
   0.50000000  0.33333333  0.33333333       0.009
  -0.33333333  0.33333333  0.33333333       0.009
  -0.16666667  0.33333333  0.33333333       0.009
  -0.00000000  0.50000000  0.33333333       0.009
   0.16666667  0.50000000  0.33333333       0.009
   0.33333333  0.50000000  0.33333333       0.009
   0.50000000  0.50000000  0.33333333       0.009
  -0.33333333  0.50000000  0.33333333       0.009
  -0.16666667  0.50000000  0.33333333       0.009
  -0.00000000 -0.33333333  0.33333333       0.009
   0.16666667 -0.33333333  0.33333333       0.009
   0.33333333 -0.33333333  0.33333333       0.009
   0.50000000 -0.33333333  0.33333333       0.009
  -0.33333333 -0.33333333  0.33333333       0.009
  -0.16666667 -0.33333333  0.33333333       0.009
  -0.00000000 -0.16666667  0.33333333       0.009
   0.16666667 -0.16666667  0.33333333       0.009
   0.33333333 -0.16666667  0.33333333       0.009
   0.50000000 -0.16666667  0.33333333       0.009
  -0.33333333 -0.16666667  0.33333333       0.009
  -0.16666667 -0.16666667  0.33333333       0.009
  -0.00000000  0.00000000  0.50000000       0.005
   0.16666667 -0.00000000  0.50000000       0.009
   0.33333333 -0.00000000  0.50000000       0.009
   0.50000000 -0.00000000  0.50000000       0.005
  -0.00000000  0.16666667  0.50000000       0.009
   0.16666667  0.16666667  0.50000000       0.009
   0.33333333  0.16666667  0.50000000       0.009
   0.50000000  0.16666667  0.50000000       0.009
  -0.33333333  0.16666667  0.50000000       0.009
  -0.16666667  0.16666667  0.50000000       0.009
  -0.00000000  0.33333333  0.50000000       0.009
   0.16666667  0.33333333  0.50000000       0.009
   0.33333333  0.33333333  0.50000000       0.009
   0.50000000  0.33333333  0.50000000       0.009
  -0.33333333  0.33333333  0.50000000       0.009
  -0.16666667  0.33333333  0.50000000       0.009
  -0.00000000  0.50000000  0.50000000       0.005
   0.16666667  0.50000000  0.50000000       0.009
   0.33333333  0.50000000  0.50000000       0.009
   0.50000000  0.50000000  0.50000000       0.005
 
 position of ions in fractional coordinates (direct lattice) 
   0.99375065  0.99869904  0.99791431
   0.24969581  0.99996327  0.25294603
   0.25148989  0.50043348  0.25018032
   0.49996752  0.50010548  0.00012756
   0.49904481  0.24789586  0.74548406
   0.99817213  0.49990233  0.49676097
   0.49995759  0.75226734  0.74872767
   0.98741531  0.23018904  0.27007538
   0.76984676  0.73638645  0.99769782
   0.01650939  0.27533025  0.75125827
   0.76598240  0.26265670  0.48298220
   0.99526148  0.72486118  0.75350038
   0.26183560  0.49214178  0.74788742
   0.24547348  0.25038577  0.99553414
   0.50463143  0.25405391  0.25159795
   0.74815355  0.99588339  0.25340833
   0.75570540  0.25868474  0.99364820
   0.24218774  0.74968638  0.99798260
   0.24658805  0.25113234  0.50427463
   0.24481074  0.75009088  0.50390001
   0.24493836  0.24850025  0.25163897
   0.25684637  0.99979690  0.99499961
   0.00034968  0.25331962  0.01150705
   0.75073311  0.24833109  0.24486127
   0.74554802  0.99972781  0.00094658
   0.50260459  0.99991274  0.24932571
   0.99530668  0.48949502  0.24275196
   0.50074222  0.76084457  0.00546374
   0.99914975  0.00712107  0.74819380
   0.76107646  0.24086718  0.74401110
   0.74274363  0.00570468  0.50332197
   0.50558334  0.24143298  0.49439544
   0.50057418  0.00023285  0.74795374
   0.99585507  0.99944918  0.25307706
   0.50355983  0.24369838  0.00129961
   0.25112088  0.75098178  0.24944264
   0.24397795  0.49985978  0.99490207
   0.99979253  0.74618820  0.00025238
   0.74671170  0.74832588  0.24497443
   0.75576651  0.50319579  0.99897523
   0.50217824  0.50198106  0.25261955
   0.25013524  0.24906464  0.74970947
   0.24939151  0.00033368  0.50314992
   0.99523596  0.24852367  0.51367175
   0.24117208  0.75220536  0.75132560
   0.25317401  0.49982989  0.50501368
   0.99610236  0.75511642  0.50713587
   0.00278824  0.50044996  0.75219539
   0.75299353  0.75251300  0.75238636
   0.74695815  0.49525495  0.49892326
   0.49978000  0.75100540  0.49684204
   0.49856294  0.49992556  0.74529582
   0.50848914  0.00785773  0.99314520
   0.99924969  0.50320791  0.00063114
   0.49988212  0.74515927  0.25359950
   0.24152283  0.00412548  0.74397306
   0.49013034  0.98798714  0.50276242
   0.75376975  0.98907307  0.75197235
   0.99760228  0.76553028  0.25367829
   0.74309014  0.50604712  0.25063830
   0.00450615  0.00216200  0.49883092
   0.50032646  0.51284693  0.49758957
   0.74033993  0.51228718  0.74791081
   0.75315870  0.73977668  0.49881727
 
 position of ions in cartesian coordinates  (Angst):
   9.02582908  9.04301968  9.00512753
   2.27298272  9.06680845  2.28127779
   2.28572874  4.53545992  2.25721727
   4.51881207  4.53706498  0.00616909
   4.54171922  2.23619618  6.72519986
   9.04029419  4.52701061  4.48865088
   4.55347378  6.81145938  6.75359164
   8.93132967  2.08429470  2.44564795
   7.00187533  6.66330011  9.00099348
   0.18412838  2.48453088  6.77153762
   6.94107496  2.37491058  4.36212701
   9.02684938  6.56320842  6.80247317
   2.40109595  4.45157714  6.74366439
   2.26264630  2.25419802  8.97616044
   4.57039965  2.30067153  2.27338561
   6.77480774  9.03023568  2.29130281
   6.87078908  2.32996940  8.96513574
   2.23641284  6.78347176  8.99734408
   2.25101722  2.26953422  4.54797897
   2.23828012  6.79575551  4.54373381
   2.22494087  2.25005975  2.27071652
   2.37034063  9.05237130  8.97020280
   0.00535770  2.29774499  0.10329795
   6.79273656  2.24909527  2.21556003
   6.74014957  9.06950787  0.01558576
   4.55697359  9.06663904  2.25161312
   9.00312507  4.43702746  2.19900797
   4.52778535  6.90222230  0.05383547
   9.05694008  0.05244871  6.75590459
   6.90815176  2.17269648  6.71501038
   6.73037648  0.04363935  4.54563253
   4.58963769  2.18195175  4.46198492
   4.55398742 -0.01047772  6.74790005
   9.01193858  9.06280921  2.29121825
   4.54959600  2.21109498  0.01721162
   2.28403617  6.80827809  2.25013801
   2.25077708  4.51726819  8.97002164
   9.03464101  6.76980627  0.01274332
   6.75976035  6.78470616  2.21568351
   6.87320874  4.54791635  9.01273879
   4.54994404  4.54967994  2.28214444
   2.29388156  2.24650264  6.76036382
   2.27461264 -0.00552039  4.53829979
   9.01284483  2.24637515  4.64147643
   2.21636113  6.81062068  6.77397172
   2.31219159  4.52554422  4.55429562
   9.02376320  6.84195858  4.58171199
   0.06174993  4.52663695  6.77944135
   6.83893656  6.81385011  6.78954071
   6.77151413  4.48459061  4.50520071
   4.54073489  6.80440225  4.48310484
   4.53904161  4.52244304  6.72306929
   4.63635318  0.05442330  8.95812589
   9.02813278  4.56564531  0.01656370
   4.53087348  6.75560998  2.29053761
   2.21420964  0.02467155  6.70897096
   4.45542752  8.95402941  4.53595520
   6.84750809  8.95977188  6.78541613
   9.02618338  6.94084531  2.29705556
   6.72568471  4.58681423  2.26710645
   0.06274664  0.01092144  4.49649090
   4.54411320  4.64397618  4.49025399
   6.72285372  4.63474974  6.74945779
   6.82914241  6.70273477  4.50390276
 


--------------------------------------------------------------------------------------------------------


 k-point  1 :   0.0000 0.0000 0.0000  plane waves:   13383
 k-point  2 :   0.1667-0.0000 0.0000  plane waves:   13406
 k-point  3 :   0.3333-0.0000 0.0000  plane waves:   13412
 k-point  4 :   0.5000-0.0000 0.0000  plane waves:   13418
 k-point  5 :  -0.0000 0.1667 0.0000  plane waves:   13421
 k-point  6 :   0.1667 0.1667 0.0000  plane waves:   13416
 k-point  7 :   0.3333 0.1667-0.0000  plane waves:   13414
 k-point  8 :   0.5000 0.1667 0.0000  plane waves:   13409
 k-point  9 :  -0.3333 0.1667-0.0000  plane waves:   13421
 k-point 10 :  -0.1667 0.1667-0.0000  plane waves:   13422
 k-point 11 :  -0.0000 0.3333 0.0000  plane waves:   13424
 k-point 12 :   0.1667 0.3333 0.0000  plane waves:   13414
 k-point 13 :   0.3333 0.3333 0.0000  plane waves:   13434
 k-point 14 :   0.5000 0.3333 0.0000  plane waves:   13437
 k-point 15 :  -0.3333 0.3333-0.0000  plane waves:   13440
 k-point 16 :  -0.1667 0.3333-0.0000  plane waves:   13412
 k-point 17 :  -0.0000 0.5000-0.0000  plane waves:   13436
 k-point 18 :   0.1667 0.5000 0.0000  plane waves:   13406
 k-point 19 :   0.3333 0.5000 0.0000  plane waves:   13415
 k-point 20 :   0.5000 0.5000 0.0000  plane waves:   13442
 k-point 21 :  -0.0000 0.0000 0.1667  plane waves:   13403
 k-point 22 :   0.1667-0.0000 0.1667  plane waves:   13391
 k-point 23 :   0.3333-0.0000 0.1667  plane waves:   13422
 k-point 24 :   0.5000-0.0000 0.1667  plane waves:   13414
 k-point 25 :  -0.3333-0.0000 0.1667  plane waves:   13411
 k-point 26 :  -0.1667-0.0000 0.1667  plane waves:   13408
 k-point 27 :  -0.0000 0.1667 0.1667  plane waves:   13419
 k-point 28 :   0.1667 0.1667 0.1667  plane waves:   13426
 k-point 29 :   0.3333 0.1667 0.1667  plane waves:   13420
 k-point 30 :   0.5000 0.1667 0.1667  plane waves:   13417
 k-point 31 :  -0.3333 0.1667 0.1667  plane waves:   13404
 k-point 32 :  -0.1667 0.1667 0.1667  plane waves:   13410
 k-point 33 :  -0.0000 0.3333 0.1667  plane waves:   13416
 k-point 34 :   0.1667 0.3333 0.1667  plane waves:   13421
 k-point 35 :   0.3333 0.3333 0.1667  plane waves:   13416
 k-point 36 :   0.5000 0.3333 0.1667  plane waves:   13429
 k-point 37 :  -0.3333 0.3333 0.1667  plane waves:   13413
 k-point 38 :  -0.1667 0.3333 0.1667  plane waves:   13402
 k-point 39 :  -0.0000 0.5000 0.1667  plane waves:   13414
 k-point 40 :   0.1667 0.5000 0.1667  plane waves:   13426
 k-point 41 :   0.3333 0.5000 0.1667  plane waves:   13417
 k-point 42 :   0.5000 0.5000 0.1667  plane waves:   13438
 k-point 43 :  -0.3333 0.5000 0.1667  plane waves:   13422
 k-point 44 :  -0.1667 0.5000 0.1667  plane waves:   13429
 k-point 45 :  -0.0000-0.3333 0.1667  plane waves:   13412
 k-point 46 :   0.1667-0.3333 0.1667  plane waves:   13416
 k-point 47 :   0.3333-0.3333 0.1667  plane waves:   13428
 k-point 48 :   0.5000-0.3333 0.1667  plane waves:   13416
 k-point 49 :  -0.3333-0.3333 0.1667  plane waves:   13412
 k-point 50 :  -0.1667-0.3333 0.1667  plane waves:   13410
 k-point 51 :  -0.0000-0.1667 0.1667  plane waves:   13416
 k-point 52 :   0.1667-0.1667 0.1667  plane waves:   13422
 k-point 53 :   0.3333-0.1667 0.1667  plane waves:   13429
 k-point 54 :   0.5000-0.1667 0.1667  plane waves:   13416
 k-point 55 :  -0.3333-0.1667 0.1667  plane waves:   13405
 k-point 56 :  -0.1667-0.1667 0.1667  plane waves:   13407
 k-point 57 :  -0.0000-0.0000 0.3333  plane waves:   13410
 k-point 58 :   0.1667 0.0000 0.3333  plane waves:   13420
 k-point 59 :   0.3333-0.0000 0.3333  plane waves:   13437
 k-point 60 :   0.5000-0.0000 0.3333  plane waves:   13429
 k-point 61 :  -0.3333-0.0000 0.3333  plane waves:   13416
 k-point 62 :  -0.1667 0.0000 0.3333  plane waves:   13414
 k-point 63 :  -0.0000 0.1667 0.3333  plane waves:   13415
 k-point 64 :   0.1667 0.1667 0.3333  plane waves:   13416
 k-point 65 :   0.3333 0.1667 0.3333  plane waves:   13411
 k-point 66 :   0.5000 0.1667 0.3333  plane waves:   13418
 k-point 67 :  -0.3333 0.1667 0.3333  plane waves:   13406
 k-point 68 :  -0.1667 0.1667 0.3333  plane waves:   13403
 k-point 69 :  -0.0000 0.3333 0.3333  plane waves:   13428
 k-point 70 :   0.1667 0.3333 0.3333  plane waves:   13420
 k-point 71 :   0.3333 0.3333 0.3333  plane waves:   13399
 k-point 72 :   0.5000 0.3333 0.3333  plane waves:   13390
 k-point 73 :  -0.3333 0.3333 0.3333  plane waves:   13395
 k-point 74 :  -0.1667 0.3333 0.3333  plane waves:   13411
 k-point 75 :  -0.0000 0.5000 0.3333  plane waves:   13413
 k-point 76 :   0.1667 0.5000 0.3333  plane waves:   13413
 k-point 77 :   0.3333 0.5000 0.3333  plane waves:   13397
 k-point 78 :   0.5000 0.5000 0.3333  plane waves:   13420
 k-point 79 :  -0.3333 0.5000 0.3333  plane waves:   13395
 k-point 80 :  -0.1667 0.5000 0.3333  plane waves:   13413
 k-point 81 :  -0.0000-0.3333 0.3333  plane waves:   13434
 k-point 82 :   0.1667-0.3333 0.3333  plane waves:   13416
 k-point 83 :   0.3333-0.3333 0.3333  plane waves:   13406
 k-point 84 :   0.5000-0.3333 0.3333  plane waves:   13398
 k-point 85 :  -0.3333-0.3333 0.3333  plane waves:   13393
 k-point 86 :  -0.1667-0.3333 0.3333  plane waves:   13418
 k-point 87 :  -0.0000-0.1667 0.3333  plane waves:   13422
 k-point 88 :   0.1667-0.1667 0.3333  plane waves:   13411
 k-point 89 :   0.3333-0.1667 0.3333  plane waves:   13410
 k-point 90 :   0.5000-0.1667 0.3333  plane waves:   13415
 k-point 91 :  -0.3333-0.1667 0.3333  plane waves:   13408
 k-point 92 :  -0.1667-0.1667 0.3333  plane waves:   13406
 k-point 93 :  -0.0000 0.0000 0.5000  plane waves:   13420
 k-point 94 :   0.1667-0.0000 0.5000  plane waves:   13419
 k-point 95 :   0.3333-0.0000 0.5000  plane waves:   13427
[...]
  in kB      -0.79441     0.52269     0.57573     0.82407    -0.01534     0.39725
  external pressure =        0.10 kB  Pullay stress =        0.00 kB


 VOLUME and BASIS-vectors are now :
 -----------------------------------------------------------------------------
  energy-cutoff  :      400.00
  volume of cell :      738.49
      direct lattice vectors                 reciprocal lattice vectors
     9.031521718  0.000893275  0.011738186     0.110724026 -0.000081594 -0.000542760
     0.006676459  9.071327501 -0.001698513    -0.000011180  0.110237497  0.000213222
     0.044172835 -0.017430404  9.013959363    -0.000144189  0.000020878  0.110939787

  length of vectors
     9.031529391  9.071330117  9.014084449     0.110725386  0.110237704  0.110939883


 FORCES acting on ions
    electron-ion (+dipol)            ewald-force                    non-local-force                 convergence-correction
 -----------------------------------------------------------------------------------------------
   -.565E+02 -.279E+02 0.857E+01   0.567E+02 0.277E+02 -.726E+01   0.248E+00 0.127E+01 -.653E+00   -.418E+00 -.103E+01 -.618E+00
   -.768E+02 -.366E+01 0.479E+02   0.764E+02 0.290E+01 -.469E+02   0.868E+00 0.156E+01 -.153E+01   -.459E+00 -.785E+00 0.406E+00
   -.195E+02 0.672E+01 0.372E+02   0.207E+02 -.618E+01 -.372E+02   -.107E+01 -.128E+01 -.320E-01   -.185E+00 0.736E+00 0.995E-01
   0.737E+02 0.392E+02 -.208E+02   -.743E+02 -.421E+02 0.211E+02   0.436E+00 0.183E+01 -.403E+00   0.224E+00 0.103E+01 0.716E-01
   0.510E+01 0.228E+02 -.461E+02   -.613E+01 -.202E+02 0.471E+02   0.108E+01 -.140E+01 -.825E+00   -.924E-01 -.120E+01 -.126E+00
   -.116E+03 -.181E+02 0.165E+02   0.117E+03 0.174E+02 -.170E+02   -.438E+00 -.545E+00 0.689E-01   0.325E-01 0.126E+01 0.351E+00
   0.992E+02 -.361E+02 -.539E+02   -.998E+02 0.334E+02 0.533E+02   0.143E+00 0.146E+01 0.115E+01   0.412E+00 0.125E+01 -.465E+00
   -.105E+03 -.297E+02 0.101E+03   0.105E+03 0.298E+02 -.993E+02   -.446E+00 0.146E+01 -.128E+01   0.444E+00 -.139E+01 -.348E+00
   0.923E+02 -.807E+02 -.303E+02   -.919E+02 0.774E+02 0.310E+02   -.106E+01 0.203E+01 -.552E+00   0.525E+00 0.133E+01 -.213E+00
   0.684E+01 0.757E+02 -.592E+02   -.608E+01 -.732E+02 0.570E+02   -.825E+00 -.147E+01 0.204E+01   0.146E+00 -.104E+01 0.161E+00
   0.108E+03 0.781E+02 -.743E+02   -.107E+03 -.755E+02 0.747E+02   -.116E+01 -.164E+01 -.955E+00   -.208E-01 -.105E+01 0.413E+00
   -.115E+03 -.977E+02 -.437E+01   0.116E+03 0.949E+02 0.333E+01   -.968E+00 0.137E+01 0.953E+00   -.246E+00 0.146E+01 0.386E-01
   -.684E+01 -.432E+02 -.409E+02   0.908E+01 0.426E+02 0.407E+02   -.146E+01 -.139E+00 0.210E+00   -.666E+00 0.791E+00 -.673E-01
   -.627E+02 0.760E+01 -.414E+02   0.640E+02 -.524E+01 0.410E+02   -.899E+00 -.140E+01 0.672E+00   -.425E+00 -.925E+00 -.264E+00
   0.698E+02 0.392E+02 0.561E+02   -.698E+02 -.369E+02 -.570E+02   -.551E-03 -.165E+01 0.676E+00   -.910E-01 -.698E+00 0.120E+00
   0.705E+02 -.641E+01 0.398E+02   -.700E+02 0.588E+01 -.392E+02   -.833E+00 0.183E+01 -.325E+00   0.292E+00 -.119E+01 -.156E+00
   0.523E+02 0.356E+02 0.513E+01   -.538E+02 -.326E+02 -.529E+01   0.106E+01 -.203E+01 0.380E+00   0.401E+00 -.954E+00 -.229E+00
   -.500E+02 -.596E+01 -.540E+01   0.496E+02 0.387E+01 0.605E+01   0.981E+00 0.108E+01 -.222E+00   -.572E+00 0.967E+00 -.370E+00
   -.573E+02 0.605E+01 0.337E+02   0.567E+02 -.449E+01 -.333E+02   0.786E+00 -.444E+00 -.637E+00   -.193E+00 -.107E+01 0.203E+00
   -.198E+02 -.351E+01 0.540E+01   0.196E+02 0.204E+01 -.595E+01   0.355E+00 0.273E+00 0.139E+00   -.237E+00 0.112E+01 0.355E+00
   -.351E+02 -.712E+01 0.225E+02   0.363E+02 0.859E+01 -.231E+02   -.101E+01 -.106E+01 0.477E+00   -.796E-01 -.421E+00 0.939E-01
   -.184E+02 0.760E+00 -.217E+01   0.180E+02 -.996E+00 0.379E+01   0.724E+00 0.603E+00 -.136E+01   -.365E+00 -.350E+00 -.279E+00
   -.143E+02 0.878E+01 -.746E+01   0.148E+02 -.880E+01 0.850E+01   -.466E+00 0.562E+00 -.863E+00   -.408E-01 -.525E+00 -.149E+00
   0.543E+02 0.339E+02 0.663E+02   -.569E+02 -.330E+02 -.703E+02   0.267E+01 -.403E+00 0.425E+01   -.564E-01 -.439E+00 -.347E+00
   0.192E+02 -.229E+02 -.174E+02   -.183E+02 0.238E+02 0.198E+02   -.123E+01 -.367E+00 -.213E+01   0.360E+00 -.482E+00 -.308E+00
   0.696E+01 -.160E+02 0.175E+02   -.768E+01 0.174E+02 -.178E+02   0.621E+00 -.807E+00 0.168E+00   0.116E+00 -.491E+00 0.182E+00
   -.483E+02 0.383E+01 0.169E+02   0.492E+02 -.346E+01 -.157E+02   -.858E+00 -.736E+00 -.109E+01   -.878E-01 0.405E+00 -.439E-01
   0.307E+02 -.130E+02 -.111E+02   -.313E+02 0.116E+02 0.100E+02   0.288E+00 0.999E+00 0.104E+01   0.265E+00 0.358E+00 0.541E-01
   -.796E+01 0.183E+01 -.223E+02   0.742E+01 -.141E+01 0.224E+02   0.573E+00 0.189E+00 -.151E+00   -.101E+00 -.597E+00 0.208E-01
   0.152E+02 0.203E+02 -.180E+02   -.160E+02 -.197E+02 0.178E+02   0.630E+00 0.583E-01 -.109E+00   0.154E+00 -.685E+00 0.253E+00
   0.358E+02 -.123E+02 -.908E+00   -.361E+02 0.131E+02 0.761E-01   0.166E+00 0.383E-02 0.475E+00   0.104E+00 -.834E+00 0.366E+00
   0.254E+02 0.212E+02 0.135E+02   -.254E+02 -.201E+02 -.130E+02   0.232E+00 -.565E+00 -.482E+00   -.225E+00 -.510E+00 -.146E-01
   0.194E+02 -.102E+02 -.104E+02   -.202E+02 0.108E+02 0.103E+02   0.669E+00 -.110E+00 0.307E+00   0.212E+00 -.494E+00 -.169E+00
   -.751E+01 -.517E+01 0.362E+02   0.786E+01 0.404E+01 -.368E+02   -.291E+00 0.153E+01 0.626E+00   -.490E-01 -.393E+00 -.188E-01
   0.155E+02 -.367E+01 -.182E+02   -.156E+02 0.542E+01 0.181E+02   0.882E-01 -.128E+01 0.105E+00   0.422E-01 -.364E+00 -.690E-02
   -.194E+02 0.352E+01 0.999E+01   0.192E+02 -.422E+01 -.100E+02   0.343E+00 0.303E+00 -.485E-01   -.770E-01 0.373E+00 0.615E-01
   -.152E+02 -.573E+00 -.148E+02   0.162E+02 0.598E+00 0.164E+02   -.898E+00 -.279E+00 -.153E+01   -.174E+00 0.258E+00 -.138E+00
   -.553E+02 -.158E+02 -.325E+01   0.576E+02 0.164E+02 0.465E+01   -.220E+01 -.996E+00 -.111E+01   -.129E+00 0.443E+00 -.238E+00
   0.252E+02 -.422E+02 0.179E+02   -.252E+02 0.424E+02 -.171E+02   0.394E-01 -.506E+00 -.848E+00   -.394E-01 0.317E+00 0.500E-01
   0.190E+02 0.428E+02 -.246E+01   -.201E+02 -.450E+02 0.237E+01   0.108E+01 0.189E+01 0.120E+00   0.132E+00 0.371E+00 0.647E-03
   0.445E+02 0.236E+02 0.316E+02   -.455E+02 -.247E+02 -.323E+02   0.800E+00 0.753E+00 0.645E+00   0.143E+00 0.393E+00 0.752E-01
   -.270E+02 0.230E+02 -.136E+02   0.291E+02 -.234E+02 0.135E+02   -.182E+01 0.859E+00 0.115E+00   -.155E+00 -.466E+00 -.488E-01
   -.286E+02 0.332E-01 0.198E+01   0.283E+02 0.442E-01 -.322E+01   0.435E+00 0.205E+00 0.103E+01   -.169E+00 -.264E+00 0.208E+00
   -.434E+02 0.311E-01 -.161E+02   0.441E+02 0.513E+00 0.172E+02   -.101E+01 -.798E-01 -.120E+01   0.314E+00 -.472E+00 0.157E+00
   -.140E+02 -.110E+02 -.101E+02   0.155E+02 0.113E+02 0.996E+01   -.114E+01 -.737E+00 0.124E+00   -.274E+00 0.427E+00 -.397E-01
   0.865E+01 -.147E+01 0.170E+02   -.932E+01 0.143E+01 -.187E+02   0.776E+00 -.186E+00 0.158E+01   -.108E+00 0.237E+00 0.130E+00
   -.458E+02 0.497E+00 -.763E+01   0.463E+02 -.963E+00 0.660E+01   -.391E+00 0.170E-01 0.791E+00   -.156E+00 0.437E+00 0.214E+00
   -.215E+02 0.651E+01 -.849E+01   0.208E+02 -.710E+01 0.738E+01   0.704E+00 0.966E-01 0.107E+01   0.127E-01 0.472E+00 0.357E-01
   0.162E+02 -.394E+02 -.979E+01   -.182E+02 0.388E+02 0.871E+01   0.175E+01 -.412E-01 0.116E+01   0.227E+00 0.592E+00 -.848E-01
   0.188E+01 0.149E+02 -.886E+01   -.143E+01 -.146E+02 0.937E+01   -.460E+00 -.979E+00 -.431E+00   0.258E-01 0.678E+00 -.124E-01
   0.396E+02 -.340E+02 0.620E+01   -.403E+02 0.331E+02 -.525E+01   0.421E+00 0.500E+00 -.938E+00   0.200E+00 0.405E+00 -.158E-01
   0.209E+02 0.130E+02 -.279E+02   -.197E+02 -.133E+02 0.285E+02   -.127E+01 -.403E-01 -.568E+00   -.428E-02 0.343E+00 -.421E-01
   0.518E+02 -.206E+02 -.458E+02   -.525E+02 0.229E+02 0.463E+02   -.487E-01 -.137E+01 -.696E-01   0.515E+00 -.943E+00 -.373E+00
   -.791E+02 0.374E+02 -.207E+02   0.800E+02 -.380E+02 0.219E+02   -.798E+00 -.476E+00 -.862E+00   -.147E+00 0.978E+00 -.333E+00
   0.734E+02 -.629E+02 0.532E+02   -.747E+02 0.605E+02 -.531E+02   0.648E+00 0.156E+01 -.619E+00   0.577E+00 0.867E+00 0.369E+00
   -.418E+02 0.283E+02 -.407E+02   0.418E+02 -.279E+02 0.398E+02   0.718E+00 0.388E+00 0.137E+01   -.663E+00 -.790E+00 -.325E+00
   0.255E+02 -.376E+02 0.329E+02   -.267E+02 0.375E+02 -.333E+02   0.130E+01 0.123E+01 0.614E-01   0.250E-02 -.105E+01 0.309E+00
   0.233E+02 -.535E+02 -.177E+02   -.229E+02 0.540E+02 0.166E+02   -.754E+00 0.719E+00 0.827E+00   0.492E+00 -.112E+01 0.130E+00
   -.915E+02 0.401E+02 0.278E+02   0.920E+02 -.409E+02 -.277E+02   -.415E-03 -.630E+00 -.955E-01   -.395E+00 0.129E+01 0.400E-01
   0.266E+02 0.317E+02 0.825E+02   -.264E+02 -.332E+02 -.824E+02   -.131E+00 -.483E+00 -.689E-01   -.133E-01 0.177E+01 -.787E-01
   -.366E+02 0.239E+02 -.458E+02   0.365E+02 -.226E+02 0.452E+02   -.151E+00 0.117E+00 -.130E+00   0.228E+00 -.138E+01 0.678E+00
   0.112E+03 0.671E+02 0.151E+02   -.113E+03 -.680E+02 -.149E+02   0.931E-01 -.654E+00 0.102E+00   0.222E+00 0.148E+01 -.184E+00
   0.220E+02 0.106E+03 -.581E+02   -.232E+02 -.107E+03 0.581E+02   0.509E+00 -.407E+00 -.716E-03   0.637E+00 0.143E+01 0.355E-01
   0.266E+02 -.104E+03 0.155E+02   -.265E+02 0.103E+03 -.158E+02   -.166E+00 0.384E+00 0.259E-01   0.105E+00 0.139E+01 0.252E+00
 -----------------------------------------------------------------------------------------------
   0.159E+01 -.328E+01 -.470E+00   0.256E-12 0.853E-12 0.277E-12   -.202E+01 0.195E+01 0.652E+00   0.446E+00 0.126E+01 -.170E+00
 
 
 POSITION                                       TOTAL-FORCE (eV/Angst)
 -----------------------------------------------------------------------------------
      9.02583      9.04302      9.00513         0.104799      0.027378      0.032864
      2.27298      9.06681      2.28128         0.058730      0.020773     -0.111634
      2.28573      4.53546      2.25722        -0.058878     -0.000125      0.010141
      4.51881      4.53706      0.00617        -0.009973     -0.061542     -0.034394
      4.54172      2.23620      6.72520        -0.042046      0.004521      0.047828
      9.04029      4.52701      4.48865        -0.003298     -0.012943     -0.033048
      4.55347      6.81146      6.75359        -0.077463     -0.018212      0.141104
      8.93133      2.08429      2.44565        -0.041079      0.128337      0.071266
      7.00188      6.66330      9.00099        -0.172870      0.070680     -0.031103
      0.18413      2.48453      6.77154         0.080144     -0.039278      0.017923
      6.94107      2.37491      4.36213         0.066954     -0.044835     -0.185315
      9.02685      6.56321      6.80247         0.041244      0.024047     -0.052097
      2.40110      4.45158      6.74366         0.117497      0.012828     -0.011420
      2.26265      2.25420      8.97616         0.047601      0.033566      0.031665
      4.57040      2.30067      2.27339        -0.032799     -0.027501     -0.044224
      6.77481      9.03024      2.29130        -0.057433      0.113604      0.112497
      6.87079      2.32997      8.96514        -0.049621      0.014559     -0.008768
      2.23641      6.78347      8.99734         0.105608     -0.048407      0.059860
      2.25102      2.26953      4.54798         0.007173      0.037084     -0.023808
      2.23828      6.79576      4.54373        -0.033605     -0.070475     -0.053932
      2.22494      2.25006      2.27072         0.058340     -0.007687     -0.008842
      2.37034      9.05237      8.97020        -0.050547      0.017647     -0.014769
      0.00536      2.29774      0.10330         0.006286      0.016457      0.033958
      6.79274      2.24910      2.21556        -0.034433      0.033177     -0.078367
      6.74015      9.06951      0.01559         0.003073      0.028936     -0.060142
      4.55697      9.06664      2.25161         0.020163      0.012789      0.014301
      9.00313      4.43703      2.19901         0.017095      0.044252     -0.006098
      4.52779      6.90222      0.05384        -0.044413     -0.065053     -0.010596
      9.05694      0.05245      6.75590        -0.074624      0.015752      0.009771
      6.90815      2.17270      6.71501        -0.014482     -0.005147      0.008410
      6.73038      0.04364      4.54563         0.008490     -0.011595      0.008275
      4.58964      2.18195      4.46198        -0.026161      0.036241      0.005078
      4.55399     -0.01048      6.74790         0.021272     -0.000524     -0.018124
      9.01194      9.06281      2.29122         0.013116      0.007753      0.024084
      4.54960      2.21109      0.01721         0.000048      0.109501      0.018405
      2.28404      6.80828      2.25014         0.070878     -0.017442      0.001283
      2.25078      4.51727      8.97002        -0.019077      0.006028      0.010887
      9.03464      6.76981      0.01274         0.009827     -0.010059      0.051529
      6.75976      6.78471      2.21568         0.041505     -0.016072      0.020738
      6.87321      4.54792      9.01274         0.061362     -0.006680      0.034210
      4.54994      4.54968      2.28214        -0.011892     -0.004549     -0.001010
      2.29388      2.24650      6.76036         0.055614      0.055353     -0.026590
      2.27461     -0.00552      4.53830         0.014827      0.018818      0.000002
      9.01284      2.24638      4.64148        -0.035516     -0.006330      0.034196
      2.21636      6.81062      6.77397         0.034103     -0.016862     -0.012136
      2.31219      4.52554      4.55430         0.002640      0.013473     -0.017063
      9.02376      6.84196      4.58171         0.029243     -0.010490     -0.023879
      0.06175      4.52664      6.77944        -0.015569     -0.014391     -0.001105
      6.83894      6.81385      6.78954        -0.029259     -0.085663     -0.003263
      6.77151      4.48459      4.50520         0.010274      0.003855      0.064138
      4.54073      6.80440      4.48310        -0.031841     -0.019244     -0.007494
      4.53904      4.52244      6.72307        -0.007772      0.023626     -0.015942
      4.63635      0.05442      8.95813        -0.149829     -0.014830      0.091475
      9.02813      4.56565      0.01656        -0.028765     -0.034090      0.020154
      4.53087      6.75561      2.29054        -0.108423     -0.011005     -0.152993
      2.21421      0.02467      6.70897         0.029884     -0.031049      0.110977
      4.45543      8.95403      4.53596         0.063416      0.104416     -0.009820
      6.84751      8.95977      6.78542         0.076965      0.026637     -0.124285
      9.02618      6.94085      2.29706         0.044787     -0.130392      0.001498
      6.72568      4.58681      2.26711         0.099134     -0.202863      0.013584
      0.06275      0.01092      4.49649        -0.117496      0.039316     -0.025018
      4.54411      4.64398      4.49025        -0.046274     -0.137322      0.067135
      6.72285      4.63475      6.74946        -0.071769      0.052607      0.011468
      6.82914      6.70273      4.50390         0.075116      0.028645      0.026575
 -----------------------------------------------------------------------------------
    total drift:                                0.011808     -0.060486      0.011718


--------------------------------------------------------------------------------------------------------



  FREE ENERGIE OF THE ION-ELECTRON SYSTEM (eV)
  ---------------------------------------------------
  free  energy   TOTEN  =      -675.04537189 eV

  energy  without entropy=     -674.95128662  energy(sigma->0) =     -674.99832925
 


--------------------------------------------------------------------------------------------------------


    POTLOK:  cpu time    0.0232: real time    0.0242


--------------------------------------------------------------------------------------------------------


     LOOP+:  cpu time 3013.8036: real time 3014.1930
    4ORBIT:  cpu time    0.0000: real time    0.0000
 


 total charge     
 
# of ion       s       p       d       tot
------------------------------------------
    1        2.160   6.296   1.730  10.186
    2        2.169   6.338   1.770  10.277
    3        2.173   6.342   1.751  10.265
    4        2.167   6.331   1.786  10.284
    5        2.167   6.326   1.761  10.254
    6        2.169   6.344   1.789  10.303
    7        2.167   6.332   1.777  10.277
    8        0.342   6.308   3.429  10.078
    9        0.356   6.329   3.434  10.119
   10        0.358   6.316   3.473  10.147
   11        0.351   6.311   3.451  10.113
   12        0.365   6.343   3.427  10.135
   13        0.356   6.355   3.378  10.089
   14        0.306   6.621   1.766   8.693
   15        0.305   6.605   1.705   8.615
   16        0.302   6.604   1.737   8.644
   17        0.302   6.589   1.709   8.601
   18        0.317   6.648   1.764   8.729
   19        0.308   6.634   1.796   8.738
   20        0.318   6.679   1.826   8.823
   21        1.250   2.425   0.000   3.674
   22        1.249   2.428   0.000   3.677
   23        1.248   2.428   0.000   3.676
   24        1.250   2.448   0.000   3.698
   25        1.251   2.430   0.000   3.682
   26        1.247   2.433   0.000   3.679
   27        1.249   2.406   0.000   3.656
   28        1.249   2.412   0.000   3.660
   29        1.250   2.399   0.000   3.649
   30        1.244   2.390   0.000   3.634
   31        1.244   2.397   0.000   3.641
   32        1.250   2.417   0.000   3.667
   33        1.250   2.437   0.000   3.687
   34        0.887   1.578   0.000   2.465
   35        0.879   1.576   0.000   2.455
   36        0.880   1.553   0.000   2.434
   37        0.877   1.566   0.000   2.443
   38        0.876   1.585   0.000   2.462
   39        0.870   1.550   0.000   2.420
   40        0.878   1.571   0.000   2.449
   41        0.885   1.573   0.000   2.459
   42        0.878   1.586   0.000   2.465
   43        0.881   1.581   0.000   2.462
   44        0.871   1.581   0.000   2.453
   45        0.867   1.546   0.000   2.413
   46        0.881   1.558   0.000   2.438
   47        0.875   1.543   0.000   2.418
   48        0.880   1.580   0.000   2.460
   49        0.875   1.559   0.000   2.434
   50        0.881   1.552   0.000   2.433
   51        0.883   1.576   0.000   2.459
   52        0.884   1.558   0.000   2.442
   53        0.291   6.232   2.311   8.834
   54        0.303   6.263   2.362   8.929
   55        0.298   6.249   2.333   8.880
   56        0.290   6.231   2.309   8.830
   57        0.292   6.228   2.326   8.846
   58        0.283   6.211   2.274   8.768
   59        2.110   5.949   2.185  10.244
   60        2.111   5.955   2.192  10.259
   61        2.111   5.954   2.181  10.246
   62        2.115   5.960   2.210  10.286
   63        2.109   5.948   2.212  10.269
   64        2.108   5.950   2.176  10.234
--------------------------------------------------
tot         66.798 263.004  72.333 402.135
 

 total amount of memory used by VASP MPI-rank0  1907824. kBytes
=======================================================================

   base      :      30000. kBytes
   nonl-proj :    1533818. kBytes
   fftplans  :       1726. kBytes
   grid      :       8060. kBytes
   one-center:        995. kBytes
   wavefun   :     333225. kBytes
 
  
  
 General timing and accounting informations for this job:
 ========================================================
  
                  Total CPU time used (sec):     3064.174
                            User time (sec):     3051.370
                          System time (sec):       12.804
                         Elapsed time (sec):     3065.028
  
                   Maximum memory used (kb):     2015820.
                   Average memory used (kb):           0.
  
                          Minor page faults:       487314
                          Major page faults:            0
                 Voluntary context switches:         3606
