 running on   24 total cores
 distrk:  each k-point on   24 cores,    1 groups
 distr:  one band on    1 cores,   24 groups
 using from now: INCAR     
 vasp.5.4.4.18Apr17-6-g9f103f2a35 (build Oct 18 2021 20:38:43) complex          
  
 POSCAR found type information on POSCAR  Ti Nb V  N  C  Zr Mo
 POSCAR found :  7 types and      64 ions
 scaLAPACK will be used

 ----------------------------------------------------------------------------- 
|                                                                             |
|           W    W    AA    RRRRR   N    N  II  N    N   GGGG   !!!           |
|           W    W   A  A   R    R  NN   N  II  NN   N  G    G  !!!           |
|           W    W  A    A  R    R  N N  N  II  N N  N  G       !!!           |
|           W WW W  AAAAAA  RRRRR   N  N N  II  N  N N  G  GGG   !            |
|           WW  WW  A    A  R   R   N   NN  II  N   NN  G    G                |
|           W    W  A    A  R    R  N    N  II  N    N   GGGG   !!!           |
|                                                                             |
|      For optimal performance we recommend to set                            |
|        NCORE= 4 - approx SQRT( number of cores)                             |
|      NCORE specifies how many cores store one orbital (NPAR=cpu/NCORE).     |
|      This setting can  greatly improve the performance of VASP for DFT.     |
|      The default,   NCORE=1            might be grossly inefficient         |
|      on modern multi-core architectures or massively parallel machines.     |
|      Do your own testing !!!!                                               |
|      Unfortunately you need to use the default for GW and RPA calculations. |
|      (for HF NCORE is supported but not extensively tested yet)             |
|                                                                             |
 ----------------------------------------------------------------------------- 


 ----------------------------------------------------------------------------- 
|                                                                             |
|  ADVICE TO THIS USER RUNNING 'VASP/VAMP'   (HEAR YOUR MASTER'S VOICE ...):  |
|                                                                             |
|      You have a (more or less) 'large supercell' and for larger cells       |
|      it might be more efficient to use real space projection operators      |
|      So try LREAL= Auto  in the INCAR   file.                               |
|      Mind: If you want to do a very accurate calculations keep the          |
|      reciprocal projection scheme          (i.e. LREAL=.FALSE.)             |
|                                                                             |
 ----------------------------------------------------------------------------- 

 LDA part: xc-table for Pade appr. of Perdew
 POSCAR, INCAR and KPOINTS ok, starting setup
 FFT: planning ...
 WAVECAR not read
 entering main loop
       N       E                     dE             d eps       ncg     rms          rms(c)
DAV:   1     0.602851016435E+04    0.60285E+04   -0.21296E+05  8736   0.146E+03
DAV:   2     0.291132000295E+03   -0.57374E+04   -0.55533E+04  8736   0.613E+02
DAV:   3    -0.662264309392E+03   -0.95340E+03   -0.91254E+03 14736   0.192E+02
DAV:   4    -0.769364776668E+03   -0.10710E+03   -0.10535E+03 14880   0.722E+01
DAV:   5    -0.781585997710E+03   -0.12221E+02   -0.12144E+02 17136   0.231E+01    0.706E+01
RMM:   6    -0.731562995164E+03    0.50023E+02   -0.16898E+03 12620   0.680E+01    0.763E+01
RMM:   7    -0.659293741048E+03    0.72269E+02   -0.21406E+02 10451   0.461E+01    0.376E+01
RMM:   8    -0.632474585339E+03    0.26819E+02   -0.48245E+01 13653   0.135E+01    0.156E+01
RMM:   9    -0.630152107685E+03    0.23225E+01   -0.11437E+01 13088   0.832E+00    0.923E+00
RMM:  10    -0.630227801372E+03   -0.75694E-01   -0.64587E+00 13817   0.413E+00    0.916E+00
RMM:  11    -0.629949018703E+03    0.27878E+00   -0.39355E+00 13606   0.364E+00    0.603E+00
RMM:  12    -0.629912410070E+03    0.36609E-01   -0.20044E+00 13654   0.258E+00    0.461E+00
RMM:  13    -0.629892270945E+03    0.20139E-01   -0.85754E-01 13992   0.180E+00    0.387E+00
RMM:  14    -0.629828643468E+03    0.63627E-01   -0.56263E-01 13609   0.111E+00    0.183E+00
RMM:  15    -0.629848504433E+03   -0.19861E-01   -0.34625E-01 13788   0.915E-01    0.207E+00
RMM:  16    -0.629846257256E+03    0.22472E-02   -0.22082E-01 13577   0.743E-01    0.144E+00
RMM:  17    -0.629849978307E+03   -0.37211E-02   -0.11017E-01 13508   0.589E-01    0.137E+00
RMM:  18    -0.629843590570E+03    0.63877E-02   -0.62673E-02 13534   0.423E-01    0.822E-01
RMM:  19    -0.629843618488E+03   -0.27919E-04   -0.40990E-02 13610   0.344E-01    0.838E-01
RMM:  20    -0.629839917087E+03    0.37014E-02   -0.25299E-02 13921   0.262E-01    0.376E-01
RMM:  21    -0.629839533279E+03    0.38381E-03   -0.13380E-02 13607   0.199E-01    0.134E-01
RMM:  22    -0.629839828018E+03   -0.29474E-03   -0.70994E-03 12935   0.130E-01    0.729E-02
RMM:  23    -0.629840098507E+03   -0.27049E-03   -0.44954E-03 13131   0.925E-02    0.543E-02
RMM:  24    -0.629840241316E+03   -0.14281E-03   -0.23555E-03 11881   0.635E-02    0.347E-02
WARNING in EDDRMM: call to ZHEGV failed, returncode =   8  4      6
RMM:  25    -0.629840347543E+03   -0.10623E-03   -0.15759E-03 11433   0.451E-02    0.207E-02
RMM:  26    -0.629840437210E+03   -0.89666E-04   -0.10166E-03 11399   0.401E-02    0.188E-02
RMM:  27    -0.629840484342E+03   -0.47132E-04   -0.59785E-04 10917   0.311E-02    0.110E-02
RMM:  28    -0.629840513246E+03   -0.28904E-04   -0.38705E-04 10087   0.240E-02    0.478E-03
RMM:  29    -0.629840536329E+03   -0.23083E-04   -0.26614E-04  9718   0.200E-02    0.381E-03
WARNING in EDDRMM: call to ZHEGV failed, returncode =   6  3     11
RMM:  30    -0.629840550546E+03   -0.14217E-04   -0.16458E-04  8540   0.178E-02    0.294E-03
RMM:  31    -0.629840559794E+03   -0.92479E-05   -0.10696E-04  8089   0.148E-02    0.168E-03
WARNING in EDDRMM: call to ZHEGV failed, returncode =   6  3      8
RMM:  32    -0.629840566242E+03   -0.64480E-05   -0.77570E-05  7823   0.137E-02
   1 F= -.62984057E+03 E0= -.62977079E+03  d E =-.629841E+03
 curvature:   0.00 expect dE= 0.000E+00 dE for cont linesearch  0.000E+00
 trial: gam= 0.00000 g(F)=  0.415E+00 g(S)=  0.120E+01 ort = 0.000E+00 (trialstep = 0.100E+01)
 search vector abs. value=  0.162E+01
 bond charge predicted
       N       E                     dE             d eps       ncg     rms          rms(c)
DAV:   1    -0.637977562966E+03   -0.81370E+01   -0.34515E+02 10464   0.745E+01    0.245E+01
RMM:   2    -0.662918433272E+03   -0.24941E+02   -0.15491E+02 10752   0.360E+01    0.510E+01
RMM:   3    -0.632636835659E+03    0.30282E+02   -0.23504E+01 10882   0.158E+01    0.149E+01
RMM:   4    -0.631311586512E+03    0.13252E+01   -0.71586E+00 12910   0.644E+00    0.108E+01
RMM:   5    -0.630068903942E+03    0.12427E+01   -0.39665E+00 11899   0.491E+00    0.724E+00
RMM:   6    -0.629757281069E+03    0.31162E+00   -0.18474E+00 11519   0.381E+00    0.676E+00
RMM:   7    -0.629516506423E+03    0.24077E+00   -0.72560E-01 13087   0.203E+00    0.321E+00
RMM:   8    -0.629476172632E+03    0.40334E-01   -0.21091E-01 13745   0.116E+00    0.224E+00
RMM:   9    -0.629456685830E+03    0.19487E-01   -0.10279E-01 14454   0.646E-01    0.128E+00
RMM:  10    -0.629460906301E+03   -0.42205E-02   -0.48384E-02 13791   0.481E-01    0.841E-01
RMM:  11    -0.629468586544E+03   -0.76802E-02   -0.31265E-02 14559   0.324E-01    0.805E-01
RMM:  12    -0.629476975500E+03   -0.83890E-02   -0.28550E-02 14338   0.302E-01    0.520E-01
RMM:  13    -0.629487548776E+03   -0.10573E-01   -0.38145E-02 14804   0.322E-01    0.570E-01
RMM:  14    -0.629488342441E+03   -0.79366E-03   -0.25715E-02 14658   0.269E-01    0.202E-01
RMM:  15    -0.629488935748E+03   -0.59331E-03   -0.13665E-02 14773   0.169E-01    0.155E-01
RMM:  16    -0.629489330941E+03   -0.39519E-03   -0.66923E-03 14436   0.120E-01    0.116E-01
RMM:  17    -0.629489626643E+03   -0.29570E-03   -0.38217E-03 14164   0.897E-02    0.649E-02
RMM:  18    -0.629489768408E+03   -0.14176E-03   -0.22062E-03 13195   0.685E-02    0.291E-02
RMM:  19    -0.629489850018E+03   -0.81611E-04   -0.12069E-03 12523   0.528E-02    0.222E-02
RMM:  20    -0.629489899189E+03   -0.49171E-04   -0.67121E-04 12025   0.408E-02    0.121E-02
RMM:  21    -0.629489928880E+03   -0.29691E-04   -0.40106E-04 11601   0.330E-02    0.761E-03
RMM:  22    -0.629489946995E+03   -0.18115E-04   -0.24784E-04 10902   0.265E-02    0.856E-03
RMM:  23    -0.629489960460E+03   -0.13465E-04   -0.15345E-04 10293   0.225E-02    0.302E-03
WARNING in EDDRMM: call to ZHEGV failed, returncode =   8  4      9
RMM:  24    -0.629489968453E+03   -0.79925E-05   -0.90176E-05  9219   0.189E-02
   2 F= -.62948997E+03 E0= -.62943038E+03  d E =0.350598E+00
 trial-energy change:    0.350598  1 .order    0.389005   -1.619545    2.397555
 step:   0.4171(harm=  0.4032)  dis= 0.01401  next Energy=  -630.181118 (dE=-0.341E+00)
 bond charge predicted
       N       E                     dE             d eps       ncg     rms          rms(c)
DAV:   1    -0.633467135916E+03   -0.39772E+01   -0.12024E+02 10584   0.426E+01    0.183E+01
RMM:   2    -0.652828556778E+03   -0.19361E+02   -0.48144E+01 11478   0.187E+01    0.320E+01
RMM:   3    -0.631107054435E+03    0.21722E+02   -0.12160E+01 11683   0.980E+00    0.787E+00
RMM:   4    -0.631425664650E+03   -0.31861E+00   -0.46769E+00 13131   0.485E+00    0.126E+01
RMM:   5    -0.630471518745E+03    0.95415E+00   -0.18853E+00 13368   0.285E+00    0.532E+00
RMM:   6    -0.630457462482E+03    0.14056E-01   -0.82336E-01 13070   0.200E+00    0.592E+00
RMM:   7    -0.630204803286E+03    0.25266E+00   -0.38136E-01 12205   0.153E+00    0.190E+00
RMM:   8    -0.630186641955E+03    0.18161E-01   -0.15109E-01 13527   0.100E+00    0.152E+00
RMM:   9    -0.630174812003E+03    0.11830E-01   -0.64936E-02 14590   0.540E-01    0.824E-01
RMM:  10    -0.630173532500E+03    0.12795E-02   -0.27246E-02 14109   0.336E-01    0.522E-01
RMM:  11    -0.630174511735E+03   -0.97923E-03   -0.13610E-02 14610   0.218E-01    0.459E-01
RMM:  12    -0.630175646961E+03   -0.11352E-02   -0.88861E-03 14553   0.164E-01    0.331E-01
RMM:  13    -0.630177801818E+03   -0.21549E-02   -0.68118E-03 14628   0.137E-01    0.333E-01
RMM:  14    -0.630180259853E+03   -0.24580E-02   -0.75694E-03 14517   0.141E-01    0.193E-01
RMM:  15    -0.630181632816E+03   -0.13730E-02   -0.77628E-03 14662   0.132E-01    0.784E-02
RMM:  16    -0.630181931737E+03   -0.29892E-03   -0.50252E-03 14133   0.985E-02    0.484E-02
RMM:  17    -0.630182102269E+03   -0.17053E-03   -0.27330E-03 13054   0.738E-02    0.473E-02
RMM:  18    -0.630182213137E+03   -0.11087E-03   -0.15304E-03 12592   0.538E-02    0.512E-02
RMM:  19    -0.630182277573E+03   -0.64436E-04   -0.88436E-04 12158   0.418E-02    0.554E-02
RMM:  20    -0.630182338280E+03   -0.60707E-04   -0.61170E-04 12021   0.343E-02    0.924E-02
RMM:  21    -0.630182333152E+03    0.51280E-05   -0.44650E-04 12112   0.371E-02    0.165E-02
RMM:  22    -0.630182343250E+03   -0.10098E-04   -0.19870E-04 11299   0.291E-02    0.902E-03
RMM:  23    -0.630182349823E+03   -0.65723E-05   -0.97063E-05  9677   0.193E-02
   3 F= -.63018235E+03 E0= -.63011683E+03  d E =-.341784E+00
 curvature:  -0.20 expect dE=-0.609E-01 dE for cont linesearch -0.326E-04
 trial: gam= 0.17655 g(F)=  0.236E+00 g(S)=  0.666E-01 ort = 0.162E-01 (trialstep = 0.883E+00)
 search vector abs. value=  0.358E+00
 bond charge predicted
       N       E                     dE             d eps       ncg     rms          rms(c)
DAV:   1    -0.629498215227E+03    0.68413E+00   -0.52415E+01  9408   0.306E+01    0.215E+00
RMM:   2    -0.630544310174E+03   -0.10461E+01   -0.96653E+00 13389   0.807E+00    0.406E+00
RMM:   3    -0.630405268476E+03    0.13904E+00   -0.93749E-01 13448   0.252E+00    0.155E+00
RMM:   4    -0.630410400218E+03   -0.51317E-02   -0.16231E-01 14310   0.100E+00    0.161E+00
RMM:   5    -0.630391106836E+03    0.19293E-01   -0.47969E-02 13536   0.440E-01    0.649E-01
RMM:   6    -0.630396494949E+03   -0.53881E-02   -0.29517E-02 13617   0.350E-01    0.109E+00
RMM:   7    -0.630387809089E+03    0.86859E-02   -0.20185E-02 13564   0.307E-01    0.351E-01
RMM:   8    -0.630387959708E+03   -0.15062E-03   -0.95726E-03 14043   0.221E-01    0.372E-01
RMM:   9    -0.630387330357E+03    0.62935E-03   -0.48238E-03 14141   0.132E-01    0.145E-01
RMM:  10    -0.630387275072E+03    0.55285E-04   -0.23312E-03 13665   0.861E-02    0.778E-02
RMM:  11    -0.630387394574E+03   -0.11950E-03   -0.12177E-03 12813   0.592E-02    0.102E-01
RMM:  12    -0.630387402168E+03   -0.75939E-05   -0.74239E-04 12177   0.455E-02    0.507E-02
RMM:  13    -0.630387432606E+03   -0.30438E-04   -0.43833E-04 11686   0.356E-02    0.330E-02
RMM:  14    -0.630387463346E+03   -0.30740E-04   -0.29864E-04 11628   0.318E-02    0.411E-02
WARNING in EDDRMM: call to ZHEGV failed, returncode =   6  3      7
RMM:  15    -0.630387460468E+03    0.28777E-05   -0.18026E-04 10951   0.262E-02    0.110E-02
RMM:  16    -0.630387466767E+03   -0.62995E-05   -0.10841E-04 10212   0.212E-02    0.511E-03
RMM:  17    -0.630387471469E+03   -0.47020E-05   -0.61796E-05  8942   0.173E-02
   4 F= -.63038747E+03 E0= -.63032593E+03  d E =-.205122E+00
 trial-energy change:   -0.205122  1 .order   -0.204088   -0.269411   -0.138765
 step:   1.7415(harm=  1.8217)  dis= 0.06159  next Energy=  -630.455807 (dE=-0.273E+00)
 bond charge predicted
       N       E                     dE             d eps       ncg     rms          rms(c)
DAV:   1    -0.629617977367E+03    0.76949E+00   -0.49421E+01  9408   0.296E+01    0.209E+00
RMM:   2    -0.630599971648E+03   -0.98199E+00   -0.91326E+00 13384   0.781E+00    0.386E+00
RMM:   3    -0.630473553224E+03    0.12642E+00   -0.89015E-01 13417   0.244E+00    0.148E+00
RMM:   4    -0.630476172240E+03   -0.26190E-02   -0.15081E-01 14242   0.970E-01    0.147E+00
RMM:   5    -0.630460169468E+03    0.16003E-01   -0.46024E-02 13608   0.429E-01    0.625E-01
RMM:   6    -0.630465607091E+03   -0.54376E-02   -0.28780E-02 13553   0.346E-01    0.108E+00
RMM:   7    -0.630457083648E+03    0.85234E-02   -0.19305E-02 13619   0.299E-01    0.338E-01
RMM:   8    -0.630457150249E+03   -0.66602E-04   -0.90619E-03 14097   0.213E-01    0.339E-01
WARNING in EDDRMM: call to ZHEGV failed, returncode =   6  3      6
RMM:   9    -0.630456654542E+03    0.49571E-03   -0.45179E-03 14094   0.126E-01    0.138E-01
RMM:  10    -0.630456595853E+03    0.58689E-04   -0.22171E-03 13720   0.830E-02    0.633E-02
WARNING in EDDRMM: call to ZHEGV failed, returncode =   8  4      7
RMM:  11    -0.630456710979E+03   -0.11513E-03   -0.11544E-03 12865   0.577E-02    0.880E-02
RMM:  12    -0.630456731707E+03   -0.20729E-04   -0.70870E-04 12129   0.444E-02    0.512E-02
RMM:  13    -0.630456753731E+03   -0.22024E-04   -0.41932E-04 11609   0.347E-02    0.255E-02
RMM:  14    -0.630456772579E+03   -0.18848E-04   -0.27471E-04 11409   0.293E-02    0.142E-02
RMM:  15    -0.630456783765E+03   -0.11186E-04   -0.16287E-04 10615   0.254E-02    0.171E-02
RMM:  16    -0.630456788955E+03   -0.51898E-05   -0.10157E-04  9853   0.200E-02    0.613E-03
RMM:  17    -0.630456793415E+03   -0.44596E-05   -0.61949E-05  8766   0.174E-02
   5 F= -.63045679E+03 E0= -.63039966E+03  d E =-.274444E+00
 curvature:  -1.06 expect dE=-0.129E+00 dE for cont linesearch -0.598E-05
 trial: gam= 0.34338 g(F)=  0.116E+00 g(S)=  0.570E-02 ort = 0.142E-02 (trialstep = 0.106E+01)
 search vector abs. value=  0.165E+00
 bond charge predicted
       N       E                     dE             d eps       ncg     rms          rms(c)
DAV:   1    -0.630067478700E+03    0.38931E+00   -0.33393E+01  9408   0.240E+01    0.270E+00
RMM:   2    -0.631010296517E+03   -0.94282E+00   -0.67549E+00 12839   0.694E+00    0.627E+00
RMM:   3    -0.630564483007E+03    0.44581E+00   -0.77711E-01 12391   0.265E+00    0.174E+00
RMM:   4    -0.630569192905E+03   -0.47099E-02   -0.17152E-01 14300   0.970E-01    0.184E+00
RMM:   5    -0.630543426828E+03    0.25766E-01   -0.48001E-02 13255   0.511E-01    0.910E-01
RMM:   6    -0.630541551947E+03    0.18749E-02   -0.25607E-02 13599   0.341E-01    0.821E-01
RMM:   7    -0.630536847850E+03    0.47041E-02   -0.20404E-02 13573   0.340E-01    0.403E-01
RMM:   8    -0.630536842770E+03    0.50802E-05   -0.11704E-02 13678   0.236E-01    0.448E-01
RMM:   9    -0.630535377414E+03    0.14654E-02   -0.48029E-03 14154   0.147E-01    0.143E-01
RMM:  10    -0.630535414124E+03   -0.36711E-04   -0.22610E-03 13583   0.825E-02    0.122E-01
RMM:  11    -0.630535449125E+03   -0.35000E-04   -0.11355E-03 12788   0.563E-02    0.912E-02
RMM:  12    -0.630535490603E+03   -0.41479E-04   -0.65214E-04 11882   0.408E-02    0.644E-02
RMM:  13    -0.630535567686E+03   -0.77083E-04   -0.44145E-04 11919   0.361E-02    0.682E-02
RMM:  14    -0.630535584895E+03   -0.17209E-04   -0.33765E-04 11718   0.341E-02    0.374E-02
RMM:  15    -0.630535586882E+03   -0.19870E-05   -0.23246E-04 11546   0.288E-02    0.130E-02
RMM:  16    -0.630535589956E+03   -0.30744E-05   -0.11673E-04 10575   0.228E-02    0.603E-03
RMM:  17    -0.630535594875E+03   -0.49189E-05   -0.66474E-05  9156   0.179E-02
   6 F= -.63053559E+03 E0= -.63048195E+03  d E =-.788015E-01
 trial-energy change:   -0.078801  1 .order   -0.078293   -0.128946   -0.027640
 step:   1.3323(harm=  1.3429)  dis= 0.02914  next Energy=  -630.539237 (dE=-0.824E-01)
 bond charge predicted
       N       E                     dE             d eps       ncg     rms          rms(c)
DAV:   1    -0.630506875929E+03    0.28714E-01   -0.23022E+00  9744   0.631E+00    0.714E-01
RMM:   2    -0.630574213377E+03   -0.67337E-01   -0.48674E-01 12772   0.187E+00    0.172E+00
RMM:   3    -0.630541759016E+03    0.32454E-01   -0.54443E-02 12370   0.708E-01    0.503E-01
RMM:   4    -0.630541622221E+03    0.13680E-03   -0.12493E-02 14258   0.262E-01    0.465E-01
RMM:   5    -0.630540109805E+03    0.15124E-02   -0.35335E-03 13182   0.137E-01    0.270E-01
RMM:   6    -0.630539813688E+03    0.29612E-03   -0.17878E-03 13356   0.905E-02    0.198E-01
RMM:   7    -0.630539554554E+03    0.25913E-03   -0.14695E-03 13532   0.916E-02    0.110E-01
RMM:   8    -0.630539555792E+03   -0.12386E-05   -0.87341E-04 13576   0.657E-02    0.120E-01
RMM:   9    -0.630539441233E+03    0.11456E-03   -0.35129E-04 12333   0.413E-02    0.313E-02
RMM:  10    -0.630539440913E+03    0.31973E-06   -0.16240E-04 11081   0.235E-02    0.215E-02
RMM:  11    -0.630539445521E+03   -0.46077E-05   -0.83652E-05 10170   0.195E-02
   7 F= -.63053945E+03 E0= -.63048663E+03  d E =-.826521E-01
 curvature:  -0.90 expect dE=-0.518E-01 dE for cont linesearch -0.189E-05
 trial: gam= 0.43126 g(F)=  0.208E-01 g(S)=  0.365E-01 ort = 0.587E-03 (trialstep = 0.111E+01)
 search vector abs. value=  0.884E-01
 bond charge predicted
       N       E                     dE             d eps       ncg     rms          rms(c)
DAV:   1    -0.630513109692E+03    0.26331E-01   -0.19253E+01  9696   0.182E+01    0.385E+00
RMM:   2    -0.631634951114E+03   -0.11218E+01   -0.56062E+00 11060   0.693E+00    0.105E+01
RMM:   3    -0.630704489589E+03    0.93046E+00   -0.91364E-01 11611   0.309E+00    0.386E+00
RMM:   4    -0.630593115226E+03    0.11137E+00   -0.25333E-01 13712   0.121E+00    0.182E+00
RMM:   5    -0.630566245379E+03    0.26870E-01   -0.93242E-02 13145   0.737E-01    0.152E+00
RMM:   6    -0.630553653914E+03    0.12591E-01   -0.57813E-02 12940   0.575E-01    0.117E+00
RMM:   7    -0.630543165058E+03    0.10489E-01   -0.41499E-02 13047   0.537E-01    0.516E-01
RMM:   8    -0.630542599577E+03    0.56548E-03   -0.13598E-02 13542   0.283E-01    0.491E-01
RMM:   9    -0.630540787905E+03    0.18117E-02   -0.56281E-03 13992   0.154E-01    0.159E-01
RMM:  10    -0.630540906210E+03   -0.11831E-03   -0.24679E-03 13513   0.102E-01    0.112E-01
RMM:  11    -0.630541094771E+03   -0.18856E-03   -0.13000E-03 13322   0.655E-02    0.118E-01
RMM:  12    -0.630541226012E+03   -0.13124E-03   -0.85554E-04 12863   0.488E-02    0.750E-02
RMM:  13    -0.630541459362E+03   -0.23335E-03   -0.77631E-04 12408   0.434E-02    0.465E-02
RMM:  14    -0.630541602364E+03   -0.14300E-03   -0.68038E-04 12308   0.426E-02    0.303E-02
RMM:  15    -0.630541640558E+03   -0.38193E-04   -0.41175E-04 11739   0.344E-02    0.288E-02
RMM:  16    -0.630541654690E+03   -0.14132E-04   -0.22750E-04 10830   0.265E-02    0.143E-02
RMM:  17    -0.630541664800E+03   -0.10110E-04   -0.13099E-04 10343   0.212E-02    0.113E-02
RMM:  18    -0.630541668906E+03   -0.41066E-05   -0.64421E-05  8888   0.173E-02
   8 F= -.63054167E+03 E0= -.63049152E+03  d E =-.222339E-02
 trial-energy change:   -0.002223  1 .order   -0.001696   -0.063871    0.060480
 step:   0.5774(harm=  0.5704)  dis= 0.00727  next Energy=  -630.556126 (dE=-0.167E-01)
 bond charge predicted
       N       E                     dE             d eps       ncg     rms          rms(c)
DAV:   1    -0.630549193381E+03   -0.75286E-02   -0.44440E+00  9720   0.868E+00    0.192E+00
RMM:   2    -0.630823831467E+03   -0.27464E+00   -0.12577E+00 11268   0.330E+00    0.470E+00
RMM:   3    -0.630580480496E+03    0.24335E+00   -0.21971E-01 11584   0.149E+00    0.148E+00
RMM:   4    -0.630570154461E+03    0.10326E-01   -0.55270E-02 13550   0.574E-01    0.105E+00
RMM:   5    -0.630561771565E+03    0.83829E-02   -0.21358E-02 13235   0.344E-01    0.699E-01
RMM:   6    -0.630559257531E+03    0.25140E-02   -0.12951E-02 13021   0.267E-01    0.572E-01
RMM:   7    -0.630556841904E+03    0.24156E-02   -0.91066E-03 13043   0.251E-01    0.261E-01
RMM:   8    -0.630556702759E+03    0.13915E-03   -0.33712E-03 13302   0.137E-01    0.257E-01
RMM:   9    -0.630556181817E+03    0.52094E-03   -0.13801E-03 13378   0.800E-02    0.815E-02
RMM:  10    -0.630556165959E+03    0.15858E-04   -0.57561E-04 12673   0.498E-02    0.568E-02
RMM:  11    -0.630556187522E+03   -0.21564E-04   -0.29270E-04 11836   0.326E-02    0.536E-02
RMM:  12    -0.630556200984E+03   -0.13462E-04   -0.18512E-04 10808   0.253E-02    0.334E-02
RMM:  13    -0.630556227864E+03   -0.26880E-04   -0.17943E-04 11030   0.244E-02    0.216E-02
RMM:  14    -0.630556238103E+03   -0.10239E-04   -0.16133E-04 10944   0.240E-02    0.176E-02
RMM:  15    -0.630556241527E+03   -0.34243E-05   -0.99834E-05 10206   0.204E-02
   9 F= -.63055624E+03 E0= -.63050485E+03  d E =-.167960E-01
 curvature:  -0.44 expect dE=-0.961E-02 dE for cont linesearch -0.229E-07
 trial: gam= 0.38185 g(F)=  0.151E-01 g(S)=  0.684E-02 ort = 0.680E-04 (trialstep = 0.100E+01)
 search vector abs. value=  0.349E-01
 bond charge predicted
       N       E                     dE             d eps       ncg     rms          rms(c)
DAV:   1    -0.630493349062E+03    0.62889E-01   -0.58733E+00  9408   0.954E+00    0.742E-01
RMM:   2    -0.630591071405E+03   -0.97722E-01   -0.90301E-01 13361   0.255E+00    0.143E+00
RMM:   3    -0.630572226324E+03    0.18845E-01   -0.88953E-02 13271   0.858E-01    0.653E-01
RMM:   4    -0.630571955883E+03    0.27044E-03   -0.18679E-02 14234   0.357E-01    0.587E-01
RMM:   5    -0.630569284102E+03    0.26718E-02   -0.76741E-03 13341   0.182E-01    0.241E-01
RMM:   6    -0.630569655147E+03   -0.37105E-03   -0.45519E-03 13352   0.145E-01    0.324E-01
RMM:   7    -0.630568942127E+03    0.71302E-03   -0.30476E-03 13648   0.127E-01    0.146E-01
RMM:   8    -0.630568872554E+03    0.69572E-04   -0.15460E-03 13796   0.848E-02    0.125E-01
RMM:   9    -0.630568787754E+03    0.84801E-04   -0.71155E-04 12318   0.513E-02    0.485E-02
RMM:  10    -0.630568812470E+03   -0.24716E-04   -0.38947E-04 11668   0.353E-02    0.529E-02
RMM:  11    -0.630568808650E+03    0.38201E-05   -0.21239E-04 11151   0.285E-02    0.268E-02
WARNING in EDDRMM: call to ZHEGV failed, returncode =   6  3      6
RMM:  12    -0.630568813512E+03   -0.48618E-05   -0.11767E-04 10296   0.209E-02    0.180E-02
RMM:  13    -0.630568820829E+03   -0.73176E-05   -0.84174E-05  9883   0.188E-02
  10 F= -.63056882E+03 E0= -.63051784E+03  d E =-.125793E-01
 trial-energy change:   -0.012579  1 .order   -0.012568   -0.022022   -0.003114
 step:   1.1692(harm=  1.1692)  dis= 0.01134  next Energy=  -630.569066 (dE=-0.128E-01)
 bond charge predicted
       N       E                     dE             d eps       ncg     rms          rms(c)
DAV:   1    -0.630567038837E+03    0.17747E-02   -0.15939E-01 10080   0.157E+00    0.122E-01
RMM:   2    -0.630569708883E+03   -0.26700E-02   -0.24632E-02 13349   0.420E-01    0.237E-01
RMM:   3    -0.630569193854E+03    0.51503E-03   -0.25464E-03 13083   0.143E-01    0.107E-01
RMM:   4    -0.630569192469E+03    0.13849E-05   -0.58493E-04 12877   0.625E-02    0.961E-02
RMM:   5    -0.630569127016E+03    0.65453E-04   -0.26526E-04 11689   0.350E-02    0.408E-02
RMM:   6    -0.630569138022E+03   -0.11006E-04   -0.15627E-04 11338   0.267E-02    0.523E-02
RMM:   7    -0.630569119593E+03    0.18429E-04   -0.10354E-04 11112   0.233E-02    0.231E-02
RMM:   8    -0.630569119039E+03    0.55387E-06   -0.55848E-05 10201   0.184E-02
  11 F= -.63056912E+03 E0= -.63051820E+03  d E =-.128775E-01
 curvature:  -0.93 expect dE=-0.675E-02 dE for cont linesearch -0.248E-05
 trial: gam= 0.29479 g(F)=  0.637E-02 g(S)=  0.891E-03 ort = 0.305E-03 (trialstep = 0.104E+01)
 search vector abs. value=  0.105E-01
 bond charge predicted
       N       E                     dE             d eps       ncg     rms          rms(c)
DAV:   1    -0.630555849987E+03    0.13270E-01   -0.17815E+00  9408   0.500E+00    0.364E-01
RMM:   2    -0.630576172093E+03   -0.20322E-01   -0.21647E-01 13259   0.130E+00    0.472E-01
RMM:   3    -0.630575147979E+03    0.10241E-02   -0.23170E-02 13231   0.435E-01    0.315E-01
RMM:   4    -0.630574525882E+03    0.62210E-03   -0.44559E-03 13945   0.188E-01    0.223E-01
RMM:   5    -0.630574336662E+03    0.18922E-03   -0.22444E-03 12962   0.903E-02    0.171E-01
RMM:   6    -0.630574309532E+03    0.27130E-04   -0.12653E-03 13055   0.790E-02    0.163E-01
WARNING in EDDRMM: call to ZHEGV failed, returncode =   6  3      8
RMM:   7    -0.630574198477E+03    0.11106E-03   -0.82762E-04 12797   0.573E-02    0.109E-01
RMM:   8    -0.630574119728E+03    0.78748E-04   -0.38647E-04 12072   0.456E-02    0.592E-02
WARNING in EDDRMM: call to ZHEGV failed, returncode =   6  3     11
RMM:   9    -0.630574101330E+03    0.18399E-04   -0.18973E-04 11066   0.267E-02    0.205E-02
WARNING in EDDRMM: call to ZHEGV failed, returncode =   8  4      8
RMM:  10    -0.630574108677E+03   -0.73478E-05   -0.10904E-04 10486   0.212E-02    0.243E-02
RMM:  11    -0.630574107185E+03    0.14929E-05   -0.50239E-05  8955   0.169E-02
  12 F= -.63057411E+03 E0= -.63052357E+03  d E =-.498815E-02
 trial-energy change:   -0.004988  1 .order   -0.004936   -0.007626   -0.002246
 step:   1.4373(harm=  1.4697)  dis= 0.00559  next Energy=  -630.574544 (dE=-0.542E-02)
 bond charge predicted
       N       E                     dE             d eps       ncg     rms          rms(c)
DAV:   1    -0.630571851396E+03    0.22573E-02   -0.26571E-01 10080   0.193E+00    0.141E-01
RMM:   2    -0.630574904743E+03   -0.30533E-02   -0.32505E-02 13285   0.502E-01    0.182E-01
RMM:   3    -0.630574748961E+03    0.15578E-03   -0.35441E-03 13044   0.169E-01    0.121E-01
RMM:   4    -0.630574659318E+03    0.89644E-04   -0.73327E-04 13136   0.741E-02    0.839E-02
RMM:   5    -0.630574637279E+03    0.22039E-04   -0.38622E-04 11621   0.391E-02    0.663E-02
RMM:   6    -0.630574633179E+03    0.40996E-05   -0.21693E-04 11536   0.321E-02    0.613E-02
RMM:   7    -0.630574621433E+03    0.11746E-04   -0.14644E-04 10905   0.237E-02    0.440E-02
RMM:   8    -0.630574608922E+03    0.12510E-04   -0.69713E-05 10612   0.217E-02    0.243E-02
RMM:   9    -0.630574605187E+03    0.37355E-05   -0.27410E-05  8156   0.136E-02
  13 F= -.63057461E+03 E0= -.63052421E+03  d E =-.548615E-02
 curvature:  -1.04 expect dE=-0.362E-02 dE for cont linesearch -0.553E-05
 trial: gam= 0.45914 g(F)=  0.246E-02 g(S)=  0.102E-02 ort = 0.236E-03 (trialstep = 0.112E+01)
 search vector abs. value=  0.591E-02
 bond charge predicted
       N       E                     dE             d eps       ncg     rms          rms(c)
DAV:   1    -0.630564174383E+03    0.10435E-01   -0.12283E+00  9120   0.422E+00    0.483E-01
RMM:   2    -0.630590065902E+03   -0.25892E-01   -0.20059E-01 13073   0.126E+00    0.115E+00
RMM:   3    -0.630578878283E+03    0.11188E-01   -0.23507E-02 12915   0.457E-01    0.484E-01
RMM:   4    -0.630577800412E+03    0.10779E-02   -0.64260E-03 14278   0.188E-01    0.303E-01
RMM:   5    -0.630576980612E+03    0.81980E-03   -0.22054E-03 13207   0.111E-01    0.166E-01
RMM:   6    -0.630576951032E+03    0.29580E-04   -0.12663E-03 13285   0.801E-02    0.185E-01
RMM:   7    -0.630576735701E+03    0.21533E-03   -0.89290E-04 13524   0.731E-02    0.850E-02
RMM:   8    -0.630576663937E+03    0.71765E-04   -0.39480E-04 13107   0.420E-02    0.234E-02
RMM:   9    -0.630576679015E+03   -0.15078E-04   -0.15969E-04 11268   0.262E-02    0.292E-02
RMM:  10    -0.630576680400E+03   -0.13850E-05   -0.81575E-05 10276   0.189E-02
  14 F= -.63057668E+03 E0= -.63052653E+03  d E =-.207521E-02
 trial-energy change:   -0.002075  1 .order   -0.002091   -0.004009   -0.000174
 step:   1.1676(harm=  1.1676)  dis= 0.00553  next Energy=  -630.576700 (dE=-0.210E-02)
 bond charge predicted
       N       E                     dE             d eps       ncg     rms          rms(c)
DAV:   1    -0.630576660933E+03    0.18081E-04   -0.25917E-03 10560   0.193E-01    0.262E-02
RMM:   2    -0.630576745657E+03   -0.84724E-04   -0.47123E-04 12614   0.596E-02    0.731E-02
RMM:   3    -0.630576701864E+03    0.43793E-04   -0.83472E-05 10513   0.254E-02    0.220E-02
RMM:   4    -0.630576702215E+03   -0.35107E-06   -0.33854E-05  7423   0.142E-02
  15 F= -.63057670E+03 E0= -.63052656E+03  d E =-.209703E-02
 curvature:  -0.96 expect dE=-0.207E-02 dE for cont linesearch -0.119E-05
 trial: gam= 0.60042 g(F)=  0.107E-02 g(S)=  0.109E-02 ort = 0.857E-04 (trialstep = 0.113E+01)
 search vector abs. value=  0.439E-02
 bond charge predicted
       N       E                     dE             d eps       ncg     rms          rms(c)
DAV:   1    -0.630573121619E+03    0.35802E-02   -0.91273E-01  9648   0.348E+00    0.639E-01
RMM:   2    -0.630607748235E+03   -0.34627E-01   -0.17987E-01 11259   0.124E+00    0.158E+00
RMM:   3    -0.630580076518E+03    0.27672E-01   -0.28230E-02 11327   0.554E-01    0.448E-01
RMM:   4    -0.630579251349E+03    0.82517E-03   -0.70679E-03 13796   0.199E-01    0.338E-01
RMM:   5    -0.630578497477E+03    0.75387E-03   -0.25153E-03 13209   0.115E-01    0.252E-01
RMM:   6    -0.630578168613E+03    0.32886E-03   -0.13984E-03 13272   0.839E-02    0.181E-01
RMM:   7    -0.630577927158E+03    0.24145E-03   -0.10229E-03 13336   0.827E-02    0.927E-02
RMM:   8    -0.630577941586E+03   -0.14428E-04   -0.50429E-04 12644   0.512E-02    0.106E-01
RMM:   9    -0.630577844485E+03    0.97101E-04   -0.20953E-04 11824   0.331E-02    0.251E-02
RMM:  10    -0.630577839736E+03    0.47489E-05   -0.87687E-05 10329   0.196E-02
  16 F= -.63057784E+03 E0= -.63052759E+03  d E =-.113752E-02
 trial-energy change:   -0.001138  1 .order   -0.000917   -0.002488    0.000653
 step:   0.9543(harm=  0.8927)  dis= 0.00260  next Energy=  -630.577889 (dE=-0.119E-02)
 bond charge predicted
       N       E                     dE             d eps       ncg     rms          rms(c)
DAV:   1    -0.630577782498E+03    0.61987E-04   -0.21419E-02 10080   0.534E-01    0.980E-02
RMM:   2    -0.630578588760E+03   -0.80626E-03   -0.43388E-03 11195   0.193E-01    0.246E-01
RMM:   3    -0.630577946680E+03    0.64208E-03   -0.69918E-04 10967   0.861E-02    0.731E-02
RMM:   4    -0.630577920729E+03    0.25951E-04   -0.18204E-04 11473   0.330E-02    0.538E-02
RMM:   5    -0.630577899652E+03    0.21077E-04   -0.65129E-05  9269   0.208E-02    0.421E-02
RMM:   6    -0.630577889221E+03    0.10431E-04   -0.31086E-05  6705   0.170E-02    0.320E-02
RMM:   7    -0.630577880801E+03    0.84200E-05   -0.21909E-05  5406   0.177E-02
  17 F= -.63057788E+03 E0= -.63052764E+03  d E =-.117859E-02
 curvature:  -0.83 expect dE=-0.151E-02 dE for cont linesearch -0.483E-05
 trial: gam= 0.98354 g(F)=  0.740E-03 g(S)=  0.108E-02 ort =-0.160E-03 (trialstep = 0.833E+00)
 search vector abs. value=  0.575E-02
 bond charge predicted
       N       E                     dE             d eps       ncg     rms          rms(c)
DAV:   1    -0.630572814498E+03    0.50747E-02   -0.63286E-01  9072   0.277E+00    0.225E-01
RMM:   2    -0.630580529573E+03   -0.77151E-02   -0.72057E-02 13193   0.747E-01    0.458E-01
RMM:   3    -0.630579133756E+03    0.13958E-02   -0.77021E-03 13171   0.245E-01    0.226E-01
RMM:   4    -0.630579002645E+03    0.13111E-03   -0.18711E-03 13645   0.112E-01    0.168E-01
RMM:   5    -0.630578742960E+03    0.25969E-03   -0.75668E-04 12360   0.578E-02    0.738E-02
RMM:   6    -0.630578758537E+03   -0.15577E-04   -0.42083E-04 12569   0.469E-02    0.905E-02
RMM:   7    -0.630578709208E+03    0.49329E-04   -0.28647E-04 12346   0.373E-02    0.466E-02
RMM:   8    -0.630578691911E+03    0.17297E-04   -0.12537E-04 11429   0.267E-02    0.260E-02
WARNING in EDDRMM: call to ZHEGV failed, returncode =   6  3      8
RMM:   9    -0.630578691872E+03    0.39065E-07   -0.52609E-05  9282   0.165E-02
  18 F= -.63057869E+03 E0= -.63052852E+03  d E =-.811071E-03
 trial-energy change:   -0.000811  1 .order   -0.000816   -0.001388   -0.000244
 step:   1.0107(harm=  1.0107)  dis= 0.00306  next Energy=  -630.578723 (dE=-0.842E-03)
 bond charge predicted
       N       E                     dE             d eps       ncg     rms          rms(c)
DAV:   1    -0.630578440627E+03    0.25128E-03   -0.28671E-02  9600   0.591E-01    0.479E-02
RMM:   2    -0.630578799478E+03   -0.35885E-03   -0.33429E-03 13094   0.160E-01    0.966E-02
RMM:   3    -0.630578741952E+03    0.57526E-04   -0.40108E-04 12209   0.544E-02    0.495E-02
RMM:   4    -0.630578736630E+03    0.53219E-05   -0.10802E-04 11211   0.266E-02    0.344E-02
RMM:   5    -0.630578727977E+03    0.86535E-05   -0.52344E-05  9176   0.167E-02
  19 F= -.63057873E+03 E0= -.63052858E+03  d E =-.847176E-03
 curvature:  -1.74 expect dE=-0.139E-02 dE for cont linesearch -0.777E-06
 trial: gam= 0.13840 g(F)=  0.706E-03 g(S)=  0.883E-04 ort = 0.506E-04 (trialstep = 0.869E+00)
 search vector abs. value=  0.919E-03
 bond charge predicted
       N       E                     dE             d eps       ncg     rms          rms(c)
DAV:   1    -0.630578222346E+03    0.51428E-03   -0.11445E-01  9480   0.125E+00    0.202E-01
RMM:   2    -0.630581893005E+03   -0.36707E-02   -0.22199E-02 11500   0.427E-01    0.494E-01
RMM:   3    -0.630579391429E+03    0.25016E-02   -0.31311E-03 11474   0.189E-01    0.175E-01
RMM:   4    -0.630579245708E+03    0.14572E-03   -0.86388E-04 13205   0.672E-02    0.107E-01
RMM:   5    -0.630579157474E+03    0.88234E-04   -0.28065E-04 12053   0.404E-02    0.751E-02
RMM:   6    -0.630579132282E+03    0.25192E-04   -0.15840E-04 11607   0.286E-02    0.607E-02
RMM:   7    -0.630579107344E+03    0.24937E-04   -0.13080E-04 11941   0.297E-02    0.275E-02
RMM:   8    -0.630579107456E+03   -0.11167E-06   -0.57520E-05  9299   0.187E-02
  20 F= -.63057911E+03 E0= -.63052897E+03  d E =-.379479E-03
 trial-energy change:   -0.000379  1 .order   -0.000401   -0.000696   -0.000105
 step:   1.0228(harm=  1.0228)  dis= 0.00122  next Energy=  -630.579138 (dE=-0.410E-03)
 bond charge predicted
       N       E                     dE             d eps       ncg     rms          rms(c)
DAV:   1    -0.630579078236E+03    0.29108E-04   -0.36141E-03 10584   0.224E-01    0.371E-02
RMM:   2    -0.630579228900E+03   -0.15066E-03   -0.73654E-04 11231   0.766E-02    0.102E-01
RMM:   3    -0.630579122489E+03    0.10641E-03   -0.11390E-04  8868   0.354E-02    0.303E-02
RMM:   4    -0.630579118717E+03    0.37726E-05   -0.31353E-05  6436   0.154E-02
  21 F= -.63057912E+03 E0= -.63052896E+03  d E =-.390740E-03
 curvature:  -0.59 expect dE=-0.298E-03 dE for cont linesearch -0.253E-06
 trial: gam= 0.62236 g(F)=  0.224E-03 g(S)=  0.285E-03 ort = 0.199E-04 (trialstep = 0.900E+00)
 search vector abs. value=  0.889E-03
 bond charge predicted
       N       E                     dE             d eps       ncg     rms          rms(c)
DAV:   1    -0.630578553588E+03    0.56890E-03   -0.12238E-01  9552   0.138E+00    0.225E-01
RMM:   2    -0.630582830982E+03   -0.42774E-02   -0.26335E-02 11570   0.460E-01    0.538E-01
RMM:   3    -0.630579801509E+03    0.30295E-02   -0.37173E-03 11557   0.204E-01    0.176E-01
RMM:   4    -0.630579696862E+03    0.10465E-03   -0.10233E-03 13422   0.724E-02    0.136E-01
RMM:   5    -0.630579565653E+03    0.13121E-03   -0.36872E-04 12449   0.481E-02    0.949E-02
RMM:   6    -0.630579516163E+03    0.49489E-04   -0.21139E-04 12078   0.346E-02    0.685E-02
RMM:   7    -0.630579481447E+03    0.34716E-04   -0.15912E-04 12103   0.349E-02    0.331E-02
RMM:   8    -0.630579480129E+03    0.13180E-05   -0.73368E-05 10331   0.207E-02
  22 F= -.63057948E+03 E0= -.63052918E+03  d E =-.361412E-03
 trial-energy change:   -0.000361  1 .order   -0.000261   -0.000469   -0.000052
 step:   0.9443(harm=  1.0126)  dis= 0.00117  next Energy=  -630.579481 (dE=-0.363E-03)
 bond charge predicted
       N       E                     dE             d eps       ncg     rms          rms(c)
DAV:   1    -0.630579467179E+03    0.14268E-04   -0.36273E-04 11424   0.753E-02    0.135E-02
RMM:   2    -0.630579485686E+03   -0.18507E-04   -0.91224E-05  9589   0.263E-02    0.409E-02
RMM:   3    -0.630579469176E+03    0.16510E-04   -0.18640E-05  5535   0.151E-02    0.107E-02
RMM:   4    -0.630579468306E+03    0.87010E-06   -0.60214E-06  4843   0.112E-02
  23 F= -.63057947E+03 E0= -.63052918E+03  d E =-.349589E-03
 curvature:  -0.55 expect dE=-0.146E-03 dE for cont linesearch -0.114E-05
 trial: gam= 0.46247 g(F)=  0.212E-03 g(S)=  0.532E-04 ort = 0.430E-04 (trialstep = 0.909E+00)
 search vector abs. value=  0.495E-03
 bond charge predicted
       N       E                     dE             d eps       ncg     rms          rms(c)
DAV:   1    -0.630578653892E+03    0.81528E-03   -0.74236E-02  9504   0.106E+00    0.644E-02
RMM:   2    -0.630579702552E+03   -0.10487E-02   -0.11024E-02 13099   0.278E-01    0.736E-02
RMM:   3    -0.630579724684E+03   -0.22132E-04   -0.11261E-03 12569   0.889E-02    0.789E-02
RMM:   4    -0.630579695457E+03    0.29227E-04   -0.18641E-04 11636   0.378E-02    0.419E-02
WARNING in EDDRMM: call to ZHEGV failed, returncode =   6  3     10
RMM:   5    -0.630579686648E+03    0.88085E-05   -0.73223E-05  9337   0.189E-02
  24 F= -.63057969E+03 E0= -.63052939E+03  d E =-.218342E-03
 trial-energy change:   -0.000218  1 .order   -0.000197   -0.000259   -0.000135
 step:   1.9031(harm=  1.9031)  dis= 0.00261  next Energy=  -630.579740 (dE=-0.271E-03)
 bond charge predicted
       N       E                     dE             d eps       ncg     rms          rms(c)
DAV:   1    -0.630578544162E+03    0.11513E-02   -0.88473E-02  9408   0.116E+00    0.767E-02
RMM:   2    -0.630579956841E+03   -0.14127E-02   -0.13343E-02 13124   0.305E-01    0.165E-01
RMM:   3    -0.630579788131E+03    0.16871E-03   -0.14394E-03 12678   0.101E-01    0.572E-02
RMM:   4    -0.630579777400E+03    0.10732E-04   -0.23571E-04 11860   0.418E-02    0.422E-02
RMM:   5    -0.630579777841E+03   -0.44148E-06   -0.96212E-05  9625   0.200E-02
  25 F= -.63057978E+03 E0= -.63052943E+03  d E =-.309535E-03
 curvature:  -1.65 expect dE=-0.395E-03 dE for cont linesearch -0.177E-07
 trial: gam= 0.90910 g(F)=  0.211E-03 g(S)=  0.276E-04 ort =-0.231E-05 (trialstep = 0.852E+00)
 search vector abs. value=  0.644E-03
 bond charge predicted
       N       E                     dE             d eps       ncg     rms          rms(c)
DAV:   1    -0.630578872018E+03    0.90538E-03   -0.84023E-02  9408   0.108E+00    0.112E-01
RMM:   2    -0.630580825216E+03   -0.19532E-02   -0.13909E-02 13042   0.307E-01    0.318E-01
RMM:   3    -0.630579987294E+03    0.83792E-03   -0.16226E-03 12723   0.108E-01    0.971E-02
RMM:   4    -0.630579962001E+03    0.25293E-04   -0.37050E-04 12146   0.447E-02    0.752E-02
RMM:   5    -0.630579919738E+03    0.42263E-04   -0.13913E-04 11043   0.274E-02    0.449E-02
RMM:   6    -0.630579912644E+03    0.70941E-05   -0.75079E-05 10284   0.201E-02
  26 F= -.63057991E+03 E0= -.63052958E+03  d E =-.134803E-03
 trial-energy change:   -0.000135  1 .order   -0.000146   -0.000202   -0.000090
 step:   1.5387(harm=  1.5387)  dis= 0.00268  next Energy=  -630.579960 (dE=-0.182E-03)
 bond charge predicted
       N       E                     dE             d eps       ncg     rms          rms(c)
DAV:   1    -0.630579229587E+03    0.69015E-03   -0.54394E-02  9408   0.870E-01    0.862E-02
RMM:   2    -0.630580281194E+03   -0.10516E-02   -0.88377E-03 12954   0.245E-01    0.190E-01
RMM:   3    -0.630579950054E+03    0.33114E-03   -0.99030E-04 12378   0.834E-02    0.771E-02
RMM:   4    -0.630579941619E+03    0.84349E-05   -0.22749E-04 11610   0.352E-02    0.637E-02
WARNING in EDDRMM: call to ZHEGV failed, returncode =   6  3      6
RMM:   5    -0.630579909040E+03    0.32579E-04   -0.84252E-05 10178   0.219E-02    0.324E-02
RMM:   6    -0.630579909934E+03   -0.89413E-06   -0.49983E-05  9071   0.170E-02
  27 F= -.63057991E+03 E0= -.63052955E+03  d E =-.132093E-03
 curvature:  -2.09 expect dE=-0.649E-03 dE for cont linesearch -0.710E-05
 ZBRENT: interpolating
 opt :   1.3281  next Energy=  -630.579915 (dE=-0.137E-03)
 bond charge predicted
       N       E                     dE             d eps       ncg     rms          rms(c)
DAV:   1    -0.630579849141E+03    0.59899E-04   -0.53626E-03  9960   0.273E-01    0.315E-02
RMM:   2    -0.630579993537E+03   -0.14440E-03   -0.10115E-03 11472   0.833E-02    0.880E-02
RMM:   3    -0.630579919456E+03    0.74081E-04   -0.11552E-04  8250   0.344E-02    0.238E-02
RMM:   4    -0.630579915792E+03    0.36639E-05   -0.18440E-05  5424   0.159E-02
  28 F= -.63057992E+03 E0= -.63052957E+03  d E =-.137951E-03
 curvature:  -1.45 expect dE=-0.866E-03 dE for cont linesearch -0.630E-06
 trial: gam= 2.62998 g(F)=  0.131E-03 g(S)=  0.466E-03 ort =-0.167E-04 (trialstep = 0.123E+00)
 search vector abs. value=  0.496E-02
 bond charge predicted
       N       E                     dE             d eps       ncg     rms          rms(c)
DAV:   1    -0.630579781391E+03    0.13807E-03   -0.13697E-02  9792   0.428E-01    0.297E-02
RMM:   2    -0.630579993625E+03   -0.21223E-03   -0.20567E-03 12160   0.114E-01    0.542E-02
RMM:   3    -0.630579963995E+03    0.29630E-04   -0.18792E-04  9430   0.369E-02    0.232E-02
RMM:   4    -0.630579964567E+03   -0.57142E-06   -0.27893E-05  5744   0.171E-02
  29 F= -.63057996E+03 E0= -.63052961E+03  d E =-.487744E-04
 trial-energy change:   -0.000049  1 .order   -0.000048   -0.000068   -0.000029
 step:   0.2122(harm=  0.2122)  dis= 0.00110  next Energy=  -630.579974 (dE=-0.587E-04)
 bond charge predicted
       N       E                     dE             d eps       ncg     rms          rms(c)
DAV:   1    -0.630579886153E+03    0.77843E-04   -0.73093E-03  9984   0.312E-01    0.211E-02
RMM:   2    -0.630580000458E+03   -0.11430E-03   -0.11066E-03 11913   0.856E-02    0.405E-02
RMM:   3    -0.630579988417E+03    0.12040E-04   -0.10804E-04  8511   0.268E-02    0.219E-02
RMM:   4    -0.630579986812E+03    0.16058E-05   -0.17946E-05  5582   0.152E-02
  30 F= -.63057999E+03 E0= -.63052960E+03  d E =-.710193E-04
 curvature:  -0.95 expect dE=-0.417E-03 dE for cont linesearch -0.494E-05
 ZBRENT: increasing intervall
 opt :   0.3909  next Energy=  -630.580003 (dE=-0.867E-04)
 bond charge predicted
       N       E                     dE             d eps       ncg     rms          rms(c)
DAV:   1    -0.630579620379E+03    0.36804E-03   -0.29102E-02  9504   0.622E-01    0.372E-02
RMM:   2    -0.630580030512E+03   -0.41013E-03   -0.42620E-03 12467   0.166E-01    0.393E-02
WARNING in EDDRMM: call to ZHEGV failed, returncode =   8  4      6
RMM:   3    -0.630580024071E+03    0.64403E-05   -0.40338E-04 11812   0.496E-02    0.409E-02
RMM:   4    -0.630580017091E+03    0.69804E-05   -0.63130E-05  7236   0.213E-02
  31 F= -.63058002E+03 E0= -.63052961E+03  d E =-.101299E-03
 curvature:  -3.03 expect dE=-0.134E-02 dE for cont linesearch -0.526E-07
 trial: gam= 0.02958 g(F)=  0.198E-03 g(S)=  0.245E-03 ort =-0.928E-05 (trialstep = 0.176E+00)
 search vector abs. value=  0.447E-03
 bond charge predicted
       N       E                     dE             d eps       ncg     rms          rms(c)
DAV:   1    -0.630580097761E+03   -0.73690E-04   -0.22595E-03 10536   0.174E-01    0.489E-02
RMM:   2    -0.630580213849E+03   -0.11609E-03   -0.53737E-04 11318   0.692E-02    0.120E-01
RMM:   3    -0.630580096263E+03    0.11759E-03   -0.10671E-04  8708   0.325E-02    0.445E-02
RMM:   4    -0.630580086649E+03    0.96147E-05   -0.41247E-05  7463   0.188E-02
  32 F= -.63058009E+03 E0= -.63052967E+03  d E =-.695578E-04
 ZBRENT: can't locate minimum, use default step
 trial-energy change:   -0.000070  1 .order   -0.000077   -0.000078   -0.000077
 step:   0.7059(harm=  9.9327)  dis= 0.00048  next Energy=  -630.582216 (dE=-0.220E-02)
 bond charge predicted
       N       E                     dE             d eps       ncg     rms          rms(c)
DAV:   1    -0.630580290254E+03   -0.19399E-03   -0.19651E-02  9408   0.517E-01    0.136E-01
RMM:   2    -0.630581016795E+03   -0.72654E-03   -0.45391E-03 11445   0.207E-01    0.272E-01
RMM:   3    -0.630580279785E+03    0.73701E-03   -0.86908E-04 12012   0.904E-02    0.123E-01
RMM:   4    -0.630580219831E+03    0.59955E-04   -0.29621E-04 11871   0.397E-02    0.930E-02
RMM:   5    -0.630580143176E+03    0.76655E-04   -0.17020E-04 11585   0.326E-02    0.497E-02
RMM:   6    -0.630580128149E+03    0.15027E-04   -0.94982E-05 10590   0.248E-02    0.467E-02
RMM:   7    -0.630580108586E+03    0.19563E-04   -0.44748E-05  8121   0.209E-02    0.170E-02
RMM:   8    -0.630580106110E+03    0.24756E-05   -0.19451E-05  5890   0.159E-02
  33 F= -.63058011E+03 E0= -.63052962E+03  d E =-.890191E-04
 curvature:  -0.53 expect dE=-0.143E-03 dE for cont linesearch -0.256E-04
 trial: gam= 0.00000 g(F)=  0.421E-04 g(S)=  0.229E-03 ort =-0.147E-03 (trialstep = 0.282E+00)
 search vector abs. value=  0.271E-03
 reached required accuracy - stopping structural energy minimisation
