  64  64   0   0
  0.1129557E+02  0.8932500E-09  0.9055600E-09  0.8937200E-09  0.5000000E-15
  1.000000000000000E-004
  CAR 
 HECN                                    
     14.46578283    -59.71505822  301      8.71707319      1.00000000
    -59.715  0.0000E+00  0.0000E+00
    -59.468  0.0000E+00  0.0000E+00
    -59.221  0.0000E+00  0.0000E+00
    -58.973  0.0000E+00  0.0000E+00
    -58.726  0.0000E+00  0.0000E+00
    -58.479  0.0000E+00  0.0000E+00
    -58.231  0.0000E+00  0.0000E+00
    -57.984  0.0000E+00  0.0000E+00
    -57.737  0.0000E+00  0.0000E+00
    -57.490  0.0000E+00  0.0000E+00
    -57.242  0.0000E+00  0.0000E+00
    -56.995  0.0000E+00  0.0000E+00
    -56.748  0.4247E-09  0.1050E-09
    -56.501  0.1054E-02  0.2606E-03
    -56.253  0.1052E+00  0.2627E-01
    -56.006  0.3984E+00  0.1248E+00
    -55.759  0.6148E-01  0.1400E+00
    -55.511  0.1263E-04  0.1400E+00
    -55.264  0.4372E-13  0.1400E+00
    -55.017  0.0000E+00  0.1400E+00
    -54.770  0.0000E+00  0.1400E+00
    -54.522  0.0000E+00  0.1400E+00
    -54.275  0.0000E+00  0.1400E+00
    -54.028  0.0000E+00  0.1400E+00
    -53.781  0.0000E+00  0.1400E+00
    -53.533  0.0000E+00  0.1400E+00
    -53.286  0.0000E+00  0.1400E+00
    -53.039  0.0000E+00  0.1400E+00
    -52.792  0.0000E+00  0.1400E+00
    -52.544  0.0000E+00  0.1400E+00
    -52.297  0.0000E+00  0.1400E+00
    -52.050  0.0000E+00  0.1400E+00
    -51.802  0.0000E+00  0.1400E+00
    -51.555  0.0000E+00  0.1400E+00
    -51.308  0.0000E+00  0.1400E+00
    -51.061  0.0000E+00  0.1400E+00
    -50.813  0.0000E+00  0.1400E+00
    -50.566  0.0000E+00  0.1400E+00
    -50.319  0.0000E+00  0.1400E+00
    -50.072  0.0000E+00  0.1400E+00
    -49.824  0.0000E+00  0.1400E+00
    -49.577  0.0000E+00  0.1400E+00
    -49.330  0.0000E+00  0.1400E+00
    -49.082  0.0000E+00  0.1400E+00
    -48.835  0.0000E+00  0.1400E+00
    -48.588  0.0000E+00  0.1400E+00
    -48.341  0.0000E+00  0.1400E+00
    -48.093  0.0000E+00  0.1400E+00
    -47.846  0.2245E-16  0.1400E+00
    -47.599  0.2076E-06  0.1400E+00
    -47.352  0.1691E-01  0.1442E+00
    -47.104  0.1673E+00  0.1856E+00
    -46.857  0.2090E+00  0.2372E+00
    -46.610  0.9154E-01  0.2599E+00
    -46.363  0.4688E-03  0.2600E+00
    -46.115  0.6983E-10  0.2600E+00
    -45.868  0.0000E+00  0.2600E+00
    -45.621  0.0000E+00  0.2600E+00
    -45.373  0.0000E+00  0.2600E+00
    -45.126  0.0000E+00  0.2600E+00
    -44.879  0.0000E+00  0.2600E+00
    -44.632  0.0000E+00  0.2600E+00
    -44.384  0.0000E+00  0.2600E+00
    -44.137  0.0000E+00  0.2600E+00
    -43.890  0.0000E+00  0.2600E+00
    -43.643  0.0000E+00  0.2600E+00
    -43.395  0.0000E+00  0.2600E+00
    -43.148  0.0000E+00  0.2600E+00
    -42.901  0.0000E+00  0.2600E+00
    -42.653  0.0000E+00  0.2600E+00
    -42.406  0.0000E+00  0.2600E+00
    -42.159  0.0000E+00  0.2600E+00
    -41.912  0.0000E+00  0.2600E+00
    -41.664  0.0000E+00  0.2600E+00
    -41.417  0.0000E+00  0.2600E+00
    -41.170  0.0000E+00  0.2600E+00
    -40.923  0.0000E+00  0.2600E+00
    -40.675  0.0000E+00  0.2600E+00
    -40.428  0.0000E+00  0.2600E+00
    -40.181  0.0000E+00  0.2600E+00
    -39.934  0.0000E+00  0.2600E+00
    -39.686  0.0000E+00  0.2600E+00
    -39.439  0.0000E+00  0.2600E+00
    -39.192  0.0000E+00  0.2600E+00
    -38.944  0.0000E+00  0.2600E+00
    -38.697  0.0000E+00  0.2600E+00
    -38.450  0.0000E+00  0.2600E+00
    -38.203  0.0000E+00  0.2600E+00
    -37.955  0.0000E+00  0.2600E+00
    -37.708  0.0000E+00  0.2600E+00
    -37.461  0.0000E+00  0.2600E+00
    -37.214  0.0000E+00  0.2600E+00
    -36.966  0.0000E+00  0.2600E+00
    -36.719  0.0000E+00  0.2600E+00
    -36.472  0.0000E+00  0.2600E+00
    -36.224  0.0000E+00  0.2600E+00
    -35.977  0.0000E+00  0.2600E+00
    -35.730  0.0000E+00  0.2600E+00
    -35.483  0.5418E-08  0.2600E+00
    -35.235  0.3895E-02  0.2610E+00
    -34.988  0.2994E+00  0.3350E+00
    -34.741  0.9784E+00  0.5769E+00
    -34.494  0.1741E+00  0.6200E+00
    -34.246  0.4952E-04  0.6200E+00
    -33.999  0.3791E-12  0.6200E+00
    -33.752  0.0000E+00  0.6200E+00
    -33.504  0.0000E+00  0.6200E+00
    -33.257  0.0000E+00  0.6200E+00
    -33.010  0.0000E+00  0.6200E+00
    -32.763  0.0000E+00  0.6200E+00
    -32.515  0.0000E+00  0.6200E+00
    -32.268  0.0000E+00  0.6200E+00
    -32.021  0.0000E+00  0.6200E+00
    -31.774  0.0000E+00  0.6200E+00
    -31.526  0.0000E+00  0.6200E+00
    -31.279  0.0000E+00  0.6200E+00
    -31.032  0.0000E+00  0.6200E+00
    -30.785  0.2874E-10  0.6200E+00
    -30.537  0.3484E-03  0.6201E+00
    -30.290  0.1644E+00  0.6607E+00
    -30.043  0.9919E+00  0.9060E+00
    -29.795  0.5261E+00  0.1036E+01
    -29.548  0.1581E-01  0.1040E+01
    -29.301  0.1948E-06  0.1040E+01
    -29.054  0.0000E+00  0.1040E+01
    -28.806  0.0000E+00  0.1040E+01
    -28.559  0.0000E+00  0.1040E+01
    -28.312  0.0000E+00  0.1040E+01
    -28.065  0.0000E+00  0.1040E+01
    -27.817  0.0000E+00  0.1040E+01
    -27.570  0.0000E+00  0.1040E+01
    -27.323  0.0000E+00  0.1040E+01
    -27.075  0.6025E-09  0.1040E+01
    -26.828  0.1518E-02  0.1040E+01
    -26.581  0.3319E+00  0.1122E+01
    -26.334  0.8356E+00  0.1329E+01
    -26.086  0.2858E+00  0.1400E+01
    -25.839  0.1069E-02  0.1400E+01
    -25.592  0.1828E-09  0.1400E+01
    -25.345  0.0000E+00  0.1400E+01
    -25.097  0.0000E+00  0.1400E+01
    -24.850  0.0000E+00  0.1400E+01
    -24.603  0.0000E+00  0.1400E+01
    -24.356  0.0000E+00  0.1400E+01
    -24.108  0.3092E-13  0.1400E+01
    -23.861  0.9825E-05  0.1400E+01
    -23.614  0.4202E-01  0.1410E+01
    -23.366  0.3396E+00  0.1494E+01
    -23.119  0.6016E+00  0.1643E+01
    -22.872  0.3869E+00  0.1739E+01
    -22.625  0.1053E+00  0.1765E+01
    -22.377  0.2130E+00  0.1818E+01
    -22.130  0.2895E+00  0.1889E+01
    -21.883  0.2277E+00  0.1945E+01
    -21.636  0.4834E+00  0.2065E+01
    -21.388  0.2290E+00  0.2122E+01
    -21.141  0.2189E+00  0.2176E+01
    -20.894  0.1746E-01  0.2180E+01
    -20.646  0.1265E-06  0.2180E+01
    -20.399  0.0000E+00  0.2180E+01
    -20.152  0.0000E+00  0.2180E+01
    -19.905  0.0000E+00  0.2180E+01
    -19.657  0.0000E+00  0.2180E+01
    -19.410  0.0000E+00  0.2180E+01
    -19.163  0.0000E+00  0.2180E+01
    -18.916  0.0000E+00  0.2180E+01
    -18.668  0.0000E+00  0.2180E+01
    -18.421  0.0000E+00  0.2180E+01
    -18.174  0.0000E+00  0.2180E+01
    -17.927  0.0000E+00  0.2180E+01
    -17.679  0.0000E+00  0.2180E+01
    -17.432  0.0000E+00  0.2180E+01
    -17.185  0.0000E+00  0.2180E+01
    -16.937  0.0000E+00  0.2180E+01
    -16.690  0.0000E+00  0.2180E+01
    -16.443  0.0000E+00  0.2180E+01
    -16.196  0.0000E+00  0.2180E+01
    -15.948  0.0000E+00  0.2180E+01
    -15.701  0.0000E+00  0.2180E+01
    -15.454  0.0000E+00  0.2180E+01
    -15.207  0.0000E+00  0.2180E+01
    -14.959  0.0000E+00  0.2180E+01
    -14.712  0.0000E+00  0.2180E+01
    -14.465  0.0000E+00  0.2180E+01
    -14.217  0.0000E+00  0.2180E+01
    -13.970  0.0000E+00  0.2180E+01
    -13.723  0.0000E+00  0.2180E+01
    -13.476  0.0000E+00  0.2180E+01
    -13.228  0.0000E+00  0.2180E+01
    -12.981  0.0000E+00  0.2180E+01
    -12.734  0.0000E+00  0.2180E+01
    -12.487  0.0000E+00  0.2180E+01
    -12.239  0.0000E+00  0.2180E+01
    -11.992  0.0000E+00  0.2180E+01
    -11.745  0.0000E+00  0.2180E+01
    -11.498  0.0000E+00  0.2180E+01
    -11.250  0.0000E+00  0.2180E+01
    -11.003  0.0000E+00  0.2180E+01
    -10.756  0.0000E+00  0.2180E+01
    -10.508  0.0000E+00  0.2180E+01
    -10.261  0.0000E+00  0.2180E+01
    -10.014  0.0000E+00  0.2180E+01
     -9.767  0.0000E+00  0.2180E+01
     -9.519  0.0000E+00  0.2180E+01
     -9.272  0.0000E+00  0.2180E+01
     -9.025  0.0000E+00  0.2180E+01
     -8.778  0.0000E+00  0.2180E+01
     -8.530  0.0000E+00  0.2180E+01
     -8.283  0.0000E+00  0.2180E+01
     -8.036  0.2303E-11  0.2180E+01
     -7.788  0.1971E-04  0.2180E+01
     -7.541  0.1113E-01  0.2183E+01
     -7.294  0.6021E-01  0.2198E+01
     -7.047  0.6764E-01  0.2214E+01
     -6.799  0.1074E+00  0.2241E+01
     -6.552  0.1426E+00  0.2276E+01
     -6.305  0.2190E+00  0.2330E+01
     -6.058  0.2924E+00  0.2403E+01
     -5.810  0.1424E+00  0.2438E+01
     -5.563  0.8632E-02  0.2440E+01
     -5.316  0.9219E-07  0.2440E+01
     -5.069  0.0000E+00  0.2440E+01
     -4.821  0.3825E-16  0.2440E+01
     -4.574  0.7711E-07  0.2440E+01
     -4.327  0.1942E-02  0.2440E+01
     -4.079  0.4460E-01  0.2452E+01
     -3.832  0.3724E-01  0.2461E+01
     -3.585  0.5890E-01  0.2475E+01
     -3.338  0.8025E-01  0.2495E+01
     -3.090  0.1559E+00  0.2534E+01
     -2.843  0.2084E+00  0.2585E+01
     -2.596  0.2276E+00  0.2641E+01
     -2.349  0.2458E+00  0.2702E+01
     -2.101  0.2079E+00  0.2754E+01
     -1.854  0.1628E+00  0.2794E+01
     -1.607  0.9260E-01  0.2817E+01
     -1.359  0.1280E-01  0.2820E+01
     -1.112  0.9349E-04  0.2820E+01
     -0.865  0.1169E-09  0.2820E+01
     -0.618  0.0000E+00  0.2820E+01
     -0.370  0.0000E+00  0.2820E+01
     -0.123  0.0000E+00  0.2820E+01
      0.124  0.2012E-16  0.2820E+01
      0.371  0.4093E-07  0.2820E+01
      0.619  0.9882E-03  0.2820E+01
      0.866  0.1039E-01  0.2823E+01
      1.113  0.4782E-01  0.2835E+01
      1.361  0.9449E-01  0.2858E+01
      1.608  0.1130E+00  0.2886E+01
      1.855  0.1717E+00  0.2928E+01
      2.102  0.2536E+00  0.2991E+01
      2.350  0.3199E+00  0.3070E+01
      2.597  0.2523E+00  0.3133E+01
      2.844  0.3124E+00  0.3210E+01
      3.091  0.3250E+00  0.3290E+01
      3.339  0.3607E+00  0.3379E+01
      3.586  0.4540E+00  0.3492E+01
      3.833  0.5483E+00  0.3627E+01
      4.080  0.6256E+00  0.3782E+01
      4.328  0.6695E+00  0.3947E+01
      4.575  0.6473E+00  0.4108E+01
      4.822  0.5779E+00  0.4250E+01
      5.070  0.4683E+00  0.4366E+01
      5.317  0.3864E+00  0.4462E+01
      5.564  0.3290E+00  0.4543E+01
      5.811  0.3042E+00  0.4618E+01
      6.059  0.2108E+00  0.4671E+01
      6.306  0.1613E+00  0.4710E+01
      6.553  0.9669E-01  0.4734E+01
      6.800  0.5648E-01  0.4748E+01
      7.048  0.1471E+00  0.4785E+01
      7.295  0.2011E+00  0.4834E+01
      7.542  0.1821E+00  0.4879E+01
      7.790  0.2131E+00  0.4932E+01
      8.037  0.2314E+00  0.4989E+01
      8.284  0.2907E+00  0.5061E+01
      8.531  0.2740E+00  0.5129E+01
      8.779  0.2846E+00  0.5199E+01
      9.026  0.3590E+00  0.5288E+01
      9.273  0.4564E+00  0.5401E+01
      9.520  0.5027E+00  0.5525E+01
      9.768  0.5286E+00  0.5656E+01
     10.015  0.4853E+00  0.5776E+01
     10.262  0.4510E+00  0.5887E+01
     10.509  0.4415E+00  0.5997E+01
     10.757  0.4319E+00  0.6103E+01
     11.004  0.4259E+00  0.6209E+01
     11.251  0.1261E+00  0.6240E+01
     11.499  0.3101E-03  0.6240E+01
     11.746  0.6182E-10  0.6240E+01
     11.993  0.0000E+00  0.6240E+01
     12.240  0.0000E+00  0.6240E+01
     12.488  0.0000E+00  0.6240E+01
     12.735  0.0000E+00  0.6240E+01
     12.982  0.0000E+00  0.6240E+01
     13.229  0.0000E+00  0.6240E+01
     13.477  0.0000E+00  0.6240E+01
     13.724  0.0000E+00  0.6240E+01
     13.971  0.0000E+00  0.6240E+01
     14.219  0.0000E+00  0.6240E+01
     14.466  0.0000E+00  0.6240E+01
