HECN                                    
           1
     8.932500    0.000000    0.000000
     0.005753    9.055598    0.000000
     0.032102   -0.015743    8.937128
   V    Nb   Hf   N    C    Cr   Ta
   7   6   7  13  19   6   6
Direct configuration=     1
   0.99688001  0.99204997  0.99924002
   0.25398003  0.99714995  0.24912000
   0.24803003  0.50165000  0.24955001
   0.50501006  0.49745998  0.99834003
   0.50479003  0.24631001  0.74710002
   0.99427992  0.50449999  0.49779000
   0.49950005  0.75481999  0.74817004
   0.99437004  0.23617001  0.26379999
   0.75718000  0.74102998  0.01100000
   0.00201000  0.25541000  0.73894001
   0.75307001  0.26163001  0.50533002
   0.99514004  0.74492004  0.74511997
   0.25679999  0.49462002  0.74545002
   0.24788999  0.24839000  0.99657997
   0.50833000  0.25676999  0.25376001
   0.74879004  0.98787999  0.26967001
   0.75719000  0.25603001  0.99591997
   0.24762001  0.74973999  0.99974006
   0.25272001  0.24823001  0.50015003
   0.24457999  0.75048999  0.49983999
   0.24982001  0.24942998  0.24825000
   0.26146999  0.99984002  0.99295996
   0.00281000  0.25024000  0.00130000
   0.75313998  0.24617000  0.25492002
   0.74767001  0.99748000  0.01202000
   0.50714994  0.99977000  0.24673000
   0.99051999  0.48088002  0.24100998
   0.50519005  0.76130999  0.00855000
   0.98896989  0.00202000  0.73708999
   0.75744996  0.24437997  0.74896999
   0.73632001  0.00417000  0.51063000
   0.50563996  0.23264999  0.49544997
   0.50008998  0.00061000  0.73471998
   0.99720000  0.99771992  0.25899999
   0.50427997  0.24673000  0.00262000
   0.25133999  0.74958002  0.24910999
   0.24328000  0.50072997  0.99510994
   0.99837005  0.74313996  0.00460000
   0.75633000  0.73891003  0.25767000
   0.75839004  0.50315998  0.00288000
   0.50700002  0.50333002  0.25878999
   0.24900999  0.25315000  0.74854000
   0.24446000  0.99823996  0.50287998
   0.99804009  0.24229999  0.50128003
   0.24177002  0.75340997  0.75018002
   0.25841001  0.50062002  0.50129001
   0.99000004  0.76215003  0.49746000
   0.99203996  0.50055999  0.75138002
   0.75036005  0.74888000  0.74756004
   0.74036002  0.50197000  0.50067003
   0.50575006  0.74958002  0.49720000
   0.50501003  0.50217998  0.73912003
   0.51588997  0.01358000  0.98075008
   0.99841994  0.50976998  0.98613004
   0.50379003  0.73926997  0.25905001
   0.23780002  0.01082000  0.74607998
   0.47957999  0.98308000  0.49717999
   0.74279003  0.97869994  0.76450995
   0.99864998  0.77573999  0.26102000
   0.73551001  0.51468004  0.26666001
   0.02362000  0.99783001  0.49557002
   0.50539000  0.52833005  0.49917999
   0.73876003  0.52828003  0.73814999
   0.75400003  0.72937999  0.49116997
HECN                                    
           1
     8.508126    0.010346   -0.005625
     0.015968    8.592766    0.007274
     0.024931   -0.007719    8.523984
   V    Nb   Hf   N    C    Cr   Ta
   7   6   7  13  19   6   6
Direct configuration=     2
   0.99662613  0.98935476  0.00019511
   0.25320451  0.99407593  0.25023257
   0.25164346  0.50597315  0.24850043
   0.50322356  0.49374006  0.99752484
   0.50076322  0.24337540  0.75165920
   0.99360086  0.50027113  0.50136940
   0.49953295  0.75947757  0.74691232
   0.00004428  0.23949524  0.25956175
   0.75245831  0.74568351  0.00757224
   0.00272890  0.25398192  0.73957832
   0.75191700  0.25863616  0.50906812
   0.99933499  0.74837091  0.74926926
   0.25629140  0.49649814  0.74919839
   0.24870231  0.24500589  0.99957619
   0.50154393  0.25084463  0.25161088
   0.73906684  0.99334078  0.26474216
   0.75625123  0.25240135  0.99248676
   0.25518933  0.75412467  0.00012421
   0.25751823  0.24891028  0.49761732
   0.25189917  0.75004597  0.49959250
   0.25105218  0.25012277  0.24862780
   0.25891747  0.00078461  0.99458027
   0.00221055  0.24768824  0.00146329
   0.75151483  0.24668874  0.25359066
   0.74884350  0.99767902  0.00616006
   0.50128605  0.99896052  0.24912756
   0.99387781  0.48354112  0.24515712
   0.50435577  0.75890554  0.00572948
   0.98923494  0.00182473  0.74286442
   0.75196324  0.24543930  0.75042326
   0.73788289  0.00216449  0.51004685
   0.50363829  0.23402815  0.49974260
   0.50351691  0.00040186  0.73793213
   0.00148614  0.00310354  0.24976442
   0.50424563  0.24825727 -0.00409188
   0.25223204  0.74857846  0.24948207
   0.24600490  0.49998219  0.00017582
   0.99791858  0.74547139  0.00389781
   0.75211286  0.74715589  0.25096112
   0.75442213  0.50392652  0.00218330
   0.49542388  0.50570099  0.24973374
   0.25367646  0.24947179  0.74873043
   0.25923452  0.99840756  0.50185082
   0.99952137  0.24842307  0.50101188
   0.24637725  0.75389317  0.75012292
   0.25204728  0.50036300  0.49582625
   0.99669890  0.75335648  0.50081789
   0.99470985  0.50063027  0.74977717
   0.74404346  0.76150481  0.75153569
   0.75092062  0.49561275  0.50312630
   0.50050752  0.76129680  0.49932182
   0.50077550  0.50154700  0.74799729
   0.51683158  0.01663718  0.97577460
   0.00062338  0.51507934  0.98227869
   0.50262939  0.73984690  0.25644004
   0.23840022  0.01153785  0.74848335
   0.47744474  0.98091064  0.49949551
   0.73792956  0.97406752  0.76654367
   0.00744589  0.76149056  0.24826777
   0.74960130  0.50133106  0.25165614
   0.01066697  0.00334143  0.50573358
   0.49053223  0.51609797  0.50090021
   0.74371312  0.51111936  0.74910565
   0.75198805  0.75002043  0.50125863
HECN                                    
           1
     8.673421    0.006316   -0.003434
     0.011989    8.773041    0.004441
     0.027724   -0.010845    8.684905
   V    Nb   Hf   N    C    Cr   Ta
   7   6   7  13  19   6   6
Direct configuration=     3
   0.99672832  0.99046131 -0.00019581
   0.25351979  0.99533777  0.24977735
   0.25016829  0.50419998  0.24892960
   0.50395246  0.49526586  0.99785693
   0.50240718  0.24457961  0.74979737
   0.99387543  0.50200792  0.49990633
   0.49952220  0.75756529  0.74742758
  -0.00227325  0.23813161  0.26129221
   0.75439245  0.74376980  0.00897498
   0.00243402  0.25456870  0.73931695
   0.75238596  0.25986582  0.50754081
   0.99762016  0.74695789  0.74757484
   0.25649931  0.49572826  0.74766842
   0.24836759  0.24639645  0.99835118
   0.50431656  0.25327281  0.25248830
   0.74304707  0.99109272  0.26675915
   0.75663422  0.25388920  0.99388781
   0.25209611  0.75232869 -0.00003318
   0.25555712  0.24863252  0.49865058
   0.24890597  0.75023175  0.49969144
   0.25054856  0.24983913  0.24847342
   0.25996131  0.00039618  0.99391958
   0.00245435  0.24873546  0.00139588
   0.75218003  0.24647454  0.25413417
   0.74836533  0.99759587  0.00855291
   0.50368291  0.99929074  0.24814974
   0.99250491  0.48245188  0.24346353
   0.50469649  0.75989114  0.00688071
   0.98912487  0.00190702  0.74050611
   0.75420707  0.24500227  0.74983162
   0.73724293  0.00298828  0.51028387
   0.50445636  0.23346294  0.49799059
   0.50211455  0.00049010  0.73661935
  -0.00026135  0.00089256  0.25353679
   0.50426228  0.24762800 -0.00135032
   0.25186664  0.74899015  0.24932952
   0.24488884  0.50029224 -0.00189399
   0.99810457  0.74451391  0.00418551
   0.75384339  0.74376670  0.25370494
   0.75604531  0.50360967  0.00246916
   0.50016141  0.50471890  0.25343611
   0.25176628  0.25098400  0.74865011
   0.25319312  0.99834568  0.50226717
   0.99891880  0.24591029  0.50112314
   0.24449347  0.75369707  0.75014516
   0.25465056  0.50046348  0.49805918
   0.99395416  0.75697055  0.49944169
   0.99361852  0.50060218  0.75043105
   0.74663182  0.75632081  0.74991823
   0.74659817  0.49822835  0.50211812
   0.50265671  0.75648541  0.49846083
   0.50250439  0.50180783  0.74437289
   0.51644944  0.01538099  0.97780731
  -0.00027394  0.51289969  0.98385278
   0.50310502  0.73960860  0.25750642
   0.23815448  0.01124431  0.74750195
   0.47831618  0.98180088  0.49854971
   0.73991426  0.97596737  0.76571282
   0.00384524  0.76733962  0.25346819
   0.74383628  0.50681232  0.25777497
   0.01596388  0.00107624  0.50158839
   0.49660138  0.52111232  0.50019743
   0.74167597  0.51816977  0.74462419
   0.75281850  0.74155038  0.49714638
HECN                                    
           1
     8.766432    0.005143   -0.007715
     0.010923    8.780086    0.002682
     0.023781   -0.012648    8.794950
   V    Nb   Hf   N    C    Cr   Ta
   7   6   7  13  19   6   6
Direct configuration=     4
   0.99800172  0.98767386  0.00027227
   0.25234104  0.99264909  0.25141776
   0.25550082  0.50903353  0.24650250
   0.50056288  0.49047868  0.99755789
   0.49658778  0.24093253  0.75560986
   0.99596898  0.49650634  0.50472371
   0.49951640  0.76247209  0.74593337
   0.00389504  0.24215189  0.25556547
   0.74730550  0.75025427  0.00360036
   0.00508416  0.25211386  0.74266698
   0.75121822  0.25550385  0.50971593
   0.00076547  0.75105999  0.75386996
   0.25342326  0.49756152  0.75313492
   0.24902783  0.24302520  0.00082447
   0.49688714  0.24887727  0.24853685
   0.73856880  0.99656059  0.25834326
   0.75524035  0.24901010  0.99218927
   0.26120195  0.75691761 -0.00038262
   0.25778798  0.24900477  0.49708858
   0.25259729  0.75142848  0.49960814
   0.25160597  0.25031276  0.24861767
   0.25767200  0.00098773  0.99591472
   0.00208575  0.24629968  0.00183777
   0.75040736  0.24749447  0.25205661
   0.74983440  0.99809509  0.00131286
   0.49463054  0.99726605  0.24957609
   0.99715594  0.48920622  0.24725831
   0.50379656  0.75784328  0.00377134
   0.98902318  0.00201391  0.74964802
   0.74773705  0.24688921  0.75071443
   0.74047654 -0.00011326  0.51254996
   0.50323615  0.23672402  0.50338161
   0.50563699  0.00094125  0.74097639
   0.00429669  0.00082082  0.24457745
   0.50332049  0.24985389 -0.00874197
   0.25573845  0.74776861  0.24927666
   0.24737866  0.49989559  0.00462051
   0.99968776  0.74726306  0.00224056
   0.74878100  0.74818440  0.25088294
   0.75241643  0.50262889  0.00170252
   0.49127735  0.50746118  0.24405234
   0.25792165  0.24625094  0.74922767
   0.26164633  0.99898569  0.50186616
   0.00134261  0.25394043  0.50039486
   0.25115450  0.75580641  0.75045246
   0.24550956  0.49976265  0.49227092
   0.00026219  0.74765414  0.50099467
   0.99748160  0.50064396  0.74904788
   0.74042770  0.76173064  0.75413853
   0.75335816  0.49883891  0.50186846
   0.49874252  0.76378707  0.50036571
   0.49881243  0.50073817  0.75408457
   0.51603921  0.01790038  0.97174632
   0.00258830  0.51850753  0.97979712
   0.50098926  0.73937742  0.25488129
   0.23861667  0.01043322  0.74959223
   0.47810002  0.98083151  0.50072285
   0.73312660  0.97496279  0.76884839
   0.00822777  0.75618383  0.24474363
   0.75232420  0.49806746  0.24760260
   0.00780842  0.00362742  0.50629356
   0.49304351  0.51110053  0.49910408
   0.74622576  0.50706441  0.75521261
   0.74857350  0.75275185  0.50373785
HECN                                    
           1
     8.757037    0.005261   -0.007282
     0.011031    8.779375    0.002860
     0.024179   -0.012466    8.783834
   V    Nb   Hf   N    C    Cr   Ta
   7   6   7  13  19   6   6
Direct configuration=     5
   0.99787446  0.98795517  0.00022557
   0.25245880  0.99292045  0.25125424
   0.25496795  0.50854564  0.24674424
   0.50090171  0.49096191  0.99758798
   0.49716914  0.24130061  0.75503043
   0.99575958  0.49706150  0.50424319
   0.49951699  0.76197687  0.74608232
   0.00327881  0.24174614  0.25613632
   0.74801395  0.74959998  0.00413668
   0.00481917  0.25236153  0.74233274
   0.75133488  0.25594408  0.50949911
   0.00045077  0.75064580  0.75324179
   0.25373039  0.49737643  0.75258975
   0.24896177  0.24336540  0.00057780
   0.49762989  0.24932110  0.24893144
   0.73901670  0.99600894  0.25918284
   0.75537980  0.24950261  0.99235886
   0.26029187  0.75645432 -0.00034829
   0.25756510  0.24896719  0.49724427
   0.25222837  0.75130764  0.49961625
   0.25150028  0.25026494  0.24860322
   0.25790069  0.00092802  0.99571580
   0.00212260  0.24654552  0.00179376
   0.75058461  0.24739159  0.25226391
   0.74968793  0.99804482  0.00203496
   0.49553520  0.99747051  0.24943429
   0.99669085  0.48852436  0.24687943
   0.50388668  0.75805004  0.00408158
   0.98903290  0.00200295  0.74873613
   0.74838360  0.24669883  0.75062664
   0.74015330  0.00019969  0.51232383
   0.50335780  0.23639479  0.50284386
   0.50528474  0.00089558  0.74054160
   0.00384160  0.00082816  0.24547091
   0.50341495  0.24962938 -0.00800467
   0.25535152  0.74789185  0.24928177
   0.24712951  0.49993547  0.00397058
   0.99952960  0.74698560  0.00243443
   0.74928702  0.74773864  0.25116458
   0.75277915  0.50272795  0.00177919
   0.49216565  0.50718470  0.24498873
   0.25730651  0.24672856  0.74916986
   0.26080153  0.99892098  0.50190574
   0.00110031  0.25312991  0.50046722
   0.25048875  0.75559341  0.75042145
   0.24642341  0.49983363  0.49284875
  -0.00036819  0.74859434  0.50083965
   0.99709559  0.50063971  0.74918566
   0.74104747  0.76118463  0.75371776
   0.75268257  0.49877719  0.50189303
   0.49913352  0.76305012  0.50017574
   0.49918095  0.50084600  0.75311604
   0.51608047  0.01764622  0.97235087
   0.00230238  0.51794156  0.98020141
   0.50120084  0.73940083  0.25514325
   0.23857038  0.01051504  0.74938372
   0.47812153  0.98092931  0.50050611
   0.73380482  0.97506422  0.76853597
   0.00779034  0.75730990  0.24561391
   0.75147652  0.49895016  0.24861705
   0.00862321  0.00336996  0.50582457
   0.49339926  0.51211110  0.49921351
   0.74577068  0.50818502  0.75415644
   0.74899728  0.75162121  0.50308034
HECN                                    
           1
     8.730487    0.000532   -0.007258
     0.006266    8.756611   -0.002105
     0.024120   -0.017406    8.760525
   V    Nb   Hf   N    C    Cr   Ta
   7   6   7  13  19   6   6
Direct configuration=     6
   0.00058746  0.98511898  0.00024016
   0.25129775  0.99053138  0.25360488
   0.26055897  0.51272291  0.24379748
   0.49786711  0.48649393  0.99793692
   0.49154255  0.23888530  0.75871881
   0.99804725  0.49380684  0.50923470
   0.50002533  0.76455294  0.74400458
   0.00474486  0.24293825  0.25561169
   0.74390289  0.75143664  0.00167077
   0.00826065  0.25023028  0.74320933
   0.75250817  0.25479666  0.50914066
   0.00106021  0.75241457  0.75558268
   0.25170929  0.49792310  0.75556048
   0.24768977  0.24226763  0.00002691
   0.49570323  0.24876790  0.24630564
   0.73953381  0.99726909  0.25417101
   0.75507885  0.24710885  0.99268419
   0.26441988  0.75833212 -0.00070094
   0.25470596  0.24896017  0.49861366
   0.25001789  0.75118142  0.50006645
   0.25178532  0.24991612  0.24868820
   0.25655759  0.00096757  0.99713960
   0.00198827  0.24495358  0.00190169
   0.74920964  0.24806147  0.25077243
   0.74976971  0.99854534 -0.00193977
   0.49212614  0.99638851  0.25039987
   0.99851654  0.49445810  0.24892456
   0.50469959  0.75735080  0.00201959
   0.98986655  0.00242381  0.75298462
   0.74656694  0.24879601  0.75006492
   0.74414874 -0.00102157  0.51213476
   0.50371621  0.24141970  0.50355521
   0.50761920  0.00207671  0.74387661
   0.00485490 -0.00269205  0.24368655
   0.50210962  0.25046383 -0.00998468
   0.25777165  0.74792942  0.24879651
   0.24727680  0.50057193  0.00665064
   0.00131630  0.74870310  0.00066290
   0.74763981  0.74659431  0.25279879
   0.75194234  0.50164755  0.00164751
   0.49307858  0.50749597  0.24300593
   0.25956427  0.24474507  0.74986873
   0.25829855  0.99982247  0.50293493
   0.00236405  0.25551119  0.49989816
   0.25387632  0.75757153  0.75083650
   0.24363351  0.49977867  0.49197031
  -0.00123106  0.74598798  0.50027077
   0.99875140  0.50096906  0.74965075
   0.74054973  0.75630117  0.75414666
   0.75254705  0.50205778  0.50141199
   0.50028943  0.75980486  0.49997502
   0.49974608  0.50038120  0.75513842
   0.51577639  0.01930641  0.96757979
   0.00409146  0.52304341  0.97702336
   0.49883435  0.73745395  0.25589845
   0.23780502  0.00834791  0.74899646
   0.47937821  0.98228311  0.50196334
   0.72744159  0.97742004  0.77146064
   0.00563293  0.75473522  0.24604272
   0.74963325  0.50025843  0.24724206
   0.00926538  0.00347720  0.50396529
   0.49768979  0.51088077  0.49828610
   0.74546447  0.50872788  0.75497886
   0.74877592  0.75034527  0.50319433
HECN                                    
           1
     8.723307   -0.000747   -0.007252
     0.004977    8.750455   -0.003448
     0.024104   -0.018742    8.754221
   V    Nb   Hf   N    C    Cr   Ta
   7   6   7  13  19   6   6
Direct configuration=     7
   0.00132294  0.98435041  0.00024367
   0.25098246  0.98988383  0.25424188
   0.26207614  0.51385585  0.24299912
   0.49704332  0.48528214  0.99803085
   0.49001599  0.23823018  0.75971852
   0.99866729  0.49292551  0.51058763
   0.50016360  0.76525114  0.74344161
   0.00514270  0.24326160  0.25546962
   0.74278804  0.75193364  0.00100244
   0.00919383  0.24965307  0.74344668
   0.75282626  0.25448568  0.50904329
   0.00122578  0.75289459  0.75621767
   0.25116114  0.49807148  0.75636606
   0.24734458  0.24196972 -0.00012263
   0.49518055  0.24861723  0.24559358
   0.73967426  0.99761006  0.25281226
   0.75499686  0.24645984  0.99277203
   0.26553987  0.75884179 -0.00079627
   0.25393043  0.24895806  0.49898497
   0.24941828  0.75114695  0.50018851
   0.25186259  0.24982160  0.24871118
   0.25619328  0.00097832  0.99752566
   0.00195160  0.24452196  0.00193071
   0.74883678  0.24824266  0.25036812
   0.74979196  0.99868044 -0.00301742
   0.49120128  0.99609480  0.25066151
   0.99901262  0.49606749  0.24948000
   0.50491999  0.75716101  0.00146038
   0.99009273  0.00253869  0.75413664
   0.74607448  0.24936426  0.74991294
   0.74523232 -0.00135214  0.51208331
   0.50381417  0.24278226  0.50374886
   0.50825260  0.00239780  0.74478107
   0.00512924 -0.00364661  0.24320219
   0.50175567  0.25068958 -0.01052143
   0.25842811  0.74793989  0.24866494
   0.24731684  0.50074493  0.00737742
   0.00180120  0.74916875  0.00018282
   0.74719283  0.74628406  0.25324173
   0.75171520  0.50135448  0.00161164
   0.49332625  0.50758019  0.24246835
   0.26017639  0.24420772  0.75005792
   0.25761975  0.00006669  0.50321413
   0.00270719  0.25615692  0.49974423
   0.25479549  0.75810841  0.75094935
   0.24287675  0.49976323  0.49173212
  -0.00146550  0.74528111  0.50011612
   0.99920058  0.50105867  0.74977690
   0.74041400  0.75497711  0.75426220
   0.75251077  0.50294715  0.50128206
   0.50060249  0.75892511  0.49992009
   0.49989931  0.50025558  0.75568671
   0.51569415  0.01975576  0.96628639
   0.00457749  0.52442644  0.97616243
   0.49819216  0.73692587  0.25610292
   0.23759710  0.00776017  0.74889112
   0.47971928  0.98265057  0.50235867
   0.72571592  0.97805829  0.77225402
   0.00504735  0.75403689  0.24615860
   0.74913345  0.50061266  0.24686944
   0.00943959  0.00350608  0.50346117
   0.49885341  0.51054767  0.49803444
   0.74538150  0.50887514  0.75520193
   0.74871569  0.74999931  0.50322504
HECN                                    
           1
     8.759923   -0.000599   -0.006885
     0.005149    8.804127   -0.006037
     0.024603   -0.021433    8.789545
   V    Nb   Hf   N    C    Cr   Ta
   7   6   7  13  19   6   6
Direct configuration=     8
   0.00548879  0.98162252 -0.00001914
   0.24998306  0.98753547  0.25708174
   0.26694281  0.51678112  0.24100860
   0.49524711  0.48217409  0.99821936
   0.48528895  0.23794071  0.75948439
   0.99915563  0.49263371  0.51473600
   0.50163871  0.76608484  0.74070326
   0.00406761  0.24394823  0.25551883
   0.74067380  0.75158304  0.00023372
   0.01041310  0.24744576  0.74389404
   0.75419078  0.25541970  0.50778217
   0.00086057  0.75499150  0.75446986
   0.25206438  0.49973010  0.75682900
   0.24504950  0.24187134  0.00046544
   0.49507045  0.24818978  0.24586133
   0.74066117  0.99616109  0.25097202
   0.75614192  0.24714984  0.99243970
   0.26667224  0.75951198 -0.00053768
   0.25433474  0.25069186  0.49908815
   0.24928682  0.74987317  0.50075559
   0.25086232  0.24938856  0.24903666
   0.25493402  0.00077666  0.99915217
   0.00124558  0.24311141  0.00187323
   0.74838766  0.24849644  0.24943439
   0.74944158  0.99853428 -0.00431835
   0.49076557  0.99538968  0.25223755
   0.99941766  0.49913285  0.25053782
   0.50664478  0.75720634 -0.00028777
   0.99200451  0.00268791  0.75550427
   0.74625637  0.24974762  0.74849039
   0.74828147 -0.00074862  0.51042774
   0.50427910  0.24689231  0.50321558
   0.50806110  0.00393572  0.74476851
   0.00434395 -0.00369632  0.24430118
   0.50048001  0.25014333 -0.00980958
   0.25895629  0.74893279  0.24899695
   0.24631844  0.50186738  0.00797786
   0.00304757  0.75038197  0.00049230
   0.74619413  0.74609363  0.25343109
   0.75213732  0.50118043  0.00124413
   0.49683736  0.50604029  0.24271793
   0.26020475  0.24380879  0.75057815
   0.25566259 -0.00054922  0.50435150
   0.00229228  0.25465993  0.49995816
   0.25646497  0.75971029  0.75085506
   0.24390166  0.49998419  0.49262901
  -0.00352814  0.74551678  0.49990385
   0.99901578  0.50100950  0.75074452
   0.74160127  0.75388923  0.75279346
   0.75246151  0.50266673  0.50128462
   0.50035879  0.75644275  0.49896725
   0.50011774  0.49982457  0.75497581
   0.51473792  0.02124992  0.96550189
   0.00597673  0.52849396  0.97521896
   0.49715220  0.73578149  0.25898826
   0.23598823  0.00449768  0.74745134
   0.48050097  0.98404516  0.50344973
   0.72282046  0.97711831  0.77287436
   0.00305013  0.75141375  0.24762618
   0.74587934  0.50216173  0.24751304
   0.00870865  0.00387353  0.50092079
   0.49936547  0.50922473  0.49829162
   0.74458254  0.50894799  0.75387201
   0.75055559  0.74939347  0.50284014
HECN                                    
           1
     8.764399   -0.000580   -0.006840
     0.005170    8.810689   -0.006353
     0.024664   -0.021762    8.793863
   V    Nb   Hf   N    C    Cr   Ta
   7   6   7  13  19   6   6
Direct configuration=     9
   0.00599595  0.98129104 -0.00005126
   0.24986138  0.98725023  0.25742745
   0.26753529  0.51713649  0.24076630
   0.49502844  0.48179645  0.99824221
   0.48471347  0.23790554  0.75945589
   0.99921506  0.49259840  0.51524110
   0.50181830  0.76618604  0.74036985
   0.00393672  0.24403166  0.25552485
   0.74041641  0.75154041  0.00014012
   0.01056154  0.24717756  0.74394843
   0.75435691  0.25553314  0.50762864
   0.00081611  0.75524623  0.75425712
   0.25217433  0.49993164  0.75688543
   0.24477009  0.24185941  0.00053705
   0.49505705  0.24813785  0.24589392
   0.74078133  0.99598496  0.25074789
   0.75628133  0.24723366  0.99239926
   0.26681009  0.75959342 -0.00050618
   0.25438396  0.25090253  0.49910077
   0.24927081  0.74971842  0.50082459
   0.25074055  0.24933596  0.24907628
   0.25478071  0.00075222  0.99935022
   0.00115963  0.24294002  0.00186618
   0.74833299  0.24852724  0.24932071
   0.74939893  0.99851648 -0.00447675
   0.49071252  0.99530406  0.25242943
   0.99946696  0.49950535  0.25066672
   0.50685477  0.75721178 -0.00050063
   0.99223725  0.00270608  0.75567079
   0.74627853  0.24979414  0.74831719
   0.74865269 -0.00067535  0.51022616
   0.50433569  0.24739169  0.50315079
   0.50803778  0.00412259  0.74476703
   0.00424834 -0.00370232  0.24443500
   0.50032471  0.25007699 -0.00972292
   0.25902059  0.74905344  0.24903741
   0.24619689  0.50200379  0.00805101
   0.00319930  0.75052940  0.00053002
   0.74607255  0.74607050  0.25345415
   0.75218871  0.50115927  0.00119938
   0.49726481  0.50585318  0.24274824
   0.26020820  0.24376033  0.75064148
   0.25542432 -0.00062401  0.50448998
   0.00224177  0.25447805  0.49998416
   0.25666821  0.75990493  0.75084363
   0.24402643  0.50001106  0.49273822
  -0.00377925  0.74554541  0.49987803
   0.99899328  0.50100356  0.75086234
   0.74174582  0.75375699  0.75261458
   0.75245552  0.50263266  0.50128492
   0.50032913  0.75614109  0.49885114
   0.50014434  0.49977217  0.75488924
   0.51462151  0.02143144  0.96540642
   0.00614708  0.52898816  0.97510422
   0.49702558  0.73564255  0.25933955
   0.23579238  0.00410121  0.74727592
   0.48059613  0.98421465  0.50358262
   0.72246796  0.97700413  0.77294987
   0.00280699  0.75109507  0.24780479
   0.74548317  0.50234998  0.24759148
   0.00861967  0.00391809  0.50061148
   0.49942781  0.50906399  0.49832289
   0.74448529  0.50895680  0.75371008
   0.75077959  0.74931984  0.50279324
HECN                                    
           1
     8.737491    0.000576   -0.010160
     0.006315    8.776836   -0.008417
     0.021223   -0.023762    8.754461
   V    Nb   Hf   N    C    Cr   Ta
   7   6   7  13  19   6   6
Direct configuration=    10
   0.01100461  0.97846928  0.00014237
   0.24895977  0.98483554  0.26112072
   0.27212101  0.51925493  0.23975402
   0.49444638  0.47865656  0.99776802
   0.48072977  0.23893077  0.75784072
   0.99876926  0.49292739  0.51877518
   0.50387736  0.76648322  0.73655613
   0.00211301  0.24529933  0.25622924
   0.73917662  0.75025108 -0.00088615
   0.01093000  0.24522255  0.74353331
   0.75546672  0.25723711  0.50667574
   0.00039697  0.75726272  0.75220149
   0.25343812  0.50269365  0.75677750
   0.24270577  0.24203166  0.00220653
   0.49530793  0.24646746  0.24723077
   0.74106113  0.99420164  0.24993376
   0.75720026  0.24867343  0.99085962
   0.26801592  0.76001178 -0.00028306
   0.25493588  0.25203054  0.49841501
   0.24927548  0.74895355  0.50115828
   0.24950409  0.24906354  0.24960514
   0.25317716  0.00071529  0.00153409
   0.00017865  0.24106056  0.00183684
   0.74820068  0.24836825  0.24860728
   0.74853125  0.99824827 -0.00502398
   0.49159757  0.99521751  0.25491694
   0.99895089  0.50091226  0.25121465
   0.50783727  0.75773843 -0.00237443
   0.99491658  0.00244547  0.75554663
   0.74751664  0.24971430  0.74671919
   0.75128476  0.00025316  0.50752872
   0.50445651  0.25085611  0.50238363
   0.50724311  0.00570825  0.74341810
   0.00308094 -0.00275782  0.24608474
   0.49923990  0.24877379 -0.00853551
   0.25867909  0.75014818  0.24997157
   0.24512920  0.50318988  0.00774040
   0.00403015  0.75133253  0.00085108
   0.74508016  0.74638938  0.25250030
   0.75295029  0.50172909  0.00051806
   0.49986499  0.50395092  0.24351758
   0.25849752  0.24396723  0.75097689
   0.25523340 -0.00123721  0.50551209
   0.00207351  0.25228004  0.50066563
   0.25754159  0.76108124  0.75052741
   0.24655698  0.50035680  0.49430759
  -0.00417296  0.74671174  0.50003339
   0.99852094  0.50094185  0.75251269
   0.74321610  0.75504110  0.75082954
   0.75292369  0.50132360  0.50146698
   0.50018441  0.75587946  0.49783330
   0.49995617  0.49930688  0.75356063
   0.51332933  0.02330732  0.96603095
   0.00728943  0.53337237  0.97460180
   0.49718586  0.73492896  0.26421403
   0.23348411  0.00008241  0.74504566
   0.48002561  0.98430586  0.50459494
   0.72105900  0.97439936  0.77266843
   0.00189166  0.74846095  0.24921809
   0.74337335  0.50317686  0.24790441
   0.00703892  0.00459061  0.49848301
   0.49812515  0.50758596  0.49909253
   0.74388525  0.50817285  0.75290724
   0.75139950  0.74901195  0.50244269
HECN                                    
           1
     8.742770    0.000349   -0.009508
     0.006090    8.783478   -0.008012
     0.021898   -0.023370    8.762192
   V    Nb   Hf   N    C    Cr   Ta
   7   6   7  13  19   6   6
Direct configuration=    11
   0.01001878  0.97902517  0.00010397
   0.24913687  0.98531094  0.26039300
   0.27121863  0.51883784  0.23995308
   0.49456089  0.47927500  0.99786167
   0.48151394  0.23872882  0.75815930
   0.99885674  0.49286242  0.51807868
   0.50347242  0.76642492  0.73730759
   0.00247191  0.24504957  0.25609049
   0.73942067  0.75050505 -0.00068373
   0.01085747  0.24560764  0.74361519
   0.75524842  0.25690157  0.50686338
   0.00047967  0.75686564  0.75260656
   0.25318948  0.50214968  0.75679855
   0.24311192  0.24199760  0.00187764
   0.49525841  0.24679641  0.24696735
   0.74100608  0.99455293  0.25009428
   0.75701956  0.24838995  0.99116292
   0.26777859  0.75992940 -0.00032714
   0.25482734  0.25180842  0.49855007
   0.24927452  0.74910418  0.50109255
   0.24974739  0.24911714  0.24950101
   0.25349259  0.00072242  0.00110380
   0.00037167  0.24143072  0.00184279
   0.74822677  0.24839959  0.24874790
   0.74870205  0.99830110 -0.00491605
   0.49142320  0.99523446  0.25442662
   0.99905245  0.50063511  0.25110664
   0.50764406  0.75763482 -0.00200523
   0.99438927  0.00249687  0.75557091
   0.74727309  0.24973014  0.74703405
   0.75076697  0.00007047  0.50806011
   0.50443288  0.25017379  0.50253465
   0.50739965  0.00539598  0.74368394
   0.00331060 -0.00294396  0.24575964
   0.49945327  0.24903039 -0.00876939
   0.25874626  0.74993251  0.24978743
   0.24533938  0.50295626  0.00780165
   0.00386663  0.75117435  0.00078771
   0.74527555  0.74632659  0.25268835
   0.75280047  0.50161691  0.00065225
   0.49935315  0.50432562  0.24336585
   0.25883417  0.24392642  0.75091090
   0.25527088 -0.00111649  0.50531069
   0.00210651  0.25271292  0.50053144
   0.25736975  0.76084959  0.75058961
   0.24605884  0.50028869  0.49399808
  -0.00409545  0.74648200  0.50000275
   0.99861377  0.50095391  0.75218746
   0.74292691  0.75478830  0.75118118
   0.75283150  0.50158144  0.50143113
   0.50021296  0.75593104  0.49803392
   0.49999329  0.49939858  0.75382251
   0.51358364  0.02293779  0.96590788
   0.00706476  0.53250890  0.97470053
   0.49715393  0.73506929  0.26325335
   0.23393845  0.00087400  0.74548558
   0.48013782  0.98428783  0.50439546
   0.72133625  0.97491238  0.77272413
   0.00207163  0.74897968  0.24893974
   0.74378857  0.50301393  0.24784286
   0.00735020  0.00445821  0.49890259
   0.49838142  0.50787700  0.49894101
   0.74400338  0.50832728  0.75306555
   0.75127751  0.74907262  0.50251174
HECN                                    
           1
     8.766469   -0.000910   -0.013701
     0.004844    8.790421   -0.009530
     0.017772   -0.024892    8.773677
   V    Nb   Hf   N    C    Cr   Ta
   7   6   7  13  19   6   6
Direct configuration=    12
   0.01257780  0.97843980  0.00083860
   0.24884532  0.98479973  0.26275214
   0.27240910  0.51855090  0.24055598