  64  64   0   0
  0.1081319E+02  0.8835075E-09  0.8832676E-09  0.8868764E-09  0.5000000E-15
  1.000000000000000E-004
  CAR 
 HEBCN                                   
     15.48699869    -59.41321609  301      9.00255785      1.00000000
    -59.413  0.0000E+00  0.0000E+00
    -59.164  0.0000E+00  0.0000E+00
    -58.914  0.0000E+00  0.0000E+00
    -58.664  0.0000E+00  0.0000E+00
    -58.415  0.0000E+00  0.0000E+00
    -58.165  0.0000E+00  0.0000E+00
    -57.915  0.0000E+00  0.0000E+00
    -57.666  0.0000E+00  0.0000E+00
    -57.416  0.0000E+00  0.0000E+00
    -57.166  0.0000E+00  0.0000E+00
    -56.917  0.0000E+00  0.0000E+00
    -56.667  0.0000E+00  0.0000E+00
    -56.417  0.3201E-07  0.7992E-08
    -56.168  0.1273E+00  0.3179E-01
    -55.918  0.2123E+02  0.5332E+01
    -55.668  0.3387E+02  0.1379E+02
    -55.419  0.8431E+00  0.1400E+02
    -55.169  0.1324E-05  0.1400E+02
    -54.919  0.0000E+00  0.1400E+02
    -54.670  0.0000E+00  0.1400E+02
    -54.420  0.0000E+00  0.1400E+02
    -54.170  0.0000E+00  0.1400E+02
    -53.921  0.0000E+00  0.1400E+02
    -53.671  0.0000E+00  0.1400E+02
    -53.421  0.0000E+00  0.1400E+02
    -53.172  0.0000E+00  0.1400E+02
    -52.922  0.0000E+00  0.1400E+02
    -52.672  0.0000E+00  0.1400E+02
    -52.423  0.0000E+00  0.1400E+02
    -52.173  0.0000E+00  0.1400E+02
    -51.923  0.0000E+00  0.1400E+02
    -51.674  0.0000E+00  0.1400E+02
    -51.424  0.0000E+00  0.1400E+02
    -51.174  0.0000E+00  0.1400E+02
    -50.925  0.0000E+00  0.1400E+02
    -50.675  0.0000E+00  0.1400E+02
    -50.425  0.0000E+00  0.1400E+02
    -50.176  0.0000E+00  0.1400E+02
    -49.926  0.0000E+00  0.1400E+02
    -49.676  0.0000E+00  0.1400E+02
    -49.427  0.0000E+00  0.1400E+02
    -49.177  0.0000E+00  0.1400E+02
    -48.927  0.0000E+00  0.1400E+02
    -48.678  0.0000E+00  0.1400E+02
    -48.428  0.0000E+00  0.1400E+02
    -48.178  0.0000E+00  0.1400E+02
    -47.929  0.0000E+00  0.1400E+02
    -47.679  0.0000E+00  0.1400E+02
    -47.429  0.3689E-10  0.1400E+02
    -47.180  0.4061E-02  0.1400E+02
    -46.930  0.6451E+01  0.1561E+02
    -46.680  0.2644E+02  0.2221E+02
    -46.431  0.1287E+02  0.2543E+02
    -46.181  0.2299E+01  0.2600E+02
    -45.931  0.1663E-03  0.2600E+02
    -45.682  0.9427E-13  0.2600E+02
    -45.432  0.0000E+00  0.2600E+02
    -45.182  0.0000E+00  0.2600E+02
    -44.933  0.0000E+00  0.2600E+02
    -44.683  0.0000E+00  0.2600E+02
    -44.433  0.0000E+00  0.2600E+02
    -44.184  0.0000E+00  0.2600E+02
    -43.934  0.0000E+00  0.2600E+02
    -43.684  0.0000E+00  0.2600E+02
    -43.435  0.0000E+00  0.2600E+02
    -43.185  0.0000E+00  0.2600E+02
    -42.935  0.0000E+00  0.2600E+02
    -42.686  0.0000E+00  0.2600E+02
    -42.436  0.0000E+00  0.2600E+02
    -42.186  0.0000E+00  0.2600E+02
    -41.936  0.0000E+00  0.2600E+02
    -41.687  0.0000E+00  0.2600E+02
    -41.437  0.0000E+00  0.2600E+02
    -41.187  0.0000E+00  0.2600E+02
    -40.938  0.0000E+00  0.2600E+02
    -40.688  0.0000E+00  0.2600E+02
    -40.438  0.0000E+00  0.2600E+02
    -40.189  0.0000E+00  0.2600E+02
    -39.939  0.0000E+00  0.2600E+02
    -39.689  0.0000E+00  0.2600E+02
    -39.440  0.0000E+00  0.2600E+02
    -39.190  0.0000E+00  0.2600E+02
    -38.940  0.0000E+00  0.2600E+02
    -38.691  0.0000E+00  0.2600E+02
    -38.441  0.0000E+00  0.2600E+02
    -38.191  0.0000E+00  0.2600E+02
    -37.942  0.0000E+00  0.2600E+02
    -37.692  0.0000E+00  0.2600E+02
    -37.442  0.0000E+00  0.2600E+02
    -37.193  0.0000E+00  0.2600E+02
    -36.943  0.0000E+00  0.2600E+02
    -36.693  0.0000E+00  0.2600E+02
    -36.444  0.0000E+00  0.2600E+02
    -36.194  0.0000E+00  0.2600E+02
    -35.944  0.0000E+00  0.2600E+02
    -35.695  0.0000E+00  0.2600E+02
    -35.445  0.0000E+00  0.2600E+02
    -35.195  0.0000E+00  0.2600E+02
    -34.946  0.0000E+00  0.2600E+02
    -34.696  0.0000E+00  0.2600E+02
    -34.446  0.0000E+00  0.2600E+02
    -34.197  0.0000E+00  0.2600E+02
    -33.947  0.0000E+00  0.2600E+02
    -33.697  0.0000E+00  0.2600E+02
    -33.448  0.0000E+00  0.2600E+02
    -33.198  0.0000E+00  0.2600E+02
    -32.948  0.0000E+00  0.2600E+02
    -32.699  0.0000E+00  0.2600E+02
    -32.449  0.0000E+00  0.2600E+02
    -32.199  0.0000E+00  0.2600E+02
    -31.950  0.0000E+00  0.2600E+02
    -31.700  0.0000E+00  0.2600E+02
    -31.450  0.0000E+00  0.2600E+02
    -31.201  0.0000E+00  0.2600E+02
    -30.951  0.1111E-05  0.2600E+02
    -30.701  0.4708E+00  0.2612E+02
    -30.452  0.1749E+02  0.3048E+02
    -30.202  0.7442E+02  0.4906E+02
    -29.952  0.7336E+02  0.6738E+02
    -29.703  0.1230E+03  0.9809E+02
    -29.453  0.2367E+02  0.1040E+03
    -29.203  0.6032E-02  0.1040E+03
    -28.954  0.3088E-10  0.1040E+03
    -28.704  0.0000E+00  0.1040E+03
    -28.454  0.0000E+00  0.1040E+03
    -28.205  0.0000E+00  0.1040E+03
    -27.955  0.0000E+00  0.1040E+03
    -27.705  0.0000E+00  0.1040E+03
    -27.456  0.0000E+00  0.1040E+03
    -27.206  0.0000E+00  0.1040E+03
    -26.956  0.1296E-11  0.1040E+03
    -26.707  0.8031E-03  0.1040E+03
    -26.457  0.6413E+01  0.1056E+03
    -26.207  0.4864E+02  0.1177E+03
    -25.958  0.7476E+02  0.1364E+03
    -25.708  0.1437E+02  0.1400E+03
    -25.458  0.8864E-02  0.1400E+03
    -25.209  0.1550E-09  0.1400E+03
    -24.959  0.0000E+00  0.1400E+03
    -24.709  0.0000E+00  0.1400E+03
    -24.460  0.0000E+00  0.1400E+03
    -24.210  0.0000E+00  0.1400E+03
    -23.960  0.0000E+00  0.1400E+03
    -23.711  0.2604E-07  0.1400E+03
    -23.461  0.9244E-01  0.1400E+03
    -23.211  0.1016E+02  0.1426E+03
    -22.962  0.5888E+02  0.1573E+03
    -22.712  0.4965E+02  0.1697E+03
    -22.462  0.2485E+02  0.1759E+03
    -22.213  0.2373E+01  0.1765E+03
    -21.963  0.2093E+02  0.1817E+03
    -21.713  0.5417E+02  0.1952E+03
    -21.464  0.5312E+02  0.2085E+03
    -21.214  0.3638E+02  0.2175E+03
    -20.964  0.1805E+01  0.2180E+03
    -20.715  0.6308E-04  0.2180E+03
    -20.465  0.0000E+00  0.2180E+03
    -20.215  0.0000E+00  0.2180E+03
    -19.966  0.0000E+00  0.2180E+03
    -19.716  0.0000E+00  0.2180E+03
    -19.466  0.0000E+00  0.2180E+03
    -19.217  0.0000E+00  0.2180E+03
    -18.967  0.0000E+00  0.2180E+03
    -18.717  0.0000E+00  0.2180E+03
    -18.468  0.0000E+00  0.2180E+03
    -18.218  0.0000E+00  0.2180E+03
    -17.968  0.0000E+00  0.2180E+03
    -17.719  0.0000E+00  0.2180E+03
    -17.469  0.0000E+00  0.2180E+03
    -17.219  0.0000E+00  0.2180E+03
    -16.970  0.0000E+00  0.2180E+03
    -16.720  0.0000E+00  0.2180E+03
    -16.470  0.0000E+00  0.2180E+03
    -16.221  0.0000E+00  0.2180E+03
    -15.971  0.0000E+00  0.2180E+03
    -15.721  0.0000E+00  0.2180E+03
    -15.472  0.0000E+00  0.2180E+03
    -15.222  0.0000E+00  0.2180E+03
    -14.972  0.0000E+00  0.2180E+03
    -14.723  0.0000E+00  0.2180E+03
    -14.473  0.0000E+00  0.2180E+03
    -14.223  0.0000E+00  0.2180E+03
    -13.974  0.0000E+00  0.2180E+03
    -13.724  0.0000E+00  0.2180E+03
    -13.474  0.0000E+00  0.2180E+03
    -13.225  0.0000E+00  0.2180E+03
    -12.975  0.0000E+00  0.2180E+03
    -12.725  0.0000E+00  0.2180E+03
    -12.476  0.0000E+00  0.2180E+03
    -12.226  0.0000E+00  0.2180E+03
    -11.976  0.0000E+00  0.2180E+03
    -11.727  0.0000E+00  0.2180E+03
    -11.477  0.0000E+00  0.2180E+03
    -11.227  0.0000E+00  0.2180E+03
    -10.978  0.0000E+00  0.2180E+03
    -10.728  0.0000E+00  0.2180E+03
    -10.478  0.0000E+00  0.2180E+03
    -10.229  0.0000E+00  0.2180E+03
     -9.979  0.0000E+00  0.2180E+03
     -9.729  0.0000E+00  0.2180E+03
     -9.480  0.0000E+00  0.2180E+03
     -9.230  0.0000E+00  0.2180E+03
     -8.980  0.0000E+00  0.2180E+03
     -8.731  0.0000E+00  0.2180E+03
     -8.481  0.0000E+00  0.2180E+03
     -8.231  0.5219E-10  0.2180E+03
     -7.982  0.1174E-02  0.2180E+03
     -7.732  0.1004E+01  0.2183E+03
     -7.482  0.5957E+01  0.2197E+03
     -7.233  0.3244E+01  0.2205E+03
     -6.983  0.1102E+02  0.2233E+03
     -6.733  0.1697E+02  0.2275E+03
     -6.484  0.1727E+02  0.2318E+03
     -6.234  0.1212E+02  0.2349E+03
     -5.984  0.2038E+02  0.2400E+03
     -5.735  0.9919E+01  0.2424E+03
     -5.485  0.6225E+01  0.2440E+03
     -5.235  0.3067E-01  0.2440E+03
     -4.986  0.4762E-08  0.2440E+03
     -4.736  0.0000E+00  0.2440E+03
     -4.486  0.2286E-07  0.2440E+03
     -4.237  0.2101E-01  0.2440E+03
     -3.987  0.2414E+01  0.2446E+03
     -3.737  0.5317E+01  0.2459E+03
     -3.488  0.5282E+01  0.2473E+03
     -3.238  0.9063E+01  0.2495E+03
     -2.988  0.1406E+02  0.2530E+03
     -2.739  0.2052E+02  0.2581E+03
     -2.489  0.2531E+02  0.2645E+03
     -2.239  0.2448E+02  0.2706E+03
     -1.990  0.1819E+02  0.2751E+03
     -1.740  0.1572E+02  0.2790E+03
     -1.490  0.9019E+01  0.2813E+03
     -1.241  0.2580E+01  0.2819E+03
     -0.991  0.2339E+00  0.2820E+03
     -0.741  0.4573E-04  0.2820E+03
     -0.492  0.1293E-12  0.2820E+03
     -0.242  0.0000E+00  0.2820E+03
      0.008  0.8013E-09  0.2820E+03
      0.257  0.4184E-02  0.2820E+03
      0.507  0.5050E+00  0.2821E+03
      0.757  0.2313E+01  0.2827E+03
      1.006  0.6652E+01  0.2844E+03
      1.256  0.9052E+01  0.2866E+03
      1.506  0.1168E+02  0.2895E+03
      1.755  0.1705E+02  0.2938E+03
      2.005  0.2280E+02  0.2995E+03
      2.255  0.2649E+02  0.3061E+03
      2.504  0.2663E+02  0.3128E+03
      2.754  0.3010E+02  0.3203E+03
      3.004  0.3236E+02  0.3283E+03
      3.253  0.2990E+02  0.3358E+03
      3.503  0.3952E+02  0.3457E+03
      3.753  0.4920E+02  0.3580E+03
      4.002  0.5710E+02  0.3722E+03
      4.252  0.6324E+02  0.3880E+03
      4.502  0.6120E+02  0.4033E+03
      4.751  0.5912E+02  0.4180E+03
      5.001  0.5275E+02  0.4312E+03
      5.251  0.4235E+02  0.4418E+03
      5.500  0.3203E+02  0.4498E+03
      5.750  0.3129E+02  0.4576E+03
      6.000  0.2542E+02  0.4639E+03
      6.249  0.1772E+02  0.4684E+03
      6.499  0.1601E+02  0.4724E+03
      6.749  0.6177E+01  0.4739E+03
      6.998  0.1102E+02  0.4767E+03
      7.248  0.1562E+02  0.4806E+03
      7.498  0.1591E+02  0.4845E+03
      7.747  0.2033E+02  0.4896E+03
      7.997  0.1873E+02  0.4943E+03
      8.247  0.1838E+02  0.4989E+03
      8.496  0.2514E+02  0.5052E+03
      8.746  0.2652E+02  0.5118E+03
      8.996  0.2444E+02  0.5179E+03
      9.245  0.2199E+02  0.5234E+03
      9.495  0.3267E+02  0.5315E+03
      9.745  0.3693E+02  0.5407E+03
      9.994  0.4424E+02  0.5518E+03
     10.244  0.4594E+02  0.5633E+03
     10.494  0.4228E+02  0.5738E+03
     10.743  0.4400E+02  0.5848E+03
     10.993  0.4322E+02  0.5956E+03
     11.243  0.3933E+02  0.6054E+03
     11.492  0.3327E+02  0.6137E+03
     11.742  0.2593E+02  0.6202E+03
     11.992  0.1256E+02  0.6233E+03
     12.241  0.2687E+01  0.6240E+03
     12.491  0.1466E-01  0.6240E+03
     12.741  0.3122E-08  0.6240E+03
     12.990  0.0000E+00  0.6240E+03
     13.240  0.0000E+00  0.6240E+03
     13.490  0.0000E+00  0.6240E+03
     13.739  0.0000E+00  0.6240E+03
     13.989  0.0000E+00  0.6240E+03
     14.239  0.0000E+00  0.6240E+03
     14.488  0.0000E+00  0.6240E+03
     14.738  0.0000E+00  0.6240E+03
     14.988  0.0000E+00  0.6240E+03
     15.237  0.0000E+00  0.6240E+03
     15.487  0.0000E+00  0.6240E+03
