    2    2  100    1
  0.1200126E+02  0.2884600E-09  0.2884600E-09  0.2884600E-09  0.5000000E-15
  1.000000000000000E-004
  CAR 
 HECN                                    
     24      4     28
 
  0.0000000E+00  0.0000000E+00  0.0000000E+00  0.3703704E-01
      1        -36.318240   1.000000
      2        -36.318240   1.000000
      3        -36.318240   1.000000
      4        -35.700754   1.000000
      5        -35.700754   1.000000
      6        -35.700754   1.000000
      7         -0.765962   1.000000
      8          2.726275   1.000000
      9          2.726275   1.000000
     10          6.085777   1.000000
     11          6.085777   1.000000
     12          6.085777   1.000000
     13          8.097888   0.000000
     14          8.097888   0.000000
     15          9.399152   0.000000
     16          9.399152   0.000000
     17          9.399152   0.000000
     18         17.687157   0.000000
     19         17.687157   0.000000
     20         17.687157   0.000000
     21         24.075776   0.000000
     22         24.075776   0.000000
     23         29.942350   0.000000
     24         29.942350   0.000000
     25         29.942350   0.000000
     26         30.423940   0.000000
     27         36.433229   0.000000
     28         36.433242   0.000000
 
  0.3333333E+00  0.0000000E+00  0.0000000E+00  0.2222222E+00
      1        -36.287078   1.000000
      2        -36.156380   1.000000
      3        -36.156380   1.000000
      4        -35.981474   1.000000
      5        -35.847081   1.000000
      6        -35.847081   1.000000
      7          1.392300   1.000000
      8          3.570289   1.000000
      9          3.922002   1.000000
     10          6.157834   1.000000
     11          6.157834   1.000000
     12          6.605304   0.962703
     13          6.857452   0.037297
     14          7.513374   0.000000
     15          7.513374   0.000000
     16          8.510718   0.000000
     17          8.658385   0.000000
     18         11.744487   0.000000
     19         21.884697   0.000000
     20         21.884697   0.000000
     21         24.370300   0.000000
     22         26.098518   0.000000
     23         26.181173   0.000000
     24         28.659625   0.000000
     25         28.659633   0.000000
     26         29.890292   0.000000
     27         37.906847   0.000000
     28         39.546842   0.000000
 
  0.3333333E+00  0.3333333E+00  0.0000000E+00  0.4444444E+00
      1        -36.527583   1.000000
      2        -36.380222   1.000000
      3        -36.068373   1.000000
      4        -35.913479   1.000000
      5        -35.862841   1.000000
      6        -35.703348   1.000000
      7          2.400121   1.000000
      8          3.282929   1.000000
      9          4.911428   1.000000
     10          5.348080   1.000000
     11          5.471699   1.000000
     12          6.169034   1.000000
     13          7.397585   0.000000
     14          7.943031   0.000000
     15          8.304497   0.000000
     16          8.689733   0.000000
     17          9.687531   0.000000
     18         11.872375   0.000000
     19         16.828025   0.000000
     20         20.677880   0.000000
     21         24.345192   0.000000
     22         24.731357   0.000000
     23         25.853980   0.000000
     24         30.539770   0.000000
     25         30.940034   0.000000
     26         33.086137   0.000000
     27         35.128628   0.000000
     28         35.823996   0.000000
 
  0.3333333E+00  0.3333333E+00  0.3333333E+00  0.2962963E+00
      1        -36.405566   1.000000
      2        -36.316458   1.000000
      3        -36.316458   1.000000
      4        -35.903768   1.000000
      5        -35.903768   1.000000
      6        -35.811246   1.000000
      7          4.115562   1.000000
      8          4.140461   1.000000
      9          4.594258   1.000000
     10          4.594258   1.000000
     11          4.909441   1.000000
     12          4.909441   1.000000
     13          8.296532   0.000000
     14          8.296532   0.000000
     15          8.368090   0.000000
     16          8.368090   0.000000
     17         11.281415   0.000000
     18         15.590741   0.000000
     19         15.590741   0.000000
     20         18.332601   0.000000
     21         21.205788   0.000000
     22         21.205789   0.000000
     23         23.352034   0.000000
     24         27.003231   0.000000
     25         34.522516   0.000000
     26         34.522516   0.000000
     27         36.066714   0.000000
     28         40.642075   0.000000
