       N       E                     dE             d eps       ncg     rms          rms(c)
DAV:   1     0.251231999618E+02    0.25123E+02   -0.14648E+04   224   0.107E+03
DAV:   2    -0.224253257522E+02   -0.47549E+02   -0.47547E+02   252   0.122E+02
DAV:   3    -0.225419136609E+02   -0.11659E+00   -0.11659E+00   224   0.792E+00
DAV:   4    -0.225426761264E+02   -0.76247E-03   -0.76247E-03   420   0.621E-01
DAV:   5    -0.225426761507E+02   -0.24255E-07   -0.24306E-07   224   0.232E-03    0.119E+01
RMM:   6    -0.191864967565E+02    0.33562E+01   -0.36239E+00   238   0.234E+01    0.166E+00
RMM:   7    -0.192019371285E+02   -0.15440E-01   -0.39384E-01   250   0.365E+00    0.112E+00
RMM:   8    -0.191740901031E+02    0.27847E-01   -0.46132E-02   255   0.134E+00    0.474E-01
RMM:   9    -0.191697268391E+02    0.43633E-02   -0.29921E-03   245   0.619E-01    0.193E-01
RMM:  10    -0.191688911127E+02    0.83573E-03   -0.12201E-03   245   0.355E-01    0.352E-02
RMM:  11    -0.191689001293E+02   -0.90166E-05   -0.43109E-04   250   0.134E-01    0.537E-03
RMM:  12    -0.191689027384E+02   -0.26091E-05   -0.31407E-05   187   0.433E-02
   1 F= -.19168903E+02 E0= -.19165520E+02  d E =-.191689E+02
       N       E                     dE             d eps       ncg     rms          rms(c)
DAV:   1    -0.216794623404E+02   -0.25106E+01   -0.67417E+01   224   0.981E+01    0.113E+01
RMM:   2    -0.191649255019E+02    0.25145E+01   -0.23643E+00   237   0.190E+01    0.183E+00
RMM:   3    -0.191633896188E+02    0.15359E-02   -0.29007E-01   260   0.331E+00    0.128E+00
RMM:   4    -0.191364186260E+02    0.26971E-01   -0.24565E-02   254   0.110E+00    0.346E-01
RMM:   5    -0.191339053219E+02    0.25133E-02   -0.46183E-03   241   0.772E-01    0.374E-02
RMM:   6    -0.191338314809E+02    0.73841E-04   -0.70458E-04   248   0.177E-01    0.722E-03
RMM:   7    -0.191338319938E+02   -0.51295E-06   -0.69492E-05   195   0.590E-02
   2 F= -.19133832E+02 E0= -.19132399E+02  d E =0.350707E-01
       N       E                     dE             d eps       ncg     rms          rms(c)
DAV:   1    -0.202685879885E+02   -0.11348E+01   -0.27469E+01   308   0.654E+01    0.825E+00
RMM:   2    -0.192308283194E+02    0.10378E+01   -0.13914E+00   239   0.139E+01    0.163E+00
RMM:   3    -0.191966156547E+02    0.34213E-01   -0.11158E-01   256   0.252E+00    0.779E-01
RMM:   4    -0.191880890969E+02    0.85266E-02   -0.15189E-02   249   0.932E-01    0.729E-02
RMM:   5    -0.191881605313E+02   -0.71434E-04   -0.14982E-03   251   0.277E-01    0.560E-02
RMM:   6    -0.191881016171E+02    0.58914E-04   -0.13557E-04   235   0.107E-01    0.345E-02
RMM:   7    -0.191880749827E+02    0.26634E-04   -0.20004E-05   184   0.507E-02    0.187E-03
RMM:   8    -0.191880759794E+02   -0.99663E-06   -0.73375E-06   170   0.225E-02
   3 F= -.19188076E+02 E0= -.19185518E+02  d E =-.191732E-01
