HECN                                    
           1
     2.884600    0.000000    0.000000
     0.000000    2.884600    0.000000
     0.000000    0.000000    2.884600
   Cr
     2
Direct configuration=     1
   0.00000000  0.00000000  0.00000000
   0.50000000  0.50000000  0.50000000
HECN                                    
           1
     2.805399   -0.000000    0.000000
    -0.000000    2.805399   -0.000000
    -0.000000   -0.000000    2.805399
   Cr
     2
Direct configuration=     2
   1.00000000  0.00000000  1.00000000
   0.50000000  0.50000000  0.50000000
HECN                                    
           1
     2.854563   -0.000000    0.000000
    -0.000000    2.854563   -0.000000
    -0.000000   -0.000000    2.854563
   Cr
     2
Direct configuration=     3
   0.00000000  0.00000000  0.00000000
   0.50000000  0.50000000  0.50000000
