  64  64   0   0
  0.1050939E+02  0.8722347E-09  0.8830477E-09  0.8732705E-09  0.5000000E-15
  1.000000000000000E-004
  CAR 
 HECN                                    
     13.94938077    -60.62387524  301      7.79244846      1.00000000
    -60.624  0.0000E+00  0.0000E+00
    -60.375  0.0000E+00  0.0000E+00
    -60.127  0.0000E+00  0.0000E+00
    -59.878  0.0000E+00  0.0000E+00
    -59.630  0.0000E+00  0.0000E+00
    -59.381  0.0000E+00  0.0000E+00
    -59.132  0.0000E+00  0.0000E+00
    -58.884  0.0000E+00  0.0000E+00
    -58.635  0.0000E+00  0.0000E+00
    -58.387  0.0000E+00  0.0000E+00
    -58.138  0.0000E+00  0.0000E+00
    -57.890  0.0000E+00  0.0000E+00
    -57.641  0.3534E-09  0.8784E-10
    -57.392  0.1050E-02  0.2611E-03
    -57.144  0.1664E+00  0.4163E-01
    -56.895  0.3204E+00  0.1213E+00
    -56.647  0.7478E-01  0.1399E+00
    -56.398  0.5359E-03  0.1400E+00
    -56.149  0.8416E-10  0.1400E+00
    -55.901  0.0000E+00  0.1400E+00
    -55.652  0.0000E+00  0.1400E+00
    -55.404  0.0000E+00  0.1400E+00
    -55.155  0.0000E+00  0.1400E+00
    -54.907  0.0000E+00  0.1400E+00
    -54.658  0.0000E+00  0.1400E+00
    -54.409  0.0000E+00  0.1400E+00
    -54.161  0.0000E+00  0.1400E+00
    -53.912  0.0000E+00  0.1400E+00
    -53.664  0.0000E+00  0.1400E+00
    -53.415  0.0000E+00  0.1400E+00
    -53.167  0.0000E+00  0.1400E+00
    -52.918  0.0000E+00  0.1400E+00
    -52.669  0.0000E+00  0.1400E+00
    -52.421  0.0000E+00  0.1400E+00
    -52.172  0.0000E+00  0.1400E+00
    -51.924  0.0000E+00  0.1400E+00
    -51.675  0.0000E+00  0.1400E+00
    -51.427  0.0000E+00  0.1400E+00
    -51.178  0.0000E+00  0.1400E+00
    -50.929  0.0000E+00  0.1400E+00
    -50.681  0.0000E+00  0.1400E+00
    -50.432  0.0000E+00  0.1400E+00
    -50.184  0.0000E+00  0.1400E+00
    -49.935  0.0000E+00  0.1400E+00
    -49.686  0.0000E+00  0.1400E+00
    -49.438  0.0000E+00  0.1400E+00
    -49.189  0.0000E+00  0.1400E+00
    -48.941  0.0000E+00  0.1400E+00
    -48.692  0.0000E+00  0.1400E+00
    -48.444  0.0000E+00  0.1400E+00
    -48.195  0.0000E+00  0.1400E+00
    -47.946  0.0000E+00  0.1400E+00
    -47.698  0.0000E+00  0.1400E+00
    -47.449  0.0000E+00  0.1400E+00
    -47.201  0.0000E+00  0.1400E+00
    -46.952  0.0000E+00  0.1400E+00
    -46.704  0.0000E+00  0.1400E+00
    -46.455  0.0000E+00  0.1400E+00
    -46.206  0.0000E+00  0.1400E+00
    -45.958  0.0000E+00  0.1400E+00
    -45.709  0.0000E+00  0.1400E+00
    -45.461  0.0000E+00  0.1400E+00
    -45.212  0.0000E+00  0.1400E+00
    -44.963  0.0000E+00  0.1400E+00
    -44.715  0.0000E+00  0.1400E+00
    -44.466  0.0000E+00  0.1400E+00
    -44.218  0.0000E+00  0.1400E+00
    -43.969  0.0000E+00  0.1400E+00
    -43.721  0.0000E+00  0.1400E+00
    -43.472  0.0000E+00  0.1400E+00
    -43.223  0.0000E+00  0.1400E+00
    -42.975  0.0000E+00  0.1400E+00
    -42.726  0.0000E+00  0.1400E+00
    -42.478  0.0000E+00  0.1400E+00
    -42.229  0.0000E+00  0.1400E+00
    -41.981  0.2663E-14  0.1400E+00
    -41.732  0.2807E-05  0.1400E+00
    -41.483  0.3273E-01  0.1481E+00
    -41.235  0.1970E+00  0.1971E+00
    -40.986  0.1635E-01  0.2012E+00
    -40.738  0.2039E+00  0.2519E+00
    -40.489  0.3351E-01  0.2602E+00
    -40.241  0.7004E-01  0.2776E+00
    -39.992  0.9643E-02  0.2800E+00
    -39.743  0.1093E-06  0.2800E+00
    -39.495  0.0000E+00  0.2800E+00
    -39.246  0.0000E+00  0.2800E+00
    -38.998  0.0000E+00  0.2800E+00
    -38.749  0.0000E+00  0.2800E+00
    -38.500  0.0000E+00  0.2800E+00
    -38.252  0.0000E+00  0.2800E+00
    -38.003  0.0000E+00  0.2800E+00
    -37.755  0.0000E+00  0.2800E+00
    -37.506  0.0000E+00  0.2800E+00
    -37.258  0.0000E+00  0.2800E+00
    -37.009  0.0000E+00  0.2800E+00
    -36.760  0.0000E+00  0.2800E+00
    -36.512  0.3643E-13  0.2800E+00
    -36.263  0.1200E-04  0.2800E+00
    -36.015  0.5657E-01  0.2941E+00
    -35.766  0.6163E+00  0.4473E+00
    -35.518  0.7585E+00  0.6358E+00
    -35.269  0.1686E-01  0.6400E+00
    -35.020  0.8049E-07  0.6400E+00
    -34.772  0.0000E+00  0.6400E+00
    -34.523  0.0000E+00  0.6400E+00
    -34.275  0.0000E+00  0.6400E+00
    -34.026  0.0000E+00  0.6400E+00
    -33.778  0.0000E+00  0.6400E+00
    -33.529  0.0000E+00  0.6400E+00
    -33.280  0.0000E+00  0.6400E+00
    -33.032  0.0000E+00  0.6400E+00
    -32.783  0.0000E+00  0.6400E+00
    -32.535  0.0000E+00  0.6400E+00
    -32.286  0.2733E-07  0.6400E+00
    -32.037  0.7050E-02  0.6418E+00
    -31.789  0.1946E+00  0.6901E+00
    -31.540  0.4842E+00  0.8105E+00
    -31.292  0.5922E+00  0.9577E+00
    -31.043  0.9590E+00  0.1196E+01
    -30.795  0.7454E+00  0.1381E+01
    -30.546  0.1551E+00  0.1420E+01
    -30.297  0.3667E-03  0.1420E+01
    -30.049  0.2600E-10  0.1420E+01
    -29.800  0.0000E+00  0.1420E+01
    -29.552  0.0000E+00  0.1420E+01
    -29.303  0.0000E+00  0.1420E+01
    -29.055  0.0000E+00  0.1420E+01
    -28.806  0.0000E+00  0.1420E+01
    -28.557  0.0000E+00  0.1420E+01
    -28.309  0.0000E+00  0.1420E+01
    -28.060  0.0000E+00  0.1420E+01
    -27.812  0.0000E+00  0.1420E+01
    -27.563  0.0000E+00  0.1420E+01
    -27.314  0.0000E+00  0.1420E+01
    -27.066  0.0000E+00  0.1420E+01
    -26.817  0.0000E+00  0.1420E+01
    -26.569  0.0000E+00  0.1420E+01
    -26.320  0.0000E+00  0.1420E+01
    -26.072  0.0000E+00  0.1420E+01
    -25.823  0.0000E+00  0.1420E+01
    -25.574  0.0000E+00  0.1420E+01
    -25.326  0.0000E+00  0.1420E+01
    -25.077  0.0000E+00  0.1420E+01
    -24.829  0.0000E+00  0.1420E+01
    -24.580  0.0000E+00  0.1420E+01
    -24.332  0.0000E+00  0.1420E+01
    -24.083  0.0000E+00  0.1420E+01
    -23.834  0.0000E+00  0.1420E+01
    -23.586  0.0000E+00  0.1420E+01
    -23.337  0.0000E+00  0.1420E+01
    -23.089  0.0000E+00  0.1420E+01
    -22.840  0.0000E+00  0.1420E+01
    -22.592  0.0000E+00  0.1420E+01
    -22.343  0.0000E+00  0.1420E+01
    -22.094  0.0000E+00  0.1420E+01
    -21.846  0.0000E+00  0.1420E+01
    -21.597  0.0000E+00  0.1420E+01
    -21.349  0.0000E+00  0.1420E+01
    -21.100  0.0000E+00  0.1420E+01
    -20.851  0.0000E+00  0.1420E+01
    -20.603  0.2515E-14  0.1420E+01
    -20.354  0.2684E-05  0.1420E+01
    -20.106  0.2568E-01  0.1426E+01
    -19.857  0.1462E+00  0.1463E+01
    -19.609  0.3587E+00  0.1552E+01
    -19.360  0.2251E+00  0.1608E+01
    -19.111  0.6055E+00  0.1758E+01
    -18.863  0.1275E+00  0.1790E+01
    -18.614  0.1990E+00  0.1840E+01
    -18.366  0.1845E-02  0.1840E+01
    -18.117  0.4897E-09  0.1840E+01
    -17.869  0.0000E+00  0.1840E+01
    -17.620  0.0000E+00  0.1840E+01
    -17.371  0.0000E+00  0.1840E+01
    -17.123  0.0000E+00  0.1840E+01
    -16.874  0.0000E+00  0.1840E+01
    -16.626  0.0000E+00  0.1840E+01
    -16.377  0.0000E+00  0.1840E+01
    -16.128  0.0000E+00  0.1840E+01
    -15.880  0.0000E+00  0.1840E+01
    -15.631  0.0000E+00  0.1840E+01
    -15.383  0.0000E+00  0.1840E+01
    -15.134  0.0000E+00  0.1840E+01
    -14.886  0.0000E+00  0.1840E+01
    -14.637  0.0000E+00  0.1840E+01
    -14.388  0.0000E+00  0.1840E+01
    -14.140  0.0000E+00  0.1840E+01
    -13.891  0.0000E+00  0.1840E+01
    -13.643  0.0000E+00  0.1840E+01
    -13.394  0.0000E+00  0.1840E+01
    -13.146  0.0000E+00  0.1840E+01
    -12.897  0.0000E+00  0.1840E+01
    -12.648  0.0000E+00  0.1840E+01
    -12.400  0.0000E+00  0.1840E+01
    -12.151  0.0000E+00  0.1840E+01
    -11.903  0.0000E+00  0.1840E+01
    -11.654  0.0000E+00  0.1840E+01
    -11.406  0.0000E+00  0.1840E+01
    -11.157  0.0000E+00  0.1840E+01
    -10.908  0.0000E+00  0.1840E+01
    -10.660  0.0000E+00  0.1840E+01
    -10.411  0.0000E+00  0.1840E+01
    -10.163  0.0000E+00  0.1840E+01
     -9.914  0.0000E+00  0.1840E+01
     -9.665  0.0000E+00  0.1840E+01
     -9.417  0.0000E+00  0.1840E+01
     -9.168  0.2150E-16  0.1840E+01
     -8.920  0.5099E-07  0.1840E+01
     -8.671  0.1781E-02  0.1840E+01
     -8.423  0.4485E-01  0.1852E+01
     -8.174  0.4648E-01  0.1863E+01
     -7.925  0.8707E-01  0.1885E+01
     -7.677  0.1708E+00  0.1927E+01
     -7.428  0.1893E+00  0.1974E+01
     -7.180  0.8728E-01  0.1996E+01
     -6.931  0.1495E+00  0.2033E+01
     -6.683  0.1893E+00  0.2080E+01
     -6.434  0.7861E-01  0.2100E+01
     -6.185  0.8936E-03  0.2100E+01
     -5.937  0.3520E-09  0.2100E+01
     -5.688  0.5145E-09  0.2100E+01
     -5.440  0.3194E-03  0.2100E+01
     -5.191  0.3636E-01  0.2109E+01
     -4.943  0.4408E-01  0.2120E+01
     -4.694  0.7235E-01  0.2138E+01
     -4.445  0.1145E+00  0.2167E+01
     -4.197  0.1579E+00  0.2206E+01
     -3.948  0.1890E+00  0.2253E+01
     -3.700  0.2334E+00  0.2311E+01
     -3.451  0.2129E+00  0.2364E+01
     -3.202  0.1986E+00  0.2413E+01
     -2.954  0.1538E+00  0.2451E+01
     -2.705  0.8556E-01  0.2473E+01
     -2.457  0.2971E-01  0.2480E+01
     -2.208  0.2565E-03  0.2480E+01
     -1.960  0.7474E-09  0.2480E+01
     -1.711  0.0000E+00  0.2480E+01
     -1.462  0.0000E+00  0.2480E+01
     -1.214  0.0000E+00  0.2480E+01
     -0.965  0.1017E-15  0.2480E+01
     -0.717  0.1045E-06  0.2480E+01
     -0.468  0.9637E-03  0.2480E+01
     -0.220  0.8041E-02  0.2482E+01
      0.029  0.4231E-01  0.2493E+01
      0.278  0.1018E+00  0.2518E+01
      0.526  0.1420E+00  0.2553E+01
      0.775  0.1916E+00  0.2601E+01
      1.023  0.2723E+00  0.2669E+01
      1.272  0.2690E+00  0.2736E+01
      1.521  0.2939E+00  0.2809E+01
      1.769  0.3114E+00  0.2886E+01
      2.018  0.3596E+00  0.2975E+01
      2.266  0.3972E+00  0.3074E+01
      2.515  0.5185E+00  0.3203E+01
      2.763  0.5727E+00  0.3345E+01
      3.012  0.6446E+00  0.3506E+01
      3.261  0.6345E+00  0.3663E+01
      3.509  0.5986E+00  0.3812E+01
      3.758  0.5237E+00  0.3942E+01
      4.006  0.4081E+00  0.4044E+01
      4.255  0.3744E+00  0.4137E+01
      4.503  0.3409E+00  0.4222E+01
      4.752  0.2736E+00  0.4290E+01
      5.001  0.2293E+00  0.4347E+01
      5.249  0.1548E+00  0.4385E+01
      5.498  0.9171E-01  0.4408E+01
      5.746  0.1447E+00  0.4444E+01
      5.995  0.2079E+00  0.4496E+01
      6.243  0.1860E+00  0.4542E+01
      6.492  0.1596E+00  0.4581E+01
      6.741  0.2147E+00  0.4635E+01
      6.989  0.3156E+00  0.4713E+01
      7.238  0.2963E+00  0.4787E+01
      7.486  0.3142E+00  0.4865E+01
      7.735  0.3119E+00  0.4943E+01
      7.984  0.3337E+00  0.5025E+01
      8.232  0.4214E+00  0.5130E+01
      8.481  0.5392E+00  0.5264E+01
      8.729  0.5815E+00  0.5409E+01
      8.978  0.5704E+00  0.5551E+01
      9.226  0.5220E+00  0.5680E+01
      9.475  0.4808E+00  0.5800E+01
      9.724  0.4748E+00  0.5918E+01
      9.972  0.4693E+00  0.6035E+01
     10.221  0.4377E+00  0.6143E+01
     10.469  0.3301E+00  0.6225E+01
     10.718  0.5828E-01  0.6240E+01
     10.966  0.2239E-03  0.6240E+01
     11.215  0.5378E-10  0.6240E+01
     11.464  0.0000E+00  0.6240E+01
     11.712  0.0000E+00  0.6240E+01
     11.961  0.0000E+00  0.6240E+01
     12.209  0.0000E+00  0.6240E+01
     12.458  0.0000E+00  0.6240E+01
     12.706  0.0000E+00  0.6240E+01
     12.955  0.0000E+00  0.6240E+01
     13.204  0.0000E+00  0.6240E+01
     13.452  0.0000E+00  0.6240E+01
     13.701  0.0000E+00  0.6240E+01
     13.949  0.0000E+00  0.6240E+01
