 running on   24 total cores
 distrk:  each k-point on   24 cores,    1 groups
 distr:  one band on    1 cores,   24 groups
 using from now: INCAR     
 vasp.5.4.4.18Apr17-6-g9f103f2a35 (build Oct 18 2021 20:38:43) complex          
  
 POSCAR found type information on POSCAR  V  W  Zr N  C  Cr Mo
 POSCAR found :  7 types and      64 ions
 scaLAPACK will be used

 ----------------------------------------------------------------------------- 
|                                                                             |
|           W    W    AA    RRRRR   N    N  II  N    N   GGGG   !!!           |
|           W    W   A  A   R    R  NN   N  II  NN   N  G    G  !!!           |
|           W    W  A    A  R    R  N N  N  II  N N  N  G       !!!           |
|           W WW W  AAAAAA  RRRRR   N  N N  II  N  N N  G  GGG   !            |
|           WW  WW  A    A  R   R   N   NN  II  N   NN  G    G                |
|           W    W  A    A  R    R  N    N  II  N    N   GGGG   !!!           |
|                                                                             |
|      For optimal performance we recommend to set                            |
|        NCORE= 4 - approx SQRT( number of cores)                             |
|      NCORE specifies how many cores store one orbital (NPAR=cpu/NCORE).     |
|      This setting can  greatly improve the performance of VASP for DFT.     |
|      The default,   NCORE=1            might be grossly inefficient         |
|      on modern multi-core architectures or massively parallel machines.     |
|      Do your own testing !!!!                                               |
|      Unfortunately you need to use the default for GW and RPA calculations. |
|      (for HF NCORE is supported but not extensively tested yet)             |
|                                                                             |
 ----------------------------------------------------------------------------- 


 ----------------------------------------------------------------------------- 
|                                                                             |
|  ADVICE TO THIS USER RUNNING 'VASP/VAMP'   (HEAR YOUR MASTER'S VOICE ...):  |
|                                                                             |
|      You have a (more or less) 'large supercell' and for larger cells       |
|      it might be more efficient to use real space projection operators      |
|      So try LREAL= Auto  in the INCAR   file.                               |
|      Mind: If you want to do a very accurate calculations keep the          |
|      reciprocal projection scheme          (i.e. LREAL=.FALSE.)             |
|                                                                             |
 ----------------------------------------------------------------------------- 

 LDA part: xc-table for Pade appr. of Perdew
 POSCAR, INCAR and KPOINTS ok, starting setup
 FFT: planning ...
 WAVECAR not read
 entering main loop
       N       E                     dE             d eps       ncg     rms          rms(c)
DAV:   1     0.609494206942E+04    0.60949E+04   -0.20815E+05  8808   0.150E+03
DAV:   2     0.194651219507E+03   -0.59003E+04   -0.56700E+04  9072   0.540E+02
DAV:   3    -0.679324717113E+03   -0.87398E+03   -0.81849E+03 13320   0.190E+02
DAV:   4    -0.770688530046E+03   -0.91364E+02   -0.89264E+02 15816   0.712E+01
DAV:   5    -0.777097950889E+03   -0.64094E+01   -0.63258E+01 16800   0.159E+01    0.753E+01
RMM:   6    -0.809760181474E+03   -0.32662E+02   -0.19826E+03 10900   0.122E+02    0.103E+02
RMM:   7    -0.665801632247E+03    0.14396E+03   -0.26646E+02 11941   0.480E+01    0.560E+01
RMM:   8    -0.644235711158E+03    0.21566E+02   -0.70695E+01 13481   0.192E+01    0.299E+01
RMM:   9    -0.632302371701E+03    0.11933E+02   -0.18930E+01 13683   0.999E+00    0.145E+01
RMM:  10    -0.631483700818E+03    0.81867E+00   -0.60030E+00 14028   0.542E+00    0.128E+01
RMM:  11    -0.631101457688E+03    0.38224E+00   -0.31207E+00 13702   0.418E+00    0.116E+01
RMM:  12    -0.630489834380E+03    0.61162E+00   -0.21378E+00 14008   0.336E+00    0.741E+00
RMM:  13    -0.630560786720E+03   -0.70952E-01   -0.28140E+00 13480   0.364E+00    0.837E+00
RMM:  14    -0.630423517686E+03    0.13727E+00   -0.12864E+00 12921   0.301E+00    0.674E+00
RMM:  15    -0.630347617326E+03    0.75900E-01   -0.75369E-01 13381   0.219E+00    0.531E+00
RMM:  16    -0.630160433848E+03    0.18718E+00   -0.33781E-01 13608   0.134E+00    0.248E+00
RMM:  17    -0.630152169250E+03    0.82646E-02   -0.21121E-01 13904   0.840E-01    0.200E+00
RMM:  18    -0.630139059898E+03    0.13109E-01   -0.16674E-01 14070   0.656E-01    0.133E+00
RMM:  19    -0.630136534309E+03    0.25256E-02   -0.97507E-02 13917   0.531E-01    0.103E+00
RMM:  20    -0.630141640122E+03   -0.51058E-02   -0.48858E-02 13679   0.438E-01    0.114E+00
RMM:  21    -0.630138395646E+03    0.32445E-02   -0.27539E-02 13782   0.371E-01    0.579E-01
RMM:  22    -0.630136666081E+03    0.17296E-02   -0.17812E-02 13728   0.216E-01    0.500E-01
RMM:  23    -0.630135049339E+03    0.16167E-02   -0.10456E-02 13485   0.183E-01    0.405E-01
RMM:  24    -0.630134670739E+03    0.37860E-03   -0.59424E-03 13170   0.144E-01    0.280E-01
RMM:  25    -0.630134350659E+03    0.32008E-03   -0.39183E-03 13054   0.105E-01    0.860E-02
RMM:  26    -0.630134417287E+03   -0.66628E-04   -0.17309E-03 12148   0.593E-02    0.788E-02
RMM:  27    -0.630134411321E+03    0.59659E-05   -0.77160E-04 11251   0.376E-02    0.435E-02
RMM:  28    -0.630134406061E+03    0.52602E-05   -0.42633E-04 11159   0.279E-02    0.257E-02
RMM:  29    -0.630134420044E+03   -0.13983E-04   -0.21132E-04  9206   0.236E-02    0.329E-02
RMM:  30    -0.630134416618E+03    0.34264E-05   -0.13154E-04  7475   0.180E-02    0.852E-03
RMM:  31    -0.630134419903E+03   -0.32857E-05   -0.62764E-05  6709   0.150E-02
   1 F= -.63013442E+03 E0= -.63005782E+03  d E =-.630134E+03
 curvature:   0.00 expect dE= 0.000E+00 dE for cont linesearch  0.000E+00
 trial: gam= 0.00000 g(F)=  0.185E-03 g(S)=  0.321E-01 ort = 0.000E+00 (trialstep = 0.100E+01)
 search vector abs. value=  0.323E-01
 bond charge predicted
       N       E                     dE             d eps       ncg     rms          rms(c)
DAV:   1    -0.630494450286E+03   -0.36003E+00   -0.72167E+00 12840   0.111E+01    0.544E+00
RMM:   2    -0.632587309075E+03   -0.20929E+01   -0.51486E+00 10300   0.826E+00    0.163E+01
RMM:   3    -0.630656406352E+03    0.19309E+01   -0.14033E+00 10310   0.559E+00    0.856E+00
RMM:   4    -0.630171193046E+03    0.48521E+00   -0.36159E-01 11824   0.201E+00    0.220E+00
RMM:   5    -0.630206778974E+03   -0.35586E-01   -0.13676E-01 11911   0.110E+00    0.351E+00
RMM:   6    -0.630132958850E+03    0.73820E-01   -0.69429E-02 11212   0.872E-01    0.134E+00
RMM:   7    -0.630128775756E+03    0.41831E-02   -0.37907E-02 12108   0.554E-01    0.122E+00
RMM:   8    -0.630127684088E+03    0.10917E-02   -0.19858E-02 11760   0.462E-01    0.124E+00
RMM:   9    -0.630118334226E+03    0.93499E-02   -0.93293E-03 11884   0.332E-01    0.307E-01
RMM:  10    -0.630118931726E+03   -0.59750E-03   -0.48276E-03 13362   0.155E-01    0.395E-01
RMM:  11    -0.630118299500E+03    0.63223E-03   -0.16165E-03 12285   0.123E-01    0.221E-01
RMM:  12    -0.630118132350E+03    0.16715E-03   -0.10250E-03 12935   0.762E-02    0.115E-01
RMM:  13    -0.630118178876E+03   -0.46527E-04   -0.60709E-04 12664   0.473E-02    0.101E-01
RMM:  14    -0.630118245371E+03   -0.66495E-04   -0.32326E-04 11954   0.444E-02    0.113E-01
RMM:  15    -0.630118309180E+03   -0.63809E-04   -0.33687E-04 12427   0.407E-02    0.692E-02
RMM:  16    -0.630118349101E+03   -0.39921E-04   -0.23400E-04 11932   0.344E-02    0.704E-02
RMM:  17    -0.630118376077E+03   -0.26976E-04   -0.15663E-04 11441   0.331E-02    0.789E-02
RMM:  18    -0.630118356526E+03    0.19551E-04   -0.10857E-04 11270   0.258E-02    0.286E-02
WARNING in EDDRMM: call to ZHEGV failed, returncode =   6  3      7
RMM:  19    -0.630118362243E+03   -0.57173E-05   -0.82905E-05 10145   0.175E-02
   2 F= -.63011836E+03 E0= -.63004284E+03  d E =0.160577E-01
 trial-energy change:    0.016058  1 .order    0.016035   -0.032279    0.064350
 step:   0.3341(harm=  0.3341)  dis= 0.00016  next Energy=  -630.139811 (dE=-0.539E-02)
 bond charge predicted
       N       E                     dE             d eps       ncg     rms          rms(c)
DAV:   1    -0.630312053941E+03   -0.19370E+00   -0.32256E+00 12432   0.738E+00    0.377E+00
RMM:   2    -0.631355293465E+03   -0.10432E+01   -0.21930E+00 10792   0.510E+00    0.112E+01
RMM:   3    -0.630356768478E+03    0.99852E+00   -0.71325E-01 10405   0.395E+00    0.549E+00
RMM:   4    -0.630173705778E+03    0.18306E+00   -0.17848E-01 11882   0.135E+00    0.198E+00
RMM:   5    -0.630179986905E+03   -0.62811E-02   -0.65299E-02 11672   0.789E-01    0.234E+00
RMM:   6    -0.630146930074E+03    0.33057E-01   -0.32855E-02 11311   0.576E-01    0.919E-01
RMM:   7    -0.630147627851E+03   -0.69778E-03   -0.17697E-02 11687   0.407E-01    0.110E+00
RMM:   8    -0.630144223959E+03    0.34039E-02   -0.98485E-03 11826   0.337E-01    0.811E-01
RMM:   9    -0.630140314041E+03    0.39099E-02   -0.52323E-03 12423   0.217E-01    0.307E-01
RMM:  10    -0.630140520054E+03   -0.20601E-03   -0.22011E-03 12086   0.141E-01    0.375E-01
RMM:  11    -0.630139809990E+03    0.71006E-03   -0.10045E-03 11287   0.102E-01    0.139E-01
RMM:  12    -0.630139788802E+03    0.21188E-04   -0.62130E-04 12445   0.558E-02    0.112E-01
RMM:  13    -0.630139762748E+03    0.26054E-04   -0.29692E-04 12045   0.409E-02    0.924E-02
RMM:  14    -0.630139745913E+03    0.16835E-04   -0.15405E-04 11156   0.322E-02    0.578E-02
RMM:  15    -0.630139769600E+03   -0.23687E-04   -0.15349E-04 11624   0.261E-02    0.478E-02
RMM:  16    -0.630139787314E+03   -0.17714E-04   -0.10595E-04 11037   0.255E-02    0.579E-02
RMM:  17    -0.630139798437E+03   -0.11122E-04   -0.82252E-05  9961   0.264E-02    0.600E-02
RMM:  18    -0.630139784192E+03    0.14244E-04   -0.60921E-05  9654   0.211E-02    0.194E-02
RMM:  19    -0.630139785654E+03   -0.14623E-05   -0.43613E-05  8303   0.151E-02
   3 F= -.63013979E+03 E0= -.63006355E+03  d E =-.536575E-02
 curvature:  -0.17 expect dE=-0.189E-03 dE for cont linesearch -0.158E-07
 trial: gam= 0.03683 g(F)=  0.112E-02 g(S)=  0.170E-04 ort =-0.552E-04 (trialstep = 0.867E+00)
 search vector abs. value=  0.117E-02
 bond charge predicted
       N       E                     dE             d eps       ncg     rms          rms(c)
DAV:   1    -0.630135921726E+03    0.38625E-02   -0.18615E-01 10056   0.279E+00    0.170E-01
RMM:   2    -0.630141761212E+03   -0.58395E-02   -0.52470E-02 14084   0.590E-01    0.381E-01
RMM:   3    -0.630140865793E+03    0.89542E-03   -0.33289E-03 10970   0.208E-01    0.251E-01
RMM:   4    -0.630140641875E+03    0.22392E-03   -0.99271E-04 12128   0.852E-02    0.140E-01
RMM:   5    -0.630140606233E+03    0.35643E-04   -0.29130E-04 10047   0.547E-02    0.138E-01
RMM:   6    -0.630140490931E+03    0.11530E-03   -0.13351E-04  8939   0.346E-02    0.444E-02
RMM:   7    -0.630140510477E+03   -0.19546E-04   -0.16353E-04 10158   0.317E-02    0.747E-02
RMM:   8    -0.630140474285E+03    0.36192E-04   -0.90350E-05  8111   0.299E-02    0.482E-02
RMM:   9    -0.630140465861E+03    0.84235E-05   -0.29634E-05  5755   0.214E-02
   4 F= -.63014047E+03 E0= -.63006409E+03  d E =-.680207E-03
 trial-energy change:   -0.000680  1 .order   -0.000695   -0.000981   -0.000409
 step:   1.4857(harm=  1.4857)  dis= 0.00252  next Energy=  -630.140626 (dE=-0.841E-03)
 bond charge predicted
       N       E                     dE             d eps       ncg     rms          rms(c)
DAV:   1    -0.630138299496E+03    0.21748E-02   -0.94965E-02 10104   0.199E+00    0.122E-01
RMM:   2    -0.630141308424E+03   -0.30089E-02   -0.26596E-02 13836   0.419E-01    0.289E-01
RMM:   3    -0.630140800912E+03    0.50751E-03   -0.17158E-03 10216   0.153E-01    0.186E-01
RMM:   4    -0.630140682668E+03    0.11824E-03   -0.54450E-04 11090   0.650E-02    0.103E-01
RMM:   5    -0.630140661304E+03    0.21364E-04   -0.17326E-04  8409   0.410E-02    0.939E-02
RMM:   6    -0.630140607539E+03    0.53765E-04   -0.70305E-05  6890   0.258E-02    0.335E-02
RMM:   7    -0.630140617414E+03   -0.98750E-05   -0.59383E-05  7125   0.234E-02
   5 F= -.63014062E+03 E0= -.63006415E+03  d E =-.831760E-03
 curvature:  -0.77 expect dE=-0.516E-03 dE for cont linesearch -0.183E-05
 trial: gam= 0.60021 g(F)=  0.557E-03 g(S)=  0.113E-03 ort = 0.527E-04 (trialstep = 0.991E+00)
 search vector abs. value=  0.116E-02
 bond charge predicted
       N       E                     dE             d eps       ncg     rms          rms(c)
DAV:   1    -0.630138861663E+03    0.17459E-02   -0.23401E-01 12096   0.274E+00    0.370E-01
RMM:   2    -0.630151749321E+03   -0.12888E-01   -0.60603E-02 11857   0.768E-01    0.108E+00
RMM:   3    -0.630143426717E+03    0.83226E-02   -0.92608E-03 10580   0.380E-01    0.628E-01
RMM:   4    -0.630141269512E+03    0.21572E-02   -0.27253E-03 11214   0.159E-01    0.213E-01
RMM:   5    -0.630141327189E+03   -0.57677E-04   -0.99789E-04 10646   0.989E-02    0.251E-01
RMM:   6    -0.630140928946E+03    0.39824E-03   -0.52995E-04 10880   0.687E-02    0.114E-01
RMM:   7    -0.630140959783E+03   -0.30837E-04   -0.31197E-04 10031   0.549E-02    0.143E-01
RMM:   8    -0.630140948343E+03    0.11440E-04   -0.22492E-04  9418   0.531E-02    0.130E-01
RMM:   9    -0.630140841081E+03    0.10726E-03   -0.10698E-04  8718   0.340E-02    0.306E-02
RMM:  10    -0.630140850062E+03   -0.89816E-05   -0.55502E-05  6821   0.234E-02
   6 F= -.63014085E+03 E0= -.63006438E+03  d E =-.232648E-03
 trial-energy change:   -0.000233  1 .order   -0.000300   -0.000695    0.000096
 step:   0.7887(harm=  0.8704)  dis= 0.00133  next Energy=  -630.140860 (dE=-0.243E-03)
 bond charge predicted
       N       E                     dE             d eps       ncg     rms          rms(c)
DAV:   1    -0.630140772651E+03    0.68430E-04   -0.98930E-03 12072   0.562E-01    0.789E-02
RMM:   2    -0.630141397085E+03   -0.62443E-03   -0.26564E-03 12113   0.163E-01    0.251E-01
RMM:   3    -0.630140956782E+03    0.44030E-03   -0.41109E-04  9693   0.833E-02    0.126E-01
RMM:   4    -0.630140869710E+03    0.87072E-04   -0.12590E-04  9124   0.434E-02    0.495E-02
RMM:   5    -0.630140869808E+03   -0.97840E-07   -0.41407E-05  6177   0.263E-02
   7 F= -.63014087E+03 E0= -.63006438E+03  d E =-.252394E-03
 curvature:  -0.39 expect dE=-0.611E-03 dE for cont linesearch -0.193E-06
 trial: gam= 2.33502 g(F)=  0.396E-03 g(S)=  0.119E-02 ort =-0.240E-04 (trialstep = 0.141E+00)
 search vector abs. value=  0.778E-02
 bond charge predicted
       N       E                     dE             d eps       ncg     rms          rms(c)
DAV:   1    -0.630140266828E+03    0.60288E-03   -0.33001E-02 10152   0.110E+00    0.548E-02
RMM:   2    -0.630141199060E+03   -0.93223E-03   -0.75717E-03 13354   0.229E-01    0.199E-01
RMM:   3    -0.630141023137E+03    0.17592E-03   -0.64023E-04  9317   0.915E-02    0.676E-02
RMM:   4    -0.630141027616E+03   -0.44787E-05   -0.14521E-04  8085   0.395E-02    0.601E-02
RMM:   5    -0.630141010465E+03    0.17151E-04   -0.42817E-05  5909   0.272E-02    0.313E-02
RMM:   6    -0.630141004354E+03    0.61104E-05   -0.13861E-05  5545   0.158E-02
   8 F= -.63014100E+03 E0= -.63006450E+03  d E =-.134547E-03
 trial-energy change:   -0.000135  1 .order   -0.000161   -0.000216   -0.000107
 step:   0.2804(harm=  0.2804)  dis= 0.00139  next Energy=  -630.141084 (dE=-0.214E-03)
 bond charge predicted
       N       E                     dE             d eps       ncg     rms          rms(c)
DAV:   1    -0.630140383634E+03    0.62683E-03   -0.32090E-02 10056   0.108E+00    0.464E-02
RMM:   2    -0.630141224832E+03   -0.84120E-03   -0.72690E-03 13169   0.229E-01    0.166E-01
RMM:   3    -0.630141111090E+03    0.11374E-03   -0.60857E-04  9622   0.819E-02    0.509E-02
RMM:   4    -0.630141122613E+03   -0.11523E-04   -0.11704E-04  7720   0.347E-02    0.572E-02
RMM:   5    -0.630141104397E+03    0.18216E-04   -0.36500E-05  5893   0.248E-02    0.240E-02
RMM:   6    -0.630141103615E+03    0.78227E-06   -0.14789E-05  5617   0.144E-02
   9 F= -.63014110E+03 E0= -.63006458E+03  d E =-.233807E-03
 curvature:  -0.71 expect dE=-0.390E-03 dE for cont linesearch -0.146E-04
 ZBRENT: increasing intervall
 opt :   0.5587  next Energy=  -630.141114 (dE=-0.245E-03)
 bond charge predicted
       N       E                     dE             d eps       ncg     rms          rms(c)
DAV:   1    -0.630138253402E+03    0.28510E-02   -0.12782E-01  9888   0.215E+00    0.895E-02
RMM:   2    -0.630141457563E+03   -0.32042E-02   -0.28986E-02 13386   0.454E-01    0.279E-01
RMM:   3    -0.630141177431E+03    0.28013E-03   -0.22743E-03 11004   0.150E-01    0.101E-01
RMM:   4    -0.630141238728E+03   -0.61297E-04   -0.45286E-04 10100   0.630E-02    0.129E-01
RMM:   5    -0.630141144582E+03    0.94145E-04   -0.11793E-04  6787   0.382E-02    0.329E-02
RMM:   6    -0.630141152790E+03   -0.82078E-05   -0.76197E-05  7283   0.213E-02
  10 F= -.63014115E+03 E0= -.63006459E+03  d E =-.282982E-03
 curvature:  -0.53 expect dE=-0.313E-03 dE for cont linesearch -0.580E-05
 ZBRENT: bracketing found
 ZBRENT: interpolating
 opt :   0.4411  next Energy=  -630.141170 (dE=-0.300E-03)
 bond charge predicted
       N       E                     dE             d eps       ncg     rms          rms(c)
DAV:   1    -0.630140638250E+03    0.50633E-03   -0.23415E-02 10128   0.917E-01    0.649E-02
RMM:   2    -0.630141868108E+03   -0.12299E-02   -0.60707E-03 13144   0.205E-01    0.347E-01
RMM:   3    -0.630141187215E+03    0.68089E-03   -0.60057E-04  9003   0.978E-02    0.796E-02
RMM:   4    -0.630141158649E+03    0.28566E-04   -0.16891E-04  8698   0.371E-02    0.410E-02
RMM:   5    -0.630141156057E+03    0.25925E-05   -0.32922E-05  5821   0.253E-02
  11 F= -.63014116E+03 E0= -.63006462E+03  d E =-.286249E-03
 curvature:  -1.57 expect dE=-0.105E-02 dE for cont linesearch -0.865E-05
 ZBRENT: interpolating
 opt :   0.4900  next Energy=  -630.141161 (dE=-0.291E-03)
 bond charge predicted
       N       E                     dE             d eps       ncg     rms          rms(c)
DAV:   1    -0.630141062576E+03    0.96073E-04   -0.40122E-03 11448   0.383E-01    0.240E-02
RMM:   2    -0.630141226205E+03   -0.16363E-03   -0.96136E-04 12289   0.798E-02    0.117E-01
RMM:   3    -0.630141147514E+03    0.78692E-04   -0.75273E-05  6593   0.397E-02    0.245E-02
RMM:   4    -0.630141147371E+03    0.14283E-06   -0.18942E-05  5530   0.182E-02
  12 F= -.63014115E+03 E0= -.63006459E+03  d E =-.277563E-03
 curvature:  -0.92 expect dE=-0.490E-03 dE for cont linesearch -0.155E-04
 ZBRENT: interpolating
 opt :   0.4589  next Energy=  -630.141158 (dE=-0.288E-03)
 bond charge predicted
       N       E                     dE             d eps       ncg     rms          rms(c)
DAV:   1    -0.630141115299E+03    0.32214E-04   -0.15892E-03 11136   0.243E-01    0.216E-02
RMM:   2    -0.630141267178E+03   -0.15188E-03   -0.44306E-04 10278   0.567E-02    0.147E-01
RMM:   3    -0.630141147689E+03    0.11949E-03   -0.53869E-05  6119   0.354E-02    0.182E-02
RMM:   4    -0.630141146508E+03    0.11817E-05   -0.11241E-05  4944   0.140E-02
  13 F= -.63014115E+03 E0= -.63006460E+03  d E =-.276700E-03
 curvature:  -0.11 expect dE=-0.586E-04 dE for cont linesearch -0.196E-05
 ZBRENT: interpolating
 opt :   0.4746  next Energy=  -630.141150 (dE=-0.280E-03)
 bond charge predicted
       N       E                     dE             d eps       ncg     rms          rms(c)
DAV:   1    -0.630141139917E+03    0.77719E-05   -0.40714E-04 11808   0.124E-01    0.122E-02
RMM:   2    -0.630141178012E+03   -0.38095E-04   -0.93989E-05  7125   0.294E-02    0.733E-02
RMM:   3    -0.630141147182E+03    0.30831E-04   -0.16715E-05  5541   0.223E-02    0.136E-02
RMM:   4    -0.630141146258E+03    0.92344E-06   -0.47827E-06  4472   0.937E-03
  14 F= -.63014115E+03 E0= -.63006459E+03  d E =-.276450E-03
 curvature:  -0.15 expect dE=-0.793E-04 dE for cont linesearch -0.117E-05
 ZBRENT: bisectioning
 opt :   0.4667  next Energy=  -630.141148 (dE=-0.278E-03)
 bond charge predicted
       N       E                     dE             d eps       ncg     rms          rms(c)
DAV:   1    -0.630141144997E+03    0.21841E-05   -0.10029E-04 11040   0.636E-02    0.881E-03
RMM:   2    -0.630141167024E+03   -0.22026E-04   -0.25626E-05  5779   0.183E-02    0.616E-02
RMM:   3    -0.630141146785E+03    0.20239E-04   -0.10041E-05  4946   0.188E-02    0.931E-03
RMM:   4    -0.630141146368E+03    0.41708E-06   -0.21787E-06  4245   0.526E-03
  15 F= -.63014115E+03 E0= -.63006459E+03  d E =-.276560E-03
 curvature:  -0.22 expect dE=-0.112E-03 dE for cont linesearch -0.645E-06
 ZBRENT: interpolating
 opt :   0.4698  next Energy=  -630.141147 (dE=-0.277E-03)
 bond charge predicted
       N       E                     dE             d eps       ncg     rms          rms(c)
DAV:   1    -0.630141146028E+03    0.75640E-06   -0.11673E-05  5856   0.256E-02    0.354E-03
RMM:   2    -0.630141148599E+03   -0.25704E-05   -0.49676E-06  4337   0.107E-02
  16 F= -.63014115E+03 E0= -.63006460E+03  d E =-.278791E-03
 curvature:  -0.08 expect dE=-0.389E-04 dE for cont linesearch -0.134E-05
 ZBRENT: interpolating
 opt :   0.4676  next Energy=  -630.141146 (dE=-0.277E-03)
 bond charge predicted
       N       E                     dE             d eps       ncg     rms          rms(c)
DAV:   1    -0.630141146369E+03   -0.34057E-06   -0.11421E-05  5952   0.253E-02    0.377E-03
RMM:   2    -0.630141149880E+03   -0.35108E-05   -0.24950E-06  4238   0.707E-03
  17 F= -.63014115E+03 E0= -.63006460E+03  d E =-.280072E-03
 curvature:  -0.00 expect dE=-0.196E-05 dE for cont linesearch -0.226E-07
 ZBRENT: bisectioning
 opt :   0.4687  next Energy=  -630.141150 (dE=-0.280E-03)
 bond charge predicted
       N       E                     dE             d eps       ncg     rms          rms(c)
DAV:   1    -0.630141146602E+03   -0.23287E-06   -0.13785E-05  5376   0.211E-02    0.512E-03
RMM:   2    -0.630141152782E+03   -0.61806E-05   -0.33116E-06  4121   0.756E-03
  18 F= -.63014115E+03 E0= -.63006460E+03  d E =-.282975E-03
 curvature:  -0.05 expect dE=-0.222E-04 dE for cont linesearch -0.814E-07
 ZBRENT: interpolating
 opt :   0.4683  next Energy=  -630.141153 (dE=-0.283E-03)
 bond charge predicted
       N       E                     dE             d eps       ncg     rms          rms(c)
DAV:   1    -0.630141146929E+03   -0.32764E-06   -0.23865E-05  5424   0.238E-02    0.805E-03
RMM:   2    -0.630141163142E+03   -0.16212E-04   -0.83130E-06  4767   0.110E-02    0.542E-02
RMM:   3    -0.630141147521E+03    0.15621E-04   -0.61897E-06  4040   0.131E-02    0.127E-02
RMM:   4    -0.630141146389E+03    0.11319E-05   -0.84603E-07  3700   0.375E-03
  19 F= -.63014115E+03 E0= -.63006459E+03  d E =-.276581E-03
 curvature:  -0.01 expect dE=-0.629E-05 dE for cont linesearch -0.127E-08
 trial: gam= 0.10215 g(F)=  0.449E-03 g(S)=  0.497E-04 ort = 0.280E-04 (trialstep = 0.207E+00)
 search vector abs. value=  0.586E-03
 bond charge predicted
       N       E                     dE             d eps       ncg     rms          rms(c)
DAV:   1    -0.630141119752E+03    0.27769E-04   -0.54451E-03 10224   0.455E-01    0.287E-02
RMM:   2    -0.630141279767E+03   -0.16002E-03   -0.14597E-03 12688   0.957E-02    0.604E-02
RMM:   3    -0.630141255451E+03    0.24316E-04   -0.79882E-05  6607   0.372E-02    0.467E-02
RMM:   4    -0.630141246987E+03    0.84642E-05   -0.20575E-05  5589   0.219E-02
  20 F= -.63014125E+03 E0= -.63006468E+03  d E =-.100598E-03
 trial-energy change:   -0.000101  1 .order   -0.000089   -0.000104   -0.000075
 step:   0.7462(harm=  0.7462)  dis= 0.00158  next Energy=  -630.141334 (dE=-0.187E-03)
 bond charge predicted
       N       E                     dE             d eps       ncg     rms          rms(c)
DAV:   1    -0.630140477366E+03    0.77809E-03   -0.36529E-02  9648   0.119E+00    0.811E-02
RMM:   2    -0.630141773816E+03   -0.12965E-02   -0.10998E-02 13486   0.262E-01    0.213E-01
RMM:   3    -0.630141534715E+03    0.23910E-03   -0.83526E-04  9965   0.902E-02    0.146E-01
RMM:   4    -0.630141430868E+03    0.10385E-03   -0.21599E-04  9318   0.457E-02    0.469E-02
RMM:   5    -0.630141418857E+03    0.12010E-04   -0.70473E-05  7055   0.222E-02    0.444E-02
RMM:   6    -0.630141411562E+03    0.72956E-05   -0.22885E-05  5677   0.219E-02
  21 F= -.63014141E+03 E0= -.63006481E+03  d E =-.265173E-03
 curvature:  -0.44 expect dE=-0.818E-04 dE for cont linesearch -0.288E-04
 ZBRENT: increasing intervall
 opt :   1.8252  next Energy=  -630.141445 (dE=-0.298E-03)
 bond charge predicted
       N       E                     dE             d eps       ncg     rms          rms(c)
DAV:   1    -0.630137985496E+03    0.34334E-02   -0.14815E-01  9696   0.237E+00    0.155E-01
RMM:   2    -0.630142665738E+03   -0.46802E-02   -0.40276E-02 13534   0.500E-01    0.383E-01
RMM:   3    -0.630141780694E+03    0.88504E-03   -0.26115E-03 11015   0.166E-01    0.279E-01
RMM:   4    -0.630141461276E+03    0.31942E-03   -0.73639E-04 10403   0.801E-02    0.109E-01
RMM:   5    -0.630141404223E+03    0.57053E-04   -0.31955E-04 10434   0.388E-02    0.750E-02
RMM:   6    -0.630141362729E+03    0.41494E-04   -0.98402E-05  7735   0.321E-02    0.452E-02
RMM:   7    -0.630141399784E+03   -0.37056E-04   -0.11035E-04  8091   0.321E-02    0.928E-02
RMM:   8    -0.630141352266E+03    0.47518E-04   -0.62549E-05  7110   0.300E-02    0.441E-02
RMM:   9    -0.630141343605E+03    0.86613E-05   -0.32362E-05  6082   0.200E-02
  22 F= -.63014134E+03 E0= -.63006469E+03  d E =-.197216E-03
 curvature:  -0.50 expect dE=-0.755E-03 dE for cont linesearch -0.746E-04
 ZBRENT: bracketing found
 ZBRENT: interpolating
 opt :   1.1777  next Energy=  -630.141454 (dE=-0.308E-03)
 bond charge predicted
       N       E                     dE             d eps       ncg     rms          rms(c)
DAV:   1    -0.630140150331E+03    0.12019E-02   -0.53102E-02  9480   0.143E+00    0.902E-02
RMM:   2    -0.630141753115E+03   -0.16028E-02   -0.15041E-02 13693   0.303E-01    0.157E-01
RMM:   3    -0.630141521598E+03    0.23152E-03   -0.90309E-04 10873   0.897E-02    0.113E-01
RMM:   4    -0.630141492826E+03    0.28772E-04   -0.19111E-04  8670   0.474E-02    0.817E-02
RMM:   5    -0.630141454650E+03    0.38176E-04   -0.60092E-05  6641   0.266E-02    0.424E-02
RMM:   6    -0.630141448459E+03    0.61917E-05   -0.25512E-05  5719   0.224E-02
  23 F= -.63014145E+03 E0= -.63006483E+03  d E =-.302070E-03
 curvature:  -0.29 expect dE=-0.256E-03 dE for cont linesearch -0.139E-05
 trial: gam= 1.99091 g(F)=  0.289E-03 g(S)=  0.610E-03 ort =-0.533E-04 (trialstep = 0.781E-01)
 search vector abs. value=  0.301E-02
 bond charge predicted
       N       E                     dE             d eps       ncg     rms          rms(c)
DAV:   1    -0.630141413275E+03    0.41376E-04   -0.43253E-03 13056   0.410E-01    0.566E-02
RMM:   2    -0.630142015890E+03   -0.60262E-03   -0.16008E-03 11185   0.110E-01    0.287E-01
RMM:   3    -0.630141519250E+03    0.49664E-03   -0.25617E-04  8248   0.692E-02    0.817E-02
RMM:   4    -0.630141477911E+03    0.41340E-04   -0.64904E-05  7052   0.296E-02    0.279E-02
RMM:   5    -0.630141483199E+03   -0.52884E-05   -0.19551E-05  5557   0.200E-02
  24 F= -.63014148E+03 E0= -.63006489E+03  d E =-.347403E-04
 trial-energy change:   -0.000035  1 .order   -0.000049   -0.000062   -0.000036
 step:   0.1846(harm=  0.1846)  dis= 0.00081  next Energy=  -630.141522 (dE=-0.732E-04)
 bond charge predicted
       N       E                     dE             d eps       ncg     rms          rms(c)
DAV:   1    -0.630141372024E+03    0.10589E-03   -0.80042E-03 13080   0.557E-01    0.575E-02
RMM:   2    -0.630141790421E+03   -0.41840E-03   -0.23984E-03 11758   0.126E-01    0.164E-01
RMM:   3    -0.630141565367E+03    0.22505E-03   -0.24305E-04  8268   0.637E-02    0.977E-02
RMM:   4    -0.630141509836E+03    0.55531E-04   -0.64594E-05  7069   0.331E-02    0.276E-02
RMM:   5    -0.630141513972E+03   -0.41368E-05   -0.23218E-05  5605   0.204E-02
  25 F= -.63014151E+03 E0= -.63006492E+03  d E =-.655138E-04
 curvature:  -0.35 expect dE=-0.139E-03 dE for cont linesearch -0.429E-05
 ZBRENT: increasing intervall
 opt :   0.3976  next Energy=  -630.141498 (dE=-0.499E-04)
 bond charge predicted
       N       E                     dE             d eps       ncg     rms          rms(c)
DAV:   1    -0.630140977354E+03    0.53248E-03   -0.31803E-02 13224   0.112E+00    0.104E-01
RMM:   2    -0.630142490221E+03   -0.15129E-02   -0.88858E-03 12183   0.248E-01    0.320E-01
RMM:   3    -0.630141680803E+03    0.80942E-03   -0.89481E-04  9356   0.114E-01    0.152E-01
RMM:   4    -0.630141550355E+03    0.13045E-03   -0.26905E-04  9839   0.494E-02    0.620E-02
RMM:   5    -0.630141555035E+03   -0.46803E-05   -0.58735E-05  6477   0.308E-02
  26 F= -.63014156E+03 E0= -.63006500E+03  d E =-.106577E-03
 curvature:   1.27 expect dE= 0.830E-03 dE for cont linesearch  0.503E-05
 trial: gam= 0.06224 g(F)=  0.443E-03 g(S)=  0.208E-03 ort = 0.109E-03 (trialstep = 0.142E+00)
 search vector abs. value=  0.676E-03
 bond charge predicted
       N       E                     dE             d eps       ncg     rms          rms(c)
DAV:   1    -0.630141598526E+03   -0.48171E-04   -0.27075E-03 12576   0.264E-01    0.742E-02
RMM:   2    -0.630142044951E+03   -0.44642E-03   -0.94527E-04 10182   0.111E-01    0.243E-01
RMM:   3    -0.630141638443E+03    0.40651E-03   -0.26620E-04  8033   0.730E-02    0.107E-01
RMM:   4    -0.630141565153E+03    0.73290E-04   -0.65813E-05  7323   0.323E-02    0.394E-02
RMM:   5    -0.630141573046E+03   -0.78935E-05   -0.25997E-05  5639   0.233E-02
  27 F= -.63014157E+03 E0= -.63006502E+03  d E =-.180110E-04
 trial-energy change:   -0.000018  1 .order   -0.000066   -0.000093   -0.000040
 step:   0.2466(harm=  0.2466)  dis= 0.00053  next Energy=  -630.141636 (dE=-0.811E-04)
 bond charge predicted
       N       E                     dE             d eps       ncg     rms          rms(c)
DAV:   1    -0.630141586753E+03   -0.21600E-04   -0.14944E-03 12600   0.201E-01    0.578E-02
RMM:   2    -0.630141976529E+03   -0.38978E-03   -0.64819E-04  9669   0.909E-02    0.243E-01
RMM:   3    -0.630141625969E+03    0.35056E-03   -0.20213E-04  7656   0.642E-02    0.906E-02
RMM:   4    -0.630141572615E+03    0.53355E-04   -0.41304E-05  6302   0.267E-02    0.354E-02
RMM:   5    -0.630141571552E+03    0.10623E-05   -0.16062E-05  5456   0.203E-02
  28 F= -.63014157E+03 E0= -.63006503E+03  d E =-.165169E-04
 curvature:  -0.13 expect dE=-0.381E-04 dE for cont linesearch -0.297E-05
 ZBRENT: increasing intervall
 opt :   0.4559  next Energy=  -630.141566 (dE=-0.108E-04)
 bond charge predicted
       N       E                     dE             d eps       ncg     rms          rms(c)
DAV:   1    -0.630141603043E+03   -0.30428E-04   -0.58054E-03 12264   0.381E-01    0.969E-02
RMM:   2    -0.630142350594E+03   -0.74755E-03   -0.19819E-03 10932   0.156E-01    0.302E-01
RMM:   3    -0.630141722709E+03    0.62789E-03   -0.49245E-04  8708   0.945E-02    0.164E-01
RMM:   4    -0.630141560715E+03    0.16199E-03   -0.13548E-04  8478   0.453E-02    0.471E-02
RMM:   5    -0.630141568993E+03   -0.82780E-05   -0.43500E-05  6184   0.268E-02
  29 F= -.63014157E+03 E0= -.63006506E+03  d E =-.139581E-04
 curvature:   0.24 expect dE= 0.796E-04 dE for cont linesearch  0.202E-05
 ZBRENT: bracketing found
 ZBRENT: interpolating
 opt :   0.3777  next Energy=  -630.141572 (dE=-0.169E-04)
 bond charge predicted
       N       E                     dE             d eps       ncg     rms          rms(c)
DAV:   1    -0.630141568358E+03   -0.76428E-05   -0.10382E-03 12840   0.153E-01    0.430E-02
RMM:   2    -0.630141996975E+03   -0.42862E-03   -0.47560E-04 10010   0.750E-02    0.268E-01
RMM:   3    -0.630141587221E+03    0.40975E-03   -0.15275E-04  7632   0.587E-02    0.563E-02
RMM:   4    -0.630141564419E+03    0.22802E-04   -0.26560E-05  5850   0.204E-02    0.203E-02
RMM:   5    -0.630141563826E+03    0.59325E-06   -0.81158E-06  4517   0.160E-02
  30 F= -.63014156E+03 E0= -.63006503E+03  d E =-.879027E-05
 curvature:  -0.35 expect dE=-0.327E-03 dE for cont linesearch -0.163E-04
 ZBRENT: interpolating
 opt :   0.3011  next Energy=  -630.141575 (dE=-0.199E-04)
 bond charge predicted
       N       E                     dE             d eps       ncg     rms          rms(c)
DAV:   1    -0.630141583317E+03   -0.18898E-04   -0.80879E-04 12144   0.139E-01    0.385E-02
RMM:   2    -0.630141694007E+03   -0.11069E-03   -0.32620E-04 10326   0.597E-02    0.114E-01
RMM:   3    -0.630141598278E+03    0.95729E-04   -0.68693E-05  6731   0.401E-02    0.656E-02
RMM:   4    -0.630141573015E+03    0.25263E-04   -0.19139E-05  5506   0.217E-02    0.196E-02
RMM:   5    -0.630141574359E+03   -0.13445E-05   -0.98658E-06  4493   0.157E-02
  31 F= -.63014157E+03 E0= -.63006502E+03  d E =-.193241E-04
 curvature:  -0.07 expect dE=-0.510E-04 dE for cont linesearch -0.444E-06
 trial: gam= 1.13645 g(F)=  0.189E-03 g(S)=  0.500E-03 ort =-0.637E-04 (trialstep = 0.829E-01)
 search vector abs. value=  0.142E-02
 bond charge predicted
       N       E                     dE             d eps       ncg     rms          rms(c)
DAV:   1    -0.630141589261E+03   -0.16246E-04   -0.19010E-03 10896   0.229E-01    0.239E-02
RMM:   2    -0.630141673634E+03   -0.84374E-04   -0.40772E-04 10815   0.587E-02    0.878E-02
RMM:   3    -0.630141618370E+03    0.55265E-04   -0.47878E-05  6114   0.325E-02    0.300E-02
RMM:   4    -0.630141614221E+03    0.41492E-05   -0.12997E-05  5028   0.159E-02
  32 F= -.63014161E+03 E0= -.63006507E+03  d E =-.398613E-04
 trial-energy change:   -0.000040  1 .order   -0.000040   -0.000051   -0.000028
 step:   0.1834(harm=  0.1834)  dis= 0.00067  next Energy=  -630.141631 (dE=-0.565E-04)
 bond charge predicted
       N       E                     dE             d eps       ncg     rms          rms(c)
DAV:   1    -0.630141607350E+03    0.11020E-04   -0.28585E-03 10248   0.276E-01    0.288E-02
RMM:   2    -0.630141735694E+03   -0.12834E-03   -0.65494E-04 11597   0.694E-02    0.114E-01
RMM:   3    -0.630141660824E+03    0.74870E-04   -0.64880E-05  6471   0.397E-02    0.502E-02
RMM:   4    -0.630141646520E+03    0.14304E-04   -0.21815E-05  5596   0.216E-02    0.147E-02
RMM:   5    -0.630141647777E+03   -0.12572E-05   -0.94833E-06  4819   0.146E-02
  33 F= -.63014165E+03 E0= -.63006510E+03  d E =-.734174E-04
 curvature:  -0.21 expect dE=-0.679E-04 dE for cont linesearch -0.558E-05
 ZBRENT: increasing intervall
 opt :   0.3844  next Energy=  -630.141658 (dE=-0.834E-04)
 bond charge predicted
       N       E                     dE             d eps       ncg     rms          rms(c)
DAV:   1    -0.630141488029E+03    0.15849E-03   -0.11033E-02  9816   0.547E-01    0.491E-02
RMM:   2    -0.630141892058E+03   -0.40403E-03   -0.24215E-03 12883   0.134E-01    0.176E-01
RMM:   3    -0.630141691513E+03    0.20054E-03   -0.21960E-04  8277   0.613E-02    0.720E-02
RMM:   4    -0.630141666146E+03    0.25368E-04   -0.79868E-05  7561   0.305E-02    0.318E-02
RMM:   5    -0.630141666292E+03   -0.14664E-06   -0.25617E-05  5704   0.193E-02
  34 F= -.63014167E+03 E0= -.63006511E+03  d E =-.919329E-04
 curvature:  -0.38 expect dE=-0.198E-03 dE for cont linesearch -0.733E-05
 ZBRENT: bracketing found
 ZBRENT: interpolating
 opt :   0.2916  next Energy=  -630.141674 (dE=-0.997E-04)
 bond charge predicted
       N       E                     dE             d eps       ncg     rms          rms(c)
DAV:   1    -0.630141618988E+03    0.47157E-04   -0.23725E-03  9600   0.255E-01    0.207E-02
RMM:   2    -0.630141710305E+03   -0.91317E-04   -0.53828E-04 11731   0.648E-02    0.835E-02
RMM:   3    -0.630141664307E+03    0.45998E-04   -0.44171E-05  6132   0.315E-02    0.275E-02
RMM:   4    -0.630141660880E+03    0.34268E-05   -0.11894E-05  5014   0.165E-02
  35 F= -.63014166E+03 E0= -.63006512E+03  d E =-.865209E-04
 curvature:  -0.40 expect dE=-0.950E-04 dE for cont linesearch -0.531E-05
 ZBRENT: interpolating
 opt :   0.3337  next Energy=  -630.141664 (dE=-0.894E-04)
 bond charge predicted
       N       E                     dE             d eps       ncg     rms          rms(c)
DAV:   1    -0.630141655920E+03    0.83868E-05   -0.48115E-04 12168   0.118E-01    0.168E-02
RMM:   2    -0.630141731522E+03   -0.75602E-04   -0.11779E-04  7640   0.365E-02    0.110E-01
RMM:   3    -0.630141661756E+03    0.69766E-04   -0.28042E-05  5836   0.280E-02    0.171E-02
RMM:   4    -0.630141660492E+03    0.12632E-05   -0.59358E-06  4529   0.107E-02
  36 F= -.63014166E+03 E0= -.63006511E+03  d E =-.861330E-04
 curvature:  -0.22 expect dE=-0.838E-04 dE for cont linesearch -0.184E-05
 ZBRENT: interpolating
 opt :   0.3150  next Energy=  -630.141662 (dE=-0.872E-04)
 bond charge predicted
       N       E                     dE             d eps       ncg     rms          rms(c)
DAV:   1    -0.630141659475E+03    0.22808E-05   -0.91849E-05 10224   0.538E-02    0.694E-03
RMM:   2    -0.630141667193E+03   -0.77181E-05   -0.15953E-05  5343   0.152E-02
  37 F= -.63014167E+03 E0= -.63006511E+03  d E =-.928335E-04
 curvature:  -0.12 expect dE=-0.887E-04 dE for cont linesearch -0.287E-05
 ZBRENT: interpolating
 opt :   0.3267  next Energy=  -630.141661 (dE=-0.865E-04)
 bond charge predicted
       N       E                     dE             d eps       ncg     rms          rms(c)
DAV:   1    -0.630141661155E+03   -0.16803E-05   -0.57429E-05  8376   0.485E-02    0.112E-02
RMM:   2    -0.630141692261E+03   -0.31106E-04   -0.23138E-05  5724   0.190E-02    0.739E-02
RMM:   3    -0.630141661959E+03    0.30303E-04   -0.12610E-05  5322   0.196E-02    0.145E-02
RMM:   4    -0.630141660612E+03    0.13467E-05   -0.21407E-06  4287   0.608E-03
  38 F= -.63014166E+03 E0= -.63006511E+03  d E =-.862527E-04
 curvature:  -0.02 expect dE=-0.473E-05 dE for cont linesearch -0.665E-07
 ZBRENT: bisectioning
 opt :   0.3208  next Energy=  -630.141661 (dE=-0.866E-04)
 bond charge predicted
       N       E                     dE             d eps       ncg     rms          rms(c)
DAV:   1    -0.630141660209E+03    0.17498E-05   -0.71638E-06  5760   0.184E-02    0.241E-03
RMM:   2    -0.630141661586E+03   -0.13770E-05   -0.26127E-06  4294   0.782E-03
  39 F= -.63014166E+03 E0= -.63006511E+03  d E =-.872267E-04
 curvature:  -0.09 expect dE=-0.342E-04 dE for cont linesearch -0.829E-06
 ZBRENT: interpolating
 opt :   0.3243  next Energy=  -630.141661 (dE=-0.863E-04)
 bond charge predicted
       N       E                     dE             d eps       ncg     rms          rms(c)
DAV:   1    -0.630141660510E+03   -0.30118E-06   -0.58995E-06  5376   0.161E-02    0.167E-03
RMM:   2    -0.630141660885E+03   -0.37492E-06   -0.60231E-07  4137   0.391E-03
  40 F= -.63014166E+03 E0= -.63006512E+03  d E =-.865258E-04
 curvature:  -0.01 expect dE=-0.239E-05 dE for cont linesearch -0.449E-07
 ZBRENT: bisectioning
 opt :   0.3226  next Energy=  -630.141661 (dE=-0.867E-04)
 bond charge predicted
       N       E                     dE             d eps       ncg     rms          rms(c)
DAV:   1    -0.630141660472E+03    0.38024E-07   -0.20815E-06  5376   0.894E-03    0.248E-03
RMM:   2    -0.630141662162E+03   -0.16896E-05   -0.84953E-07  3778   0.411E-03
  41 F= -.63014166E+03 E0= -.63006511E+03  d E =-.878024E-04
 curvature:  -0.03 expect dE=-0.120E-04 dE for cont linesearch -0.365E-07
 trial: gam= 0.01881 g(F)=  0.131E-03 g(S)=  0.253E-03 ort = 0.407E-04 (trialstep = 0.131E+00)
 search vector abs. value=  0.386E-03
 bond charge predicted
       N       E                     dE             d eps       ncg     rms          rms(c)
DAV:   1    -0.630141746803E+03   -0.86331E-04   -0.14092E-03 13056   0.185E-01    0.644E-02
RMM:   2    -0.630142058886E+03   -0.31208E-03   -0.75101E-04  9993   0.961E-02    0.196E-01
RMM:   3    -0.630141778794E+03    0.28009E-03   -0.20224E-04  7980   0.673E-02    0.107E-01
RMM:   4    -0.630141709686E+03    0.69109E-04   -0.46319E-05  6570   0.288E-02    0.323E-02
RMM:   5    -0.630141711701E+03   -0.20157E-05   -0.18295E-05  5490   0.218E-02
  42 F= -.63014171E+03 E0= -.63006514E+03  d E =-.495396E-04
 ZBRENT: can't locate minimum, use default step
 trial-energy change:   -0.000050  1 .order   -0.000044   -0.000050   -0.000038
 step:   0.5233(harm=  0.5267)  dis= 0.00046  next Energy=  -630.141763 (dE=-0.101E-03)
 bond charge predicted
       N       E                     dE             d eps       ncg     rms          rms(c)
DAV:   1    -0.630142141247E+03   -0.43156E-03   -0.12612E-02 12936   0.565E-01    0.197E-01
RMM:   2    -0.630145150601E+03   -0.30094E-02   -0.67556E-03 10736   0.292E-01    0.622E-01
RMM:   3    -0.630142441060E+03    0.27095E-02   -0.19818E-03  9631   0.197E-01    0.319E-01
RMM:   4    -0.630141814778E+03    0.62628E-03   -0.49142E-04  9990   0.788E-02    0.100E-01
RMM:   5    -0.630141838847E+03   -0.24069E-04   -0.19130E-04  9167   0.490E-02    0.125E-01
RMM:   6    -0.630141741741E+03    0.97106E-04   -0.83979E-05  7729   0.333E-02    0.517E-02
RMM:   7    -0.630141743619E+03   -0.18783E-05   -0.45108E-05  6303   0.290E-02
  43 F= -.63014174E+03 E0= -.63006511E+03  d E =-.814575E-04
 curvature:  -0.26 expect dE=-0.254E-04 dE for cont linesearch -0.121E-04
 ZBRENT: increasing intervall
 opt :   1.3083  next Energy=  -630.141725 (dE=-0.631E-04)
 bond charge predicted
       N       E                     dE             d eps       ncg     rms          rms(c)
DAV:   1    -0.630142871109E+03   -0.11294E-02   -0.49393E-02 12816   0.111E+00    0.386E-01
RMM:   2    -0.630154716697E+03   -0.11846E-01   -0.26795E-02 10800   0.570E-01    0.122E+00
RMM:   3    -0.630144147740E+03    0.10569E-01   -0.77184E-03 10039   0.390E-01    0.644E-01
RMM:   4    -0.630141679399E+03    0.24683E-02   -0.19822E-03 10757   0.153E-01    0.198E-01
RMM:   5    -0.630141725199E+03   -0.45800E-04   -0.73990E-04 10225   0.917E-02    0.227E-01
RMM:   6    -0.630141438031E+03    0.28717E-03   -0.40414E-04 10653   0.650E-02    0.118E-01
RMM:   7    -0.630141386560E+03    0.51471E-04   -0.18162E-04  9482   0.453E-02    0.980E-02
RMM:   8    -0.630141387708E+03   -0.11479E-05   -0.12326E-04  8140   0.413E-02    0.972E-02
RMM:   9    -0.630141327922E+03    0.59786E-04   -0.58152E-05  7391   0.273E-02    0.324E-02
RMM:  10    -0.630141326881E+03    0.10409E-05   -0.26078E-05  5858   0.212E-02
  44 F= -.63014133E+03 E0= -.63006460E+03  d E =0.335281E-03
 curvature:   0.40 expect dE= 0.121E-02 dE for cont linesearch  0.845E-03
 ZBRENT: bracketing found
 ZBRENT: interpolating
 opt :   0.6241  next Energy=  -630.141750 (dE=-0.881E-04)
 bond charge predicted
       N       E                     dE             d eps       ncg     rms          rms(c)
DAV:   1    -0.630142844106E+03   -0.15162E-02   -0.38984E-02 12864   0.973E-01    0.328E-01
RMM:   2    -0.630151083036E+03   -0.82389E-02   -0.19475E-02 11065   0.496E-01    0.102E+00
RMM:   3    -0.630143751478E+03    0.73316E-02   -0.54331E-03 10194   0.325E-01    0.549E-01
RMM:   4    -0.630141949376E+03    0.18021E-02   -0.14508E-03 11250   0.135E-01    0.175E-01
RMM:   5    -0.630142003927E+03   -0.54551E-04   -0.57397E-04 10719   0.783E-02    0.206E-01
RMM:   6    -0.630141748942E+03    0.25499E-03   -0.31416E-04 10872   0.549E-02    0.886E-02
RMM:   7    -0.630141747193E+03    0.17486E-05   -0.12554E-04  8149   0.426E-02    0.101E-01
RMM:   8    -0.630141730644E+03    0.16549E-04   -0.93331E-05  7458   0.355E-02    0.768E-02
RMM:   9    -0.630141694740E+03    0.35904E-04   -0.36815E-05  5961   0.234E-02    0.287E-02
RMM:  10    -0.630141695595E+03   -0.85495E-06   -0.16229E-05  5431   0.201E-02
  45 F= -.63014170E+03 E0= -.63006506E+03  d E =-.334329E-04
 curvature:  -0.00 expect dE=-0.121E-05 dE for cont linesearch -0.488E-06
 ZBRENT: interpolating
 opt :   0.5589  next Energy=  -630.141746 (dE=-0.838E-04)
 bond charge predicted
       N       E                     dE             d eps       ncg     rms          rms(c)
DAV:   1    -0.630141713614E+03   -0.18875E-04   -0.35512E-04 12480   0.985E-02    0.346E-02
RMM:   2    -0.630141837055E+03   -0.12344E-03   -0.21549E-04  8409   0.507E-02    0.127E-01
RMM:   3    -0.630141729664E+03    0.10739E-03   -0.65202E-05  6714   0.384E-02    0.580E-02
RMM:   4    -0.630141709198E+03    0.20466E-04   -0.13080E-05  5368   0.164E-02    0.184E-02
RMM:   5    -0.630141709153E+03    0.45336E-07   -0.57901E-06  4383   0.124E-02
  46 F= -.63014171E+03 E0= -.63006509E+03  d E =-.469914E-04
 curvature:  -0.02 expect dE=-0.572E-05 dE for cont linesearch -0.197E-05
 ZBRENT: interpolating
 opt :   0.5366  next Energy=  -630.141745 (dE=-0.823E-04)
 bond charge predicted
       N       E                     dE             d eps       ncg     rms          rms(c)
DAV:   1    -0.630141714306E+03   -0.51080E-05   -0.49562E-05  9384   0.397E-02    0.204E-02
RMM:   2    -0.630141781921E+03   -0.67615E-04   -0.63510E-05  6625   0.315E-02    0.104E-01
RMM:   3    -0.630141718453E+03    0.63468E-04   -0.24027E-05  5745   0.247E-02    0.271E-02
RMM:   4    -0.630141713677E+03    0.47756E-05   -0.48119E-06  4378   0.960E-03
  47 F= -.63014171E+03 E0= -.63006509E+03  d E =-.515151E-04
 curvature:  -0.01 expect dE=-0.245E-05 dE for cont linesearch -0.659E-06
 ZBRENT: interpolating
 opt :   0.5288  next Energy=  -630.141744 (dE=-0.818E-04)
 bond charge predicted
       N       E                     dE             d eps       ncg     rms          rms(c)
DAV:   1    -0.630141714892E+03    0.35607E-05   -0.10436E-05  5376   0.181E-02    0.861E-03
RMM:   2    -0.630141727803E+03   -0.12911E-04   -0.92738E-06  5238   0.141E-02    0.463E-02
RMM:   3    -0.630141716540E+03    0.11263E-04   -0.58626E-06  4319   0.130E-02    0.118E-02
RMM:   4    -0.630141715699E+03    0.84034E-06   -0.14590E-06  4243   0.491E-03
  48 F= -.63014172E+03 E0= -.63006510E+03  d E =-.535376E-04
 curvature:  -0.00 expect dE=-0.103E-05 dE for cont linesearch -0.226E-06
 ZBRENT: interpolating
 opt :   0.5259  next Energy=  -630.141744 (dE=-0.816E-04)
 bond charge predicted
       N       E                     dE             d eps       ncg     rms          rms(c)
DAV:   1    -0.630141716026E+03    0.51331E-06   -0.26640E-06  5184   0.995E-03    0.494E-03
RMM:   2    -0.630141720340E+03   -0.43134E-05   -0.28401E-06  4322   0.823E-03
  49 F= -.63014172E+03 E0= -.63006510E+03  d E =-.581781E-04
 curvature:  -0.00 expect dE=-0.288E-06 dE for cont linesearch -0.729E-11
 trial: gam= 0.27637 g(F)=  0.827E-04 g(S)=  0.209E-04 ort =-0.101E-05 (trialstep = 0.210E+00)
 search vector abs. value=  0.133E-03
 bond charge predicted
       N       E                     dE             d eps       ncg     rms          rms(c)
DAV:   1    -0.630141695859E+03    0.20168E-04   -0.14105E-03 11256   0.239E-01    0.102E-02
RMM:   2    -0.630141736352E+03   -0.40493E-04   -0.36179E-04 10732   0.451E-02    0.327E-02
RMM:   3    -0.630141732486E+03    0.38656E-05   -0.24069E-05  4841   0.206E-02
  50 F= -.63014173E+03 E0= -.63006511E+03  d E =-.121463E-04
 trial-energy change:   -0.000012  1 .order   -0.000014   -0.000022   -0.000006
 step:   0.2896(harm=  0.2896)  dis= 0.00028  next Energy=  -630.141735 (dE=-0.150E-04)
 reached required accuracy - stopping structural energy minimisation
