HECN                                    
           1
     8.722328    0.002246   -0.018092
     0.007845    8.830451   -0.019805
     0.013155   -0.035339    8.732624
   V    W    Zr   N    C    Cr   Mo
   7   6   7  13  19   6   6
Direct configuration=     1
   0.00205616  0.97410435  0.97632570
   0.25076188  0.98478085  0.27200471
   0.26591153  0.52394081  0.23965189
   0.49783424  0.46765772  0.99341132
   0.48345917  0.25939780  0.75278045
   0.01295866  0.50038640  0.46303922
   0.51501944  0.77251098  0.73786993
   0.99959058  0.22295845  0.26618917
   0.75885297  0.74767269  0.99873493
   0.01239932  0.27811923  0.73683846
   0.75292503  0.27302213  0.50918097
   0.99595900  0.73311773  0.75333631
   0.26211480  0.50792789  0.76513625
   0.24045480  0.23946415  0.00224310
   0.49674987  0.24499387  0.24972910
   0.73704715  0.99050114  0.26610331
   0.75572418  0.24338801  0.98685805
   0.27885250  0.76100889  0.00387036
   0.25425842  0.25258937  0.50124764
   0.24788111  0.74838740  0.50613659
   0.24304480  0.23955138  0.25184521
   0.24346335  0.99785612  0.99410418
   0.99752265  0.22312913  0.99966335
   0.75633754  0.24838504  0.25319789
   0.74760532  0.99064865  0.99123306
   0.48647869  0.98903675  0.27357523
   0.00627550  0.48618027  0.24515217
   0.52041659  0.78017253  0.97894783
   0.98464636  0.01610989  0.75272365
   0.75141103  0.25154718  0.74018939
   0.75671847  0.01291256  0.51333893
   0.51196629  0.24943466  0.51066565
   0.51823481  0.01146462  0.73205654
   0.00381300  0.99522257  0.24515370
   0.49922386  0.24033991  0.98875975
   0.26027541  0.75011998  0.25478259
   0.25014075  0.50264297  0.00503705
   0.00721613  0.74938775  0.00369229
   0.73835183  0.74192996  0.24505691
   0.75239734  0.50496200  0.99187863
   0.49334468  0.51060130  0.23760636
   0.25248893  0.24944028  0.75141675
   0.25371545  0.99809783  0.52063583
   0.99821649  0.25821215  0.50182800
   0.25660410  0.75575758  0.75547358
   0.24728052  0.50142198  0.49472683
   0.99264208  0.74703221  0.50393466
   0.99936863  0.50326323  0.76245741
   0.75134621  0.75680777  0.74478042
   0.76014017  0.49811043  0.49378532
   0.50796971  0.76189224  0.50266835
   0.49493235  0.50984836  0.75515116
   0.51592723  0.01652430  0.94609511
   0.99618728  0.53610525  0.03124744
   0.50465711  0.73656815  0.28639911
   0.20550100  0.97662933  0.75366311
   0.46943191  0.99001408  0.51263106
   0.73235920  0.97454428  0.75956205
   0.99775276  0.76854752  0.25451231
   0.72771813  0.51285718  0.22951169
   0.01195296  0.00070536  0.50506502
   0.49701154  0.50600021  0.49237867
   0.72442490  0.50207201  0.75170005
   0.75267654  0.72198294  0.50102840
HECN                                    
           1
     8.697544    0.002348   -0.018685
     0.007933    8.805374   -0.020373
     0.012471   -0.035855    8.707879
   V    W    Zr   N    C    Cr   Mo
   7   6   7  13  19   6   6
Direct configuration=     2
   0.00206681  0.97411042  0.97628345
   0.25080364  0.98474230  0.27200773
   0.26593714  0.52393987  0.23962439
   0.49781736  0.46765088  0.99341214
   0.48344666  0.25940401  0.75281226
   0.01293561  0.50038182  0.46304094
   0.51501839  0.77248754  0.73784721
   0.99959678  0.22296098  0.26618416
   0.75887534  0.74766492  0.99871567
   0.01237443  0.27816303  0.73685679
   0.75292838  0.27303412  0.50920618
   0.99594423  0.73310729  0.75331719
   0.26212916  0.50794035  0.76515204
   0.24044222  0.23948804  0.00222717
   0.49675436  0.24498268  0.24972496
   0.73701350  0.99050042  0.26614503
   0.75572950  0.24342980  0.98682040
   0.27885383  0.76099935  0.00386404
   0.25424989  0.25256578  0.50127282
   0.24788144  0.74840201  0.50611364
   0.24299696  0.23954155  0.25182429
   0.24348205  0.99785961  0.99406086
   0.99750995  0.22308950  0.99965246
   0.75639359  0.24840440  0.25324464
   0.74759926  0.99065551  0.99119360
   0.48649051  0.98905849  0.27359182
   0.00629055  0.48613457  0.24510427
   0.52040796  0.78015454  0.97894278
   0.98465015  0.01610515  0.75275853
   0.75140714  0.25150833  0.74018304
   0.75669122  0.01292570  0.51336900
   0.51201309  0.24939591  0.51071817
   0.51821871  0.01144504  0.73204506
   0.00382757  0.99523206  0.24511382
   0.49923767  0.24038172  0.98874519
   0.26029140  0.75013667  0.25476329
   0.25013710  0.50263978  0.00505544
   0.00722508  0.74939374  0.00371477
   0.73835151  0.74194003  0.24504417
   0.75241455  0.50497092  0.99188336
   0.49331609  0.51061307  0.23760304
   0.25250351  0.24941640  0.75142279
   0.25373817  0.99808382  0.52064803
   0.99818008  0.25821069  0.50183607
   0.25661197  0.75580513  0.75547522
   0.24725346  0.50143335  0.49471555
   0.99261127  0.74700736  0.50395184
   0.99933635  0.50327492  0.76249112
   0.75133761  0.75683809  0.74476242
   0.76017195  0.49808478  0.49378366
   0.50799131  0.76193932  0.50267916
   0.49494451  0.50985187  0.75516000
   0.51587434  0.01653943  0.94613993
   0.99620823  0.53612453  0.03119639
   0.50468986  0.73654684  0.28640685
   0.20553741  0.97658238  0.75362723
   0.46946152  0.98999464  0.51268460
   0.73224872  0.97456013  0.75959177
   0.99776781  0.76855100  0.25450809
   0.72771411  0.51286186  0.22949306
   0.01195874  0.00070592  0.50503830
   0.49701760  0.50600347  0.49240163
   0.72443190  0.50206330  0.75169663
   0.75265917  0.72197861  0.50105002
HECN                                    
           1
     8.714049    0.002280   -0.018290
     0.007875    8.822074   -0.019995
     0.012927   -0.035511    8.724358
   V    W    Zr   N    C    Cr   Mo
   7   6   7  13  19   6   6
Direct configuration=     3
   0.00205970  0.97410637  0.97631167
   0.25077575  0.98476805  0.27200571
   0.26592004  0.52394050  0.23964275
   0.49782863  0.46765545  0.99341159
   0.48345501  0.25939986  0.75279101
   0.01295100  0.50038488  0.46303979
   0.51501909  0.77250319  0.73786238
   0.99959264  0.22295929  0.26618751
   0.75886041  0.74767011  0.99872853
   0.01239106  0.27813378  0.73684455
   0.75292614  0.27302611  0.50918934
   0.99595409  0.73311426  0.75332996
   0.26211957  0.50793202  0.76514150
   0.24045062  0.23947209  0.00223781
   0.49675136  0.24499015  0.24972773
   0.73703597  0.99050090  0.26611717
   0.75572595  0.24340190  0.98684554
   0.27885294  0.76100572  0.00386826
   0.25425558  0.25258153  0.50125601
   0.24788122  0.74839225  0.50612896
   0.24302891  0.23954812  0.25183827
   0.24346956  0.99785728  0.99408979
   0.99751844  0.22311597  0.99965974
   0.75635616  0.24839147  0.25321341
   0.74760331  0.99065093  0.99121995
   0.48648261  0.98904397  0.27358074
   0.00628050  0.48616509  0.24513626
   0.52041373  0.78016655  0.97894615
   0.98464762  0.01610831  0.75273523
   0.75140974  0.25153428  0.74018729
   0.75670942  0.01291693  0.51334892
   0.51198183  0.24942179  0.51068309
   0.51822946  0.01145811  0.73205273
   0.00381784  0.99522572  0.24514045
   0.49922844  0.24035380  0.98875491
   0.26028072  0.75012552  0.25477618
   0.25013954  0.50264191  0.00504316
   0.00721910  0.74938974  0.00369976
   0.73835172  0.74193331  0.24505268
   0.75240305  0.50496496  0.99188020
   0.49333519  0.51060521  0.23760526
   0.25249377  0.24943235  0.75141875
   0.25372300  0.99809318  0.52063988
   0.99820439  0.25821166  0.50183068
   0.25660671  0.75577337  0.75547412
   0.24727153  0.50142575  0.49472309
   0.99263185  0.74702396  0.50394037
   0.99935791  0.50326711  0.76246861
   0.75134335  0.75681784  0.74477444
   0.76015073  0.49810191  0.49378477
   0.50797688  0.76190788  0.50267194
   0.49493639  0.50984953  0.75515409
   0.51590966  0.01652933  0.94611000
   0.99619424  0.53611165  0.03123048
   0.50466799  0.73656107  0.28640168
   0.20551310  0.97661373  0.75365119
   0.46944174  0.99000762  0.51264884
   0.73232250  0.97454954  0.75957193
   0.99775776  0.76854868  0.25451090
   0.72771680  0.51285874  0.22950550
   0.01195488  0.00070555  0.50505614
   0.49701355  0.50600129  0.49238629
   0.72442722  0.50206912  0.75169892
   0.75267077  0.72198150  0.50103558
HECN                                    
           1
     8.713577    0.002154   -0.018568
     0.007746    8.821008   -0.020390
     0.012647   -0.035899    8.723910
   V    W    Zr   N    C    Cr   Mo
   7   6   7  13  19   6   6
Direct configuration=     4
   0.00204738  0.97416630  0.97635884
   0.25079667  0.98479496  0.27195615
   0.26585260  0.52383857  0.23965914
   0.49782292  0.46774142  0.99343265
   0.48351396  0.25938953  0.75278726
   0.01290166  0.50038740  0.46313904
   0.51495339  0.77244204  0.73786710
   0.99959936  0.22307234  0.26607810
   0.75886325  0.74768313  0.99871024
   0.01230322  0.27806281  0.73695353
   0.75291283  0.27292452  0.50912563
   0.99597729  0.73321064  0.75330673
   0.26203904  0.50792082  0.76507094
   0.24048275  0.23953822  0.00224541
   0.49675974  0.24498228  0.24971961
   0.73701487  0.99053223  0.26607919
   0.75570203  0.24344153  0.98687319
   0.27884295  0.76095655  0.00389907
   0.25427676  0.25255056  0.50125273
   0.24788696  0.74839821  0.50610978
   0.24300669  0.23956857  0.25181686
   0.24352604  0.99787150  0.99408550
   0.99751147  0.22309806  0.99965230
   0.75637705  0.24844059  0.25323207
   0.74761894  0.99067702  0.99122943
   0.48647022  0.98901721  0.27353173
   0.00629648  0.48612022  0.24507774
   0.52040512  0.78012003  0.97899599
   0.98456912  0.01611323  0.75273903
   0.75137534  0.25142795  0.74023357
   0.75663587  0.01289541  0.51343396
   0.51199294  0.24934509  0.51074335
   0.51811408  0.01149251  0.73200017
   0.00384042  0.99521472  0.24504482
   0.49922701  0.24036731  0.98875704
   0.26030248  0.75015489  0.25475905
   0.25010962  0.50263022  0.00510082
   0.00729062  0.74941807  0.00372169
   0.73835346  0.74199157  0.24506271
   0.75242488  0.50492734  0.99186424
   0.49328372  0.51060150  0.23756454
   0.25253398  0.24935561  0.75143003
   0.25373879  0.99809830  0.52066266
   0.99820462  0.25821918  0.50183302
   0.25665403  0.75581501  0.75547030
   0.24723447  0.50142353  0.49470825
   0.99263566  0.74699257  0.50394688
   0.99930455  0.50329204  0.76250951
   0.75131810  0.75681632  0.74476467
   0.76021383  0.49809839  0.49376199
   0.50797839  0.76196107  0.50271329
   0.49494077  0.50989022  0.75515926
   0.51578488  0.01652336  0.94627842
   0.99623874  0.53600548  0.03110550
   0.50466022  0.73660783  0.28628270
   0.20564924  0.97666011  0.75364038
   0.46956701  0.99005145  0.51266133
   0.73233549  0.97465051  0.75956472
   0.99778206  0.76842925  0.25450300
   0.72782289  0.51273053  0.22955797
   0.01189997  0.00070549  0.50504184
   0.49703175  0.50597350  0.49243789
   0.72454148  0.50205540  0.75166465
   0.75264827  0.72211753  0.50103094
HECN                                    
           1
     8.713240    0.002063   -0.018767
     0.007655    8.820247   -0.020672
     0.012447   -0.036175    8.723589
   V    W    Zr   N    C    Cr   Mo
   7   6   7  13  19   6   6
Direct configuration=     5
   0.00203859  0.97420911  0.97639252
   0.25081160  0.98481418  0.27192076
   0.26580445  0.52376578  0.23967083
   0.49781884  0.46780281  0.99344770
   0.48355605  0.25938215  0.75278459
   0.01286643  0.50038920  0.46320991
   0.51490647  0.77239837  0.73787046
   0.99960415  0.22315307  0.26599999
   0.75886527  0.74769242  0.99869718
   0.01224050  0.27801214  0.73703135
   0.75290333  0.27285198  0.50908013
   0.99599385  0.73327946  0.75329014
   0.26198154  0.50791282  0.76502056
   0.24050569  0.23958544  0.00225085
   0.49676573  0.24497665  0.24971382
   0.73699981  0.99055461  0.26605206
   0.75568496  0.24346984  0.98689293
   0.27883582  0.76092143  0.00392107
   0.25429188  0.25252844  0.50125039
   0.24789107  0.74840247  0.50609609
   0.24299082  0.23958317  0.25180157
   0.24356637  0.99788166  0.99408244
   0.99750649  0.22308527  0.99964699
   0.75639197  0.24847566  0.25324539
   0.74763011  0.99069565  0.99123619
   0.48646136  0.98899811  0.27349673
   0.00630789  0.48608818  0.24503595
   0.52039898  0.78008680  0.97903157
   0.98451307  0.01611674  0.75274174
   0.75135078  0.25135202  0.74026661
   0.75658336  0.01288006  0.51349468
   0.51200087  0.24929033  0.51078637
   0.51803169  0.01151707  0.73196265
   0.00385654  0.99520686  0.24497653
   0.49922598  0.24037696  0.98875856
   0.26031801  0.75017586  0.25474681
   0.25008825  0.50262187  0.00514199
   0.00734168  0.74943830  0.00373736
   0.73835470  0.74203318  0.24506988
   0.75244046  0.50490047  0.99185283
   0.49324696  0.51059886  0.23753546
   0.25256268  0.24930082  0.75143807
   0.25375006  0.99810196  0.52067893
   0.99820477  0.25822454  0.50183469
   0.25668782  0.75584474  0.75546758
   0.24720801  0.50142194  0.49469765
   0.99263838  0.74697016  0.50395152
   0.99926645  0.50330984  0.76253872
   0.75130006  0.75681524  0.74475769
   0.76025889  0.49809587  0.49374573
   0.50797948  0.76199905  0.50274283
   0.49494390  0.50991928  0.75516295
   0.51569578  0.01651910  0.94639867
   0.99627052  0.53592966  0.03101625
   0.50465468  0.73664122  0.28619775
   0.20574645  0.97669322  0.75363266
   0.46965646  0.99008275  0.51267025
   0.73234476  0.97472262  0.75955959
   0.99779941  0.76834397  0.25449735
   0.72789864  0.51263898  0.22959543
   0.01186076  0.00070545  0.50503163
   0.49704475  0.50595366  0.49247473
   0.72462307  0.50204561  0.75164019
   0.75263220  0.72221466  0.50102763
HECN                                    
           1
     8.712107    0.001936   -0.018866
     0.007526    8.817283   -0.020743
     0.012344   -0.036236    8.722430
   V    W    Zr   N    C    Cr   Mo
   7   6   7  13  19   6   6
Direct configuration=     6
   0.00205495  0.97425183  0.97646406
   0.25078978  0.98483372  0.27187945
   0.26573052  0.52367571  0.23970072
   0.49783558  0.46789168  0.99345763
   0.48360811  0.25936576  0.75281008
   0.01282656  0.50036091  0.46327553
   0.51485517  0.77233262  0.73788948
   0.99961407  0.22318295  0.26596315
   0.75890796  0.74765656  0.99869919
   0.01222031  0.27791159  0.73709023
   0.75294167  0.27279040  0.50908559
   0.99602553  0.73340317  0.75332778
   0.26191444  0.50789007  0.76495713
   0.24055804  0.23966246  0.00221254
   0.49676512  0.24501086  0.24970712
   0.73703224  0.99058079  0.26595166
   0.75562717  0.24349569  0.98696277
   0.27880827  0.76087764  0.00392441
   0.25425835  0.25249687  0.50130035
   0.24791726  0.74843320  0.50607037
   0.24300165  0.23965667  0.25178862
   0.24371247  0.99790391  0.99408212
   0.99750161  0.22309793  0.99962511
   0.75637605  0.24855249  0.25324354
   0.74763300  0.99072566  0.99127278
   0.48647678  0.98897113  0.27334334
   0.00630802  0.48599399  0.24499991
   0.52041479  0.77998178  0.97915174
   0.98448085  0.01611798  0.75274700
   0.75130123  0.25117591  0.74025168
   0.75646792  0.01283719  0.51357345
   0.51201214  0.24916836  0.51083275
   0.51791743  0.01156616  0.73215366
   0.00387660  0.99519129  0.24487609
   0.49921182  0.24045220  0.98878307
   0.26034818  0.75017125  0.25475518
   0.25003206  0.50260744  0.00513951
   0.00736745  0.74939740  0.00373374
   0.73836360  0.74198754  0.24503540
   0.75248829  0.50490862  0.99186065
   0.49329183  0.51061076  0.23753642
   0.25257469  0.24918664  0.75143203
   0.25379680  0.99810642  0.52068561
   0.99820461  0.25821706  0.50185810
   0.25676597  0.75589804  0.75544695
   0.24716323  0.50139027  0.49472078
   0.99265732  0.74694202  0.50395807
   0.99921707  0.50331990  0.76258372
   0.75128325  0.75685132  0.74476952
   0.76029179  0.49815563  0.49371714
   0.50796678  0.76201352  0.50267386
   0.49497341  0.50997662  0.75515624
   0.51554314  0.01652454  0.94643047
   0.99634098  0.53590695  0.03084386
   0.50464378  0.73663412  0.28616462
   0.20579589  0.97680710  0.75358923
   0.46971559  0.99013900  0.51267356
   0.73220714  0.97482980  0.75958386
   0.99782217  0.76830346  0.25444458
   0.72793008  0.51263184  0.22963710
   0.01185131  0.00073436  0.50498857
   0.49710477  0.50598620  0.49253741
   0.72466525  0.50203047  0.75158811
   0.75261051  0.72223432  0.50100174
HECN                                    
           1
     8.712338    0.001962   -0.018846
     0.007552    8.817887   -0.020728
     0.012365   -0.036223    8.722666
   V    W    Zr   N    C    Cr   Mo
   7   6   7  13  19   6   6
Direct configuration=     7
   0.00205162  0.97424312  0.97644948
   0.25079423  0.98482974  0.27188787
   0.26574558  0.52369407  0.23969462
   0.49783217  0.46787357  0.99345560
   0.48359750  0.25936910  0.75280489
   0.01283469  0.50036668  0.46326216
   0.51486562  0.77234603  0.73788560
   0.99961205  0.22317686  0.26597066
   0.75889926  0.74766387  0.99869878
   0.01222442  0.27793208  0.73707823
   0.75293386  0.27280295  0.50908448
   0.99601907  0.73337796  0.75332011
   0.26192812  0.50789470  0.76497005
   0.24054737  0.23964676  0.00222035
   0.49676524  0.24500389  0.24970849
   0.73702563  0.99057545  0.26597212
   0.75563895  0.24349042  0.98694854
   0.27881389  0.76088657  0.00392373
   0.25426519  0.25250330  0.50129017
   0.24791192  0.74842693  0.50607561
   0.24299945  0.23964169  0.25179126
   0.24368269  0.99789938  0.99408218
   0.99750260  0.22309535  0.99962957
   0.75637930  0.24853683  0.25324392
   0.74763241  0.99071954  0.99126533
   0.48647364  0.98897663  0.27337460
   0.00630799  0.48601319  0.24500726
   0.52041157  0.78000319  0.97912725
   0.98448741  0.01611773  0.75274593
   0.75131133  0.25121181  0.74025473
   0.75649145  0.01284593  0.51355740
   0.51200985  0.24919322  0.51082330
   0.51794071  0.01155615  0.73211473
   0.00387251  0.99519447  0.24489656
   0.49921470  0.24043687  0.98877807
   0.26034203  0.75017219  0.25475348
   0.25004351  0.50261038  0.00514001
   0.00736220  0.74940574  0.00373448
   0.73836179  0.74199685  0.24504243
   0.75247854  0.50490696  0.99185906
   0.49328268  0.51060833  0.23753623
   0.25257224  0.24920991  0.75143326
   0.25378727  0.99810551  0.52068425
   0.99820464  0.25821858  0.50185333
   0.25675004  0.75588718  0.75545115
   0.24717235  0.50139673  0.49471607
   0.99265346  0.74694776  0.50395673
   0.99922713  0.50331785  0.76257455
   0.75128667  0.75684396  0.74476711
   0.76028509  0.49814345  0.49372297
   0.50796937  0.76201057  0.50268792
   0.49496739  0.50996493  0.75515761
   0.51557424  0.01652343  0.94642399
   0.99632662  0.53591158  0.03087899
   0.50464600  0.73663557  0.28617137
   0.20578581  0.97678388  0.75359808
   0.46970354  0.99012754  0.51267288
   0.73223519  0.97480795  0.75957891
   0.99781753  0.76831172  0.25445533
   0.72792367  0.51263329  0.22962861
   0.01185323  0.00072847  0.50499734
   0.49709254  0.50597957  0.49252464
   0.72465666  0.50203356  0.75159872
   0.75261493  0.72223031  0.50100702
HECN                                    
           1
     8.712546    0.001928   -0.018848
     0.007518    8.817725   -0.020679
     0.012364   -0.036173    8.722860
   V    W    Zr   N    C    Cr   Mo
   7   6   7  13  19   6   6
Direct configuration=     8
   0.00206173  0.97425438  0.97648044
   0.25078564  0.98483781  0.27187340
   0.26571890  0.52365648  0.23970762
   0.49783993  0.46791262  0.99345494
   0.48361636  0.25936710  0.75281763
   0.01281966  0.50035261  0.46328331
   0.51484841  0.77231758  0.73788999
   0.99961669  0.22318522  0.26596361
   0.75891796  0.74765230  0.99869965
   0.01222185  0.27789001  0.73709615
   0.75295107  0.27278293  0.50909138
   0.99603174  0.73342929  0.75333881
   0.26190680  0.50788268  0.76494507
   0.24056572  0.23967565  0.00220415
   0.49676199  0.24501897  0.24971171
   0.73704134  0.99058244  0.26593394
   0.75561769  0.24349943  0.98697583
   0.27880079  0.76086992  0.00392189
   0.25425315  0.25249031  0.50130921
   0.24792341  0.74843758  0.50606570
   0.24300746  0.23967383  0.25179008
   0.24374319  0.99790711  0.99408266
   0.99750157  0.22310419  0.99962019
   0.75636995  0.24856505  0.25324246
   0.74762905  0.99072927  0.99128034
   0.48648125  0.98896866  0.27331014
   0.00630559  0.48597732  0.24499749
   0.52041922  0.77995600  0.97917526
   0.98448454  0.01611496  0.75274809
   0.75129222  0.25114273  0.74024781
   0.75644902  0.01282652  0.51357812
   0.51201348  0.24914642  0.51083555
   0.51789349  0.01157290  0.73219484
   0.00387974  0.99518870  0.24486090
   0.49920870  0.24047140  0.98878911
   0.26035070  0.75016639  0.25475826
   0.25002397  0.50260578  0.00513080
   0.00737052  0.74939113  0.00373038
   0.73836873  0.74197909  0.24502927
   0.75249678  0.50491188  0.99186221
   0.49330138  0.51061286  0.23754375
   0.25257460  0.24916540  0.75142987
   0.25380739  0.99810656  0.52067969
   0.99820657  0.25821305  0.50186276
   0.25677990  0.75590495  0.75544212
   0.24715861  0.50138487  0.49473002
   0.99266179  0.74693880  0.50395702
   0.99921160  0.50331942  0.76259024
   0.75128196  0.75685989  0.74477197
   0.76029191  0.49816014  0.49371377
   0.50796445  0.76201556  0.50265700
   0.49497511  0.50998553  0.75515415
   0.51550750  0.01652561  0.94644387
   0.99635897  0.53590500  0.03080899
   0.50464091  0.73662768  0.28616116
   0.20579745  0.97684228  0.75358070
   0.46972730  0.99015537  0.51267323
   0.73216653  0.97485102  0.75959620
   0.99782631  0.76830076  0.25443331
   0.72793139  0.51263298  0.22964032
   0.01184884  0.00074008  0.50497706
   0.49711611  0.50599203  0.49254993
   0.72466615  0.50202559  0.75157717
   0.75260760  0.72223971  0.50099744
HECN                                    
           1
     8.712751    0.001895   -0.018850
     0.007485    8.817565   -0.020630
     0.012363   -0.036124    8.723052
   V    W    Zr   N    C    Cr   Mo
   7   6   7  13  19   6   6
Direct configuration=     9
   0.00207169  0.97426547  0.97651092
   0.25077718  0.98484576  0.27185916
   0.26569263  0.52361946  0.23972042
   0.49784759  0.46795108  0.99345429
   0.48363494  0.25936513  0.75283017
   0.01280486  0.50033876  0.46330414
   0.51483145  0.77228956  0.73789432
   0.99962127  0.22319345  0.26595667
   0.75893637  0.74764091  0.99870051
   0.01221932  0.27784857  0.73711380
   0.75296803  0.27276320  0.50909818
   0.99604421  0.73347984  0.75335722
   0.26188581  0.50787084  0.76492047
   0.24058380  0.23970410  0.00218821
   0.49675878  0.24503382  0.24971488
   0.73705681  0.99058932  0.26589635
   0.75559676  0.24350830  0.98700270
   0.27878790  0.76085352  0.00392007
   0.25424131  0.25247752  0.50132796
   0.24793473  0.74844806  0.50605594
   0.24301535  0.23970547  0.25178891
   0.24380277  0.99791473  0.99408313
   0.99750056  0.22311290  0.99961096
   0.75636075  0.24859285  0.25324103
   0.74762573  0.99073885  0.99129513
   0.48648875  0.98896082  0.27324666
   0.00630323  0.48594199  0.24498787
   0.52042676  0.77990952  0.97922253
   0.98448170  0.01611223  0.75275021
   0.75127340  0.25107471  0.74024099
   0.75640725  0.01280741  0.51359852
   0.51201705  0.24910033  0.51084761
   0.51784698  0.01158939  0.73227372
   0.00388686  0.99518302  0.24482579
   0.49920279  0.24050541  0.98879999
   0.26035923  0.75016067  0.25476298
   0.25000473  0.50260124  0.00512173
   0.00737871  0.74937675  0.00372634
   0.73837557  0.74196161  0.24501630
   0.75251475  0.50491672  0.99186532
   0.49331978  0.51061732  0.23755117
   0.25257692  0.24912156  0.75142654
   0.25382720  0.99810760  0.52067521
   0.99820846  0.25820761  0.50187205
   0.25680931  0.75592246  0.75543323
   0.24714508  0.50137319  0.49474375
   0.99267001  0.74692998  0.50395730
   0.99919631  0.50332097  0.76260569
   0.75127733  0.75687557  0.74477676
   0.76029863  0.49817658  0.49370471
   0.50795960  0.76202048  0.50262655
   0.49498270  0.51000581  0.75515075
   0.51544176  0.01652776  0.94646345
   0.99639082  0.53589851  0.03074005
   0.50463590  0.73661991  0.28615110
   0.20580891  0.97689979  0.75356358
   0.46975070  0.99018278  0.51267356
   0.73209892  0.97489344  0.75961323
   0.99783496  0.76828997  0.25441162
   0.72793898  0.51263267  0.22965186
   0.01184451  0.00075151  0.50495709
   0.49713932  0.50600430  0.49257484
   0.72467551  0.50201775  0.75155595
   0.75260037  0.72224896  0.50098800
HECN                                    
           1
     8.713162    0.001828   -0.018854
     0.007418    8.817246   -0.020532
     0.012360   -0.036025    8.723435
   V    W    Zr   N    C    Cr   Mo
   7   6   7  13  19   6   6
Direct configuration=    10
   0.00209160  0.97428764  0.97657189
   0.25076026  0.98486165  0.27183067
   0.26564008  0.52354542  0.23974602
   0.49786289  0.46802800  0.99345298
   0.48367208  0.25936119  0.75285526
   0.01277526  0.50031106  0.46334579
   0.51479755  0.77223353  0.73790297
   0.99963042  0.22320991  0.26594279
   0.75897319  0.74761812  0.99870222
   0.01221426  0.27776570  0.73714910
   0.75300193  0.27272376  0.50911178
   0.99606916  0.73358094  0.75339405
   0.26184384  0.50784715  0.76487127
   0.24061995  0.23976100  0.00215631
   0.49675237  0.24506353  0.24972123
   0.73708776  0.99060308  0.26582115
   0.75555489  0.24352604  0.98705645
   0.27876210  0.76082073  0.00391644
   0.25421761  0.25245193  0.50136547
   0.24795736  0.74846903  0.50603642
   0.24303113  0.23976877  0.25178657
   0.24392193  0.99792998  0.99408407
   0.99749854  0.22313031  0.99959249
   0.75634235  0.24864844  0.25323817
   0.74761911  0.99075801  0.99132470
   0.48650374  0.98894513  0.27311970
   0.00629850  0.48587133  0.24496863
   0.52044183  0.77981657  0.97931708
   0.98447604  0.01610677  0.75275446
   0.75123577  0.25093866  0.74022737
   0.75632369  0.01276919  0.51363933
   0.51202420  0.24900814  0.51087173
   0.51775398  0.01162238  0.73243149
   0.00390109  0.99517166  0.24475556
   0.49919097  0.24057342  0.98882173
   0.26037630  0.75014924  0.25477240
   0.24996625  0.50259216  0.00510359
   0.00739509  0.74934798  0.00371826
   0.73838925  0.74192665  0.24499038
   0.75255068  0.50492640  0.99187154
   0.49335660  0.51062625  0.23756599
   0.25258156  0.24903389  0.75141986
   0.25386682  0.99810966  0.52066624
   0.99821225  0.25819672  0.50189062
   0.25686812  0.75595748  0.75541544
   0.24711802  0.50134983  0.49477122
   0.99268643  0.74691234  0.50395786
   0.99916574  0.50332405  0.76263659
   0.75126805  0.75690694  0.74478632
   0.76031207  0.49820945  0.49368659
   0.50794992  0.76203031  0.50256566
   0.49499789  0.51004639  0.75514395
   0.51531030  0.01653204  0.94650260
   0.99645452  0.53588555  0.03060218
   0.50462588  0.73660437  0.28613099
   0.20583183  0.97701481  0.75352935
   0.46979751  0.99023761  0.51267424
   0.73196370  0.97497828  0.75964728
   0.99785225  0.76826840  0.25436824
   0.72795417  0.51263204  0.22967494
   0.01183586  0.00077437  0.50491715
   0.49718575  0.50602884  0.49262465
   0.72469421  0.50200207  0.75151350
   0.75258593  0.72226747  0.50096913
HECN                                    
           1
     8.712989    0.001857   -0.018852
     0.007446    8.817381   -0.020573
     0.012361   -0.036067    8.723273
   V    W    Zr   N    C    Cr   Mo
   7   6   7  13  19   6   6
Direct configuration=    11
   0.00208318  0.97427827  0.97654612
   0.25076741  0.98485493  0.27184271
   0.26566229  0.52357672  0.23973520
   0.49785642  0.46799548  0.99345353
   0.48365638  0.25936286  0.75284466
   0.01278777  0.50032277  0.46332818
   0.51481188  0.77225721  0.73789931
   0.99962655  0.22320295  0.26594866
   0.75895763  0.74762775  0.99870149
   0.01221640  0.27780073  0.73713417
   0.75298760  0.27274044  0.50910603
   0.99605861  0.73353820  0.75337848
   0.26186158  0.50785717  0.76489206
   0.24060467  0.23973694  0.00216979
   0.49675508  0.24505097  0.24971855
   0.73707468  0.99059726  0.26585294
   0.75557259  0.24351854  0.98703373
   0.27877301  0.76083459  0.00391797
   0.25422763  0.25246275  0.50134962
   0.24794780  0.74846017  0.50604467
   0.24302446  0.23974201  0.25178756
   0.24387156  0.99792353  0.99408367
   0.99749939  0.22312295  0.99960029
   0.75635013  0.24862494  0.25323938
   0.74762191  0.99074991  0.99131220
   0.48649740  0.98895176  0.27317337
   0.00630050  0.48590120  0.24497676
   0.52043546  0.77985586  0.97927711
   0.98447843  0.01610907  0.75275267
   0.75125168  0.25099617  0.74023313
   0.75635901  0.01278535  0.51362208
   0.51202117  0.24904711  0.51086154
   0.51779329  0.01160843  0.73236480
   0.00389507  0.99517646  0.24478525
   0.49919597  0.24054467  0.98881254
   0.26036909  0.75015407  0.25476842
   0.24998252  0.50259600  0.00511126
   0.00738816  0.74936014  0.00372167
   0.73838347  0.74194143  0.24500134
   0.75253549  0.50492230  0.99186891
   0.49334104  0.51062247  0.23755972
   0.25257960  0.24907095  0.75142268
   0.25385007  0.99810879  0.52067003
   0.99821065  0.25820132  0.50188277
   0.25684326  0.75594268  0.75542296
   0.24712946  0.50135971  0.49475961
   0.99267949  0.74691979  0.50395763
   0.99917866  0.50332275  0.76262353
   0.75127197  0.75689368  0.74478228
   0.76030639  0.49819555  0.49369425
   0.50795401  0.76202615  0.50259140
   0.49499147  0.51002923  0.75514682
   0.51536587  0.01653023  0.94648605
   0.99642760  0.53589103  0.03066046
   0.50463012  0.73661094  0.28613949
   0.20582214  0.97696619  0.75354382
   0.46977772  0.99021443  0.51267395
   0.73202086  0.97494241  0.75963289
   0.99784494  0.76827752  0.25438658
   0.72794775  0.51263231  0.22966518
   0.01183952  0.00076470  0.50493404
   0.49716613  0.50601846  0.49260359
   0.72468630  0.50200870  0.75153144
   0.75259204  0.72225965  0.50097711
HECN                                    
           1
     8.713061    0.001845   -0.018853
     0.007434    8.817325   -0.020556
     0.012361   -0.036049    8.723340
   V    W    Zr   N    C    Cr   Mo
   7   6   7  13  19   6   6
Direct configuration=    12
   0.00208668  0.97428216  0.97655682
   0.25076444  0.98485772  0.27183771
   0.26565307  0.52356373  0.23973969