  64  64   0   0
  0.1109505E+02  0.8887914E-09  0.9008593E-09  0.8868857E-09  0.5000000E-15
  1.000000000000000E-004
  CAR 
 HECN                                    
     14.82853282    -60.65734332  301      7.67214799      1.00000000
    -60.657  0.0000E+00  0.0000E+00
    -60.406  0.0000E+00  0.0000E+00
    -60.154  0.0000E+00  0.0000E+00
    -59.902  0.0000E+00  0.0000E+00
    -59.651  0.0000E+00  0.0000E+00
    -59.399  0.0000E+00  0.0000E+00
    -59.148  0.0000E+00  0.0000E+00
    -58.896  0.0000E+00  0.0000E+00
    -58.644  0.0000E+00  0.0000E+00
    -58.393  0.0000E+00  0.0000E+00
    -58.141  0.0000E+00  0.0000E+00
    -57.890  0.0000E+00  0.0000E+00
    -57.638  0.3023E-09  0.7607E-10
    -57.386  0.1755E-02  0.4417E-03
    -57.135  0.3010E+00  0.7617E-01
    -56.883  0.1737E+00  0.1199E+00
    -56.631  0.4248E-03  0.1200E+00
    -56.380  0.3441E-10  0.1200E+00
    -56.128  0.0000E+00  0.1200E+00
    -55.877  0.0000E+00  0.1200E+00
    -55.625  0.0000E+00  0.1200E+00
    -55.373  0.0000E+00  0.1200E+00
    -55.122  0.0000E+00  0.1200E+00
    -54.870  0.0000E+00  0.1200E+00
    -54.618  0.0000E+00  0.1200E+00
    -54.367  0.0000E+00  0.1200E+00
    -54.115  0.0000E+00  0.1200E+00
    -53.864  0.0000E+00  0.1200E+00
    -53.612  0.0000E+00  0.1200E+00
    -53.360  0.0000E+00  0.1200E+00
    -53.109  0.0000E+00  0.1200E+00
    -52.857  0.0000E+00  0.1200E+00
    -52.606  0.0000E+00  0.1200E+00
    -52.354  0.0000E+00  0.1200E+00
    -52.102  0.0000E+00  0.1200E+00
    -51.851  0.0000E+00  0.1200E+00
    -51.599  0.0000E+00  0.1200E+00
    -51.347  0.0000E+00  0.1200E+00
    -51.096  0.0000E+00  0.1200E+00
    -50.844  0.0000E+00  0.1200E+00
    -50.593  0.0000E+00  0.1200E+00
    -50.341  0.0000E+00  0.1200E+00
    -50.089  0.0000E+00  0.1200E+00
    -49.838  0.0000E+00  0.1200E+00
    -49.586  0.0000E+00  0.1200E+00
    -49.334  0.0000E+00  0.1200E+00
    -49.083  0.0000E+00  0.1200E+00
    -48.831  0.0000E+00  0.1200E+00
    -48.580  0.0000E+00  0.1200E+00
    -48.328  0.0000E+00  0.1200E+00
    -48.076  0.0000E+00  0.1200E+00
    -47.825  0.0000E+00  0.1200E+00
    -47.573  0.0000E+00  0.1200E+00
    -47.322  0.0000E+00  0.1200E+00
    -47.070  0.0000E+00  0.1200E+00
    -46.818  0.0000E+00  0.1200E+00
    -46.567  0.0000E+00  0.1200E+00
    -46.315  0.0000E+00  0.1200E+00
    -46.063  0.0000E+00  0.1200E+00
    -45.812  0.0000E+00  0.1200E+00
    -45.560  0.0000E+00  0.1200E+00
    -45.309  0.0000E+00  0.1200E+00
    -45.057  0.0000E+00  0.1200E+00
    -44.805  0.0000E+00  0.1200E+00
    -44.554  0.0000E+00  0.1200E+00
    -44.302  0.0000E+00  0.1200E+00
    -44.050  0.0000E+00  0.1200E+00
    -43.799  0.0000E+00  0.1200E+00
    -43.547  0.0000E+00  0.1200E+00
    -43.296  0.0000E+00  0.1200E+00
    -43.044  0.0000E+00  0.1200E+00
    -42.792  0.0000E+00  0.1200E+00
    -42.541  0.0000E+00  0.1200E+00
    -42.289  0.0000E+00  0.1200E+00
    -42.037  0.1693E-07  0.1200E+00
    -41.786  0.5325E-02  0.1213E+00
    -41.534  0.7259E-01  0.1396E+00
    -41.283  0.1232E-01  0.1427E+00
    -41.031  0.2787E+00  0.2128E+00
    -40.779  0.1870E+00  0.2599E+00
    -40.528  0.4558E-03  0.2600E+00
    -40.276  0.2041E-10  0.2600E+00
    -40.025  0.0000E+00  0.2600E+00
    -39.773  0.0000E+00  0.2600E+00
    -39.521  0.0000E+00  0.2600E+00
    -39.270  0.0000E+00  0.2600E+00
    -39.018  0.0000E+00  0.2600E+00
    -38.766  0.0000E+00  0.2600E+00
    -38.515  0.0000E+00  0.2600E+00
    -38.263  0.0000E+00  0.2600E+00
    -38.012  0.0000E+00  0.2600E+00
    -37.760  0.0000E+00  0.2600E+00
    -37.508  0.0000E+00  0.2600E+00
    -37.257  0.0000E+00  0.2600E+00
    -37.005  0.0000E+00  0.2600E+00
    -36.753  0.0000E+00  0.2600E+00
    -36.502  0.0000E+00  0.2600E+00
    -36.250  0.0000E+00  0.2600E+00
    -35.999  0.0000E+00  0.2600E+00
    -35.747  0.0000E+00  0.2600E+00
    -35.495  0.0000E+00  0.2600E+00
    -35.244  0.0000E+00  0.2600E+00
    -34.992  0.0000E+00  0.2600E+00
    -34.741  0.0000E+00  0.2600E+00
    -34.489  0.0000E+00  0.2600E+00
    -34.237  0.0000E+00  0.2600E+00
    -33.986  0.0000E+00  0.2600E+00
    -33.734  0.0000E+00  0.2600E+00
    -33.482  0.0000E+00  0.2600E+00
    -33.231  0.0000E+00  0.2600E+00
    -32.979  0.0000E+00  0.2600E+00
    -32.728  0.0000E+00  0.2600E+00
    -32.476  0.0000E+00  0.2600E+00
    -32.224  0.1843E-07  0.2600E+00
    -31.973  0.5623E-02  0.2614E+00
    -31.721  0.2226E+00  0.3174E+00
    -31.469  0.8014E+00  0.5191E+00
    -31.218  0.6496E+00  0.6825E+00
    -30.966  0.1051E+01  0.9470E+00
    -30.715  0.1312E+00  0.9800E+00
    -30.463  0.3328E-04  0.9800E+00
    -30.211  0.1701E-12  0.9800E+00
    -29.960  0.0000E+00  0.9800E+00
    -29.708  0.0000E+00  0.9800E+00
    -29.457  0.0000E+00  0.9800E+00
    -29.205  0.0000E+00  0.9800E+00
    -28.953  0.0000E+00  0.9800E+00
    -28.702  0.0000E+00  0.9800E+00
    -28.450  0.0000E+00  0.9800E+00
    -28.198  0.0000E+00  0.9800E+00
    -27.947  0.0000E+00  0.9800E+00
    -27.695  0.0000E+00  0.9800E+00
    -27.444  0.0000E+00  0.9800E+00
    -27.192  0.0000E+00  0.9800E+00
    -26.940  0.0000E+00  0.9800E+00
    -26.689  0.0000E+00  0.9800E+00
    -26.437  0.0000E+00  0.9800E+00
    -26.185  0.0000E+00  0.9800E+00
    -25.934  0.0000E+00  0.9800E+00
    -25.682  0.0000E+00  0.9800E+00
    -25.431  0.0000E+00  0.9800E+00
    -25.179  0.0000E+00  0.9800E+00
    -24.927  0.0000E+00  0.9800E+00
    -24.676  0.0000E+00  0.9800E+00
    -24.424  0.0000E+00  0.9800E+00
    -24.173  0.4412E-17  0.9800E+00
    -23.921  0.7576E-07  0.9800E+00
    -23.669  0.9181E-02  0.9823E+00
    -23.418  0.2491E+00  0.1045E+01
    -23.166  0.4443E+00  0.1157E+01
    -22.914  0.4685E+00  0.1275E+01
    -22.663  0.2596E+00  0.1340E+01
    -22.411  0.1963E+00  0.1389E+01
    -22.160  0.4223E-01  0.1400E+01
    -21.908  0.1158E-05  0.1400E+01
    -21.656  0.0000E+00  0.1400E+01
    -21.405  0.0000E+00  0.1400E+01
    -21.153  0.0000E+00  0.1400E+01
    -20.901  0.0000E+00  0.1400E+01
    -20.650  0.0000E+00  0.1400E+01
    -20.398  0.1692E-07  0.1400E+01
    -20.147  0.6086E-02  0.1402E+01
    -19.895  0.2021E+00  0.1452E+01
    -19.643  0.9039E-01  0.1475E+01
    -19.392  0.6908E+00  0.1649E+01
    -19.140  0.5768E+00  0.1794E+01
    -18.888  0.1025E+00  0.1820E+01
    -18.637  0.5761E-03  0.1820E+01
    -18.385  0.7673E-10  0.1820E+01
    -18.134  0.0000E+00  0.1820E+01
    -17.882  0.0000E+00  0.1820E+01
    -17.630  0.0000E+00  0.1820E+01
    -17.379  0.0000E+00  0.1820E+01
    -17.127  0.0000E+00  0.1820E+01
    -16.876  0.0000E+00  0.1820E+01
    -16.624  0.0000E+00  0.1820E+01
    -16.372  0.0000E+00  0.1820E+01
    -16.121  0.0000E+00  0.1820E+01
    -15.869  0.0000E+00  0.1820E+01
    -15.617  0.0000E+00  0.1820E+01
    -15.366  0.0000E+00  0.1820E+01
    -15.114  0.0000E+00  0.1820E+01
    -14.863  0.0000E+00  0.1820E+01
    -14.611  0.0000E+00  0.1820E+01
    -14.359  0.0000E+00  0.1820E+01
    -14.108  0.0000E+00  0.1820E+01
    -13.856  0.0000E+00  0.1820E+01
    -13.604  0.0000E+00  0.1820E+01
    -13.353  0.0000E+00  0.1820E+01
    -13.101  0.0000E+00  0.1820E+01
    -12.850  0.0000E+00  0.1820E+01
    -12.598  0.0000E+00  0.1820E+01
    -12.346  0.0000E+00  0.1820E+01
    -12.095  0.0000E+00  0.1820E+01
    -11.843  0.0000E+00  0.1820E+01
    -11.592  0.0000E+00  0.1820E+01
    -11.340  0.0000E+00  0.1820E+01
    -11.088  0.0000E+00  0.1820E+01
    -10.837  0.0000E+00  0.1820E+01
    -10.585  0.0000E+00  0.1820E+01
    -10.333  0.0000E+00  0.1820E+01
    -10.082  0.0000E+00  0.1820E+01
     -9.830  0.0000E+00  0.1820E+01
     -9.579  0.0000E+00  0.1820E+01
     -9.327  0.1129E-12  0.1820E+01
     -9.075  0.7074E-05  0.1820E+01
     -8.824  0.9114E-02  0.1822E+01
     -8.572  0.5922E-01  0.1837E+01
     -8.320  0.4611E-01  0.1849E+01
     -8.069  0.1576E+00  0.1888E+01
     -7.817  0.9471E-01  0.1912E+01
     -7.566  0.1177E+00  0.1942E+01
     -7.314  0.2394E+00  0.2002E+01
     -7.062  0.1648E+00  0.2044E+01
     -6.811  0.6691E-01  0.2060E+01
     -6.559  0.7287E-01  0.2079E+01
     -6.308  0.4903E-02  0.2080E+01
     -6.056  0.1591E-07  0.2080E+01
     -5.804  0.0000E+00  0.2080E+01
     -5.553  0.3268E-18  0.2080E+01
     -5.301  0.5310E-08  0.2080E+01
     -5.049  0.9654E-03  0.2080E+01
     -4.798  0.4771E-01  0.2092E+01
     -4.546  0.5904E-01  0.2107E+01
     -4.295  0.1019E+00  0.2133E+01
     -4.043  0.1339E+00  0.2166E+01
     -3.791  0.2139E+00  0.2220E+01
     -3.540  0.2301E+00  0.2278E+01
     -3.288  0.2740E+00  0.2347E+01
     -3.036  0.1909E+00  0.2395E+01
     -2.785  0.1528E+00  0.2434E+01
     -2.533  0.9029E-01  0.2456E+01
     -2.282  0.1449E-01  0.2460E+01
     -2.030  0.9935E-04  0.2460E+01
     -1.778  0.5604E-10  0.2460E+01
     -1.527  0.0000E+00  0.2460E+01
     -1.275  0.0000E+00  0.2460E+01
     -1.024  0.1637E-15  0.2460E+01
     -0.772  0.1837E-06  0.2460E+01
     -0.520  0.1859E-02  0.2460E+01
     -0.269  0.2660E-01  0.2467E+01
     -0.017  0.7344E-01  0.2486E+01
      0.235  0.9798E-01  0.2510E+01
      0.486  0.1099E+00  0.2538E+01
      0.738  0.1710E+00  0.2581E+01
      0.989  0.2334E+00  0.2640E+01
      1.241  0.2916E+00  0.2713E+01
      1.493  0.2813E+00  0.2784E+01
      1.744  0.3115E+00  0.2862E+01
      1.996  0.3457E+00  0.2949E+01
      2.248  0.3764E+00  0.3044E+01
      2.499  0.4487E+00  0.3157E+01
      2.751  0.5332E+00  0.3291E+01
      3.002  0.5749E+00  0.3436E+01
      3.254  0.5769E+00  0.3581E+01
      3.506  0.5948E+00  0.3730E+01
      3.757  0.5674E+00  0.3873E+01
      4.009  0.4870E+00  0.3996E+01
      4.261  0.4146E+00  0.4100E+01
      4.512  0.3270E+00  0.4182E+01
      4.764  0.2994E+00  0.4258E+01
      5.015  0.1886E+00  0.4305E+01
      5.267  0.1884E+00  0.4353E+01
      5.519  0.1135E+00  0.4381E+01
      5.770  0.1427E+00  0.4417E+01
      6.022  0.1726E+00  0.4461E+01
      6.273  0.1727E+00  0.4504E+01
      6.525  0.2068E+00  0.4556E+01
      6.777  0.2145E+00  0.4610E+01
      7.028  0.2107E+00  0.4663E+01
      7.280  0.2229E+00  0.4719E+01
      7.532  0.2371E+00  0.4779E+01
      7.783  0.2324E+00  0.4837E+01
      8.035  0.2903E+00  0.4910E+01
      8.286  0.3477E+00  0.4998E+01
      8.538  0.4075E+00  0.5100E+01
      8.790  0.4634E+00  0.5217E+01
      9.041  0.4676E+00  0.5335E+01
      9.293  0.4295E+00  0.5443E+01
      9.545  0.3998E+00  0.5543E+01
      9.796  0.3895E+00  0.5641E+01
     10.048  0.4098E+00  0.5744E+01
     10.299  0.3972E+00  0.5844E+01
     10.551  0.3606E+00  0.5935E+01
     10.803  0.3502E+00  0.6023E+01
     11.054  0.3353E+00  0.6107E+01
     11.306  0.1815E+00  0.6153E+01
     11.557  0.2714E-01  0.6160E+01
     11.809  0.1211E-03  0.6160E+01
     12.061  0.2051E-10  0.6160E+01
     12.312  0.0000E+00  0.6160E+01
     12.564  0.0000E+00  0.6160E+01
     12.816  0.0000E+00  0.6160E+01
     13.067  0.0000E+00  0.6160E+01
     13.319  0.0000E+00  0.6160E+01
     13.570  0.0000E+00  0.6160E+01
     13.822  0.0000E+00  0.6160E+01
     14.074  0.0000E+00  0.6160E+01
     14.325  0.0000E+00  0.6160E+01
     14.577  0.0000E+00  0.6160E+01
     14.829  0.0000E+00  0.6160E+01
