 running   28 mpi-ranks, on    1 nodes
 distrk:  each k-point on   28 cores,    1 groups
 distr:  one band on    1 cores,   28 groups
 vasp.6.4.3 19Mar24 (build Sep 18 2024 11:30:23) complex                        
  
 POSCAR found type information on POSCAR ZrMoHfN C W V 
 POSCAR found :  7 types and      64 ions
 Reading from existing POTCAR
 scaLAPACK will be used
 -----------------------------------------------------------------------------
|                                                                             |
|           W    W    AA    RRRRR   N    N  II  N    N   GGGG   !!!           |
|           W    W   A  A   R    R  NN   N  II  NN   N  G    G  !!!           |
|           W    W  A    A  R    R  N N  N  II  N N  N  G       !!!           |
|           W WW W  AAAAAA  RRRRR   N  N N  II  N  N N  G  GGG   !            |
|           WW  WW  A    A  R   R   N   NN  II  N   NN  G    G                |
|           W    W  A    A  R    R  N    N  II  N    N   GGGG   !!!           |
|                                                                             |
|     For optimal performance we recommend to set                             |
|       NCORE = 2 up to number-of-cores-per-socket                            |
|     NCORE specifies how many cores store one orbital (NPAR=cpu/NCORE).      |
|     This setting can greatly improve the performance of VASP for DFT.       |
|     The default, NCORE=1 might be grossly inefficient on modern             |
|     multi-core architectures or massively parallel machines. Do your        |
|     own testing! More info at https://www.vasp.at/wiki/index.php/NCORE      |
|     Unfortunately you need to use the default for GW and RPA                |
|     calculations (for HF NCORE is supported but not extensively tested      |
|     yet).                                                                   |
|                                                                             |
 -----------------------------------------------------------------------------

 Reading from existing POTCAR
 -----------------------------------------------------------------------------
|                                                                             |
|               ----> ADVICE to this user running VASP <----                  |
|                                                                             |
|     You have a (more or less) 'large supercell' and for larger cells it     |
|     might be more efficient to use real-space projection operators.         |
|     Therefore, try LREAL= Auto in the INCAR file.                           |
|     Mind: If you want to do very accurate calculations, keep the            |
|     reciprocal projection scheme (i.e. LREAL=.FALSE.).                      |
|                                                                             |
 -----------------------------------------------------------------------------

 LDA part: xc-table for (Slater+PW92), standard interpolation
 POSCAR, INCAR and KPOINTS ok, starting setup
 FFT: planning ... GRIDC
 FFT: planning ... GRID_SOFT
 FFT: planning ... GRID
 WAVECAR not read
 entering main loop
       N       E                     dE             d eps       ncg     rms          rms(c)
DAV:   1     0.393305984116E+04    0.39331E+04   -0.21787E+05  8624   0.135E+03
DAV:   2    -0.263754538580E+03   -0.41968E+04   -0.40259E+04  8652   0.438E+02
DAV:   3    -0.752062302718E+03   -0.48831E+03   -0.47221E+03 12124   0.129E+02
DAV:   4    -0.781574247537E+03   -0.29512E+02   -0.29199E+02 13972   0.320E+01
DAV:   5    -0.782816839197E+03   -0.12426E+01   -0.12386E+01 13440   0.562E+00    0.647E+01
RMM:   6    -0.725516214257E+03    0.57301E+02   -0.11907E+03 11702   0.563E+01    0.740E+01
RMM:   7    -0.677139683329E+03    0.48377E+02   -0.17741E+02 10000   0.276E+01    0.359E+01
RMM:   8    -0.653067477444E+03    0.24072E+02   -0.40768E+01 11946   0.121E+01    0.148E+01
RMM:   9    -0.651095014907E+03    0.19725E+01   -0.10861E+01 13514   0.502E+00    0.942E+00
RMM:  10    -0.650368303558E+03    0.72671E+00   -0.37187E+00 13248   0.334E+00    0.605E+00
RMM:  11    -0.650535077396E+03   -0.16677E+00   -0.26570E+00 13270   0.278E+00    0.768E+00
RMM:  12    -0.650170053357E+03    0.36502E+00   -0.13432E+00 13369   0.195E+00    0.309E+00
RMM:  13    -0.650138151005E+03    0.31902E-01   -0.56874E-01 13726   0.119E+00    0.268E+00
RMM:  14    -0.650104715291E+03    0.33436E-01   -0.28078E-01 13927   0.797E-01    0.159E+00
RMM:  15    -0.650094214896E+03    0.10500E-01   -0.16587E-01 13985   0.517E-01    0.929E-01
RMM:  16    -0.650098601600E+03   -0.43867E-02   -0.87022E-02 14036   0.404E-01    0.795E-01
RMM:  17    -0.650104299800E+03   -0.56982E-02   -0.44200E-02 14154   0.335E-01    0.874E-01
RMM:  18    -0.650102401463E+03    0.18983E-02   -0.26398E-02 13689   0.272E-01    0.651E-01
RMM:  19    -0.650098866373E+03    0.35351E-02   -0.16633E-02 14112   0.216E-01    0.235E-01
RMM:  20    -0.650098818806E+03    0.47567E-04   -0.71600E-03 14207   0.122E-01    0.175E-01
RMM:  21    -0.650098737527E+03    0.81278E-04   -0.32657E-03 14116   0.715E-02    0.921E-02
RMM:  22    -0.650098773730E+03   -0.36203E-04   -0.17576E-03 14284   0.514E-02    0.681E-02
RMM:  23    -0.650098817561E+03   -0.43831E-04   -0.84237E-04 13426   0.394E-02    0.732E-02
RMM:  24    -0.650098791088E+03    0.26473E-04   -0.49268E-04 12671   0.314E-02    0.235E-02
RMM:  25    -0.650098806788E+03   -0.15700E-04   -0.28087E-04 12263   0.196E-02    0.147E-02
RMM:  26    -0.650098814116E+03   -0.73277E-05   -0.12351E-04 10694   0.136E-02    0.755E-03
RMM:  27    -0.650098818028E+03   -0.39119E-05   -0.56461E-05  9255   0.107E-02
   1 F= -.65009882E+03 E0= -.65004315E+03  d E =-.650099E+03
 curvature:   0.00 expect dE= 0.000E+00 dE for cont linesearch  0.000E+00
 trial: gam= 0.00000 g(F)=  0.957E-04 g(S)=  0.641E-04 ort = 0.000E+00 (trialstep = 0.100E+01)
 search vector abs. value=  0.160E-03
 bond charge predicted
       N       E                     dE             d eps       ncg     rms          rms(c)
DAV:   1    -0.650098965586E+03   -0.15147E-03   -0.25997E-02  8960   0.548E-01    0.158E-01
RMM:   2    -0.650100892071E+03   -0.19265E-02   -0.48000E-03 10187   0.178E-01    0.429E-01
RMM:   3    -0.650098917528E+03    0.19745E-02   -0.13783E-03  9595   0.113E-01    0.672E-02
RMM:   4    -0.650098930744E+03   -0.13216E-04   -0.37521E-04 12641   0.403E-02    0.773E-02
RMM:   5    -0.650098872254E+03    0.58490E-04   -0.12422E-04 11250   0.244E-02    0.288E-02
RMM:   6    -0.650098861900E+03    0.10354E-04   -0.55429E-05 10968   0.141E-02    0.191E-02
RMM:   7    -0.650098859530E+03    0.23697E-05   -0.20703E-05  5989   0.994E-03
   2 F= -.65009886E+03 E0= -.65004311E+03  d E =-.415024E-04
 trial-energy change:   -0.000042  1 .order   -0.000022   -0.000160    0.000116
 step:   0.5794(harm=  0.5794)  dis= 0.00030  next Energy=  -650.098864 (dE=-0.463E-04)
 reached required accuracy - stopping structural energy minimisation
