HECN                                    
           1
     8.887895    0.003804    0.017572
     0.009528    9.008586   -0.006925
     0.049493   -0.022451    8.868690
   Zr   Mo   Hf   N    C    W    V 
     7     6     7    13    19     6     6
Direct configuration=     1
   0.99711859  0.99652708  0.99378978
   0.25542320  0.99899546  0.25273928
   0.24338337  0.50184096  0.25078005
   0.50441953  0.50054881  0.99883725
   0.51155145  0.24463833  0.74304458
   0.99289048  0.50101818  0.50171022
   0.49378026  0.75746060  0.75179826
   0.99018034  0.22715300  0.27111699
   0.76924258  0.74036622  0.99307535
   0.01341223  0.23611790  0.73119302
   0.75721537  0.27483779  0.49009056
   0.99580036  0.73010805  0.75911628
   0.26598424  0.49495202  0.74601231
   0.24599398  0.25186791  0.99623738
   0.51153984  0.25932732  0.25225239
   0.74882015  0.99165286  0.26934050
   0.76173637  0.26086359  0.99286409
   0.24558436  0.75136086  0.00160607
   0.25653404  0.25138605  0.50051935
   0.24065877  0.75140559  0.50359879
   0.25297601  0.24836892  0.24928921
   0.26106804  0.00283288  0.99255067
   0.00302288  0.25437443  0.00978993
   0.75442781  0.24799411  0.25003681
   0.75037030  0.00182261  0.00665954
   0.50677241  0.99929200  0.23964021
   0.98816629  0.48435124  0.24447470
   0.50248280  0.76231521  0.00957520
   0.97982210  0.99226071  0.73396383
   0.76040747  0.22754100  0.74530539
   0.74211787  0.99039306  0.51218740
   0.50577359  0.22589851  0.49320484
   0.48568557  0.00107853  0.73711166
   0.99801402  0.99307987  0.26099064
   0.50654467  0.24910887  0.99979294
   0.25105410  0.75103254  0.25140990
   0.24339262  0.50201365  0.99594520
   0.00012526  0.74596418  0.01333051
   0.75503386  0.74157023  0.25332459
   0.75857895  0.50707292  0.00032158
   0.50774188  0.50517343  0.25967010
   0.25327965  0.25453500  0.74778459
   0.24973617  0.00045151  0.50831355
   0.99476236  0.23888021  0.50410371
   0.23771309  0.75933925  0.75277125
   0.25744741  0.50125172  0.50279285
   0.98809110  0.75822023  0.50119900
   0.99035738  0.48718366  0.75873482
   0.74790821  0.74654261  0.74299109
   0.73839854  0.50657791  0.50107237
   0.50186831  0.74707563  0.49815592
   0.50487213  0.50278343  0.73792807
   0.51875138  0.01410667  0.98198409
   0.99728110  0.51564799  0.98717067
   0.50772344  0.74197819  0.25898612
   0.22088155  0.01755039  0.74521779
   0.49042207  0.97971567  0.48839695
   0.73787853  0.97841792  0.76109809
   0.99590187  0.77712519  0.26249837
   0.74163305  0.51526730  0.26369837
   0.01886255  0.00055036  0.50533090
   0.50042189  0.53188973  0.49893191
   0.73210167  0.53092056  0.73830056
   0.75885894  0.73802117  0.49424174
HECN                                    
           1
     8.889067    0.004021    0.018241
     0.009749    9.009540   -0.007208
     0.050166   -0.022731    8.869340
   Zr   Mo   Hf   N    C    W    V 
     7     6     7    13    19     6     6
Direct configuration=     2
   0.99712573  0.99653666  0.99380527
   0.25541288  0.99900968  0.25271033
   0.24338828  0.50183313  0.25077515
   0.50441414  0.50055336  0.99884170
   0.51153241  0.24466153  0.74304858
   0.99289338  0.50101174  0.50170363
   0.49377675  0.75744162  0.75180241
   0.99020079  0.22716843  0.27107885
   0.76921275  0.74038682  0.99310315
   0.01340478  0.23610286  0.73125238
   0.75718730  0.27482709  0.49012381
   0.99580859  0.73012226  0.75908425
   0.26597594  0.49499078  0.74601218
   0.24600331  0.25186916  0.99624270
   0.51153009  0.25932677  0.25224881
   0.74882626  0.99163993  0.26932138
   0.76172229  0.26085758  0.99287188
   0.24558788  0.75135935  0.00161023
   0.25653774  0.25139990  0.50050872
   0.24066364  0.75140571  0.50359610
   0.25298191  0.24838247  0.24927658
   0.26108423  0.00282407  0.99253832
   0.00301785  0.25439279  0.00978258
   0.75443312  0.24798784  0.25003624
   0.75037181  0.00180629  0.00666180
   0.50677088  0.99929903  0.23965336
   0.98813815  0.48435020  0.24445269
   0.50249507  0.76232966  0.00958847
   0.97978883  0.99227180  0.73395315
   0.76042442  0.22754575  0.74528734
   0.74213135  0.99040255  0.51220331
   0.50579412  0.22589979  0.49320803
   0.48564211  0.00108291  0.73712090
   0.99801703  0.99307790  0.26099869
   0.50653843  0.24911522  0.99980357
   0.25105001  0.75103502  0.25140998
   0.24339059  0.50201258  0.99593781
   0.00014056  0.74596935  0.01334555
   0.75503858  0.74157297  0.25332170
   0.75857405  0.50706915  0.00033246
   0.50773962  0.50516746  0.25967520
   0.25328914  0.25455196  0.74778193
   0.24972911  0.00045384  0.50829769
   0.99477158  0.23888048  0.50410466
   0.23771384  0.75933282  0.75277154
   0.25745113  0.50126041  0.50278973
   0.98809299  0.75823368  0.50120179
   0.99035065  0.48716202  0.75871345
   0.74791172  0.74653829  0.74297368
   0.73839152  0.50660108  0.50106590
   0.50188903  0.74706012  0.49816913
   0.50489722  0.50277742  0.73792077
   0.51871666  0.01409116  0.98201908
   0.99730319  0.51560759  0.98720349
   0.50769475  0.74199174  0.25895255
   0.22092016  0.01752194  0.74524034
   0.49042388  0.97972834  0.48844324
   0.73785521  0.97843859  0.76105958
   0.99592156  0.77708684  0.26247837
   0.74163806  0.51526781  0.26365861
   0.01884993  0.00055693  0.50531593
   0.50043224  0.53184280  0.49892359
   0.73212571  0.53087442  0.73832190
   0.75886343  0.73804033  0.49426399
