  64  64   0   0
  0.1083880E+02  0.8848929E-09  0.8850858E-09  0.8857241E-09  0.5000000E-15
  1.000000000000000E-004
  CAR 
 HECN                                    
     15.05094287    -59.50975406  301      8.87868673      1.00000000
    -59.510  0.0000E+00  0.0000E+00
    -59.261  0.0000E+00  0.0000E+00
    -59.013  0.0000E+00  0.0000E+00
    -58.764  0.0000E+00  0.0000E+00
    -58.516  0.0000E+00  0.0000E+00
    -58.267  0.0000E+00  0.0000E+00
    -58.019  0.0000E+00  0.0000E+00
    -57.770  0.0000E+00  0.0000E+00
    -57.521  0.0000E+00  0.0000E+00
    -57.273  0.0000E+00  0.0000E+00
    -57.024  0.0000E+00  0.0000E+00
    -56.776  0.0000E+00  0.0000E+00
    -56.527  0.3551E-09  0.8826E-10
    -56.279  0.1025E-02  0.2548E-03
    -56.030  0.1682E+00  0.4206E-01
    -55.782  0.3885E+00  0.1386E+00
    -55.533  0.5562E-02  0.1400E+00
    -55.285  0.8895E-08  0.1400E+00
    -55.036  0.0000E+00  0.1400E+00
    -54.788  0.0000E+00  0.1400E+00
    -54.539  0.0000E+00  0.1400E+00
    -54.291  0.0000E+00  0.1400E+00
    -54.042  0.0000E+00  0.1400E+00
    -53.793  0.0000E+00  0.1400E+00
    -53.545  0.0000E+00  0.1400E+00
    -53.296  0.0000E+00  0.1400E+00
    -53.048  0.0000E+00  0.1400E+00
    -52.799  0.0000E+00  0.1400E+00
    -52.551  0.0000E+00  0.1400E+00
    -52.302  0.0000E+00  0.1400E+00
    -52.054  0.0000E+00  0.1400E+00
    -51.805  0.0000E+00  0.1400E+00
    -51.557  0.0000E+00  0.1400E+00
    -51.308  0.0000E+00  0.1400E+00
    -51.060  0.0000E+00  0.1400E+00
    -50.811  0.0000E+00  0.1400E+00
    -50.562  0.0000E+00  0.1400E+00
    -50.314  0.0000E+00  0.1400E+00
    -50.065  0.0000E+00  0.1400E+00
    -49.817  0.0000E+00  0.1400E+00
    -49.568  0.0000E+00  0.1400E+00
    -49.320  0.0000E+00  0.1400E+00
    -49.071  0.0000E+00  0.1400E+00
    -48.823  0.0000E+00  0.1400E+00
    -48.574  0.0000E+00  0.1400E+00
    -48.326  0.0000E+00  0.1400E+00
    -48.077  0.0000E+00  0.1400E+00
    -47.829  0.0000E+00  0.1400E+00
    -47.580  0.8429E-11  0.1400E+00
    -47.332  0.1841E-03  0.1400E+00
    -47.083  0.8961E-01  0.1623E+00
    -46.834  0.2653E+00  0.2283E+00
    -46.586  0.1200E+00  0.2581E+00
    -46.337  0.7721E-02  0.2600E+00
    -46.089  0.5744E-07  0.2600E+00
    -45.840  0.0000E+00  0.2600E+00
    -45.592  0.0000E+00  0.2600E+00
    -45.343  0.0000E+00  0.2600E+00
    -45.095  0.0000E+00  0.2600E+00
    -44.846  0.0000E+00  0.2600E+00
    -44.598  0.0000E+00  0.2600E+00
    -44.349  0.0000E+00  0.2600E+00
    -44.101  0.0000E+00  0.2600E+00
    -43.852  0.0000E+00  0.2600E+00
    -43.603  0.0000E+00  0.2600E+00
    -43.355  0.0000E+00  0.2600E+00
    -43.106  0.0000E+00  0.2600E+00
    -42.858  0.0000E+00  0.2600E+00
    -42.609  0.0000E+00  0.2600E+00
    -42.361  0.0000E+00  0.2600E+00
    -42.112  0.0000E+00  0.2600E+00
    -41.864  0.0000E+00  0.2600E+00
    -41.615  0.0000E+00  0.2600E+00
    -41.367  0.0000E+00  0.2600E+00
    -41.118  0.0000E+00  0.2600E+00
    -40.870  0.1352E-09  0.2600E+00
    -40.621  0.6631E-03  0.2602E+00
    -40.373  0.6920E-01  0.2774E+00
    -40.124  0.5668E-01  0.2914E+00
    -39.875  0.2030E+00  0.3419E+00
    -39.627  0.2161E+00  0.3956E+00
    -39.378  0.1765E-01  0.4000E+00
    -39.130  0.3664E-06  0.4000E+00
    -38.881  0.0000E+00  0.4000E+00
    -38.633  0.0000E+00  0.4000E+00
    -38.384  0.0000E+00  0.4000E+00
    -38.136  0.0000E+00  0.4000E+00
    -37.887  0.0000E+00  0.4000E+00
    -37.639  0.0000E+00  0.4000E+00
    -37.390  0.0000E+00  0.4000E+00
    -37.142  0.0000E+00  0.4000E+00
    -36.893  0.0000E+00  0.4000E+00
    -36.644  0.0000E+00  0.4000E+00
    -36.396  0.0000E+00  0.4000E+00
    -36.147  0.0000E+00  0.4000E+00
    -35.899  0.0000E+00  0.4000E+00
    -35.650  0.0000E+00  0.4000E+00
    -35.402  0.0000E+00  0.4000E+00
    -35.153  0.0000E+00  0.4000E+00
    -34.905  0.0000E+00  0.4000E+00
    -34.656  0.0000E+00  0.4000E+00
    -34.408  0.0000E+00  0.4000E+00
    -34.159  0.0000E+00  0.4000E+00
    -33.911  0.0000E+00  0.4000E+00
    -33.662  0.0000E+00  0.4000E+00
    -33.414  0.0000E+00  0.4000E+00
    -33.165  0.0000E+00  0.4000E+00
    -32.916  0.0000E+00  0.4000E+00
    -32.668  0.0000E+00  0.4000E+00
    -32.419  0.0000E+00  0.4000E+00
    -32.171  0.0000E+00  0.4000E+00
    -31.922  0.0000E+00  0.4000E+00
    -31.674  0.0000E+00  0.4000E+00
    -31.425  0.0000E+00  0.4000E+00
    -31.177  0.2848E-09  0.4000E+00
    -30.928  0.1113E-02  0.4003E+00
    -30.680  0.1655E+00  0.4414E+00
    -30.431  0.6025E+00  0.5911E+00
    -30.183  0.6389E+00  0.7499E+00
    -29.934  0.8288E+00  0.9559E+00
    -29.685  0.8909E+00  0.1177E+01
    -29.437  0.1070E-01  0.1180E+01
    -29.188  0.1222E-07  0.1180E+01
    -28.940  0.0000E+00  0.1180E+01
    -28.691  0.0000E+00  0.1180E+01
    -28.443  0.0000E+00  0.1180E+01
    -28.194  0.0000E+00  0.1180E+01
    -27.946  0.0000E+00  0.1180E+01
    -27.697  0.0000E+00  0.1180E+01
    -27.449  0.0000E+00  0.1180E+01
    -27.200  0.0000E+00  0.1180E+01
    -26.952  0.0000E+00  0.1180E+01
    -26.703  0.0000E+00  0.1180E+01
    -26.455  0.0000E+00  0.1180E+01
    -26.206  0.0000E+00  0.1180E+01
    -25.957  0.0000E+00  0.1180E+01
    -25.709  0.0000E+00  0.1180E+01
    -25.460  0.0000E+00  0.1180E+01
    -25.212  0.0000E+00  0.1180E+01
    -24.963  0.0000E+00  0.1180E+01
    -24.715  0.0000E+00  0.1180E+01
    -24.466  0.0000E+00  0.1180E+01
    -24.218  0.0000E+00  0.1180E+01
    -23.969  0.7792E-13  0.1180E+01
    -23.721  0.1709E-04  0.1180E+01
    -23.472  0.4186E-01  0.1190E+01
    -23.224  0.3675E+00  0.1282E+01
    -22.975  0.6798E+00  0.1451E+01
    -22.726  0.3243E+00  0.1531E+01
    -22.478  0.3506E-01  0.1540E+01
    -22.229  0.1911E-05  0.1540E+01
    -21.981  0.1192E-14  0.1540E+01
    -21.732  0.0000E+00  0.1540E+01
    -21.484  0.0000E+00  0.1540E+01
    -21.235  0.0000E+00  0.1540E+01
    -20.987  0.0000E+00  0.1540E+01
    -20.738  0.0000E+00  0.1540E+01
    -20.490  0.0000E+00  0.1540E+01
    -20.241  0.0000E+00  0.1540E+01
    -19.993  0.0000E+00  0.1540E+01
    -19.744  0.0000E+00  0.1540E+01
    -19.496  0.0000E+00  0.1540E+01
    -19.247  0.3649E-08  0.1540E+01
    -18.998  0.2788E-02  0.1541E+01
    -18.750  0.1623E+00  0.1581E+01
    -18.501  0.1623E+00  0.1621E+01
    -18.253  0.7016E+00  0.1796E+01
    -18.004  0.4501E+00  0.1908E+01
    -17.756  0.1957E+00  0.1956E+01
    -17.507  0.1508E-01  0.1960E+01
    -17.259  0.4125E-06  0.1960E+01
    -17.010  0.0000E+00  0.1960E+01
    -16.762  0.0000E+00  0.1960E+01
    -16.513  0.0000E+00  0.1960E+01
    -16.265  0.0000E+00  0.1960E+01
    -16.016  0.0000E+00  0.1960E+01
    -15.767  0.0000E+00  0.1960E+01
    -15.519  0.0000E+00  0.1960E+01
    -15.270  0.0000E+00  0.1960E+01
    -15.022  0.0000E+00  0.1960E+01
    -14.773  0.0000E+00  0.1960E+01
    -14.525  0.0000E+00  0.1960E+01
    -14.276  0.0000E+00  0.1960E+01
    -14.028  0.0000E+00  0.1960E+01
    -13.779  0.0000E+00  0.1960E+01
    -13.531  0.0000E+00  0.1960E+01
    -13.282  0.0000E+00  0.1960E+01
    -13.034  0.0000E+00  0.1960E+01
    -12.785  0.0000E+00  0.1960E+01
    -12.537  0.0000E+00  0.1960E+01
    -12.288  0.0000E+00  0.1960E+01
    -12.039  0.0000E+00  0.1960E+01
    -11.791  0.0000E+00  0.1960E+01
    -11.542  0.0000E+00  0.1960E+01
    -11.294  0.0000E+00  0.1960E+01
    -11.045  0.0000E+00  0.1960E+01
    -10.797  0.0000E+00  0.1960E+01
    -10.548  0.0000E+00  0.1960E+01
    -10.300  0.0000E+00  0.1960E+01
    -10.051  0.0000E+00  0.1960E+01
     -9.803  0.0000E+00  0.1960E+01
     -9.554  0.0000E+00  0.1960E+01
     -9.306  0.0000E+00  0.1960E+01
     -9.057  0.0000E+00  0.1960E+01
     -8.808  0.0000E+00  0.1960E+01
     -8.560  0.0000E+00  0.1960E+01
     -8.311  0.3309E-16  0.1960E+01
     -8.063  0.7266E-07  0.1960E+01
     -7.814  0.2119E-02  0.1961E+01
     -7.566  0.4792E-01  0.1972E+01
     -7.317  0.4197E-01  0.1983E+01
     -7.069  0.8417E-01  0.2004E+01
     -6.820  0.1236E+00  0.2034E+01
     -6.572  0.1743E+00  0.2078E+01
     -6.323  0.1464E+00  0.2114E+01
     -6.075  0.1638E+00  0.2155E+01
     -5.826  0.1269E+00  0.2186E+01
     -5.578  0.5824E-01  0.2201E+01
     -5.329  0.7359E-01  0.2219E+01
     -5.080  0.3080E-02  0.2220E+01
     -4.832  0.8136E-08  0.2220E+01
     -4.583  0.0000E+00  0.2220E+01
     -4.335  0.2588E-09  0.2220E+01
     -4.086  0.2426E-03  0.2220E+01
     -3.838  0.2969E-01  0.2227E+01
     -3.589  0.5792E-01  0.2242E+01
     -3.341  0.8053E-01  0.2262E+01
     -3.092  0.1261E+00  0.2293E+01
     -2.844  0.2175E+00  0.2347E+01
     -2.595  0.2811E+00  0.2417E+01
     -2.347  0.2456E+00  0.2478E+01
     -2.098  0.2052E+00  0.2529E+01
     -1.849  0.1474E+00  0.2566E+01
     -1.601  0.8781E-01  0.2588E+01
     -1.352  0.4208E-01  0.2598E+01
     -1.104  0.7635E-02  0.2600E+01
     -0.855  0.4397E-04  0.2600E+01
     -0.607  0.1081E-10  0.2600E+01
     -0.358  0.0000E+00  0.2600E+01
     -0.110  0.0000E+00  0.2600E+01
      0.139  0.4845E-10  0.2600E+01
      0.387  0.6689E-04  0.2600E+01
      0.636  0.6009E-02  0.2602E+01
      0.884  0.4396E-01  0.2612E+01
      1.133  0.8281E-01  0.2633E+01
      1.381  0.1076E+00  0.2660E+01
      1.630  0.1356E+00  0.2693E+01
      1.879  0.1882E+00  0.2740E+01
      2.127  0.2588E+00  0.2805E+01
      2.376  0.2710E+00  0.2872E+01
      2.624  0.2985E+00  0.2946E+01
      2.873  0.3492E+00  0.3033E+01
      3.121  0.3444E+00  0.3118E+01
      3.370  0.4399E+00  0.3228E+01
      3.618  0.5196E+00  0.3357E+01
      3.867  0.5895E+00  0.3503E+01
      4.115  0.6443E+00  0.3664E+01
      4.364  0.6116E+00  0.3816E+01
      4.612  0.5602E+00  0.3955E+01
      4.861  0.5104E+00  0.4082E+01
      5.110  0.4518E+00  0.4194E+01
      5.358  0.3560E+00  0.4282E+01
      5.607  0.2941E+00  0.4356E+01
      5.855  0.2704E+00  0.4423E+01
      6.104  0.1888E+00  0.4470E+01
      6.352  0.1401E+00  0.4504E+01
      6.601  0.9926E-01  0.4529E+01
      6.849  0.1384E+00  0.4564E+01
      7.098  0.1656E+00  0.4605E+01
      7.346  0.1944E+00  0.4653E+01
      7.595  0.2265E+00  0.4709E+01
      7.843  0.2037E+00  0.4760E+01
      8.092  0.2249E+00  0.4816E+01
      8.340  0.2923E+00  0.4888E+01
      8.589  0.2504E+00  0.4951E+01
      8.838  0.2405E+00  0.5010E+01
      9.086  0.2528E+00  0.5073E+01
      9.335  0.3509E+00  0.5161E+01
      9.583  0.4377E+00  0.5269E+01
      9.832  0.4666E+00  0.5385E+01
     10.080  0.5028E+00  0.5510E+01
     10.329  0.5028E+00  0.5635E+01
     10.577  0.5445E+00  0.5771E+01
     10.826  0.5036E+00  0.5896E+01
     11.074  0.4876E+00  0.6017E+01
     11.323  0.4800E+00  0.6136E+01
     11.571  0.3469E+00  0.6222E+01
     11.820  0.7039E-01  0.6240E+01
     12.069  0.3106E-03  0.6240E+01
     12.317  0.7633E-10  0.6240E+01
     12.566  0.0000E+00  0.6240E+01
     12.814  0.0000E+00  0.6240E+01
     13.063  0.0000E+00  0.6240E+01
     13.311  0.0000E+00  0.6240E+01
     13.560  0.0000E+00  0.6240E+01
     13.808  0.0000E+00  0.6240E+01
     14.057  0.0000E+00  0.6240E+01
     14.305  0.0000E+00  0.6240E+01
     14.554  0.0000E+00  0.6240E+01
     14.802  0.0000E+00  0.6240E+01
     15.051  0.0000E+00  0.6240E+01
