 running on   24 total cores
 distrk:  each k-point on   24 cores,    1 groups
 distr:  one band on    1 cores,   24 groups
 using from now: INCAR     
 vasp.5.4.4.18Apr17-6-g9f103f2a35 (build Oct 18 2021 20:38:43) complex          
  
 POSCAR found type information on POSCAR  Zr Nb V  N  C  W  Mo
 POSCAR found :  7 types and      64 ions
 scaLAPACK will be used

 ----------------------------------------------------------------------------- 
|                                                                             |
|           W    W    AA    RRRRR   N    N  II  N    N   GGGG   !!!           |
|           W    W   A  A   R    R  NN   N  II  NN   N  G    G  !!!           |
|           W    W  A    A  R    R  N N  N  II  N N  N  G       !!!           |
|           W WW W  AAAAAA  RRRRR   N  N N  II  N  N N  G  GGG   !            |
|           WW  WW  A    A  R   R   N   NN  II  N   NN  G    G                |
|           W    W  A    A  R    R  N    N  II  N    N   GGGG   !!!           |
|                                                                             |
|      For optimal performance we recommend to set                            |
|        NCORE= 4 - approx SQRT( number of cores)                             |
|      NCORE specifies how many cores store one orbital (NPAR=cpu/NCORE).     |
|      This setting can  greatly improve the performance of VASP for DFT.     |
|      The default,   NCORE=1            might be grossly inefficient         |
|      on modern multi-core architectures or massively parallel machines.     |
|      Do your own testing !!!!                                               |
|      Unfortunately you need to use the default for GW and RPA calculations. |
|      (for HF NCORE is supported but not extensively tested yet)             |
|                                                                             |
 ----------------------------------------------------------------------------- 


 ----------------------------------------------------------------------------- 
|                                                                             |
|  ADVICE TO THIS USER RUNNING 'VASP/VAMP'   (HEAR YOUR MASTER'S VOICE ...):  |
|                                                                             |
|      You have a (more or less) 'large supercell' and for larger cells       |
|      it might be more efficient to use real space projection operators      |
|      So try LREAL= Auto  in the INCAR   file.                               |
|      Mind: If you want to do a very accurate calculations keep the          |
|      reciprocal projection scheme          (i.e. LREAL=.FALSE.)             |
|                                                                             |
 ----------------------------------------------------------------------------- 

 LDA part: xc-table for Pade appr. of Perdew
 POSCAR, INCAR and KPOINTS ok, starting setup
 FFT: planning ...
 WAVECAR not read
 entering main loop
       N       E                     dE             d eps       ncg     rms          rms(c)
DAV:   1     0.538800518847E+04    0.53880E+04   -0.22453E+05  8736   0.143E+03
DAV:   2     0.204570131008E+02   -0.53675E+04   -0.51182E+04  9312   0.576E+02
DAV:   3    -0.714223579834E+03   -0.73468E+03   -0.71087E+03 13992   0.175E+02
DAV:   4    -0.772074223998E+03   -0.57851E+02   -0.56863E+02 14544   0.532E+01
DAV:   5    -0.778238091710E+03   -0.61639E+01   -0.61219E+01 16608   0.152E+01    0.666E+01
RMM:   6    -0.742223064070E+03    0.36015E+02   -0.15582E+03 12158   0.641E+01    0.749E+01
RMM:   7    -0.667706190828E+03    0.74517E+02   -0.20685E+02 10590   0.416E+01    0.352E+01
RMM:   8    -0.645474868195E+03    0.22231E+02   -0.34450E+01 13459   0.106E+01    0.138E+01
RMM:   9    -0.643230062719E+03    0.22448E+01   -0.75722E+00 12414   0.705E+00    0.878E+00
RMM:  10    -0.643276191958E+03   -0.46129E-01   -0.46070E+00 13470   0.369E+00    0.937E+00
RMM:  11    -0.642733124060E+03    0.54307E+00   -0.27099E+00 13583   0.317E+00    0.550E+00
RMM:  12    -0.643049624297E+03   -0.31650E+00   -0.17128E+00 13654   0.226E+00    0.792E+00
RMM:  13    -0.642633863221E+03    0.41576E+00   -0.70149E-01 13720   0.158E+00    0.220E+00
RMM:  14    -0.642654224531E+03   -0.20361E-01   -0.36171E-01 13884   0.929E-01    0.249E+00
RMM:  15    -0.642617351886E+03    0.36873E-01   -0.21091E-01 13739   0.678E-01    0.105E+00
RMM:  16    -0.642625050223E+03   -0.76983E-02   -0.12578E-01 13439   0.476E-01    0.962E-01
RMM:  17    -0.642628183256E+03   -0.31330E-02   -0.59754E-02 13739   0.412E-01    0.921E-01
RMM:  18    -0.642624237276E+03    0.39460E-02   -0.32599E-02 13259   0.281E-01    0.432E-01
RMM:  19    -0.642624337167E+03   -0.99891E-04   -0.19539E-02 13505   0.206E-01    0.424E-01
RMM:  20    -0.642623765025E+03    0.57214E-03   -0.11081E-02 14028   0.126E-01    0.171E-01
RMM:  21    -0.642623778667E+03   -0.13642E-04   -0.46296E-03 13523   0.986E-02    0.693E-02
RMM:  22    -0.642624011458E+03   -0.23279E-03   -0.28007E-03 13259   0.631E-02    0.107E-01
RMM:  23    -0.642624050857E+03   -0.39399E-04   -0.16397E-03 12674   0.464E-02    0.419E-02
RMM:  24    -0.642624108730E+03   -0.57874E-04   -0.97783E-04 11483   0.308E-02    0.154E-02
WARNING in EDDRMM: call to ZHEGV failed, returncode =   6  3      9
RMM:  25    -0.642624152473E+03   -0.43743E-04   -0.56741E-04  9880   0.241E-02    0.116E-02
RMM:  26    -0.642624183230E+03   -0.30757E-04   -0.34783E-04  8706   0.202E-02    0.582E-03
RMM:  27    -0.642624200896E+03   -0.17666E-04   -0.19160E-04  7317   0.181E-02    0.320E-03
RMM:  28    -0.642624212793E+03   -0.11897E-04   -0.12738E-04  7048   0.150E-02    0.183E-03
RMM:  29    -0.642624219565E+03   -0.67717E-05   -0.75396E-05  6432   0.140E-02
   1 F= -.64262422E+03 E0= -.64255976E+03  d E =-.642624E+03
 curvature:   0.00 expect dE= 0.000E+00 dE for cont linesearch  0.000E+00
 trial: gam= 0.00000 g(F)=  0.277E-01 g(S)=  0.754E-01 ort = 0.000E+00 (trialstep = 0.100E+01)
 search vector abs. value=  0.103E+00
 bond charge predicted
       N       E                     dE             d eps       ncg     rms          rms(c)
DAV:   1    -0.643137221398E+03   -0.51301E+00   -0.20947E+01 10944   0.171E+01    0.657E+00
RMM:   2    -0.645945615141E+03   -0.28084E+01   -0.10084E+01 10820   0.829E+00    0.177E+01
RMM:   3    -0.642844022468E+03    0.31016E+01   -0.22223E+00 10643   0.464E+00    0.460E+00
RMM:   4    -0.642734793355E+03    0.10923E+00   -0.51271E-01 12336   0.173E+00    0.307E+00
RMM:   5    -0.642645255594E+03    0.89538E-01   -0.21240E-01 11546   0.101E+00    0.204E+00
RMM:   6    -0.642632621759E+03    0.12634E-01   -0.12050E-01 10751   0.846E-01    0.196E+00
RMM:   7    -0.642604315699E+03    0.28306E-01   -0.59347E-02 12652   0.578E-01    0.745E-01
RMM:   8    -0.642603499207E+03    0.81649E-03   -0.19485E-02 13034   0.336E-01    0.713E-01
RMM:   9    -0.642599457143E+03    0.40421E-02   -0.67787E-03 13579   0.175E-01    0.195E-01
RMM:  10    -0.642599919289E+03   -0.46215E-03   -0.29726E-03 14337   0.104E-01    0.224E-01
RMM:  11    -0.642599928637E+03   -0.93478E-05   -0.15605E-03 13958   0.653E-02    0.137E-01
RMM:  12    -0.642600379466E+03   -0.45083E-03   -0.12491E-03 13777   0.506E-02    0.112E-01
WARNING in EDDRMM: call to ZHEGV failed, returncode =   6  3      8
RMM:  13    -0.642600727537E+03   -0.34807E-03   -0.10057E-03 13377   0.482E-02    0.122E-01
RMM:  14    -0.642600909362E+03   -0.18182E-03   -0.10093E-03 12986   0.472E-02    0.417E-02
RMM:  15    -0.642600974609E+03   -0.65247E-04   -0.57967E-04 12108   0.362E-02    0.288E-02
RMM:  16    -0.642600999521E+03   -0.24912E-04   -0.31396E-04 11416   0.290E-02    0.329E-02
RMM:  17    -0.642601006656E+03   -0.71353E-05   -0.16589E-04 10643   0.223E-02    0.176E-02
RMM:  18    -0.642601013711E+03   -0.70544E-05   -0.91911E-05  9792   0.179E-02
   2 F= -.64260101E+03 E0= -.64253825E+03  d E =0.232059E-01
 trial-energy change:    0.023206  1 .order    0.023429   -0.103048    0.149905
 step:   0.4087(harm=  0.4074)  dis= 0.00370  next Energy=  -642.645290 (dE=-0.211E-01)
 bond charge predicted
       N       E                     dE             d eps       ncg     rms          rms(c)
DAV:   1    -0.642844689442E+03   -0.24368E+00   -0.73926E+00 10440   0.101E+01    0.420E+00
RMM:   2    -0.644028306808E+03   -0.11836E+01   -0.31979E+00 11182   0.454E+00    0.103E+01
RMM:   3    -0.642703745191E+03    0.13246E+01   -0.86343E-01 10626   0.272E+00    0.212E+00
RMM:   4    -0.642703977625E+03   -0.23243E-03   -0.18184E-01 12029   0.111E+00    0.233E+00
RMM:   5    -0.642657395022E+03    0.46583E-01   -0.74816E-02 11755   0.542E-01    0.990E-01
RMM:   6    -0.642658270045E+03   -0.87502E-03   -0.41745E-02 10928   0.469E-01    0.124E+00
RMM:   7    -0.642646557242E+03    0.11713E-01   -0.19481E-02 12524   0.323E-01    0.365E-01
RMM:   8    -0.642646338877E+03    0.21837E-03   -0.62928E-03 13442   0.183E-01    0.411E-01
RMM:   9    -0.642645078710E+03    0.12602E-02   -0.23580E-03 13852   0.101E-01    0.126E-01
RMM:  10    -0.642645142614E+03   -0.63904E-04   -0.10523E-03 13493   0.613E-02    0.120E-01
RMM:  11    -0.642645128945E+03    0.13669E-04   -0.51233E-04 12746   0.386E-02    0.797E-02
WARNING in EDDRMM: call to ZHEGV failed, returncode =   6  3      8
RMM:  12    -0.642645215979E+03   -0.87034E-04   -0.39749E-04 12245   0.313E-02    0.649E-02
WARNING in EDDRMM: call to ZHEGV failed, returncode =   8  4      8
RMM:  13    -0.642645312577E+03   -0.96598E-04   -0.35638E-04 12093   0.316E-02    0.701E-02
RMM:  14    -0.642645328047E+03   -0.15470E-04   -0.31688E-04 11829   0.296E-02    0.387E-02
RMM:  15    -0.642645327768E+03    0.27919E-06   -0.21408E-04 10959   0.257E-02    0.134E-02
RMM:  16    -0.642645335658E+03   -0.78896E-05   -0.11667E-04 10204   0.206E-02    0.207E-02
RMM:  17    -0.642645337613E+03   -0.19548E-05   -0.67842E-05  9229   0.175E-02
   3 F= -.64264534E+03 E0= -.64258157E+03  d E =-.211180E-01
 curvature:  -0.20 expect dE=-0.513E-02 dE for cont linesearch -0.968E-06
 trial: gam= 0.23770 g(F)=  0.196E-01 g(S)=  0.562E-02 ort = 0.700E-03 (trialstep = 0.882E+00)
 search vector abs. value=  0.313E-01
 bond charge predicted
       N       E                     dE             d eps       ncg     rms          rms(c)
DAV:   1    -0.642596672233E+03    0.48663E-01   -0.47418E+00  9744   0.850E+00    0.513E-01
RMM:   2    -0.642668127392E+03   -0.71455E-01   -0.69867E-01 12577   0.225E+00    0.894E-01
RMM:   3    -0.642663609145E+03    0.45182E-02   -0.60815E-02 12389   0.798E-01    0.502E-01
RMM:   4    -0.642663728589E+03   -0.11944E-03   -0.13639E-02 13304   0.290E-01    0.419E-01
RMM:   5    -0.642662184049E+03    0.15445E-02   -0.27974E-03 12695   0.127E-01    0.139E-01
RMM:   6    -0.642662420622E+03   -0.23657E-03   -0.17053E-03 12978   0.835E-02    0.244E-01
RMM:   7    -0.642661967377E+03    0.45325E-03   -0.11151E-03 12913   0.650E-02    0.710E-02
RMM:   8    -0.642661960654E+03    0.67228E-05   -0.39479E-04 11886   0.401E-02    0.607E-02
RMM:   9    -0.642661957004E+03    0.36499E-05   -0.20527E-04 10827   0.260E-02    0.473E-02
RMM:  10    -0.642661940143E+03    0.16861E-04   -0.10349E-04  9918   0.198E-02    0.185E-02
RMM:  11    -0.642661945570E+03   -0.54274E-05   -0.53064E-05  6873   0.149E-02
   4 F= -.64266195E+03 E0= -.64259859E+03  d E =-.166080E-01
 trial-energy change:   -0.016608  1 .order   -0.016533   -0.022361   -0.010704
 step:   1.6369(harm=  1.6913)  dis= 0.01741  next Energy=  -642.666576 (dE=-0.212E-01)
 bond charge predicted
       N       E                     dE             d eps       ncg     rms          rms(c)
DAV:   1    -0.642619269574E+03    0.42671E-01   -0.34809E+00  9456   0.728E+00    0.440E-01
RMM:   2    -0.642671647608E+03   -0.52378E-01   -0.51226E-01 12590   0.193E+00    0.764E-01
RMM:   3    -0.642668342063E+03    0.33055E-02   -0.44685E-02 12421   0.682E-01    0.425E-01
RMM:   4    -0.642668484896E+03   -0.14283E-03   -0.10293E-02 13413   0.251E-01    0.358E-01
RMM:   5    -0.642667370798E+03    0.11141E-02   -0.21754E-03 12635   0.108E-01    0.119E-01
RMM:   6    -0.642667539352E+03   -0.16855E-03   -0.13122E-03 12898   0.728E-02    0.207E-01
RMM:   7    -0.642667225214E+03    0.31414E-03   -0.84458E-04 12804   0.564E-02    0.644E-02
RMM:   8    -0.642667217869E+03    0.73451E-05   -0.31918E-04 11581   0.353E-02    0.515E-02
RMM:   9    -0.642667217947E+03   -0.77409E-07   -0.16861E-04 10320   0.239E-02    0.421E-02
RMM:  10    -0.642667204332E+03    0.13615E-04   -0.84637E-05  9058   0.180E-02    0.150E-02
RMM:  11    -0.642667208922E+03   -0.45899E-05   -0.42992E-05  6423   0.149E-02
   5 F= -.64266721E+03 E0= -.64260419E+03  d E =-.218713E-01
 curvature:  -1.04 expect dE=-0.176E-01 dE for cont linesearch -0.539E-04
 trial: gam= 0.61855 g(F)=  0.154E-01 g(S)=  0.146E-02 ort = 0.127E-02 (trialstep = 0.103E+01)
 search vector abs. value=  0.304E-01
 bond charge predicted
       N       E                     dE             d eps       ncg     rms          rms(c)
DAV:   1    -0.642579892950E+03    0.87311E-01   -0.67061E+00  8736   0.108E+01    0.617E-01
RMM:   2    -0.642683337293E+03   -0.10344E+00   -0.10953E+00 12185   0.272E+00    0.613E-01
RMM:   3    -0.642685934259E+03   -0.25970E-02   -0.90940E-02 12152   0.944E-01    0.867E-01
RMM:   4    -0.642681241609E+03    0.46927E-02   -0.18990E-02 12674   0.327E-01    0.245E-01
RMM:   5    -0.642681378330E+03   -0.13672E-03   -0.37398E-03 12760   0.139E-01    0.269E-01
RMM:   6    -0.642680834973E+03    0.54336E-03   -0.21206E-03 12672   0.930E-02    0.131E-01
RMM:   7    -0.642680849371E+03   -0.14399E-04   -0.12668E-03 12840   0.716E-02    0.154E-01
RMM:   8    -0.642680685833E+03    0.16354E-03   -0.45499E-04 11670   0.445E-02    0.512E-02
RMM:   9    -0.642680683640E+03    0.21929E-05   -0.25106E-04 10354   0.288E-02    0.422E-02
RMM:  10    -0.642680676599E+03    0.70406E-05   -0.12785E-04  9582   0.207E-02    0.244E-02
RMM:  11    -0.642680678958E+03   -0.23590E-05   -0.68999E-05  7266   0.164E-02
   6 F= -.64268068E+03 E0= -.64261862E+03  d E =-.134700E-01
 trial-energy change:   -0.013470  1 .order   -0.013214   -0.018238   -0.008191
 step:   1.7052(harm=  1.8748)  dis= 0.01677  next Energy=  -642.683416 (dE=-0.162E-01)
 bond charge predicted
       N       E                     dE             d eps       ncg     rms          rms(c)
DAV:   1    -0.642640091912E+03    0.40585E-01   -0.28324E+00  9408   0.703E+00    0.407E-01
RMM:   2    -0.642685228777E+03   -0.45137E-01   -0.47658E-01 12208   0.178E+00    0.415E-01
RMM:   3    -0.642686250166E+03   -0.10214E-02   -0.39280E-02 12229   0.609E-01    0.560E-01
RMM:   4    -0.642684270337E+03    0.19798E-02   -0.79234E-03 12648   0.213E-01    0.153E-01
RMM:   5    -0.642684365102E+03   -0.94765E-04   -0.16824E-03 12204   0.897E-02    0.181E-01
RMM:   6    -0.642684133915E+03    0.23119E-03   -0.94028E-04 12484   0.615E-02    0.884E-02
RMM:   7    -0.642684124764E+03    0.91512E-05   -0.57150E-04 12383   0.474E-02    0.949E-02
RMM:   8    -0.642684066159E+03    0.58605E-04   -0.20277E-04 10439   0.301E-02    0.334E-02
RMM:   9    -0.642684064108E+03    0.20510E-05   -0.11071E-04  8574   0.206E-02    0.250E-02
RMM:  10    -0.642684063353E+03    0.75447E-06   -0.56820E-05  7348   0.160E-02
   7 F= -.64268406E+03 E0= -.64262265E+03  d E =-.168544E-01
 curvature:  -1.55 expect dE=-0.205E-01 dE for cont linesearch -0.129E-03
 trial: gam= 0.75971 g(F)=  0.110E-01 g(S)=  0.220E-02 ort = 0.159E-02 (trialstep = 0.107E+01)
 search vector abs. value=  0.332E-01
 bond charge predicted
       N       E                     dE             d eps       ncg     rms          rms(c)
DAV:   1    -0.642552531164E+03    0.13153E+00   -0.82067E+00  8736   0.122E+01    0.692E-01
RMM:   2    -0.642694809669E+03   -0.14228E+00   -0.15058E+00 12639   0.302E+00    0.667E-01
RMM:   3    -0.642702094498E+03   -0.72848E-02   -0.12092E-01 12481   0.100E+00    0.981E-01
RMM:   4    -0.642696023686E+03    0.60708E-02   -0.24519E-02 12660   0.370E-01    0.271E-01
RMM:   5    -0.642695972165E+03    0.51521E-04   -0.46296E-03 12629   0.149E-01    0.257E-01
RMM:   6    -0.642695810507E+03    0.16166E-03   -0.24637E-03 12681   0.106E-01    0.251E-01
RMM:   7    -0.642695363231E+03    0.44728E-03   -0.17099E-03 12869   0.808E-02    0.107E-01
RMM:   8    -0.642695295802E+03    0.67428E-04   -0.57123E-04 12298   0.533E-02    0.635E-02
RMM:   9    -0.642695304056E+03   -0.82535E-05   -0.30206E-04 11030   0.306E-02    0.651E-02
RMM:  10    -0.642695274346E+03    0.29710E-04   -0.15652E-04 10385   0.242E-02    0.232E-02
RMM:  11    -0.642695281119E+03   -0.67734E-05   -0.88863E-05  8587   0.170E-02
   8 F= -.64269528E+03 E0= -.64263471E+03  d E =-.112178E-01
 trial-energy change:   -0.011218  1 .order   -0.010942   -0.015424   -0.006459
 step:   1.6696(harm=  1.8422)  dis= 0.01894  next Energy=  -642.697136 (dE=-0.131E-01)
 bond charge predicted
       N       E                     dE             d eps       ncg     rms          rms(c)
DAV:   1    -0.642652987217E+03    0.42287E-01   -0.25662E+00  9216   0.678E+00    0.388E-01
RMM:   2    -0.642697634089E+03   -0.44647E-01   -0.47103E-01 12665   0.170E+00    0.397E-01
RMM:   3    -0.642699625247E+03   -0.19912E-02   -0.37522E-02 12483   0.558E-01    0.532E-01
RMM:   4    -0.642697870034E+03    0.17552E-02   -0.75715E-03 12498   0.209E-01    0.154E-01
RMM:   5    -0.642697842279E+03    0.27754E-04   -0.15537E-03 11925   0.838E-02    0.138E-01
RMM:   6    -0.642697816846E+03    0.25434E-04   -0.80577E-04 12104   0.604E-02    0.144E-01
RMM:   7    -0.642697676161E+03    0.14068E-03   -0.56880E-04 11996   0.468E-02    0.629E-02
RMM:   8    -0.642697655083E+03    0.21078E-04   -0.19810E-04 10615   0.319E-02    0.393E-02
RMM:   9    -0.642697655043E+03    0.39727E-07   -0.10742E-04  9285   0.209E-02    0.335E-02
RMM:  10    -0.642697646960E+03    0.80835E-05   -0.52852E-05  7299   0.164E-02
   9 F= -.64269765E+03 E0= -.64263751E+03  d E =-.135836E-01
 curvature:  -2.02 expect dE=-0.212E-01 dE for cont linesearch -0.122E-03
 trial: gam= 0.75574 g(F)=  0.814E-02 g(S)=  0.240E-02 ort = 0.142E-02 (trialstep = 0.119E+01)
 search vector abs. value=  0.316E-01
 bond charge predicted
       N       E                     dE             d eps       ncg     rms          rms(c)
DAV:   1    -0.642538773667E+03    0.15888E+00   -0.97207E+00  8736   0.131E+01    0.776E-01
RMM:   2    -0.642705469456E+03   -0.16670E+00   -0.17755E+00 12650   0.334E+00    0.654E-01
RMM:   3    -0.642713608885E+03   -0.81394E-02   -0.13837E-01 12455   0.111E+00    0.102E+00
RMM:   4    -0.642707011313E+03    0.65976E-02   -0.31086E-02 12844   0.421E-01    0.300E-01
RMM:   5    -0.642706729234E+03    0.28208E-03   -0.56200E-03 12860   0.170E-01    0.243E-01
RMM:   6    -0.642706373812E+03    0.35542E-03   -0.33124E-03 12637   0.119E-01    0.216E-01
RMM:   7    -0.642706161194E+03    0.21262E-03   -0.17085E-03 12800   0.828E-02    0.153E-01
RMM:   8    -0.642705983669E+03    0.17752E-03   -0.64482E-04 12299   0.539E-02    0.511E-02
RMM:   9    -0.642706005441E+03   -0.21772E-04   -0.34886E-04 11199   0.323E-02    0.691E-02
RMM:  10    -0.642705979509E+03    0.25932E-04   -0.17366E-04 10477   0.238E-02    0.301E-02
RMM:  11    -0.642705981050E+03   -0.15419E-05   -0.98345E-05  8699   0.169E-02
  10 F= -.64270598E+03 E0= -.64264639E+03  d E =-.833409E-02
 trial-energy change:   -0.008334  1 .order   -0.008028   -0.013821   -0.002234
 step:   1.3843(harm=  1.4201)  dis= 0.01503  next Energy=  -642.706164 (dE=-0.852E-02)
 bond charge predicted
       N       E                     dE             d eps       ncg     rms          rms(c)
DAV:   1    -0.642701751403E+03    0.42281E-02   -0.25711E-01  9408   0.213E+00    0.128E-01
RMM:   2    -0.642706251885E+03   -0.45005E-02   -0.47607E-02 12681   0.547E-01    0.126E-01
RMM:   3    -0.642706429456E+03   -0.17757E-03   -0.37845E-03 12334   0.179E-01    0.160E-01
RMM:   4    -0.642706284981E+03    0.14448E-03   -0.87231E-04 11065   0.709E-02    0.591E-02
RMM:   5    -0.642706270040E+03    0.14941E-04   -0.18902E-04 10238   0.308E-02    0.397E-02
RMM:   6    -0.642706271345E+03   -0.13055E-05   -0.96451E-05  9224   0.214E-02
  11 F= -.64270627E+03 E0= -.64264674E+03  d E =-.862439E-02
 curvature:  -1.89 expect dE=-0.903E-02 dE for cont linesearch -0.171E-04
 trial: gam= 0.44068 g(F)=  0.420E-02 g(S)=  0.588E-03 ort = 0.536E-03 (trialstep = 0.123E+01)
 search vector abs. value=  0.114E-01
 bond charge predicted
       N       E                     dE             d eps       ncg     rms          rms(c)
DAV:   1    -0.642656150366E+03    0.50120E-01   -0.35816E+00  8736   0.782E+00    0.419E-01
RMM:   2    -0.642709215425E+03   -0.53065E-01   -0.56694E-01 12465   0.198E+00    0.261E-01
RMM:   3    -0.642712419566E+03   -0.32041E-02   -0.49371E-02 12512   0.687E-01    0.546E-01
RMM:   4    -0.642710609758E+03    0.18098E-02   -0.95751E-03 12837   0.238E-01    0.159E-01
RMM:   5    -0.642710633557E+03   -0.23799E-04   -0.20009E-03 12110   0.996E-02    0.151E-01
RMM:   6    -0.642710517458E+03    0.11610E-03   -0.10354E-03 12515   0.695E-02    0.124E-01
RMM:   7    -0.642710460311E+03    0.57146E-04   -0.67616E-04 12466   0.510E-02    0.909E-02
RMM:   8    -0.642710404978E+03    0.55334E-04   -0.22864E-04 10720   0.343E-02    0.419E-02
RMM:   9    -0.642710408879E+03   -0.39015E-05   -0.12942E-04  9326   0.228E-02    0.415E-02
RMM:  10    -0.642710395482E+03    0.13397E-04   -0.70796E-05  8403   0.176E-02    0.143E-02
RMM:  11    -0.642710399961E+03   -0.44793E-05   -0.42690E-05  6609   0.150E-02
  12 F= -.64271040E+03 E0= -.64265118E+03  d E =-.412862E-02
 trial-energy change:   -0.004129  1 .order   -0.003919   -0.006172   -0.001665
 step:   1.5644(harm=  1.6835)  dis= 0.00898  next Energy=  -642.710631 (dE=-0.436E-02)
 bond charge predicted
       N       E                     dE             d eps       ncg     rms          rms(c)
DAV:   1    -0.642706673195E+03    0.37223E-02   -0.26670E-01  9408   0.213E+00    0.115E-01
RMM:   2    -0.642710659016E+03   -0.39858E-02   -0.42428E-02 12485   0.541E-01    0.798E-02
RMM:   3    -0.642710909086E+03   -0.25007E-03   -0.37167E-03 12464   0.187E-01    0.158E-01
RMM:   4    -0.642710760715E+03    0.14837E-03   -0.75942E-04 10822   0.678E-02    0.448E-02
RMM:   5    -0.642710763803E+03   -0.30881E-05   -0.17692E-04  9947   0.310E-02    0.406E-02
RMM:   6    -0.642710756832E+03    0.69707E-05   -0.80141E-05  8440   0.207E-02
  13 F= -.64271076E+03 E0= -.64265161E+03  d E =-.448549E-02
 curvature:  -1.78 expect dE=-0.561E-02 dE for cont linesearch -0.357E-04
 trial: gam= 0.54271 g(F)=  0.263E-02 g(S)=  0.522E-03 ort = 0.478E-03 (trialstep = 0.130E+01)
 search vector abs. value=  0.703E-02
 bond charge predicted
       N       E                     dE             d eps       ncg     rms          rms(c)
DAV:   1    -0.642684517320E+03    0.26246E-01   -0.23115E+00  8784   0.608E+00    0.722E-01
RMM:   2    -0.642748724038E+03   -0.64207E-01   -0.43436E-01 12246   0.178E+00    0.177E+00
RMM:   3    -0.642715450602E+03    0.33273E-01   -0.50316E-02 11555   0.759E-01    0.491E-01
RMM:   4    -0.642715414438E+03    0.36164E-04   -0.13209E-02 13274   0.259E-01    0.437E-01
RMM:   5    -0.642713608254E+03    0.18062E-02   -0.28895E-03 12665   0.140E-01    0.161E-01
RMM:   6    -0.642713841245E+03   -0.23299E-03   -0.16318E-03 12813   0.817E-02    0.254E-01
RMM:   7    -0.642713351409E+03    0.48984E-03   -0.10656E-03 13292   0.740E-02    0.858E-02
RMM:   8    -0.642713356462E+03   -0.50528E-05   -0.47496E-04 13172   0.424E-02    0.101E-01
RMM:   9    -0.642713284588E+03    0.71874E-04   -0.19127E-04 11952   0.286E-02    0.324E-02
RMM:  10    -0.642713282165E+03    0.24227E-05   -0.93193E-05  9456   0.171E-02
  14 F= -.64271328E+03 E0= -.64265419E+03  d E =-.252533E-02
 trial-energy change:   -0.002525  1 .order   -0.002300   -0.004419   -0.000180
 step:   1.3377(harm=  1.3513)  dis= 0.00544  next Energy=  -642.713285 (dE=-0.253E-02)
 bond charge predicted
       N       E                     dE             d eps       ncg     rms          rms(c)
DAV:   1    -0.642713263680E+03    0.20907E-04   -0.24919E-03 10752   0.196E-01    0.316E-02
RMM:   2    -0.642713371858E+03   -0.10818E-03   -0.54037E-04 11509   0.619E-02    0.880E-02
RMM:   3    -0.642713296134E+03    0.75723E-04   -0.80663E-05  8150   0.299E-02    0.220E-02
RMM:   4    -0.642713294837E+03    0.12971E-05   -0.20743E-05  5842   0.154E-02
  15 F= -.64271329E+03 E0= -.64265422E+03  d E =-.253801E-02
 curvature:  -1.31 expect dE=-0.516E-02 dE for cont linesearch -0.513E-05
 trial: gam= 1.27134 g(F)=  0.144E-02 g(S)=  0.251E-02 ort = 0.166E-03 (trialstep = 0.583E+00)
 search vector abs. value=  0.157E-01
 bond charge predicted
       N       E                     dE             d eps       ncg     rms          rms(c)
DAV:   1    -0.642701154345E+03    0.12142E-01   -0.10270E+00  9408   0.398E+00    0.358E-01
RMM:   2    -0.642720886842E+03   -0.19732E-01   -0.17207E-01 12797   0.113E+00    0.721E-01
RMM:   3    -0.642715522492E+03    0.53643E-02   -0.16523E-02 12547   0.422E-01    0.228E-01
RMM:   4    -0.642715765105E+03   -0.24261E-03   -0.40841E-03 13519   0.146E-01    0.253E-01
RMM:   5    -0.642715198853E+03    0.56625E-03   -0.88728E-04 12474   0.780E-02    0.939E-02
RMM:   6    -0.642715261223E+03   -0.62371E-04   -0.53094E-04 12220   0.462E-02    0.141E-01
RMM:   7    -0.642715124347E+03    0.13688E-03   -0.37134E-04 12558   0.434E-02    0.590E-02
RMM:   8    -0.642715098874E+03    0.25473E-04   -0.17173E-04 11861   0.274E-02    0.336E-02
RMM:   9    -0.642715098106E+03    0.76873E-06   -0.55548E-05  7568   0.200E-02
  16 F= -.64271510E+03 E0= -.64265618E+03  d E =-.180327E-02
 trial-energy change:   -0.001803  1 .order   -0.001680   -0.002425   -0.000935
 step:   0.8003(harm=  0.9484)  dis= 0.00494  next Energy=  -642.715279 (dE=-0.198E-02)
 bond charge predicted
       N       E                     dE             d eps       ncg     rms          rms(c)
DAV:   1    -0.642713391230E+03    0.17076E-02   -0.14338E-01  9600   0.149E+00    0.135E-01
RMM:   2    -0.642716205700E+03   -0.28145E-02   -0.24151E-02 12617   0.422E-01    0.277E-01
RMM:   3    -0.642715416525E+03    0.78917E-03   -0.23808E-03 12134   0.160E-01    0.881E-02
RMM:   4    -0.642715456201E+03   -0.39676E-04   -0.59245E-04 11657   0.556E-02    0.969E-02
RMM:   5    -0.642715376933E+03    0.79268E-04   -0.14468E-04  9316   0.339E-02    0.334E-02
RMM:   6    -0.642715389006E+03   -0.12072E-04   -0.83476E-05  8253   0.202E-02    0.508E-02
RMM:   7    -0.642715373720E+03    0.15286E-04   -0.54513E-05  7077   0.198E-02    0.213E-02
RMM:   8    -0.642715374519E+03   -0.79904E-06   -0.26465E-05  6016   0.169E-02
  17 F= -.64271537E+03 E0= -.64265655E+03  d E =-.207968E-02
 curvature:  -1.50 expect dE=-0.269E-02 dE for cont linesearch -0.592E-04
 ZBRENT: increasing intervall
 opt :   1.2354  next Energy=  -642.715362 (dE=-0.207E-02)
 bond charge predicted
       N       E                     dE             d eps       ncg     rms          rms(c)
DAV:   1    -0.642707432285E+03    0.79414E-02   -0.57156E-01  9072   0.297E+00    0.268E-01
RMM:   2    -0.642718521723E+03   -0.11089E-01   -0.95987E-02 12711   0.840E-01    0.545E-01
RMM:   3    -0.642715462795E+03    0.30589E-02   -0.93077E-03 12294   0.317E-01    0.176E-01
RMM:   4    -0.642715603882E+03   -0.14109E-03   -0.22962E-03 13106   0.110E-01    0.194E-01
RMM:   5    -0.642715279311E+03    0.32457E-03   -0.51379E-04 11707   0.595E-02    0.695E-02
RMM:   6    -0.642715313304E+03   -0.33993E-04   -0.29675E-04 11598   0.356E-02    0.101E-01
RMM:   7    -0.642715245150E+03    0.68154E-04   -0.21816E-04 11652   0.328E-02    0.409E-02
RMM:   8    -0.642715235582E+03    0.95678E-05   -0.99201E-05 10299   0.230E-02
  18 F= -.64271524E+03 E0= -.64265654E+03  d E =-.194074E-02
 curvature:   0.31 expect dE= 0.156E-02 dE for cont linesearch  0.368E-04
 ZBRENT: bracketing found
 ZBRENT: interpolating
 opt :   0.9591  next Energy=  -642.715437 (dE=-0.214E-02)
 bond charge predicted
       N       E                     dE             d eps       ncg     rms          rms(c)
DAV:   1    -0.642712362088E+03    0.28831E-02   -0.23119E-01  9120   0.189E+00    0.174E-01
RMM:   2    -0.642716847865E+03   -0.44858E-02   -0.38754E-02 12784   0.534E-01    0.352E-01
RMM:   3    -0.642715570315E+03    0.12776E-02   -0.37506E-03 12534   0.202E-01    0.110E-01
RMM:   4    -0.642715622797E+03   -0.52482E-04   -0.91237E-04 13084   0.700E-02    0.124E-01
RMM:   5    -0.642715480783E+03    0.14201E-03   -0.19032E-04 10914   0.393E-02    0.439E-02
RMM:   6    -0.642715493115E+03   -0.12332E-04   -0.11518E-04  9277   0.241E-02    0.684E-02
RMM:   7    -0.642715456461E+03    0.36654E-04   -0.73258E-05  7646   0.224E-02    0.274E-02
RMM:   8    -0.642715447437E+03    0.90241E-05   -0.28341E-05  5755   0.178E-02
  19 F= -.64271545E+03 E0= -.64265665E+03  d E =-.215260E-02
 curvature:  -0.52 expect dE=-0.128E-02 dE for cont linesearch -0.117E-06
 trial: gam= 0.69370 g(F)=  0.189E-02 g(S)=  0.571E-03 ort =-0.594E-04 (trialstep = 0.658E+00)
 search vector abs. value=  0.994E-02
 bond charge predicted
       N       E                     dE             d eps       ncg     rms          rms(c)
DAV:   1    -0.642704386301E+03    0.11070E-01   -0.84986E-01  9072   0.353E+00    0.232E-01
RMM:   2    -0.642718496573E+03   -0.14110E-01   -0.13074E-01 12771   0.959E-01    0.497E-01
RMM:   3    -0.642716895685E+03    0.16009E-02   -0.11294E-02 12576   0.342E-01    0.184E-01
RMM:   4    -0.642716995179E+03   -0.99494E-04   -0.26155E-03 12251   0.125E-01    0.168E-01
RMM:   5    -0.642716746412E+03    0.24877E-03   -0.51243E-04 11084   0.609E-02    0.595E-02
RMM:   6    -0.642716767009E+03   -0.20596E-04   -0.21807E-04 10268   0.331E-02    0.830E-02
RMM:   7    -0.642716711293E+03    0.55715E-04   -0.19082E-04 10815   0.268E-02    0.313E-02
RMM:   8    -0.642716708660E+03    0.26333E-05   -0.73387E-05  8202   0.220E-02
  20 F= -.64271671E+03 E0= -.64265797E+03  d E =-.126122E-02
 trial-energy change:   -0.001261  1 .order   -0.001234   -0.001590   -0.000878
 step:   1.4693(harm=  1.4693)  dis= 0.00863  next Energy=  -642.717223 (dE=-0.178E-02)
 bond charge predicted
       N       E                     dE             d eps       ncg     rms          rms(c)
DAV:   1    -0.642698394900E+03    0.18316E-01   -0.12901E+00  9072   0.435E+00    0.286E-01
RMM:   2    -0.642719526337E+03   -0.21131E-01   -0.19887E-01 12766   0.118E+00    0.582E-01
RMM:   3    -0.642717438011E+03    0.20883E-02   -0.17265E-02 12660   0.420E-01    0.232E-01
RMM:   4    -0.642717588845E+03   -0.15083E-03   -0.40954E-03 12771   0.156E-01    0.209E-01
RMM:   5    -0.642717219167E+03    0.36968E-03   -0.83491E-04 11552   0.721E-02    0.748E-02
RMM:   6    -0.642717252213E+03   -0.33046E-04   -0.35723E-04 10969   0.413E-02    0.101E-01
RMM:   7    -0.642717178733E+03    0.73480E-04   -0.30365E-04 11467   0.330E-02    0.422E-02
RMM:   8    -0.642717170464E+03    0.82692E-05   -0.13462E-04 10054   0.264E-02    0.378E-02
RMM:   9    -0.642717165238E+03    0.52259E-05   -0.62845E-05  7858   0.183E-02
  21 F= -.64271717E+03 E0= -.64265852E+03  d E =-.171780E-02
 curvature:  -3.02 expect dE=-0.452E-02 dE for cont linesearch -0.161E-04
 trial: gam= 0.56949 g(F)=  0.147E-02 g(S)=  0.239E-04 ort =-0.230E-03 (trialstep = 0.820E+00)
 search vector abs. value=  0.446E-02
 bond charge predicted
       N       E                     dE             d eps       ncg     rms          rms(c)
DAV:   1    -0.642709060614E+03    0.81099E-02   -0.62024E-01  9072   0.298E+00    0.186E-01
RMM:   2    -0.642718971824E+03   -0.99112E-02   -0.93724E-02 12831   0.790E-01    0.396E-01
RMM:   3    -0.642718130377E+03    0.84145E-03   -0.81349E-03 12488   0.272E-01    0.143E-01
RMM:   4    -0.642718169344E+03   -0.38967E-04   -0.17273E-03 11948   0.102E-01    0.123E-01
RMM:   5    -0.642718051190E+03    0.11815E-03   -0.36951E-04 11120   0.460E-02    0.506E-02
RMM:   6    -0.642718064706E+03   -0.13516E-04   -0.16230E-04  9658   0.288E-02    0.663E-02
RMM:   7    -0.642718030033E+03    0.34673E-04   -0.13608E-04  9771   0.217E-02    0.249E-02
RMM:   8    -0.642718030833E+03   -0.79974E-06   -0.50853E-05  6868   0.195E-02
  22 F= -.64271803E+03 E0= -.64265943E+03  d E =-.865594E-03
 trial-energy change:   -0.000866  1 .order   -0.000867   -0.001119   -0.000615
 step:   1.8200(harm=  1.8200)  dis= 0.00906  next Energy=  -642.718407 (dE=-0.124E-02)
 bond charge predicted
       N       E                     dE             d eps       ncg     rms          rms(c)
DAV:   1    -0.642705016669E+03    0.13013E-01   -0.92011E-01  9072   0.364E+00    0.227E-01
RMM:   2    -0.642719822511E+03   -0.14806E-01   -0.13952E-01 12834   0.963E-01    0.491E-01
RMM:   3    -0.642718467754E+03    0.13548E-02   -0.11818E-02 12514   0.330E-01    0.174E-01
RMM:   4    -0.642718517301E+03   -0.49547E-04   -0.25291E-03 12273   0.123E-01    0.150E-01
RMM:   5    -0.642718347547E+03    0.16975E-03   -0.54447E-04 11330   0.555E-02    0.634E-02
RMM:   6    -0.642718362658E+03   -0.15111E-04   -0.23726E-04 10360   0.347E-02    0.782E-02
RMM:   7    -0.642718315056E+03    0.47602E-04   -0.19757E-04 10717   0.258E-02    0.302E-02
RMM:   8    -0.642718310654E+03    0.44016E-05   -0.80781E-05  8409   0.217E-02
  23 F= -.64271831E+03 E0= -.64265981E+03  d E =-.114542E-02
 curvature:  -2.97 expect dE=-0.381E-02 dE for cont linesearch -0.682E-05
 trial: gam= 0.80628 g(F)=  0.109E-02 g(S)=  0.190E-03 ort =-0.101E-03 (trialstep = 0.102E+01)
 search vector abs. value=  0.402E-02
 bond charge predicted
       N       E                     dE             d eps       ncg     rms          rms(c)
DAV:   1    -0.642707296820E+03    0.11018E-01   -0.86288E-01  9072   0.357E+00    0.253E-01
RMM:   2    -0.642720521783E+03   -0.13225E-01   -0.13158E-01 12605   0.948E-01    0.380E-01
RMM:   3    -0.642719241908E+03    0.12799E-02   -0.11883E-02 12273   0.344E-01    0.181E-01
RMM:   4    -0.642719337012E+03   -0.95104E-04   -0.25798E-03 13099   0.117E-01    0.198E-01
RMM:   5    -0.642719050529E+03    0.28648E-03   -0.56705E-04 11786   0.617E-02    0.704E-02
RMM:   6    -0.642719035452E+03    0.15077E-04   -0.32868E-04 11795   0.346E-02    0.702E-02
RMM:   7    -0.642719022552E+03    0.12900E-04   -0.20337E-04 10529   0.316E-02    0.634E-02
RMM:   8    -0.642718989114E+03    0.33438E-04   -0.95283E-05  9193   0.229E-02    0.213E-02
RMM:   9    -0.642718993302E+03   -0.41875E-05   -0.39268E-05  6560   0.178E-02
  24 F= -.64271899E+03 E0= -.64266067E+03  d E =-.682647E-03
 trial-energy change:   -0.000683  1 .order   -0.000696   -0.001226   -0.000167
 step:   1.1814(harm=  1.1814)  dis= 0.00582  next Energy=  -642.719020 (dE=-0.710E-03)
 bond charge predicted
       N       E                     dE             d eps       ncg     rms          rms(c)
DAV:   1    -0.642718703294E+03    0.28582E-03   -0.21578E-02  9744   0.567E-01    0.405E-02
RMM:   2    -0.642719042703E+03   -0.33941E-03   -0.33697E-03 12348   0.151E-01    0.593E-02
RMM:   3    -0.642719012237E+03    0.30466E-04   -0.31814E-04 10414   0.550E-02    0.287E-02
RMM:   4    -0.642719013857E+03   -0.16199E-05   -0.61251E-05  6588   0.224E-02
  25 F= -.64271901E+03 E0= -.64266072E+03  d E =-.703203E-03
 curvature:  -1.98 expect dE=-0.131E-02 dE for cont linesearch -0.119E-05
 trial: gam= 0.31664 g(F)=  0.471E-03 g(S)=  0.193E-03 ort = 0.491E-04 (trialstep = 0.105E+01)
 search vector abs. value=  0.110E-02
 bond charge predicted
       N       E                     dE             d eps       ncg     rms          rms(c)
DAV:   1    -0.642717581264E+03    0.14310E-02   -0.23215E-01  9096   0.182E+00    0.294E-01
RMM:   2    -0.642726208462E+03   -0.86272E-02   -0.45882E-02 10769   0.595E-01    0.773E-01
RMM:   3    -0.642719862639E+03    0.63458E-02   -0.67500E-03 10547   0.304E-01    0.200E-01
RMM:   4    -0.642719751417E+03    0.11122E-03   -0.18090E-03 13119   0.947E-02    0.150E-01
RMM:   5    -0.642719525454E+03    0.22596E-03   -0.43073E-04 12188   0.525E-02    0.665E-02
RMM:   6    -0.642719547162E+03   -0.21708E-04   -0.25918E-04 11478   0.348E-02    0.956E-02
RMM:   7    -0.642719473172E+03    0.73990E-04   -0.17675E-04 11134   0.313E-02    0.300E-02
RMM:   8    -0.642719468363E+03    0.48096E-05   -0.58831E-05  7893   0.200E-02
  26 F= -.64271947E+03 E0= -.64266115E+03  d E =-.454505E-03
 trial-energy change:   -0.000455  1 .order   -0.000353   -0.000715    0.000010
 step:   1.0445(harm=  1.0379)  dis= 0.00190  next Energy=  -642.719468 (dE=-0.455E-03)
 bond charge predicted
       N       E                     dE             d eps       ncg     rms          rms(c)
DAV:   1    -0.642719459809E+03    0.13363E-04   -0.87776E-05  9768   0.303E-02    0.137E-02
RMM:   2    -0.642719478909E+03   -0.19101E-04   -0.41231E-05  6466   0.168E-02    0.523E-02
RMM:   3    -0.642719456340E+03    0.22569E-04   -0.13295E-05  5314   0.147E-02    0.699E-03
RMM:   4    -0.642719455689E+03    0.65182E-06   -0.46163E-06  4862   0.857E-03
  27 F= -.64271946E+03 E0= -.64266116E+03  d E =-.441831E-03
 curvature:  -0.66 expect dE=-0.388E-03 dE for cont linesearch -0.278E-06
 trial: gam= 0.93971 g(F)=  0.270E-03 g(S)=  0.315E-03 ort = 0.214E-04 (trialstep = 0.724E+00)
 search vector abs. value=  0.159E-02
 bond charge predicted
       N       E                     dE             d eps       ncg     rms          rms(c)
DAV:   1    -0.642718261422E+03    0.11949E-02   -0.15227E-01  9360   0.141E+00    0.154E-01
RMM:   2    -0.642721138952E+03   -0.28775E-02   -0.21996E-02 12293   0.406E-01    0.343E-01
RMM:   3    -0.642719810669E+03    0.13283E-02   -0.23371E-03 11601   0.164E-01    0.955E-02
RMM:   4    -0.642719847861E+03   -0.37192E-04   -0.63698E-04 12440   0.597E-02    0.110E-01
RMM:   5    -0.642719736064E+03    0.11180E-03   -0.15888E-04 10314   0.341E-02    0.350E-02
RMM:   6    -0.642719750937E+03   -0.14873E-04   -0.99376E-05  8719   0.224E-02    0.581E-02
RMM:   7    -0.642719723421E+03    0.27516E-04   -0.53117E-05  6975   0.208E-02    0.171E-02
RMM:   8    -0.642719723718E+03   -0.29684E-06   -0.20526E-05  5705   0.166E-02
  28 F= -.64271972E+03 E0= -.64266148E+03  d E =-.268029E-03
 trial-energy change:   -0.000268  1 .order   -0.000292   -0.000438   -0.000146
 step:   1.0860(harm=  1.0860)  dis= 0.00191  next Energy=  -642.719784 (dE=-0.328E-03)
 bond charge predicted
       N       E                     dE             d eps       ncg     rms          rms(c)
DAV:   1    -0.642719363449E+03    0.35997E-03   -0.38030E-02  9312   0.704E-01    0.757E-02
RMM:   2    -0.642720087938E+03   -0.72449E-03   -0.55363E-03 11994   0.203E-01    0.169E-01
RMM:   3    -0.642719763588E+03    0.32435E-03   -0.60018E-04 10907   0.827E-02    0.478E-02
RMM:   4    -0.642719772644E+03   -0.90561E-05   -0.15971E-04  9548   0.310E-02    0.538E-02
RMM:   5    -0.642719747907E+03    0.24737E-04   -0.40947E-05  6626   0.203E-02    0.172E-02
RMM:   6    -0.642719751571E+03   -0.36636E-05   -0.23185E-05  5932   0.142E-02
  29 F= -.64271975E+03 E0= -.64266153E+03  d E =-.295882E-03
 curvature:  -1.43 expect dE=-0.367E-03 dE for cont linesearch -0.207E-06
 trial: gam= 0.37478 g(F)=  0.214E-03 g(S)=  0.427E-04 ort = 0.152E-04 (trialstep = 0.796E+00)
 search vector abs. value=  0.492E-03
 bond charge predicted
       N       E                     dE             d eps       ncg     rms          rms(c)
DAV:   1    -0.642719443980E+03    0.30393E-03   -0.52838E-02  8832   0.763E-01    0.560E-02
RMM:   2    -0.642720038083E+03   -0.59410E-03   -0.54541E-03 12308   0.209E-01    0.117E-01
RMM:   3    -0.642719920965E+03    0.11712E-03   -0.53712E-04 12212   0.785E-02    0.407E-02
RMM:   4    -0.642719921396E+03   -0.43180E-06   -0.12497E-04  8530   0.300E-02    0.374E-02
RMM:   5    -0.642719910553E+03    0.10843E-04   -0.43863E-05  6959   0.217E-02    0.185E-02
RMM:   6    -0.642719912996E+03   -0.24433E-05   -0.21278E-05  5793   0.137E-02
  30 F= -.64271991E+03 E0= -.64266172E+03  d E =-.161425E-03
 trial-energy change:   -0.000161  1 .order   -0.000144   -0.000209   -0.000078
 step:   1.2725(harm=  1.2725)  dis= 0.00126  next Energy=  -642.719918 (dE=-0.167E-03)
 reached required accuracy - stopping structural energy minimisation
