HECN                                    
           1
     8.848908    0.013832    0.013677
     0.019897    8.850836    0.000230
     0.045523   -0.015047    8.857111
   Zr   Nb   V    N    C    W    Mo
   7   6   7  13  19   6   6
Direct configuration=     1
   0.00084635  0.00413800  0.99850525
   0.26110612  0.00656893  0.24303960
   0.24662802  0.49043902  0.25187709
   0.50279359  0.49655010  0.00091911
   0.50409486  0.24835436  0.74208178
   0.99835237  0.50341626  0.50076569
   0.49350390  0.75770616  0.75535113
   0.98721936  0.23652537  0.25698220
   0.76368574  0.74562739  0.00887228
   0.00066700  0.26131340  0.75036485
   0.75278323  0.25280868  0.48940534
   0.00026817  0.74667653  0.74872660
   0.25413220  0.50153442  0.74435233
   0.25593351  0.26458383  0.97881436
   0.52749618  0.26389495  0.24848875
   0.74292611  0.98442264  0.28144857
   0.73460285  0.24582314  0.99424955
   0.22841971  0.72726480  0.00540758
   0.23508665  0.23995853  0.51740614
   0.24863137  0.76008405  0.49328666
   0.24131883  0.24774712  0.24680413
   0.26135438  0.00447378  0.98730854
   0.99702250  0.25501464  0.00325181
   0.74416811  0.23501276  0.24160669
   0.75200946  0.00592679  0.01857771
   0.51691336  0.99673116  0.23506214
   0.99341166  0.49493412  0.24431478
   0.49944864  0.76167868  0.00955345
   0.98523816  0.00330171  0.74253069
   0.75571107  0.24125452  0.75325307
   0.74790889  0.00127585  0.52124347
   0.49920253  0.23871004  0.48147391
   0.49178193  0.00251105  0.73621062
   0.99381820  0.00232203  0.25676170
   0.49461071  0.24610900  0.00655436
   0.25434765  0.74954738  0.24525656
   0.24401470  0.49646205  0.99545287
   0.00415566  0.74332490  0.00593328
   0.75238282  0.74527414  0.25235622
   0.75825115  0.49078257  0.00996063
   0.49845575  0.49614004  0.25348277
   0.24768396  0.24956834  0.74810169
   0.26823183  0.00111846  0.50245626
   0.00239912  0.24755085  0.50277678
   0.24184263  0.75715425  0.75522928
   0.25747456  0.49773825  0.50245441
   0.00175813  0.76038802  0.50119078
   0.00280667  0.50344966  0.75034602
   0.74958974  0.75275906  0.75138861
   0.74366254  0.49780135  0.50879838
   0.49023167  0.75217357  0.49801604
   0.50356796  0.50367718  0.74285729
   0.52141998  0.01373226  0.98365492
   0.99802078  0.49983323  0.98617610
   0.49365238  0.73990607  0.25617416
   0.23336631  0.00237141  0.73916423
   0.51239268  0.98644058  0.47544798
   0.73769228  0.98481028  0.77340553
   0.00707115  0.77344794  0.25927939
   0.73629279  0.49580610  0.26068751
   0.02384057  0.00258068  0.49982078
   0.50395845  0.52052105  0.49202594
   0.75397188  0.51802288  0.76417090
   0.74436888  0.74292341  0.48908290
HECN                                    
           1
     8.805781    0.016335    0.013002
     0.022364    8.812387   -0.000481
     0.044673   -0.015678    8.823982
   Zr   Nb   V    N    C    W    Mo
   7   6   7  13  19   6   6
Direct configuration=     2
   0.00081995  0.00431547  0.99886868
   0.26097907  0.00705933  0.24277669
   0.24647060  0.49024344  0.25231739
   0.50279412  0.49665484  0.00084455
   0.50382083  0.24818008  0.74177493
   0.99865298  0.50364796  0.50080441
   0.49338408  0.75760891  0.75522494
   0.98680169  0.23645454  0.25677866
   0.76370936  0.74529163  0.00947162
   0.00066844  0.26139435  0.75061266
   0.75249809  0.25295376  0.48975413
   0.00040768  0.74657778  0.74880930
   0.25380462  0.50148734  0.74426488
   0.25584206  0.26538092  0.97913288
   0.52777557  0.26407695  0.24869212
   0.74309497  0.98456114  0.28094887
   0.73438239  0.24518088  0.99337031
   0.22824822  0.72732864  0.00515353
   0.23486751  0.23991452  0.51686171
   0.24787394  0.76020982  0.49398737
   0.24129008  0.24802181  0.24680263
   0.26115637  0.00422423  0.98722208
   0.99712741  0.25521081  0.00340838
   0.74456332  0.23528580  0.24110926
   0.75162227  0.00527694  0.01894136
   0.51643415  0.99679441  0.23555569
   0.99342309  0.49474133  0.24420646
   0.49924372  0.76139276  0.00957535
   0.98612607  0.00335784  0.74283039
   0.75561646  0.24133225  0.75336806
   0.74893303  0.00125061  0.52105784
   0.49919626  0.23843410  0.48176794
   0.49213616  0.00246030  0.73634396
   0.99372646  0.00236629  0.25666839
   0.49447056  0.24621471  0.00659698
   0.25463382  0.74937360  0.24534039
   0.24407632  0.49663661  0.99541726
   0.00443348  0.74309986  0.00612641
   0.75250093  0.74526344  0.25227856
   0.75839170  0.49062089  0.00993329
   0.49882677  0.49586755  0.25371074
   0.24753078  0.24952085  0.74773826
   0.26760223  0.00191405  0.50223832
   0.00235111  0.24781174  0.50263731
   0.24183882  0.75711385  0.75503260
   0.25718125  0.49747397  0.50282388
   0.00178033  0.76026606  0.50140222
   0.00233880  0.50339183  0.75034388
   0.74994280  0.75286374  0.75129854
   0.74383675  0.49794043  0.50868590
   0.49075623  0.75185506  0.49796309
   0.50378785  0.50348017  0.74279966
   0.52179249  0.01346181  0.98435773
   0.99822881  0.49983350  0.98625075
   0.49371056  0.74009008  0.25631843
   0.23362299  0.00231992  0.73867858
   0.51206726  0.98617930  0.47494658
   0.73735299  0.98547817  0.77353896
   0.00725121  0.77337668  0.25932062
   0.73596240  0.49600307  0.26051143
   0.02407904  0.00229056  0.49966541
   0.50360921  0.52097795  0.49200199
   0.75404555  0.51773829  0.76399989
   0.74450633  0.74287023  0.48873505
HECN                                    
           1
     8.831284    0.014855    0.013401
     0.020905    8.835123   -0.000060
     0.045176   -0.015305    8.843573
   Zr   Nb   V    N    C    W    Mo
   7   6   7  13  19   6   6
Direct configuration=     3
   0.00083565  0.00421004  0.99865295
   0.26105467  0.00676806  0.24293272
   0.24656409  0.49035955  0.25205606
   0.50279383  0.49659264  0.00088880
   0.50398365  0.24828355  0.74195708
   0.99847438  0.50351040  0.50078141
   0.49345527  0.75766666  0.75529985
   0.98704988  0.23649654  0.25689949
   0.76369524  0.74549102  0.00911589
   0.00066759  0.26134626  0.75046556
   0.75266754  0.25286753  0.48954710
   0.00032476  0.74663645  0.74876021
   0.25399928  0.50151525  0.74431681
   0.25589652  0.26490747  0.97894378
   0.52760957  0.26396890  0.24857139
   0.74299468  0.98447893  0.28124546
   0.73451332  0.24556234  0.99389223
   0.22835015  0.72729071  0.00530433
   0.23499775  0.23994065  0.51718488
   0.24832402  0.76013496  0.49357148
   0.24130721  0.24785866  0.24680351
   0.26127400  0.00437241  0.98727342
   0.99706510  0.25509431  0.00331543
   0.74432854  0.23512373  0.24140448
   0.75185222  0.00566282  0.01872556
   0.51671890  0.99675674  0.23526275
   0.99341627  0.49485584  0.24427076
   0.49936544  0.76156254  0.00956237
   0.98559843  0.00332464  0.74265246
   0.75567269  0.24128606  0.75329981
   0.74832445  0.00126579  0.52116798
   0.49919992  0.23859798  0.48159343
   0.49192564  0.00249050  0.73626480
   0.99378099  0.00233999  0.25672378
   0.49455386  0.24615190  0.00657168
   0.25446373  0.74947685  0.24529063
   0.24403974  0.49653295  0.99543838
   0.00426834  0.74323356  0.00601177
   0.75243074  0.74526982  0.25232465
   0.75830815  0.49071694  0.00994952
   0.49860623  0.49602944  0.25357542
   0.24762182  0.24954905  0.74795399
   0.26797651  0.00144143  0.50236767
   0.00237969  0.24765679  0.50272009
   0.24184109  0.75713786  0.75514934
   0.25735548  0.49763086  0.50260461
   0.00176711  0.76033849  0.50127672
   0.00261682  0.50342610  0.75034517
   0.74973302  0.75280164  0.75135198
   0.74373326  0.49785786  0.50875265
   0.49044446  0.75204432  0.49799451
   0.50365715  0.50359722  0.74283387
   0.52157105  0.01362247  0.98394056
   0.99810519  0.49983337  0.98620643
   0.49367601  0.73998080  0.25623278
   0.23347048  0.00235057  0.73896684
   0.51226061  0.98633445  0.47524422
   0.73755472  0.98508143  0.77345974
   0.00714420  0.77341903  0.25929615
   0.73615878  0.49588604  0.26061595
   0.02393729  0.00246292  0.49975764
   0.50381682  0.52070652  0.49201620
   0.75400173  0.51790733  0.76410141
   0.74442466  0.74290186  0.48894152
HECN                                    
           1
     8.830761    0.016574    0.013133
     0.022622    8.836344   -0.000465
     0.044898   -0.015703    8.846454
   Zr   Nb   V    N    C    W    Mo
   7   6   7  13  19   6   6
Direct configuration=     4
   0.00085241  0.00431521  0.99892931
   0.26090125  0.00711342  0.24264771
   0.24651120  0.49030656  0.25239223
   0.50275892  0.49676910  0.00082647
   0.50364126  0.24818984  0.74168945
   0.99870422  0.50368281  0.50076684
   0.49343535  0.75754367  0.75521947
   0.98664983  0.23664569  0.25667395
   0.76361024  0.74521155  0.00957273
   0.00063773  0.26136100  0.75073232
   0.75239317  0.25293566  0.48990509
   0.00036725  0.74662602  0.74891508
   0.25369201  0.50149056  0.74433509
   0.25571562  0.26560697  0.97935172
   0.52767892  0.26396814  0.24873287
   0.74329891  0.98470814  0.28069330
   0.73440927  0.24488675  0.99294741
   0.22848475  0.72747652  0.00500189
   0.23489629  0.24001533  0.51654489
   0.24758892  0.76028053  0.49435896
   0.24137825  0.24811670  0.24679123
   0.26108429  0.00406707  0.98720438
   0.99716985  0.25524783  0.00348667
   0.74468751  0.23536822  0.24089702
   0.75168479  0.00501118  0.01933055
   0.51624902  0.99690247  0.23555911
   0.99339941  0.49475194  0.24414774
   0.49910977  0.76128630  0.00956591
   0.98641643  0.00339176  0.74294356
   0.75557402  0.24140613  0.75335491
   0.74938741  0.00119730  0.52097100
   0.49906906  0.23836200  0.48185983
   0.49222782  0.00241958  0.73636293
   0.99364768  0.00237434  0.25662672
   0.49434852  0.24626752  0.00663107
   0.25466678  0.74936923  0.24537451
   0.24417304  0.49670685  0.99549083
   0.00447104  0.74314374  0.00622522
   0.75258813  0.74529013  0.25220712
   0.75836190  0.49045423  0.00995668
   0.49871615  0.49575975  0.25370293
   0.24748657  0.24950784  0.74765341
   0.26766018  0.00212440  0.50195806
   0.00232546  0.24787138  0.50260586
   0.24189468  0.75706285  0.75494483
   0.25711159  0.49738198  0.50287050
   0.00180569  0.76021783  0.50150293
   0.00224953  0.50339223  0.75025669
   0.75001874  0.75293054  0.75126992
   0.74387395  0.49799911  0.50866626
   0.49079593  0.75188902  0.49807754
   0.50384708  0.50340705  0.74273317
   0.52151882  0.01330743  0.98461133
   0.99834592  0.49973896  0.98639839
   0.49376938  0.74017999  0.25620240
   0.23382094  0.00231990  0.73863272
   0.51200465  0.98618494  0.47499107
   0.73741809  0.98582060  0.77349745
   0.00730923  0.77311848  0.25926419
   0.73615140  0.49602103  0.26043912
   0.02379110  0.00227883  0.49962108
   0.50346411  0.52079253  0.49218884
   0.75400905  0.51743836  0.76391340
   0.74468991  0.74298672  0.48877427
HECN                                    
           1
     8.830314    0.018046    0.012904
     0.024092    8.837389   -0.000812
     0.044661   -0.016043    8.848922
   Zr   Nb   V    N    C    W    Mo
   7   6   7  13  19   6   6
Direct configuration=     5
   0.00086676  0.00440527  0.99916592
   0.26076978  0.00740917  0.24240371
   0.24646591  0.49026121  0.25268005
   0.50272900  0.49692021  0.00077311
   0.50334801  0.24810964  0.74146031
   0.99890105  0.50383040  0.50075439
   0.49341831  0.75743836  0.75515065
   0.98630717  0.23677346  0.25648084
   0.76353750  0.74497227  0.00996385
   0.00061216  0.26137363  0.75096071
   0.75215818  0.25299406  0.49021157
   0.00040365  0.74661708  0.74904768
   0.25342885  0.50146947  0.74435074
   0.25556057  0.26620600  0.97970099
   0.52773832  0.26396748  0.24887112
   0.74355942  0.98490435  0.28022059
   0.73432024  0.24430822  0.99213847
   0.22860000  0.72763560  0.00474296
   0.23480936  0.24007927  0.51599697
   0.24695931  0.76040535  0.49503315
   0.24143905  0.24833765  0.24678073
   0.26092186  0.00380563  0.98714525
   0.99725954  0.25537928  0.00363329
   0.74499491  0.23557750  0.24046258
   0.75154151  0.00445323  0.01984848
   0.51584656  0.99702736  0.23581283
   0.99338499  0.49466297  0.24404241
   0.49889083  0.76104979  0.00956891
   0.98711703  0.00344911  0.74319281
   0.75548949  0.24150896  0.75340209
   0.75029782  0.00113847  0.52080237
   0.49895702  0.23815997  0.48208790
   0.49248664  0.00235881  0.73644694
   0.99353349  0.00240378  0.25654362
   0.49417263  0.24636656  0.00668191
   0.25484070  0.74927703  0.24544633
   0.24428718  0.49685574  0.99553575
   0.00464467  0.74306681  0.00640796
   0.75272293  0.74530750  0.25210651
   0.75840797  0.49022926  0.00996281
   0.49881035  0.49552880  0.25381209
   0.24737074  0.24947257  0.74739607
   0.26738912  0.00270927  0.50160740
   0.00227897  0.24805515  0.50250808
   0.24194059  0.75699860  0.75476973
   0.25690275  0.49716891  0.50309813
   0.00183876  0.76011452  0.50169660
   0.00193496  0.50336329  0.75018092
   0.75026343  0.75304087  0.75119967
   0.74399443  0.49812003  0.50859231
   0.49109698  0.75175597  0.49814862
   0.50400977  0.50324417  0.74264695
   0.52147416  0.01303769  0.98518559
   0.99855213  0.49965808  0.98656274
   0.49384932  0.74035055  0.25617639
   0.23412110  0.00229357  0.73834667
   0.51178544  0.98605695  0.47477433
   0.73730095  0.98645359  0.77352975
   0.00745062  0.77286109  0.25923681
   0.73614505  0.49613661  0.26028774
   0.02366592  0.00212121  0.49950416
   0.50316201  0.52086623  0.49233664
   0.75401539  0.51703677  0.76375242
   0.74491707  0.74305934  0.48863109
HECN                                    
           1
     8.835634    0.017134    0.013588
     0.023196    8.835874   -0.000183
     0.045380   -0.015417    8.844634
   Zr   Nb   V    N    C    W    Mo
   7   6   7  13  19   6   6
Direct configuration=     6
   0.00080656  0.00429725  0.99917887
   0.26039361  0.00731555  0.24229875
   0.24686091  0.49068092  0.25272446
   0.50277103  0.49688303  0.00084340
   0.50265825  0.24801584  0.74158182
   0.99872282  0.50370503  0.50076736
   0.49392808  0.75741942  0.75513292
   0.98578790  0.23704525  0.25657491
   0.76366319  0.74468784  0.00988049
   0.00082701  0.26154530  0.75101389
   0.75214159  0.25302720  0.49014901
   0.00023020  0.74646075  0.74939250
   0.25314394  0.50144946  0.74466161
   0.25522966  0.26711755  0.98002006
   0.52817228  0.26369694  0.24891856
   0.74379914  0.98522984  0.27979442
   0.73403309  0.24307361  0.99069626
   0.22902155  0.72766543  0.00426588
   0.23439681  0.24022156  0.51556315
   0.24624050  0.76102863  0.49618232
   0.24155806  0.24849685  0.24671860
   0.26067586  0.00333367  0.98704419
   0.99738278  0.25535691  0.00376433
   0.74482985  0.23602973  0.24033786
   0.75146014  0.00372349  0.02057470
   0.51544641  0.99720039  0.23585095
   0.99346782  0.49471623  0.24399014
   0.49866002  0.76078259  0.00950067
   0.98790483  0.00354846  0.74353095
   0.75525665  0.24164912  0.75320672
   0.75105861  0.00095669  0.52041895
   0.49878407  0.23779799  0.48225235
   0.49289011  0.00221356  0.73671635
   0.99345807  0.00223690  0.25660447
   0.49391278  0.24607171  0.00654900
   0.25506625  0.74949450  0.24562225
   0.24445521  0.49713610  0.99584679
   0.00452815  0.74314903  0.00658417
   0.75289382  0.74539319  0.25220638
   0.75841994  0.48972453  0.00980638
   0.49867496  0.49554718  0.25396784
   0.24705471  0.24936228  0.74731322
   0.26780218  0.00303312  0.50096138
   0.00218066  0.24800346  0.50242736
   0.24208047  0.75697775  0.75448529
   0.25686141  0.49699598  0.50314261
   0.00191761  0.76013627  0.50188659
   0.00185247  0.50341582  0.75033709
   0.75035074  0.75339832  0.75133625
   0.74382058  0.49838954  0.50824502
   0.49110187  0.75190505  0.49809574
   0.50393479  0.50308386  0.74247621
   0.52135394  0.01328056  0.98547186
   0.99868530  0.49954012  0.98643476
   0.49374506  0.74019126  0.25623481
   0.23448952  0.00230640  0.73774454
   0.51218871  0.98565535  0.47483678
   0.73739127  0.98679347  0.77400148
   0.00771784  0.77289955  0.25924418
   0.73626125  0.49627376  0.26035124
   0.02307524  0.00226015  0.49929943
   0.50313965  0.52090500  0.49267049
   0.75397232  0.51681981  0.76380988
   0.74541029  0.74324765  0.48845924
HECN                                    
           1
     8.839098    0.016539    0.014033
     0.022612    8.834888    0.000227
     0.045848   -0.015010    8.841842
   Zr   Nb   V    N    C    W    Mo
   7   6   7  13  19   6   6
Direct configuration=     7
   0.00076737  0.00422689  0.99918732
   0.26014882  0.00725456  0.24223039
   0.24711797  0.49095427  0.25275335
   0.50279837  0.49685882  0.00088919
   0.50220937  0.24795470  0.74166102
   0.99860682  0.50362337  0.50077583
   0.49425981  0.75740712  0.75512135
   0.98545000  0.23722220  0.25663620
   0.76374496  0.74450262  0.00982620
   0.00096683  0.26165711  0.75104851
   0.75213079  0.25304879  0.49010825
   0.00011729  0.74635891  0.74961715
   0.25295851  0.50143639  0.74486415
   0.25501437  0.26771116  0.98022790
   0.52845466  0.26352077  0.24894946
   0.74395518  0.98544186  0.27951675
   0.73384623  0.24226961  0.98975679
   0.22929591  0.72768490  0.00395506
   0.23412838  0.24031421  0.51528056
   0.24577271  0.76143444  0.49693097
   0.24163552  0.24860053  0.24667812
   0.26051575  0.00302630  0.98697838
   0.99746298  0.25534233  0.00384970
   0.74472248  0.23632424  0.24025660
   0.75140710  0.00324822  0.02104783
   0.51518602  0.99731305  0.23587580
   0.99352174  0.49475091  0.24395608
   0.49850981  0.76060857  0.00945623
   0.98841748  0.00361320  0.74375119
   0.75510516  0.24174039  0.75307946
   0.75155371  0.00083838  0.52016914
   0.49867150  0.23756223  0.48235950
   0.49315264  0.00211899  0.73689184
   0.99340898  0.00212821  0.25664412
   0.49374367  0.24587967  0.00646245
   0.25521302  0.74963614  0.24573683
   0.24456456  0.49731869  0.99604940
   0.00445232  0.74320256  0.00669896
   0.75300502  0.74544900  0.25227143
   0.75842770  0.48939584  0.00970449
   0.49858686  0.49555914  0.25406932
   0.24684905  0.24929043  0.74725927
   0.26807102  0.00324409  0.50054048
   0.00211669  0.24796980  0.50237479
   0.24217151  0.75696419  0.75429998
   0.25683449  0.49688335  0.50317160
   0.00196892  0.76015044  0.50201036
   0.00179879  0.50345002  0.75043883
   0.75040757  0.75363111  0.75142521
   0.74370748  0.49856507  0.50801877
   0.49110507  0.75200214  0.49806127
   0.50388600  0.50297947  0.74236499
   0.52127571  0.01343871  0.98565834
   0.99877196  0.49946332  0.98635138
   0.49367719  0.74008751  0.25627288
   0.23472930  0.00231480  0.73735226
   0.51245111  0.98539383  0.47487746
   0.73745004  0.98701481  0.77430877
   0.00789174  0.77292461  0.25924896
   0.73633688  0.49636309  0.26039259
   0.02269088  0.00235061  0.49916609
   0.50312508  0.52093022  0.49288797
   0.75394428  0.51667851  0.76384733
   0.74573127  0.74337033  0.48834726
HECN                                    
           1
     8.833898    0.015402    0.014165
     0.021458    8.836789    0.000205
     0.045949   -0.015041    8.845524
   Zr   Nb   V    N    C    W    Mo
   7   6   7  13  19   6   6
Direct configuration=     8
   0.00096649  0.00421479  0.99921393
   0.25995048  0.00731024  0.24229471
   0.24719195  0.49120394  0.25294072
   0.50318591  0.49638852  0.00094354
   0.50151435  0.24803672  0.74161288
   0.99838862  0.50350076  0.50077766
   0.49466618  0.75701708  0.75509592
   0.98526440  0.23736839  0.25659856
   0.76387279  0.74428381  0.00975681
   0.00120636  0.26169487  0.75103444
   0.75197164  0.25286611  0.49015541
  -0.00000907  0.74614498  0.74991126
   0.25296884  0.50156355  0.74498221
   0.25429787  0.26848707  0.98079402
   0.52863501  0.26309519  0.24899000
   0.74380553  0.98558802  0.27913615
   0.73354816  0.24054934  0.98812817
   0.22944841  0.72791927  0.00321493
   0.23359388  0.24025665  0.51484385
   0.24515030  0.76236029  0.49830573
   0.24143113  0.24869923  0.24658745
   0.26028167  0.00254010  0.98671647
   0.99747809  0.25517541  0.00372705
   0.74448001  0.23673676  0.24030286
   0.75118895  0.00271543  0.02157666
   0.51497901  0.99738101  0.23588550
   0.99374068  0.49494366  0.24406033
   0.49843006  0.76035948  0.00937515
   0.98876713  0.00370466  0.74404264
   0.75478487  0.24186478  0.75262067
   0.75199705  0.00068926  0.52004164
   0.49876277  0.23730492  0.48226780
   0.49358194  0.00206521  0.73732225
   0.99324216  0.00250507  0.25656286
   0.49330694  0.24587960  0.00623841
   0.25541366  0.74997582  0.24602822
   0.24472762  0.49755205  0.99625386
   0.00447086  0.74315524  0.00673321
   0.75312475  0.74565070  0.25226114
   0.75853102  0.48868233  0.00937594
   0.49893036  0.49550593  0.25430598
   0.24650992  0.24922532  0.74748996
   0.26852540  0.00337548  0.50026130
   0.00191093  0.24800176  0.50250827
   0.24243314  0.75699635  0.75401853
   0.25687521  0.49683097  0.50330711
   0.00197921  0.76021977  0.50211141
   0.00186044  0.50353032  0.75035818
   0.75053915  0.75375361  0.75162023
   0.74359429  0.49871698  0.50789706
   0.49094002  0.75186167  0.49798609
   0.50361655  0.50298491  0.74247007
   0.52149858  0.01349733  0.98597091
   0.99873153  0.49946272  0.98670317
   0.49334272  0.74010359  0.25605942
   0.23476966  0.00219166  0.73653161
   0.51365217  0.98526821  0.47476684
   0.73779151  0.98747376  0.77470550
   0.00823402  0.77261478  0.25934083
   0.73613612  0.49665662  0.26034506
   0.02263925  0.00249315  0.49917393
   0.50320279  0.52133988  0.49311858
   0.75382516  0.51673410  0.76381060
   0.74612376  0.74373060  0.48842851
HECN                                    
           1
     8.830989    0.014766    0.014239
     0.020813    8.837852    0.000193
     0.046005   -0.015059    8.847583
   Zr   Nb   V    N    C    W    Mo
   7   6   7  13  19   6   6
Direct configuration=     9
   0.00107791  0.00420803  0.99922880
   0.25983950  0.00734136  0.24233067
   0.24723337  0.49134354  0.25304546
   0.50340274  0.49612558  0.00097392
   0.50112543  0.24808252  0.74158598
   0.99826651  0.50343218  0.50077868
   0.49489355  0.75679902  0.75508169
   0.98516055  0.23745011  0.25657752
   0.76394430  0.74416147  0.00971801
   0.00134040  0.26171600  0.75102657
   0.75188257  0.25276396  0.49018177
  -0.00007980  0.74602536  0.75007568
   0.25297463  0.50163464  0.74504820
   0.25389697  0.26892085  0.98111050
   0.52873590  0.26285725  0.24901266
   0.74372180  0.98566974  0.27892339
   0.73338124  0.23958744  0.98721772
   0.22953377  0.72805032  0.00280118
   0.23329478  0.24022442  0.51459973
   0.24480206  0.76287793  0.49907426
   0.24131677  0.24875440  0.24653677
   0.26015064  0.00226823  0.98657005
   0.99748654  0.25508208  0.00365848
   0.74434435  0.23696740  0.24032873
   0.75106684  0.00241751  0.02187229
   0.51486318  0.99741899  0.23589092
   0.99386321  0.49505145  0.24411861
   0.49838542  0.76022020  0.00932983
   0.98896279  0.00375583  0.74420556
   0.75460565  0.24193431  0.75236420
   0.75224512  0.00060591  0.51997036
   0.49881383  0.23716106  0.48221653
   0.49382217  0.00203518  0.73756285
   0.99314883  0.00271577  0.25651744
   0.49306255  0.24587952  0.00611316
   0.25552596  0.75016577  0.24619111
   0.24481889  0.49768255  0.99636815
   0.00448124  0.74312879  0.00675235
   0.75319177  0.74576349  0.25225538
   0.75858878  0.48828339  0.00919227
   0.49912258  0.49547620  0.25443828
   0.24632015  0.24918889  0.74761892
   0.26877967  0.00344897  0.50010523
   0.00179579  0.24801962  0.50258290
   0.24257955  0.75701434  0.75386119
   0.25689800  0.49680168  0.50338285
   0.00198498  0.76025854  0.50216790
   0.00189495  0.50357522  0.75031310
   0.75061279  0.75382211  0.75172925
   0.74353096  0.49880191  0.50782902
   0.49084765  0.75178312  0.49794407
   0.50346577  0.50298793  0.74252882
   0.52162331  0.01353012  0.98614564
   0.99870891  0.49946238  0.98689983
   0.49315555  0.74011256  0.25594010
   0.23479223  0.00212280  0.73607285
   0.51432426  0.98519806  0.47470499
   0.73798262  0.98773041  0.77492729
   0.00842553  0.77244156  0.25939218
   0.73602379  0.49682073  0.26031849
   0.02261038  0.00257284  0.49917831
   0.50324629  0.52156894  0.49324750
   0.75375851  0.51676517  0.76379007
   0.74634341  0.74393208  0.48847392
HECN                                    
           1
     8.838017    0.014543    0.013957
     0.020608    8.836845    0.000131
     0.045768   -0.015120    8.842813
   Zr   Nb   V    N    C    W    Mo
   7   6   7  13  19   6   6
Direct configuration=    10
   0.00151331  0.00414756  0.99945288
   0.25988796  0.00757304  0.24255989
   0.24734844  0.49147721  0.25337324
   0.50381531  0.49572795  0.00122840
   0.50052190  0.24820072  0.74115780
   0.99830138  0.50359716  0.50076928
   0.49504852  0.75661735  0.75504734
   0.98516326  0.23764165  0.25648179
   0.76390342  0.74393288  0.01008550
   0.00131705  0.26186113  0.75114694
   0.75151637  0.25250059  0.49026864
  -0.00011934  0.74581456  0.75000890
   0.25313831  0.50176831  0.74494424
   0.25280687  0.26961507  0.98176108
   0.52826513  0.26230119  0.24899470
   0.74360089  0.98542930  0.27861885
   0.73321314  0.23759735  0.98568332
   0.22973381  0.72828636  0.00185278
   0.23312188  0.23986562  0.51431603
   0.24438039  0.76387652  0.50053541
   0.24075208  0.24894550  0.24648027
   0.25995608  0.00179382  0.98640085
   0.99731755  0.25486207  0.00337567
   0.74446584  0.23733710  0.24030728
   0.75128574  0.00196707  0.02231077
   0.51471763  0.99735828  0.23596688
   0.99413602  0.49548357  0.24432455
   0.49854892  0.76003227  0.00922444
   0.98884375  0.00376842  0.74426843
   0.75418336  0.24192287  0.75179406
   0.75272978  0.00054416  0.52046422
   0.49906643  0.23696800  0.48199760
   0.49420301  0.00197091  0.73822647
   0.99301120  0.00266582  0.25653188
   0.49256779  0.24565669  0.00568610
   0.25553250  0.75032133  0.24646109
   0.24494339  0.49787893  0.99644572
   0.00471463  0.74310308  0.00671525
   0.75320687  0.74599581  0.25216521
   0.75874056  0.48755353  0.00893346
   0.49931939  0.49533700  0.25460709
   0.24603153  0.24907755  0.74800066
   0.26926102  0.00365868  0.50010412
   0.00154689  0.24817306  0.50271370
   0.24276232  0.75706017  0.75370777
   0.25683930  0.49671639  0.50362169
   0.00193723  0.76034439  0.50232065
   0.00184108  0.50345279  0.75054929
   0.75084222  0.75382000  0.75185179
   0.74351873  0.49868610  0.50795049
   0.49075460  0.75196619  0.49775913
   0.50336391  0.50297515  0.74286216
   0.52129441  0.01371360  0.98639288
   0.99865082  0.49943280  0.98689008
   0.49254788  0.74040839  0.25568457
   0.23478661  0.00201510  0.73536426
   0.51548975  0.98504691  0.47409798
   0.73866567  0.98826859  0.77496809
   0.00880099  0.77262304  0.25956403
   0.73621098  0.49726709  0.26022729
   0.02272238  0.00254767  0.49906424
   0.50315388  0.52215374  0.49328073
   0.75360985  0.51693148  0.76355793
   0.74664776  0.74436313  0.48849229
HECN                                    
           1
     8.839161    0.014507    0.013911
     0.020575    8.836681    0.000121
     0.045729   -0.015130    8.842036
   Zr   Nb   V    N    C    W    Mo
   7   6   7  13  19   6   6
Direct configuration=    11
   0.00158413  0.00413772  0.99948938
   0.25989584  0.00761076  0.24259722
   0.24736716  0.49149898  0.25342663
   0.50388241  0.49566322  0.00126985
   0.50042374  0.24821996  0.74108806
   0.99830705  0.50362402  0.50076775
   0.49507373  0.75658777  0.75504174
   0.98516370  0.23767283  0.25646620
   0.76389677  0.74389567  0.01014535
   0.00131326  0.26188476  0.75116654
   0.75145681  0.25245771  0.49028278
  -0.00012577  0.74578024  0.74999803
   0.25316493  0.50179007  0.74492731
   0.25262958  0.26972808  0.98186703
   0.52818855  0.26221067  0.24899177
   0.74358122  0.98539016  0.27856925
   0.73318579  0.23727337  0.98543342
   0.22976635  0.72832479  0.00169832
   0.23309376  0.23980721  0.51426982
   0.24431181  0.76403909  0.50077338
   0.24066024  0.24897661  0.24647106
   0.25992444  0.00171659  0.98637329
   0.99729007  0.25482625  0.00332961
   0.74448560  0.23739728  0.24030379
   0.75132135  0.00189375  0.02238219
   0.51469396  0.99734839  0.23597925
   0.99418039  0.49555391  0.24435809
   0.49857551  0.76000168  0.00920728
   0.98882439  0.00377048  0.74427867
   0.75411468  0.24192100  0.75170120
   0.75280861  0.00053411  0.52054465
   0.49910752  0.23693657  0.48196194
   0.49426496  0.00196044  0.73833455
   0.99298881  0.00265769  0.25653423
   0.49248731  0.24562041  0.00561655
   0.25553356  0.75034666  0.24650505
   0.24496364  0.49791090  0.99645835
   0.00475259  0.74309889  0.00670921
   0.75320933  0.74603363  0.25215052
   0.75876524  0.48743472  0.00889131
   0.49935140  0.49531434  0.25463459
   0.24598459  0.24905942  0.74806283
   0.26933931  0.00369282  0.50010394
   0.00150641  0.24819803  0.50273501
   0.24279205  0.75706763  0.75368278
   0.25682976  0.49670251  0.50366059
   0.00192947  0.76035836  0.50234552
   0.00183232  0.50343286  0.75058775
   0.75087954  0.75381966  0.75187175
   0.74351674  0.49866724  0.50797028
   0.49073946  0.75199600  0.49772901
   0.50334735  0.50297307  0.74291645
   0.52124092  0.01374347  0.98643315
   0.99864138  0.49942798  0.98688850
   0.49244904  0.74045654  0.25564295
   0.23478569  0.00199757  0.73524886
   0.51567931  0.98502231  0.47399913
   0.73877676  0.98835620  0.77497475
   0.00886205  0.77265258  0.25959202
   0.73624143  0.49733975  0.26021244
   0.02274060  0.00254357  0.49904566
   0.50313885  0.52224894  0.49328614
   0.75358567  0.51695855  0.76352012
   0.74669727  0.74443330  0.48849529
HECN                                    
           1
     8.835817    0.014322    0.014078
     0.020379    8.838502    0.000388
     0.045879   -0.014867    8.841841
   Zr   Nb   V    N    C    W    Mo
   7   6   7  13  19   6   6
Direct configuration=    12
   0.00182426  0.00390712  0.99961063
   0.25983531  0.00765482  0.24276078
   0.24760433  0.49171272  0.25355363