  64  64   0   0
  0.1062920E+02  0.8826888E-09  0.8809862E-09  0.8747987E-09  0.5000000E-15
  1.000000000000000E-004
  CAR 
 HECN                                    
     13.92070558    -60.32714324  301      8.01559001      1.00000000
    -60.327  0.0000E+00  0.0000E+00
    -60.080  0.0000E+00  0.0000E+00
    -59.832  0.0000E+00  0.0000E+00
    -59.585  0.0000E+00  0.0000E+00
    -59.337  0.0000E+00  0.0000E+00
    -59.090  0.0000E+00  0.0000E+00
    -58.842  0.0000E+00  0.0000E+00
    -58.595  0.0000E+00  0.0000E+00
    -58.347  0.0000E+00  0.0000E+00
    -58.100  0.0000E+00  0.0000E+00
    -57.852  0.0000E+00  0.0000E+00
    -57.605  0.0000E+00  0.0000E+00
    -57.357  0.4382E-09  0.1085E-09
    -57.110  0.1474E-02  0.3647E-03
    -56.862  0.3015E+00  0.7499E-01
    -56.615  0.1817E+00  0.1200E+00
    -56.367  0.1228E-03  0.1200E+00
    -56.120  0.2399E-11  0.1200E+00
    -55.872  0.0000E+00  0.1200E+00
    -55.625  0.0000E+00  0.1200E+00
    -55.377  0.0000E+00  0.1200E+00
    -55.130  0.0000E+00  0.1200E+00
    -54.882  0.0000E+00  0.1200E+00
    -54.635  0.0000E+00  0.1200E+00
    -54.387  0.0000E+00  0.1200E+00
    -54.140  0.0000E+00  0.1200E+00
    -53.892  0.0000E+00  0.1200E+00
    -53.645  0.0000E+00  0.1200E+00
    -53.397  0.0000E+00  0.1200E+00
    -53.150  0.0000E+00  0.1200E+00
    -52.902  0.0000E+00  0.1200E+00
    -52.655  0.0000E+00  0.1200E+00
    -52.407  0.0000E+00  0.1200E+00
    -52.160  0.0000E+00  0.1200E+00
    -51.912  0.0000E+00  0.1200E+00
    -51.665  0.0000E+00  0.1200E+00
    -51.417  0.0000E+00  0.1200E+00
    -51.170  0.0000E+00  0.1200E+00
    -50.922  0.0000E+00  0.1200E+00
    -50.675  0.0000E+00  0.1200E+00
    -50.427  0.0000E+00  0.1200E+00
    -50.180  0.2824E-11  0.1200E+00
    -49.932  0.1019E-03  0.1200E+00
    -49.685  0.6284E-01  0.1356E+00
    -49.437  0.2911E+00  0.2076E+00
    -49.190  0.1615E+00  0.2476E+00
    -48.942  0.5004E-01  0.2600E+00
    -48.695  0.5483E-04  0.2600E+00
    -48.447  0.8210E-12  0.2600E+00
    -48.200  0.0000E+00  0.2600E+00
    -47.953  0.0000E+00  0.2600E+00
    -47.705  0.0000E+00  0.2600E+00
    -47.458  0.0000E+00  0.2600E+00
    -47.210  0.0000E+00  0.2600E+00
    -46.963  0.0000E+00  0.2600E+00
    -46.715  0.0000E+00  0.2600E+00
    -46.468  0.0000E+00  0.2600E+00
    -46.220  0.0000E+00  0.2600E+00
    -45.973  0.0000E+00  0.2600E+00
    -45.725  0.0000E+00  0.2600E+00
    -45.478  0.0000E+00  0.2600E+00
    -45.230  0.0000E+00  0.2600E+00
    -44.983  0.0000E+00  0.2600E+00
    -44.735  0.0000E+00  0.2600E+00
    -44.488  0.0000E+00  0.2600E+00
    -44.240  0.0000E+00  0.2600E+00
    -43.993  0.0000E+00  0.2600E+00
    -43.745  0.0000E+00  0.2600E+00
    -43.498  0.0000E+00  0.2600E+00
    -43.250  0.0000E+00  0.2600E+00
    -43.003  0.0000E+00  0.2600E+00
    -42.755  0.0000E+00  0.2600E+00
    -42.508  0.0000E+00  0.2600E+00
    -42.260  0.0000E+00  0.2600E+00
    -42.013  0.0000E+00  0.2600E+00
    -41.765  0.3575E-13  0.2600E+00
    -41.518  0.1071E-04  0.2600E+00
    -41.270  0.3567E-01  0.2688E+00
    -41.023  0.7513E-01  0.2874E+00
    -40.775  0.2293E+00  0.3442E+00
    -40.528  0.1452E+00  0.3801E+00
    -40.280  0.7760E-01  0.3993E+00
    -40.033  0.2808E-02  0.4000E+00
    -39.785  0.4304E-08  0.4000E+00
    -39.538  0.0000E+00  0.4000E+00
    -39.290  0.0000E+00  0.4000E+00
    -39.043  0.0000E+00  0.4000E+00
    -38.795  0.0000E+00  0.4000E+00
    -38.548  0.0000E+00  0.4000E+00
    -38.300  0.0000E+00  0.4000E+00
    -38.053  0.0000E+00  0.4000E+00
    -37.805  0.0000E+00  0.4000E+00
    -37.558  0.0000E+00  0.4000E+00
    -37.310  0.0000E+00  0.4000E+00
    -37.063  0.0000E+00  0.4000E+00
    -36.815  0.0000E+00  0.4000E+00
    -36.568  0.0000E+00  0.4000E+00
    -36.320  0.0000E+00  0.4000E+00
    -36.073  0.0000E+00  0.4000E+00
    -35.825  0.0000E+00  0.4000E+00
    -35.578  0.0000E+00  0.4000E+00
    -35.330  0.0000E+00  0.4000E+00
    -35.083  0.0000E+00  0.4000E+00
    -34.835  0.0000E+00  0.4000E+00
    -34.588  0.0000E+00  0.4000E+00
    -34.340  0.0000E+00  0.4000E+00
    -34.093  0.0000E+00  0.4000E+00
    -33.845  0.0000E+00  0.4000E+00
    -33.598  0.0000E+00  0.4000E+00
    -33.350  0.0000E+00  0.4000E+00
    -33.103  0.0000E+00  0.4000E+00
    -32.855  0.0000E+00  0.4000E+00
    -32.608  0.0000E+00  0.4000E+00
    -32.360  0.0000E+00  0.4000E+00
    -32.113  0.3330E-07  0.4000E+00
    -31.865  0.6326E-02  0.4016E+00
    -31.618  0.1678E+00  0.4431E+00
    -31.370  0.4758E+00  0.5608E+00
    -31.123  0.7166E+00  0.7382E+00
    -30.875  0.6180E+00  0.8911E+00
    -30.628  0.9086E+00  0.1116E+01
    -30.381  0.1611E-01  0.1120E+01
    -30.133  0.3137E-07  0.1120E+01
    -29.886  0.0000E+00  0.1120E+01
    -29.638  0.0000E+00  0.1120E+01
    -29.391  0.0000E+00  0.1120E+01
    -29.143  0.0000E+00  0.1120E+01
    -28.896  0.0000E+00  0.1120E+01
    -28.648  0.0000E+00  0.1120E+01
    -28.401  0.0000E+00  0.1120E+01
    -28.153  0.0000E+00  0.1120E+01
    -27.906  0.0000E+00  0.1120E+01
    -27.658  0.0000E+00  0.1120E+01
    -27.411  0.0000E+00  0.1120E+01
    -27.163  0.0000E+00  0.1120E+01
    -26.916  0.0000E+00  0.1120E+01
    -26.668  0.2108E-13  0.1120E+01
    -26.421  0.8633E-05  0.1120E+01
    -26.173  0.5373E-01  0.1133E+01
    -25.926  0.5480E+00  0.1269E+01
    -25.678  0.8234E+00  0.1473E+01
    -25.431  0.2602E+00  0.1537E+01
    -25.183  0.1170E-01  0.1540E+01
    -24.936  0.5730E-07  0.1540E+01
    -24.688  0.0000E+00  0.1540E+01
    -24.441  0.0000E+00  0.1540E+01
    -24.193  0.0000E+00  0.1540E+01
    -23.946  0.0000E+00  0.1540E+01
    -23.698  0.0000E+00  0.1540E+01
    -23.451  0.0000E+00  0.1540E+01
    -23.203  0.0000E+00  0.1540E+01
    -22.956  0.0000E+00  0.1540E+01
    -22.708  0.0000E+00  0.1540E+01
    -22.461  0.0000E+00  0.1540E+01
    -22.213  0.0000E+00  0.1540E+01
    -21.966  0.0000E+00  0.1540E+01
    -21.718  0.0000E+00  0.1540E+01
    -21.471  0.0000E+00  0.1540E+01
    -21.223  0.0000E+00  0.1540E+01
    -20.976  0.0000E+00  0.1540E+01
    -20.728  0.0000E+00  0.1540E+01
    -20.481  0.0000E+00  0.1540E+01
    -20.233  0.5207E-14  0.1540E+01
    -19.986  0.3948E-05  0.1540E+01
    -19.738  0.4371E-01  0.1551E+01
    -19.491  0.2580E+00  0.1615E+01
    -19.243  0.3981E+00  0.1713E+01
    -18.996  0.5287E+00  0.1844E+01
    -18.748  0.2868E+00  0.1915E+01
    -18.501  0.1773E+00  0.1959E+01
    -18.253  0.4421E-02  0.1960E+01
    -18.006  0.7273E-08  0.1960E+01
    -17.758  0.0000E+00  0.1960E+01
    -17.511  0.0000E+00  0.1960E+01
    -17.263  0.0000E+00  0.1960E+01
    -17.016  0.0000E+00  0.1960E+01
    -16.768  0.0000E+00  0.1960E+01
    -16.521  0.0000E+00  0.1960E+01
    -16.273  0.0000E+00  0.1960E+01
    -16.026  0.0000E+00  0.1960E+01
    -15.778  0.0000E+00  0.1960E+01
    -15.531  0.0000E+00  0.1960E+01
    -15.283  0.0000E+00  0.1960E+01
    -15.036  0.0000E+00  0.1960E+01
    -14.788  0.0000E+00  0.1960E+01
    -14.541  0.0000E+00  0.1960E+01
    -14.293  0.0000E+00  0.1960E+01
    -14.046  0.0000E+00  0.1960E+01
    -13.798  0.0000E+00  0.1960E+01
    -13.551  0.0000E+00  0.1960E+01
    -13.304  0.0000E+00  0.1960E+01
    -13.056  0.0000E+00  0.1960E+01
    -12.809  0.0000E+00  0.1960E+01
    -12.561  0.0000E+00  0.1960E+01
    -12.314  0.0000E+00  0.1960E+01
    -12.066  0.0000E+00  0.1960E+01
    -11.819  0.0000E+00  0.1960E+01
    -11.571  0.0000E+00  0.1960E+01
    -11.324  0.0000E+00  0.1960E+01
    -11.076  0.0000E+00  0.1960E+01
    -10.829  0.0000E+00  0.1960E+01
    -10.581  0.0000E+00  0.1960E+01
    -10.334  0.0000E+00  0.1960E+01
    -10.086  0.0000E+00  0.1960E+01
     -9.839  0.0000E+00  0.1960E+01
     -9.591  0.0000E+00  0.1960E+01
     -9.344  0.0000E+00  0.1960E+01
     -9.096  0.4602E-16  0.1960E+01
     -8.849  0.1152E-06  0.1960E+01
     -8.601  0.6021E-02  0.1961E+01
     -8.354  0.7210E-01  0.1979E+01
     -8.106  0.2692E-02  0.1980E+01
     -7.859  0.2335E-02  0.1981E+01
     -7.611  0.6626E-01  0.1997E+01
     -7.364  0.9209E-01  0.2020E+01
     -7.116  0.1922E+00  0.2067E+01
     -6.869  0.1966E+00  0.2116E+01
     -6.621  0.2590E+00  0.2180E+01
     -6.374  0.1120E+00  0.2208E+01
     -6.126  0.4167E-01  0.2218E+01
     -5.879  0.7544E-02  0.2220E+01
     -5.631  0.3231E-05  0.2220E+01
     -5.384  0.5413E-07  0.2220E+01
     -5.136  0.3033E-02  0.2221E+01
     -4.889  0.6706E-01  0.2237E+01
     -4.641  0.2279E-01  0.2243E+01
     -4.394  0.1111E+00  0.2270E+01
     -4.146  0.1249E+00  0.2301E+01
     -3.899  0.1671E+00  0.2343E+01
     -3.651  0.2110E+00  0.2395E+01
     -3.404  0.1741E+00  0.2438E+01
     -3.156  0.1731E+00  0.2481E+01
     -2.909  0.1827E+00  0.2526E+01
     -2.661  0.1563E+00  0.2565E+01
     -2.414  0.1038E+00  0.2590E+01
     -2.166  0.3687E-01  0.2600E+01
     -1.919  0.1624E-02  0.2600E+01
     -1.671  0.2394E-06  0.2600E+01
     -1.424  0.5121E-15  0.2600E+01
     -1.176  0.0000E+00  0.2600E+01
     -0.929  0.0000E+00  0.2600E+01
     -0.681  0.5715E-13  0.2600E+01
     -0.434  0.2841E-05  0.2600E+01
     -0.186  0.2744E-02  0.2601E+01
      0.061  0.1771E-01  0.2605E+01
      0.309  0.7225E-01  0.2623E+01
      0.556  0.1113E+00  0.2650E+01
      0.804  0.1327E+00  0.2683E+01
      1.051  0.1713E+00  0.2726E+01
      1.299  0.2072E+00  0.2777E+01
      1.546  0.2727E+00  0.2845E+01
      1.794  0.2590E+00  0.2909E+01
      2.041  0.3360E+00  0.2992E+01
      2.289  0.3703E+00  0.3083E+01
      2.536  0.3860E+00  0.3179E+01
      2.784  0.4995E+00  0.3303E+01
      3.031  0.6148E+00  0.3455E+01
      3.279  0.6295E+00  0.3611E+01
      3.526  0.6167E+00  0.3763E+01
      3.773  0.6040E+00  0.3913E+01
      4.021  0.5670E+00  0.4053E+01
      4.268  0.4400E+00  0.4162E+01
      4.516  0.3801E+00  0.4256E+01
      4.763  0.3270E+00  0.4337E+01
      5.011  0.2590E+00  0.4401E+01
      5.258  0.2032E+00  0.4451E+01
      5.506  0.1827E+00  0.4496E+01
      5.753  0.9177E-01  0.4519E+01
      6.001  0.1146E+00  0.4548E+01
      6.248  0.1764E+00  0.4591E+01
      6.496  0.1768E+00  0.4635E+01
      6.743  0.1390E+00  0.4669E+01
      6.991  0.2023E+00  0.4719E+01
      7.238  0.2134E+00  0.4772E+01
      7.486  0.2125E+00  0.4825E+01
      7.733  0.2353E+00  0.4883E+01
      7.981  0.2307E+00  0.4940E+01
      8.228  0.2815E+00  0.5010E+01
      8.476  0.3477E+00  0.5096E+01
      8.723  0.4655E+00  0.5211E+01
      8.971  0.5314E+00  0.5343E+01
      9.218  0.5329E+00  0.5474E+01
      9.466  0.5633E+00  0.5614E+01
      9.713  0.5737E+00  0.5756E+01
      9.961  0.5713E+00  0.5897E+01
     10.208  0.5636E+00  0.6037E+01
     10.456  0.4259E+00  0.6142E+01
     10.703  0.7177E-01  0.6160E+01
     10.951  0.2334E-03  0.6160E+01
     11.198  0.5228E-10  0.6160E+01
     11.446  0.0000E+00  0.6160E+01
     11.693  0.0000E+00  0.6160E+01
     11.941  0.0000E+00  0.6160E+01
     12.188  0.0000E+00  0.6160E+01
     12.436  0.0000E+00  0.6160E+01
     12.683  0.0000E+00  0.6160E+01
     12.931  0.0000E+00  0.6160E+01
     13.178  0.0000E+00  0.6160E+01
     13.426  0.0000E+00  0.6160E+01
     13.673  0.0000E+00  0.6160E+01
     13.921  0.0000E+00  0.6160E+01
