       N       E                     dE             d eps       ncg     rms          rms(c)
DAV:   1     0.450602110026E+04    0.45060E+04   -0.23236E+05  8624   0.145E+03
DAV:   2    -0.188918571209E+03   -0.46949E+04   -0.44839E+04  9800   0.551E+02
DAV:   3    -0.753225997238E+03   -0.56431E+03   -0.55391E+03 13720   0.159E+02
DAV:   4    -0.787290848992E+03   -0.34065E+02   -0.33737E+02 14420   0.396E+01
DAV:   5    -0.790594040701E+03   -0.33032E+01   -0.32914E+01 14924   0.106E+01    0.551E+01
RMM:   6    -0.666754616741E+03    0.12384E+03   -0.55878E+02 12037   0.333E+01    0.134E+01
RMM:   7    -0.672284751257E+03   -0.55301E+01   -0.11622E+02 13748   0.186E+01    0.933E+00
RMM:   8    -0.674190959693E+03   -0.19062E+01   -0.32893E+01 14232   0.864E+00    0.734E+00
RMM:   9    -0.673893073764E+03    0.29789E+00   -0.82317E+00 13294   0.556E+00    0.275E+00
RMM:  10    -0.674304261252E+03   -0.41119E+00   -0.47568E+00 14518   0.294E+00    0.152E+00
RMM:  11    -0.674503695881E+03   -0.19943E+00   -0.29022E+00 14567   0.221E+00    0.961E-01
RMM:  12    -0.674663689921E+03   -0.15999E+00   -0.16864E+00 15078   0.172E+00    0.113E+00
RMM:  13    -0.674710441367E+03   -0.46751E-01   -0.82195E-01 14249   0.138E+00    0.613E-01
RMM:  14    -0.674770004708E+03   -0.59563E-01   -0.71171E-01 14633   0.109E+00    0.224E-01
RMM:  15    -0.674808372262E+03   -0.38368E-01   -0.40754E-01 15744   0.862E-01    0.200E-01
RMM:  16    -0.674839445124E+03   -0.31073E-01   -0.32157E-01 15544   0.720E-01    0.120E-01
RMM:  17    -0.674860220024E+03   -0.20775E-01   -0.22278E-01 15465   0.630E-01    0.107E-01
RMM:  18    -0.674876787564E+03   -0.16568E-01   -0.17300E-01 15690   0.541E-01    0.310E-02
RMM:  19    -0.674888659100E+03   -0.11872E-01   -0.12426E-01 15791   0.476E-01    0.821E-02
RMM:  20    -0.674898070653E+03   -0.94116E-02   -0.98423E-02 15676   0.418E-01    0.364E-02
RMM:  21    -0.674904879983E+03   -0.68093E-02   -0.71004E-02 15652   0.371E-01    0.327E-02
RMM:  22    -0.674910611009E+03   -0.57310E-02   -0.59978E-02 15425   0.335E-01    0.183E-01
RMM:  23    -0.674914787205E+03   -0.41762E-02   -0.44019E-02 15151   0.300E-01    0.246E-01
RMM:  24    -0.674918416653E+03   -0.36294E-02   -0.37077E-02 15297   0.270E-01    0.351E-01
RMM:  25    -0.674920973758E+03   -0.25571E-02   -0.27330E-02 15101   0.244E-01    0.388E-01
RMM:  26    -0.674923144345E+03   -0.21706E-02   -0.22591E-02 15084   0.218E-01    0.441E-01
RMM:  27    -0.674924744961E+03   -0.16006E-02   -0.17204E-02 15091   0.199E-01    0.489E-01
RMM:  28    -0.674926215709E+03   -0.14707E-02   -0.14629E-02 15086   0.180E-01    0.541E-01
RMM:  29    -0.674927353602E+03   -0.11379E-02   -0.11008E-02 15088   0.166E-01    0.594E-01
RMM:  30    -0.674927913725E+03   -0.56012E-03   -0.88474E-03 15026   0.147E-01    0.562E-01
RMM:  31    -0.674928391135E+03   -0.47741E-03   -0.68770E-03 14983   0.134E-01    0.548E-01
RMM:  32    -0.674928992766E+03   -0.60163E-03   -0.55945E-03 14874   0.122E-01    0.581E-01
RMM:  33    -0.674929318894E+03   -0.32613E-03   -0.44000E-03 14774   0.111E-01    0.586E-01
RMM:  34    -0.674929622895E+03   -0.30400E-03   -0.36266E-03 14642   0.102E-01    0.592E-01
RMM:  35    -0.674929902600E+03   -0.27970E-03   -0.29200E-03 14589   0.943E-02    0.610E-01
RMM:  36    -0.674930076201E+03   -0.17360E-03   -0.23992E-03 14491   0.865E-02    0.611E-01
RMM:  37    -0.674930255916E+03   -0.17972E-03   -0.19685E-03 14306   0.803E-02    0.624E-01
RMM:  38    -0.674930376864E+03   -0.12095E-03   -0.16235E-03 14099   0.743E-02    0.626E-01
RMM:  39    -0.674930487648E+03   -0.11078E-03   -0.13609E-03 13930   0.694E-02    0.635E-01
RMM:  40    -0.674930510678E+03   -0.23029E-04   -0.10885E-03 13732   0.646E-02    0.629E-01
RMM:  41    -0.674930471885E+03    0.38793E-04   -0.11152E-03 13506   0.608E-02    0.611E-01
RMM:  42    -0.674930453503E+03    0.18382E-04   -0.74119E-04 13457   0.574E-02    0.595E-01
RMM:  43    -0.674930525149E+03   -0.71646E-04   -0.72793E-04 13193   0.529E-02    0.604E-01
RMM:  44    -0.674930577034E+03   -0.51884E-04   -0.52488E-04 12831   0.491E-02    0.607E-01
RMM:  45    -0.674930613117E+03   -0.36084E-04   -0.51698E-04 12537   0.464E-02    0.611E-01
RMM:  46    -0.674930620454E+03   -0.73365E-05   -0.38431E-04 12176   0.436E-02    0.607E-01
RMM:  47    -0.674930644872E+03   -0.24418E-04   -0.43141E-04 11929   0.419E-02    0.607E-01
RMM:  48    -0.674930671703E+03   -0.26831E-04   -0.27542E-04 11599   0.400E-02    0.607E-01
RMM:  49    -0.674930697035E+03   -0.25331E-04   -0.32403E-04 11286   0.378E-02    0.610E-01
RMM:  50    -0.674930672677E+03    0.24358E-04   -0.22111E-04 11028   0.365E-02    0.601E-01
RMM:  51    -0.674930381515E+03    0.29116E-03   -0.40877E-04 12824   0.416E-02    0.535E-01
RMM:  52    -0.674930356665E+03    0.24849E-04   -0.20084E-04 11041   0.374E-02    0.520E-01
RMM:  53    -0.674930323235E+03    0.33430E-04   -0.20818E-04  9814   0.338E-02    0.507E-01
RMM:  54    -0.674930284590E+03    0.38645E-04   -0.16867E-04  9283   0.325E-02    0.488E-01
RMM:  55    -0.674930276965E+03    0.76246E-05   -0.15284E-04  8620   0.319E-02    0.483E-01
RMM:  56    -0.674930175655E+03    0.10131E-03   -0.14491E-04 10658   0.333E-02    0.449E-01
RMM:  57    -0.674930183416E+03   -0.77610E-05   -0.16630E-04  8455   0.309E-02    0.447E-01
RMM:  58    -0.674930203179E+03   -0.19764E-04   -0.10710E-04  7728   0.276E-02    0.448E-01
RMM:  59    -0.674930189856E+03    0.13324E-04   -0.13812E-04  7663   0.268E-02    0.443E-01
RMM:  60    -0.674930201731E+03   -0.11875E-04   -0.89645E-05  7397   0.271E-02
   1 F= -.67493020E+03 E0= -.67488078E+03  d E =-.674930E+03
       N       E                     dE             d eps       ncg     rms          rms(c)
DAV:   1    -0.674927037819E+03    0.31520E-02   -0.17295E-01 12068   0.116E+00    0.443E-01
RMM:   2    -0.674928447006E+03   -0.14092E-02   -0.19445E-02 13386   0.359E-01    0.255E-01
RMM:   3    -0.674929103680E+03   -0.65667E-03   -0.48593E-03 13658   0.181E-01    0.101E-01
RMM:   4    -0.674929148691E+03   -0.45011E-04   -0.10476E-03 14003   0.803E-02    0.353E-02
RMM:   5    -0.674929169989E+03   -0.21298E-04   -0.35213E-04 13800   0.458E-02    0.192E-02
RMM:   6    -0.674929179554E+03   -0.95650E-05   -0.19221E-04 12159   0.282E-02    0.853E-03
RMM:   7    -0.674929188740E+03   -0.91864E-05   -0.11608E-04 10589   0.236E-02    0.597E-03
RMM:   8    -0.674929193995E+03   -0.52548E-05   -0.71206E-05  9635   0.213E-02
   2 F= -.67492919E+03 E0= -.67488001E+03  d E =0.100774E-02
       N       E                     dE             d eps       ncg     rms          rms(c)
DAV:   1    -0.674929936268E+03   -0.74753E-03   -0.63245E-02 11648   0.691E-01    0.125E-01
RMM:   2    -0.674929924416E+03    0.11852E-04   -0.57129E-03 13216   0.206E-01    0.647E-02
RMM:   3    -0.674929911398E+03    0.13018E-04   -0.12995E-03 13344   0.910E-02    0.407E-02
RMM:   4    -0.674929876146E+03    0.35251E-04   -0.27831E-04 12580   0.410E-02    0.181E-02
RMM:   5    -0.674929872673E+03    0.34735E-05   -0.99898E-05  9975   0.267E-02
   3 F= -.67492987E+03 E0= -.67488056E+03  d E =0.329058E-03
       N       E                     dE             d eps       ncg     rms          rms(c)
DAV:   1    -0.674929935787E+03   -0.59640E-04   -0.33784E-03 12180   0.159E-01    0.296E-02
RMM:   2    -0.674929939280E+03   -0.34929E-05   -0.34891E-04 11935   0.481E-02    0.161E-02
RMM:   3    -0.674929934744E+03    0.45362E-05   -0.76075E-05  7575   0.258E-02
   4 F= -.67492993E+03 E0= -.67488060E+03  d E =0.266988E-03
       N       E                     dE             d eps       ncg     rms          rms(c)
DAV:   1    -0.674929963908E+03   -0.24629E-04   -0.29844E-03 11956   0.150E-01    0.288E-02
RMM:   2    -0.674929966169E+03   -0.22603E-05   -0.32506E-04 11870   0.472E-02    0.153E-02
RMM:   3    -0.674929961080E+03    0.50887E-05   -0.69239E-05  7249   0.245E-02
   5 F= -.67492996E+03 E0= -.67488060E+03  d E =0.240651E-03
       N       E                     dE             d eps       ncg     rms          rms(c)
DAV:   1    -0.674929961970E+03    0.41982E-05   -0.52143E-04 11956   0.630E-02    0.125E-02
RMM:   2    -0.674929962358E+03   -0.38793E-06   -0.67117E-05  6802   0.206E-02
   6 F= -.67492996E+03 E0= -.67488058E+03  d E =0.239373E-03
       N       E                     dE             d eps       ncg     rms          rms(c)
DAV:   1    -0.674929886977E+03    0.74993E-04   -0.21487E-02 10472   0.385E-01    0.545E-02
RMM:   2    -0.674929991050E+03   -0.10407E-03   -0.20464E-03 12832   0.122E-01    0.274E-02
RMM:   3    -0.674930006528E+03   -0.15478E-04   -0.42857E-04 12610   0.537E-02    0.188E-02
RMM:   4    -0.674930000384E+03    0.61439E-05   -0.88107E-05  8870   0.252E-02
   7 F= -.67493000E+03 E0= -.67488066E+03  d E =-.380256E-04
       N       E                     dE             d eps       ncg     rms          rms(c)
DAV:   1    -0.674929992583E+03    0.13944E-04   -0.16025E-03 11004   0.108E-01    0.142E-02
RMM:   2    -0.674930000660E+03   -0.80763E-05   -0.17179E-04 10622   0.323E-02    0.725E-03
RMM:   3    -0.674929998349E+03    0.23103E-05   -0.23752E-05  5649   0.210E-02
   8 F= -.67493000E+03 E0= -.67488065E+03  d E =-.359911E-04
