 vasp.6.4.3 19Mar24 (build Sep 18 2024 11:30:23) complex                        
  
 executed on             LinuxIFC date 2026.07.03  20:27:21
 running   28 mpi-ranks, on    1 nodes
 distrk:  each k-point on   28 cores,    1 groups
 distr:  one band on NCORE=   1 cores,   28 groups


--------------------------------------------------------------------------------------------------------


 INCAR:
   SYSTEM = HECN
   ISTART = 0
   ICHARG = 2
   PREC = Normal
   LREAL = .F.
   IBRION = 2
   ISIF = 3
   NSW = 100
   POTIM = 0.5
   EDIFFG = -0.01
   ENCUT = 400
   NELM = 60
   EDIFF = 1E-5
   LCHARG = .F.
   LWAVE = .F.
   ISMEAR = 0
   SIGMA = 0.1
   ALGO = Fast

 POTCAR:   PAW_PBE Zr_sv 07Sep2000                
 POTCAR:   PAW_PBE W_pv 06Sep2000                 
 POTCAR:   PAW_PBE Hf_pv 06Sep2000                
 POTCAR:   PAW_PBE N 08Apr2002                    
 POTCAR:   PAW_PBE C 08Apr2002                    
 POTCAR:   PAW_PBE Ta_pv 07Sep2000                
 POTCAR:   PAW_PBE Nb_sv 17Jan2003                
 -----------------------------------------------------------------------------
|                                                                             |
|           W    W    AA    RRRRR   N    N  II  N    N   GGGG   !!!           |
|           W    W   A  A   R    R  NN   N  II  NN   N  G    G  !!!           |
|           W    W  A    A  R    R  N N  N  II  N N  N  G       !!!           |
|           W WW W  AAAAAA  RRRRR   N  N N  II  N  N N  G  GGG   !            |
|           WW  WW  A    A  R   R   N   NN  II  N   NN  G    G                |
|           W    W  A    A  R    R  N    N  II  N    N   GGGG   !!!           |
|                                                                             |
|     For optimal performance we recommend to set                             |
|       NCORE = 2 up to number-of-cores-per-socket                            |
|     NCORE specifies how many cores store one orbital (NPAR=cpu/NCORE).      |
|     This setting can greatly improve the performance of VASP for DFT.       |
|     The default, NCORE=1 might be grossly inefficient on modern             |
|     multi-core architectures or massively parallel machines. Do your        |
|     own testing! More info at https://www.vasp.at/wiki/index.php/NCORE      |
|     Unfortunately you need to use the default for GW and RPA                |
|     calculations (for HF NCORE is supported but not extensively tested      |
|     yet).                                                                   |
|                                                                             |
 -----------------------------------------------------------------------------

 POTCAR:   PAW_PBE Zr_sv 07Sep2000                
   VRHFIN =Zr: 4s4p5s4d                                                                             
   LEXCH  = PE                                                                                      
   EATOM  =  1283.3934 eV,   94.3268 Ry                                                             
                                                                                                    
   TITEL  = PAW_PBE Zr_sv 07Sep2000                                                                 
   LULTRA =        F    use ultrasoft PP ?                                                          
   IUNSCR =        1    unscreen: 0-lin 1-nonlin 2-no                                               
   RPACOR =    2.200    partial core radius                                                         
   POMASS =   91.224; ZVAL   =   12.000    mass and valenz                                          
   RCORE  =    2.500    outmost cutoff radius                                                       
   RWIGS  =    3.070; RWIGS  =    1.625    wigner-seitz radius (au A)                               
   ENMAX  =  229.839; ENMIN  =  172.379 eV                                                          
   RCLOC  =    2.213    cutoff for local pot                                                        
   LCOR   =        T    correct aug charges                                                         
   LPAW   =        T    paw PP                                                                      
   EAUG   =  357.078                                                                                
   DEXC   =     .000                                                                                
   RMAX   =    3.041    core radius for proj-oper                                                   
   RAUG   =    1.300    factor for augmentation sphere                                              
   RDEP   =    2.597    radius for radial grids                                                     
   QCUT   =   -4.110; QGAM   =    8.220    optimization parameters                                  
                                                                                                    
   Description                                                                                      
     l     E      TYP  RCUT    TYP  RCUT                                                            
     0   .000     23  2.500                                                                         
     0   .000     23  2.500                                                                         
     1   .000     23  2.500                                                                         
     1   .000     23  2.500                                                                         
     2   .000     23  2.500                                                                         
     2   .000     23  2.500                                                                         
     3   .000      7   .000                                                                         
  local pseudopotential read in
  partial core-charges read in
  atomic valenz-charges read in
  non local Contribution for L=           0  read in
    real space projection operators read in
  non local Contribution for L=           0  read in
    real space projection operators read in
  non local Contribution for L=           1  read in
    real space projection operators read in
  non local Contribution for L=           1  read in
    real space projection operators read in
  non local Contribution for L=           2  read in
    real space projection operators read in
  non local Contribution for L=           2  read in
    real space projection operators read in
    PAW grid and wavefunctions read in
 
   number of l-projection  operators is LMAX  =           6
   number of lm-projection operators is LMMAX =          18
 
 POTCAR:   PAW_PBE W_pv 06Sep2000                 
   VRHFIN =W : 5p6s5d                                                                               
   LEXCH  = PE                                                                                      
   EATOM  =  1260.0376 eV,   92.6101 Ry                                                             
                                                                                                    
   TITEL  = PAW_PBE W_pv 06Sep2000                                                                  
   LULTRA =        F    use ultrasoft PP ?                                                          
   IUNSCR =        1    unscreen: 0-lin 1-nonlin 2-no                                               
   RPACOR =    2.330    partial core radius                                                         
   POMASS =  183.850; ZVAL   =   12.000    mass and valenz                                          
   RCORE  =    2.500    outmost cutoff radius                                                       
   RWIGS  =    2.750; RWIGS  =    1.455    wigner-seitz radius (au A)                               
   ENMAX  =  223.065; ENMIN  =  167.299 eV                                                          
   RCLOC  =    2.147    cutoff for local pot                                                        
   LCOR   =        T    correct aug charges                                                         
   LPAW   =        T    paw PP                                                                      
   EAUG   =  373.438                                                                                
   DEXC   =    -.018                                                                                
   RMAX   =    3.087    core radius for proj-oper                                                   
   RAUG   =    1.300    factor for augmentation sphere                                              
   RDEP   =    2.539    radius for radial grids                                                     
   QCUT   =   -4.049; QGAM   =    8.098    optimization parameters                                  
                                                                                                    
   Description                                                                                      
     l     E      TYP  RCUT    TYP  RCUT                                                            
     1   .000     23  2.500                                                                         
     1  -.200     23  2.500                                                                         
     2   .000     23  2.500                                                                         
     2   .000     23  2.500                                                                         
     0   .000     23  2.500                                                                         
     0   .000     23  2.500                                                                         
     3   .000      7   .000                                                                         
  local pseudopotential read in
  partial core-charges read in
  atomic valenz-charges read in
  non local Contribution for L=           1  read in
    real space projection operators read in
  non local Contribution for L=           1  read in
    real space projection operators read in
  non local Contribution for L=           2  read in
    real space projection operators read in
  non local Contribution for L=           2  read in
    real space projection operators read in
  non local Contribution for L=           0  read in
    real space projection operators read in
  non local Contribution for L=           0  read in
    real space projection operators read in
    PAW grid and wavefunctions read in
 
   number of l-projection  operators is LMAX  =           6
   number of lm-projection operators is LMMAX =          18
 
 POTCAR:   PAW_PBE Hf_pv 06Sep2000                
   VRHFIN =Hf: 5p6s5d                                                                               
   LEXCH  = PE                                                                                      
   EATOM  =   859.6195 eV,   63.1803 Ry                                                             
                                                                                                    
   TITEL  = PAW_PBE Hf_pv 06Sep2000                                                                 
   LULTRA =        F    use ultrasoft PP ?                                                          
   IUNSCR =        1    unscreen: 0-lin 1-nonlin 2-no                                               
   RPACOR =    2.500    partial core radius                                                         
   POMASS =  178.490; ZVAL   =   10.000    mass and valenz                                          
   RCORE  =    2.600    outmost cutoff radius                                                       
   RWIGS  =    3.050; RWIGS  =    1.614    wigner-seitz radius (au A)                               
   ENMAX  =  220.342; ENMIN  =  165.256 eV                                                          
   RCLOC  =    2.212    cutoff for local pot                                                        
   LCOR   =        T    correct aug charges                                                         
   LPAW   =        T    paw PP                                                                      
   EAUG   =  380.878                                                                                
   DEXC   =    -.057                                                                                
   RMAX   =    3.106    core radius for proj-oper                                                   
   RAUG   =    1.300    factor for augmentation sphere                                              
   RDEP   =    2.681    radius for radial grids                                                     
   QCUT   =   -4.024; QGAM   =    8.049    optimization parameters                                  
                                                                                                    
   Description                                                                                      
     l     E      TYP  RCUT    TYP  RCUT                                                            
     1   .000     23  2.500                                                                         
     1   .000     23  2.500                                                                         
     2   .000     23  2.500                                                                         
     2   .000     23  2.500                                                                         
     0   .000     23  2.600                                                                         
     0   .000     23  2.600                                                                         
     3   .000      7   .000                                                                         
  local pseudopotential read in
  partial core-charges read in
  atomic valenz-charges read in
  non local Contribution for L=           1  read in
    real space projection operators read in
  non local Contribution for L=           1  read in
    real space projection operators read in
  non local Contribution for L=           2  read in
    real space projection operators read in
  non local Contribution for L=           2  read in
    real space projection operators read in
  non local Contribution for L=           0  read in
    real space projection operators read in
  non local Contribution for L=           0  read in
    real space projection operators read in
    PAW grid and wavefunctions read in
 
   number of l-projection  operators is LMAX  =           6
   number of lm-projection operators is LMMAX =          18
 
 POTCAR:   PAW_PBE N 08Apr2002                    
   VRHFIN =N: s2p3                                                                                  
   LEXCH  = PE                                                                                      
   EATOM  =   264.5486 eV,   19.4438 Ry                                                             
                                                                                                    
   TITEL  = PAW_PBE N 08Apr2002                                                                     
   LULTRA =        F    use ultrasoft PP ?                                                          
   IUNSCR =        0    unscreen: 0-lin 1-nonlin 2-no                                               
   RPACOR =     .000    partial core radius                                                         
   POMASS =   14.001; ZVAL   =    5.000    mass and valenz                                          
   RCORE  =    1.500    outmost cutoff radius                                                       
   RWIGS  =    1.400; RWIGS  =     .741    wigner-seitz radius (au A)                               
   ENMAX  =  400.000; ENMIN  =  300.000 eV                                                          
   ICORE  =        2    local potential                                                             
   LCOR   =        T    correct aug charges                                                         
   LPAW   =        T    paw PP                                                                      
   EAUG   =  627.112                                                                                
   DEXC   =     .000                                                                                
   RMAX   =    2.247    core radius for proj-oper                                                   
   RAUG   =    1.300    factor for augmentation sphere                                              
   RDEP   =    1.514    radius for radial grids                                                     
   QCUT   =   -5.562; QGAM   =   11.124    optimization parameters                                  
                                                                                                    
   Description                                                                                      
     l     E      TYP  RCUT    TYP  RCUT                                                            
     0   .000     23  1.200                                                                         
     0   .000     23  1.200                                                                         
     1   .000     23  1.500                                                                         
     1   .700     23  1.500                                                                         
     2   .000      7  1.500                                                                         
  local pseudopotential read in
  atomic valenz-charges read in
  non local Contribution for L=           0  read in
    real space projection operators read in
  non local Contribution for L=           0  read in
    real space projection operators read in
  non local Contribution for L=           1  read in
    real space projection operators read in
  non local Contribution for L=           1  read in
    real space projection operators read in
    PAW grid and wavefunctions read in
 
   number of l-projection  operators is LMAX  =           4
   number of lm-projection operators is LMMAX =           8
 
 POTCAR:   PAW_PBE C 08Apr2002                    
   VRHFIN =C: s2p2                                                                                  
   LEXCH  = PE                                                                                      
   EATOM  =   147.1560 eV,   10.8157 Ry                                                             
                                                                                                    
   TITEL  = PAW_PBE C 08Apr2002                                                                     
   LULTRA =        F    use ultrasoft PP ?                                                          
   IUNSCR =        0    unscreen: 0-lin 1-nonlin 2-no                                               
   RPACOR =     .000    partial core radius                                                         
   POMASS =   12.011; ZVAL   =    4.000    mass and valenz                                          
   RCORE  =    1.500    outmost cutoff radius                                                       
   RWIGS  =    1.630; RWIGS  =     .863    wigner-seitz radius (au A)                               
   ENMAX  =  400.000; ENMIN  =  300.000 eV                                                          
   ICORE  =        2    local potential                                                             
   LCOR   =        T    correct aug charges                                                         
   LPAW   =        T    paw PP                                                                      
   EAUG   =  644.873                                                                                
   DEXC   =     .000                                                                                
   RMAX   =    2.266    core radius for proj-oper                                                   
   RAUG   =    1.300    factor for augmentation sphere                                              
   RDEP   =    1.501    radius for radial grids                                                     
   RDEPT  =    1.300    core radius for aug-charge                                                  
   QCUT   =   -5.516; QGAM   =   11.032    optimization parameters                                  
                                                                                                    
   Description                                                                                      
     l     E      TYP  RCUT    TYP  RCUT                                                            
     0   .000     23  1.200                                                                         
     0   .000     23  1.200                                                                         
     1   .000     23  1.500                                                                         
     1  2.500     23  1.500                                                                         
     2   .000      7  1.500                                                                         
  local pseudopotential read in
  atomic valenz-charges read in
  non local Contribution for L=           0  read in
    real space projection operators read in
  non local Contribution for L=           0  read in
    real space projection operators read in
  non local Contribution for L=           1  read in
    real space projection operators read in
  non local Contribution for L=           1  read in
    real space projection operators read in
    PAW grid and wavefunctions read in
 
   number of l-projection  operators is LMAX  =           4
   number of lm-projection operators is LMMAX =           8
 
 POTCAR:   PAW_PBE Ta_pv 07Sep2000                
   VRHFIN =Ta:  5p6s5d                                                                              
   LEXCH  = PE                                                                                      
   EATOM  =  1045.8051 eV,   76.8645 Ry                                                             
                                                                                                    
   TITEL  = PAW_PBE Ta_pv 07Sep2000                                                                 
   LULTRA =        F    use ultrasoft PP ?                                                          
   IUNSCR =        1    unscreen: 0-lin 1-nonlin 2-no                                               
   RPACOR =    2.330    partial core radius                                                         
   POMASS =  180.948; ZVAL   =   11.000    mass and valenz                                          
   RCORE  =    2.500    outmost cutoff radius                                                       
   RWIGS  =    2.840; RWIGS  =    1.503    wigner-seitz radius (au A)                               
   ENMAX  =  223.675; ENMIN  =  167.756 eV                                                          
   RCLOC  =    2.205    cutoff for local pot                                                        
   LCOR   =        T    correct aug charges                                                         
   LPAW   =        T    paw PP                                                                      
   EAUG   =  377.421                                                                                
   DEXC   =    -.043                                                                                
   RMAX   =    3.083    core radius for proj-oper                                                   
   RAUG   =    1.300    factor for augmentation sphere                                              
   RDEP   =    2.526    radius for radial grids                                                     
   QCUT   =   -4.055; QGAM   =    8.109    optimization parameters                                  
                                                                                                    
   Description                                                                                      
     l     E      TYP  RCUT    TYP  RCUT                                                            
     1   .000     23  2.500                                                                         
     1   .100     23  2.500                                                                         
     2   .000     23  2.500                                                                         
     2   .000     23  2.500                                                                         
     0   .000     23  2.500                                                                         
     0   .000     23  2.500                                                                         
     3   .000      7   .000                                                                         
  local pseudopotential read in
  partial core-charges read in
  atomic valenz-charges read in
  non local Contribution for L=           1  read in
    real space projection operators read in
  non local Contribution for L=           1  read in
    real space projection operators read in
  non local Contribution for L=           2  read in
    real space projection operators read in
  non local Contribution for L=           2  read in
    real space projection operators read in
  non local Contribution for L=           0  read in
    real space projection operators read in
  non local Contribution for L=           0  read in
    real space projection operators read in
    PAW grid and wavefunctions read in
 
   number of l-projection  operators is LMAX  =           6
   number of lm-projection operators is LMMAX =          18
 
 POTCAR:   PAW_PBE Nb_sv 17Jan2003                
   VRHFIN =Nb: 4p5s4d                                                                               
   LEXCH  = PE                                                                                      
   EATOM  =  1555.1913 eV,  114.3033 Ry                                                             
                                                                                                    
   TITEL  = PAW_PBE Nb_sv 17Jan2003                                                                 
   LULTRA =        F    use ultrasoft PP ?                                                          
   IUNSCR =        1    unscreen: 0-lin 1-nonlin 2-no                                               
   RPACOR =    1.800    partial core radius                                                         
   POMASS =   92.910; ZVAL   =   13.000    mass and valenz                                          
   RCORE  =    2.200    outmost cutoff radius                                                       
   RWIGS  =    2.400; RWIGS  =    1.270    wigner-seitz radius (au A)                               
   ENMAX  =  293.235; ENMIN  =  219.927 eV                                                          
   RCLOC  =    1.411    cutoff for local pot                                                        
   LCOR   =        T    correct aug charges                                                         
   LPAW   =        T    paw PP                                                                      
   EAUG   =  455.659                                                                                
   DEXC   =     .000                                                                                
   RMAX   =    2.693    core radius for proj-oper                                                   
   RAUG   =    1.300    factor for augmentation sphere                                              
   RDEP   =    2.299    radius for radial grids                                                     
   QCUT   =   -4.642; QGAM   =    9.285    optimization parameters                                  
                                                                                                    
   Description                                                                                      
     l     E      TYP  RCUT    TYP  RCUT                                                            
     0   .000     23  2.200                                                                         
     0   .000     23  2.200                                                                         
     0   .000     23  2.200                                                                         
     0   .000     23  2.200                                                                         
     1   .000     23  2.200                                                                         
     1  1.000     23  2.200                                                                         
     2   .000     23  2.200                                                                         
     2   .000     23  2.200                                                                         
     3   .000      7   .000                                                                         
  local pseudopotential read in
  partial core-charges read in
  atomic valenz-charges read in
  non local Contribution for L=           0  read in
    real space projection operators read in
  non local Contribution for L=           0  read in
    real space projection operators read in
  non local Contribution for L=           1  read in
    real space projection operators read in
  non local Contribution for L=           1  read in
    real space projection operators read in
  non local Contribution for L=           2  read in
    real space projection operators read in
  non local Contribution for L=           2  read in
    real space projection operators read in
    PAW grid and wavefunctions read in
 
   number of l-projection  operators is LMAX  =           6
   number of lm-projection operators is LMMAX =          18
 
 -----------------------------------------------------------------------------
|                                                                             |
|               ----> ADVICE to this user running VASP <----                  |
|                                                                             |
|     You have a (more or less) 'large supercell' and for larger cells it     |
|     might be more efficient to use real-space projection operators.         |
|     Therefore, try LREAL= Auto in the INCAR file.                           |
|     Mind: If you want to do very accurate calculations, keep the            |
|     reciprocal projection scheme (i.e. LREAL=.FALSE.).                      |
|                                                                             |
 -----------------------------------------------------------------------------

 PAW_PBE Zr_sv 07Sep2000                :
 energy of atom  1       EATOM=-1283.3934
 kinetic energy error for atom=    0.0044 (will be added to EATOM!!)
 PAW_PBE W_pv 06Sep2000                 :
 energy of atom  2       EATOM=-1260.0376
 kinetic energy error for atom=    0.0051 (will be added to EATOM!!)
 PAW_PBE Hf_pv 06Sep2000                :
 energy of atom  3       EATOM= -859.6195
 kinetic energy error for atom=    0.0038 (will be added to EATOM!!)
 PAW_PBE N 08Apr2002                    :
 energy of atom  4       EATOM= -264.5486
 kinetic energy error for atom=    0.0736 (will be added to EATOM!!)
 PAW_PBE C 08Apr2002                    :
 energy of atom  5       EATOM= -147.1560
 kinetic energy error for atom=    0.0288 (will be added to EATOM!!)
 PAW_PBE Ta_pv 07Sep2000                :
 energy of atom  6       EATOM=-1045.8051
 kinetic energy error for atom=    0.0046 (will be added to EATOM!!)
 PAW_PBE Nb_sv 17Jan2003                :
 energy of atom  7       EATOM=-1555.1913
 kinetic energy error for atom=    0.0212 (will be added to EATOM!!)
 
 
 POSCAR: 43-ZrHfNbTaW
  positions in direct lattice
  velocities in cartesian coordinates


 exchange-correlation table for PE
   RHO(1)=    0.500       N(1)  =     2000
   RHO(2)=  100.500       N(2)  =     4000
 


--------------------------------------------------------------------------------------------------------


 ion  position               nearest neighbor table
   1  0.994  0.999  0.998-  25 2.24  29 2.25  38 2.29  34 2.30  23 2.31  22 2.38  58 3.11   9 3.12
                            59 3.13  18 3.18  16 3.19  17 3.19  56 3.19  14 3.22   8 3.23   2 3.27
   2  0.250  1.000  0.253-  21 2.25  43 2.26  36 2.26  26 2.28  34 2.29  22 2.33  59 3.12  61 3.12
                            57 3.14   8 3.16  20 3.21  19 3.21  18 3.23  55 3.23  14 3.25  15 3.26
   3  0.251  0.500  0.250-  41 2.26  36 2.27  21 2.29  46 2.30  37 2.30  27 2.32  55 3.16   4 3.17
                            62 3.18   6 3.18  15 3.20  18 3.21  54 3.21  20 3.22  19 3.22  14 3.22
   4  0.500  0.500  0.000-  41 2.28  52 2.30  40 2.31  37 2.31  35 2.33  28 2.37  63 3.14  13 3.14
                            60 3.16   3 3.17  17 3.18  55 3.18  15 3.19   7 3.22  14 3.23   5 3.24
   5  0.499  0.248  0.745-  33 2.25  42 2.25  32 2.26  52 2.29  35 2.31  30 2.37  13 3.08  53 3.12
                            19 3.16  14 3.20  56 3.21  57 3.21  17 3.23   4 3.24  63 3.24  62 3.29
   6  0.998  0.500  0.497-  50 2.27  44 2.29  27 2.29  48 2.30  46 2.30  47 2.32  11 3.01  10 3.08
                            12 3.08  64 3.10   3 3.18  19 3.18  20 3.18   8 3.19  60 3.21  63 3.24
   7  0.500  0.752  0.749-  33 2.25  51 2.27  49 2.29  52 2.29  28 2.32  45 2.34  63 3.07  57 3.09
                            62 3.13  58 3.14  13 3.19  53 3.20  20 3.20  64 3.20   4 3.22  18 3.23
   8  0.987  0.230  0.270-  34 2.10  24 2.16  44 2.20  21 2.34  23 2.34  27 2.37  11 2.78  61 2.93
                            16 3.04   2 3.16  19 3.17   6 3.19   1 3.23  17 3.27  14 3.39   3 3.43
   9  0.770  0.736  0.998-  38 2.08  40 2.12  49 2.22  39 2.24  25 2.40  28 2.44  54 2.96  12 2.99
                            63 3.04  60 3.10  59 3.11   1 3.12  58 3.19   4 3.25  16 3.30   7 3.33
  10  0.017  0.275  0.751-  48 2.05  42 2.12  44 2.16  30 2.33  23 2.36  29 2.44  13 2.96  14 3.04
                            19 3.04  54 3.05   6 3.08  56 3.19  17 3.21  11 3.32   1 3.36  58 3.52
  11  0.766  0.263  0.483-  44 2.09  50 2.12  24 2.16  31 2.35  32 2.36  30 2.36   8 2.78   6 3.01
                            60 3.05  15 3.16  16 3.19  61 3.20  10 3.32   5 3.37  58 3.47  57 3.53
  12  0.995  0.725  0.754-  48 2.04  49 2.20  38 2.23  45 2.23  47 2.24  29 2.56   9 2.99  54 3.00
                            63 3.01   6 3.08  18 3.15  64 3.18  20 3.18  13 3.20  58 3.24   1 3.32
  13  0.262  0.492  0.748-  52 2.14  46 2.19  42 2.21  37 2.23  48 2.34  45 2.37  10 2.96   5 3.08
                            19 3.10  62 3.12  14 3.14   4 3.14   7 3.19  12 3.20  20 3.22  18 3.25
  14  0.245  0.250  0.996-  42 2.22  23 2.22  37 2.26  22 2.28  21 2.31  35 2.33  10 3.04  13 3.14
                            56 3.18  54 3.19   5 3.20   1 3.22   3 3.22   4 3.23  53 3.24   2 3.25
  15  0.505  0.254  0.252-  32 2.19  24 2.22  41 2.25  35 2.26  26 2.31  21 2.35  60 3.14  11 3.16
                             4 3.19   3 3.20  16 3.21  53 3.22  62 3.23  17 3.24  19 3.25   2 3.26
  16  0.748  0.996  0.253-  26 2.22  34 2.24  39 2.25  31 2.25  25 2.28  24 2.29   8 3.04  59 3.07
                            11 3.19   1 3.19  55 3.20  53 3.20  15 3.21  64 3.21  61 3.21  57 3.23
  17  0.756  0.259  0.994-  23 2.22  40 2.22  30 2.26  24 2.27  35 2.28  25 2.35  54 3.13   4 3.18
                            53 3.19   1 3.19  63 3.20  10 3.21  60 3.22   5 3.23  15 3.24  58 3.27
  18  0.242  0.750  0.998-  38 2.19  45 2.22  37 2.27  36 2.27  22 2.27  28 2.34  54 3.13  12 3.15
                             1 3.18  59 3.19   3 3.21   7 3.23   2 3.23   4 3.25  13 3.25  56 3.25
  19  0.247  0.251  0.504-  42 2.21  46 2.26  44 2.27  43 2.28  21 2.28  32 2.34  10 3.04  13 3.10
                            56 3.12  61 3.15   5 3.16   8 3.17   6 3.18   2 3.21   3 3.22  57 3.24
  20  0.245  0.750  0.504-  45 2.23  47 2.25  43 2.27  46 2.27  36 2.29  51 2.30  57 3.09  61 3.15
                            62 3.15  56 3.16   6 3.18  12 3.18  59 3.19   7 3.20   2 3.21  55 3.21
  21  0.245  0.249  0.252-   2 2.25  19 2.28   3 2.29  14 2.31   8 2.34  15 2.35
  22  0.257  1.000  0.995-  56 2.27  18 2.27  53 2.27  14 2.28   2 2.33   1 2.38
  23  0.000  0.253  0.012-  17 2.22  14 2.22  54 2.27   1 2.31   8 2.34  10 2.36
  24  0.751  0.248  0.245-  11 2.16   8 2.16  15 2.22  17 2.27  16 2.29  60 2.34
  25  0.746  1.000  0.001-  53 2.14   1 2.24  58 2.25  16 2.28  17 2.35   9 2.40
  26  0.503  1.000  0.249-  16 2.22   2 2.28  57 2.29  15 2.31  53 2.31  55 2.31
  27  0.995  0.489  0.243-  54 2.19  60 2.28   6 2.29   3 2.32   8 2.37
  28  0.501  0.761  0.005-  55 2.24  53 2.24   7 2.32  18 2.34   4 2.37   9 2.44
  29  0.999  0.007  0.748-  56 2.19  58 2.22  61 2.25   1 2.25  10 2.44  12 2.56
  30  0.761  0.241  0.744-  17 2.26  58 2.29  10 2.33  11 2.36   5 2.37
  31  0.743  0.006  0.503-  58 2.25  16 2.25  57 2.29  11 2.35  61 2.36
  32  0.506  0.241  0.494-  15 2.19   5 2.26  57 2.30  19 2.34  11 2.36
  33  0.501  0.000  0.748-  53 2.21  57 2.22   5 2.25   7 2.25  58 2.29  56 2.34
  34  0.996  0.999  0.253-   8 2.10  59 2.12  61 2.22  16 2.24   2 2.29   1 2.30
  35  0.504  0.244  0.001-  53 2.14  15 2.26  17 2.28   5 2.31   4 2.33  14 2.33
  36  0.251  0.751  0.249-  55 2.25   2 2.26  18 2.27   3 2.27  59 2.29  20 2.29
  37  0.244  0.500  0.995-  54 2.21  13 2.23  14 2.26  18 2.27   3 2.30   4 2.31
  38  1.000  0.746  0.000-   9 2.08  18 2.19  54 2.20  12 2.23  59 2.29   1 2.29
  39  0.747  0.748  0.245-  60 2.20  55 2.23   9 2.24  16 2.25  59 2.27  64 2.29
  40  0.756  0.503  0.999-   9 2.12  54 2.20  17 2.22  63 2.27  60 2.27   4 2.31
  41  0.502  0.502  0.253-  60 2.18  55 2.21  62 2.21  15 2.25   3 2.26   4 2.28
  42  0.250  0.249  0.750-  10 2.12  13 2.21  19 2.21  14 2.22  56 2.22   5 2.25
  43  0.249  0.000  0.503-  56 2.17  57 2.18  61 2.21   2 2.26  20 2.27  19 2.28
  44  0.995  0.249  0.514-  11 2.09  10 2.16   8 2.20  61 2.24  19 2.27   6 2.29
  45  0.241  0.752  0.751-  18 2.22  20 2.23  12 2.23  56 2.29   7 2.34  13 2.37
  46  0.253  0.500  0.505-  13 2.19  62 2.24  19 2.26  20 2.27   3 2.30   6 2.30
  47  0.996  0.755  0.507-  64 2.20  12 2.24  61 2.24  20 2.25  59 2.29   6 2.32
  48  0.003  0.500  0.752-  12 2.04  10 2.05  54 2.24   6 2.30  13 2.34  63 2.37
  49  0.753  0.753  0.752-  58 2.15  63 2.18  12 2.20   9 2.22   7 2.29  64 2.29
  50  0.747  0.495  0.499-  11 2.12  64 2.22  62 2.23  60 2.24  63 2.25   6 2.27
  51  0.500  0.751  0.497-  57 2.15  62 2.16  55 2.19   7 2.27  64 2.29  20 2.30
  52  0.499  0.500  0.745-  13 2.14  63 2.19  62 2.24   5 2.29   7 2.29   4 2.30
  53  0.508  0.008  0.993-  35 2.14  25 2.14  33 2.21  28 2.24  22 2.27  26 2.31  58 3.10   5 3.12
                            17 3.19   7 3.20  16 3.20  15 3.22  14 3.24   2 3.30  56 3.31  55 3.35
  54  0.999  0.503  0.001-  27 2.19  40 2.20  38 2.20  37 2.21  48 2.24  23 2.27   9 2.96  12 3.00
                            10 3.05  17 3.13  18 3.13  14 3.19   3 3.21  60 3.22  63 3.28  13 3.28
  55  0.500  0.745  0.254-  51 2.19  41 2.21  39 2.23  28 2.24  36 2.25  26 2.31  62 3.05  60 3.09
                            57 3.14   3 3.16   4 3.18  64 3.19  16 3.20  20 3.21   2 3.23  18 3.29
  56  0.242  0.004  0.744-  43 2.17  29 2.19  42 2.22  22 2.27  45 2.29  33 2.34  61 3.09  19 3.12
                            57 3.12  20 3.16  14 3.18  10 3.19   1 3.19   5 3.21  18 3.25   7 3.27
  57  0.490  0.988  0.503-  51 2.15  43 2.18  33 2.22  31 2.29  26 2.29  32 2.30   7 3.09  20 3.09
                            56 3.12   2 3.14  55 3.14   5 3.21  16 3.23  19 3.24  64 3.27  58 3.28
  58  0.754  0.989  0.752-  49 2.15  29 2.22  25 2.25  31 2.25  30 2.29  33 2.29  53 3.10   1 3.11
                             7 3.14   9 3.19  61 3.21  64 3.21  12 3.24  17 3.27  57 3.28   5 3.29
  59  0.998  0.766  0.254-  34 2.12  39 2.27  47 2.29  38 2.29  36 2.29  16 3.07   9 3.11   2 3.12
                             1 3.13  18 3.19  20 3.19   6 3.26  54 3.29   3 3.32
  60  0.743  0.506  0.251-  41 2.18  39 2.20  50 2.24  40 2.27  27 2.28  24 2.34  11 3.05  55 3.09
                             9 3.10  15 3.14   4 3.16   6 3.21  54 3.22  17 3.22
  61  0.005  0.002  0.499-  43 2.21  34 2.22  44 2.24  47 2.24  29 2.25  31 2.36   8 2.93  56 3.09
                             2 3.12  19 3.15  20 3.15  11 3.20  58 3.21  16 3.21
  62  0.500  0.513  0.498-  51 2.16  41 2.21  50 2.23  46 2.24  52 2.24  55 3.05  13 3.12   7 3.13
                            20 3.15   3 3.18  15 3.23   5 3.29  19 3.30
  63  0.740  0.512  0.748-  49 2.18  52 2.19  50 2.25  40 2.27  48 2.37  12 3.01   9 3.04   7 3.07
                             4 3.14  17 3.20   6 3.24   5 3.24  54 3.28
  64  0.753  0.740  0.499-  47 2.20  50 2.22  49 2.29  39 2.29  51 2.29   6 3.10  12 3.18  55 3.19
                             7 3.20  58 3.21  16 3.21  57 3.27
 
  LATTYP: Found a triclinic cell.
 ALAT       =    12.7205645245
 B/A-ratio  =     0.7099943853
 C/A-ratio  =     0.7131232344
 COS(alpha) =     0.0008346579
 COS(beta)  =     0.0020929807
 COS(gamma) =     0.7056009935
  
  Lattice vectors:
  
 A1 = (  -8.9873488830,  -0.0183236791,   9.0022211771)
 A2 = (  -9.0315217184,  -0.0008932749,  -0.0117381862)
 A3 = (  -0.0066764593,  -9.0713275012,   0.0016985129)


Analysis of symmetry for initial positions (statically):
=====================================================================
 Subroutine PRICEL returns:
 Original cell was already a primitive cell.
 

 Routine SETGRP: Setting up the symmetry group for a 
 triclinic supercell.


 Subroutine GETGRP returns: Found  1 space group operations
 (whereof  1 operations were pure point group operations)
 out of a pool of  2 trial point group operations.


The static configuration has the point symmetry C_1 .


Analysis of symmetry for dynamics (positions and initial velocities):
=====================================================================
 Subroutine PRICEL returns:
 Original cell was already a primitive cell.
 

 Routine SETGRP: Setting up the symmetry group for a 
 triclinic supercell.


 Subroutine GETGRP returns: Found  1 space group operations
 (whereof  1 operations were pure point group operations)
 out of a pool of  2 trial point group operations.


The dynamic configuration has the point symmetry C_1 .


 Subroutine INISYM returns: Found  1 space group operations
 (whereof  1 operations are pure point group operations),
 and found     1 'primitive' translations


----------------------------------------------------------------------------------------

                                     Primitive cell                                     

  volume of cell :     738.4897

  direct lattice vectors                    reciprocal lattice vectors
     9.031521718  0.000893275  0.011738186     0.110724026 -0.000081594 -0.000542760
     0.006676459  9.071327501 -0.001698513    -0.000011180  0.110237497  0.000213222
     0.044172835 -0.017430404  9.013959363    -0.000144189  0.000020878  0.110939787

  length of vectors
     9.031529391  9.071330117  9.014084449     0.110725386  0.110237704  0.110939883

  position of ions in fractional coordinates (direct lattice)
     0.993750653  0.998699037  0.997914306
     0.249695814  0.999963274  0.252946033
     0.251489894  0.500433483  0.250180318
     0.499967518  0.500105480  0.000127559
     0.499044806  0.247895855  0.745484062
     0.998172130  0.499902325  0.496760975
     0.499957595  0.752267340  0.748727669
     0.987415311  0.230189042  0.270075376
     0.769846760  0.736386455  0.997697823
     0.016509392  0.275330250  0.751258266
     0.765982397  0.262656698  0.482982196
     0.995261475  0.724861184  0.753500378
     0.261835596  0.492141776  0.747887421
     0.245473478  0.250385769  0.995534143
     0.504631425  0.254053909  0.251597946
     0.748153546  0.995883390  0.253408327
     0.755705398  0.258684745  0.993648202
     0.242187744  0.749686378  0.997982599
     0.246588048  0.251132335  0.504274630
     0.244810736  0.750090878  0.503900010
     0.244938365  0.248500247  0.251638972
     0.256846371  0.999796899  0.994999611
     0.000349677  0.253319622  0.011507053
     0.750733109  0.248331095  0.244861274
     0.745548018  0.999727812  0.000946579
     0.502604592  0.999912739  0.249325710
     0.995306684  0.489495021  0.242751959
     0.500742222  0.760844566  0.005463745
     0.999149753  0.007121065  0.748193797
     0.761076456  0.240867177  0.744011102
     0.742743631  0.005704676  0.503321967
     0.505583341  0.241432980  0.494395436
     0.500574185  0.000232850  0.747953740
     0.995855067  0.999449184  0.253077055
     0.503559831  0.243698380  0.001299614
     0.251120880  0.750981778  0.249442644
     0.243977949  0.499859783  0.994902067
     0.999792532  0.746188204  0.000252384
     0.746711704  0.748325881  0.244974425
     0.755766505  0.503195787  0.998975232
     0.502178238  0.501981063  0.252619554
     0.250135245  0.249064643  0.749709473
     0.249391512  0.000333682  0.503149923
     0.995235965  0.248523673  0.513671751
     0.241172081  0.752205358  0.751325600
     0.253174014  0.499829893  0.505013679
     0.996102356  0.755116423  0.507135870
     0.002788245  0.500449965  0.752195386
     0.752993528  0.752513001  0.752386362
     0.746958147  0.495254945  0.498923257
     0.499779998  0.751005403  0.496842036
     0.498562943  0.499925561  0.745295816
     0.508489136  0.007857726  0.993145203
     0.999249688  0.503207905  0.000631135
     0.499882123  0.745159271  0.253599498
     0.241522832  0.004125477  0.743973059
     0.490130342  0.987987143  0.502762425
     0.753769746  0.989073070  0.751972349
     0.997602281  0.765530281  0.253678288
     0.743090136  0.506047122  0.250638299
     0.004506154  0.002162004  0.498830924
     0.500326456  0.512846927  0.497589568
     0.740339925  0.512287182  0.747910812
     0.753158699  0.739776684  0.498817266

  ion indices of the primitive-cell ions
   primitive index   ion index
                 1           1
                 2           2
                 3           3
                 4           4
                 5           5
                 6           6
                 7           7
                 8           8
                 9           9
                10          10
                11          11
                12          12
                13          13
                14          14
                15          15
                16          16
                17          17
                18          18
                19          19
                20          20
                21          21
                22          22
                23          23
                24          24
                25          25
                26          26
                27          27
                28          28
                29          29
                30          30
                31          31
                32          32
                33          33
                34          34
                35          35
                36          36
                37          37
                38          38
                39          39
                40          40
                41          41
                42          42
                43          43
                44          44
                45          45
                46          46
                47          47
                48          48
                49          49
                50          50
                51          51
                52          52
                53          53
                54          54
                55          55
                56          56
                57          57
                58          58
                59          59
                60          60
                61          61
                62          62
                63          63
                64          64

----------------------------------------------------------------------------------------

 
 
 KPOINTS: HECN                                    

Automatic generation of k-mesh.
 Grid dimensions read from file:
 generate k-points for:    3    3    3

 Generating k-lattice:

  Cartesian coordinates                     Fractional coordinates (reciprocal lattice)
     0.036908009 -0.000027198 -0.000180920     0.333333333 -0.000000000 -0.000000000
    -0.000003727  0.036745832  0.000071074     0.000000000  0.333333333 -0.000000000
    -0.000048063  0.000006959  0.036979929    -0.000000000  0.000000000  0.333333333

  Length of vectors
     0.036908462  0.036745901  0.036979961

  Shift w.r.t. Gamma in fractional coordinates (k-lattice)
     0.000000000  0.000000000  0.000000000

 
 Subroutine IBZKPT returns following result:
 ===========================================
 
 Found     14 irreducible k-points:
 
 Following reciprocal coordinates:
            Coordinates               Weight
  0.000000  0.000000  0.000000      1.000000
  0.333333 -0.000000  0.000000      2.000000
 -0.000000  0.333333  0.000000      2.000000
  0.333333  0.333333  0.000000      2.000000
 -0.333333  0.333333  0.000000      2.000000
 -0.000000 -0.000000  0.333333      2.000000
  0.333333 -0.000000  0.333333      2.000000
 -0.333333  0.000000  0.333333      2.000000
 -0.000000  0.333333  0.333333      2.000000
  0.333333  0.333333  0.333333      2.000000
 -0.333333  0.333333  0.333333      2.000000
 -0.000000 -0.333333  0.333333      2.000000
  0.333333 -0.333333  0.333333      2.000000
 -0.333333 -0.333333  0.333333      2.000000
 
 Following cartesian coordinates:
            Coordinates               Weight
  0.000000  0.000000  0.000000      1.000000
  0.036908 -0.000027 -0.000181      2.000000
 -0.000004  0.036746  0.000071      2.000000
  0.036904  0.036719 -0.000110      2.000000
 -0.036912  0.036773  0.000252      2.000000
 -0.000048  0.000007  0.036980      2.000000
  0.036860 -0.000020  0.036799      2.000000
 -0.036956  0.000034  0.037161      2.000000
 -0.000052  0.036753  0.037051      2.000000
  0.036856  0.036726  0.036870      2.000000
 -0.036960  0.036780  0.037232      2.000000
 -0.000044 -0.036739  0.036909      2.000000
  0.036864 -0.036766  0.036728      2.000000
 -0.036952 -0.036712  0.037090      2.000000
 


--------------------------------------------------------------------------------------------------------




 Dimension of arrays:
   k-points           NKPTS =     14   k-points in BZ     NKDIM =     14   number of bands    NBANDS=    308
   number of dos      NEDOS =    301   number of ions     NIONS =     64
   non local maximal  LDIM  =      6   non local SUM 2l+1 LMDIM =     18
   total plane-waves  NPLWV = 110592
   max r-space proj   IRMAX =      1   max aug-charges    IRDMAX=   9341
   dimension x,y,z NGX =    48 NGY =   48 NGZ =   48
   dimension x,y,z NGXF=    96 NGYF=   96 NGZF=   96
   support grid    NGXF=    96 NGYF=   96 NGZF=   96
   ions per type =               7   6   7  13  19   6   6
   NGX,Y,Z   is equivalent  to a cutoff of   8.84,  8.80,  8.85 a.u.
   NGXF,Y,Z  is equivalent  to a cutoff of  17.67, 17.59, 17.71 a.u.

 SYSTEM =  HECN                                    
 POSCAR =  43-ZrHfNbTaW                            

 Startparameter for this run:
   NWRITE =      2    write-flag & timer
   PREC   = normal    normal or accurate (medium, high low for compatibility)
   ISTART =      0    job   : 0-new  1-cont  2-samecut
   ICHARG =      2    charge: 1-file 2-atom 10-const
   ISPIN  =      1    spin polarized calculation?
   LNONCOLLINEAR =      F non collinear calculations
   LSORBIT =      F    spin-orbit coupling
   INIWAV =      1    electr: 0-lowe 1-rand  2-diag
   LASPH  =      F    aspherical Exc in radial PAW
 Electronic Relaxation 1
   ENCUT  =  400.0 eV  29.40 Ry    5.42 a.u.  14.73 14.79 14.70*2*pi/ulx,y,z
   ENINI  =  400.0     initial cutoff
   ENAUG  =  644.9 eV  augmentation charge cutoff
   NELM   =     60;   NELMIN=  2; NELMDL= -5     # of ELM steps 
   EDIFF  = 0.1E-04   stopping-criterion for ELM
   LREAL  =      F    real-space projection
   NLSPLINE    = F    spline interpolate recip. space projectors
   LCOMPAT=      F    compatible to vasp.4.4
   GGA_COMPAT  = T    GGA compatible to vasp.4.4-vasp.4.6
   LMAXPAW     = -100 max onsite density
   LMAXMIX     =    2 max onsite mixed and CHGCAR
   VOSKOWN=      0    Vosko Wilk Nusair interpolation
   ROPT   =    0.00000   0.00000   0.00000   0.00000
   ROPT   =    0.00000   0.00000   0.00000
 Ionic relaxation
   EDIFFG = -.1E-01   stopping-criterion for IOM
   NSW    =    100    number of steps for IOM
   NBLOCK =      1;   KBLOCK =    100    inner block; outer block 
   IBRION =      2    ionic relax: 0-MD 1-quasi-New 2-CG
   NFREE  =      1    steps in history (QN), initial steepest desc. (CG)
   ISIF   =      3    stress and relaxation
   IWAVPR =     11    prediction:  0-non 1-charg 2-wave 3-comb
   ISYM   =      2    0-nonsym 1-usesym 2-fastsym
   LCORR  =      T    Harris-Foulkes like correction to forces

   POTIM  = 0.5000    time-step for ionic-motion
   TEIN   =    0.0    initial temperature
   TEBEG  =    0.0;   TEEND  =   0.0 temperature during run
   SMASS  =  -3.00    Nose mass-parameter (am)
   estimated Nose-frequenzy (Omega)   =  0.10E-29 period in steps = 0.13E+47 mass=  -0.186E-26a.u.
   SCALEE = 1.0000    scale energy and forces
   NPACO  =    256;   APACO  = 10.0  distance and # of slots for P.C.
   PSTRESS=    0.0 pullay stress

  Mass of Ions in am
   POMASS =  91.22183.85178.49 14.00 12.01180.95 92.91
  Ionic Valenz
   ZVAL   =  12.00 12.00 10.00  5.00  4.00 11.00 13.00
  Atomic Wigner-Seitz radii
   RWIGS  =  -1.00 -1.00 -1.00 -1.00 -1.00 -1.00 -1.00
  virtual crystal weights 
   VCA    =   1.00  1.00  1.00  1.00  1.00  1.00  1.00
   NELECT =     511.0000    total number of electrons
   NUPDOWN=      -1.0000    fix difference up-down

 DOS related values:
   EMIN   =  10.00;   EMAX   =-10.00  energy-range for DOS
   EFERMI =   0.00;   METHOD = LEGACY      
   ISMEAR =     0;   SIGMA  =   0.10  broadening in eV -4-tet -1-fermi 0-gaus

 Electronic relaxation 2 (details)
   IALGO  =     68    algorithm
   LDIAG  =      T    sub-space diagonalisation (order eigenvalues)
   LSUBROT=      F    optimize rotation matrix (better conditioning)
   TURBO    =      0    0=normal 1=particle mesh
   IRESTART =      0    0=no restart 2=restart with 2 vectors
   NREBOOT  =      0    no. of reboots
   NMIN     =      0    reboot dimension
   EREF     =   0.00    reference energy to select bands
   IMIX   =      4    mixing-type and parameters
     AMIX     =   0.40;   BMIX     =  1.00
     AMIX_MAG =   1.60;   BMIX_MAG =  1.00
     AMIN     =   0.10
     WC   =   100.;   INIMIX=   1;  MIXPRE=   1;  MAXMIX= -45

 Intra band minimization:
   WEIMIN = 0.0010     energy-eigenvalue tresh-hold
   EBREAK =  0.81E-08  absolut break condition
   DEPER  =   0.30     relativ break condition  

   TIME   =   0.40     timestep for ELM

  volume/ion in A,a.u.               =      11.54        77.87
  Fermi-wavevector in a.u.,A,eV,Ry     =   1.447995  2.736313 28.527184  2.096689
  Thomas-Fermi vector in A             =   2.565886
 
 Write flags
   LWAVE        =      F    write WAVECAR
   LDOWNSAMPLE  =      F    k-point downsampling of WAVECAR
   LCHARG       =      F    write CHGCAR
   LVTOT        =      F    write LOCPOT, total local potential
   LVHAR        =      F    write LOCPOT, Hartree potential only
   WRT_POTENTIAL= false  ! write potential to hdf5 file
   LELF         =      F    write electronic localiz. function (ELF)
   LORBIT       =      0    0 simple, 1 ext, 2 COOP (PROOUT), +10 PAW based schemes


 Dipole corrections
   LMONO      =      F    monopole corrections only (constant potential shift)
   LDIPOL     =      F    correct potential (dipole corrections)
   IDIPOL     =      0    1-x, 2-y, 3-z, 4-all directions 
   EPSILON    =  1.0000000 bulk dielectric constant
   LVACPOTAV  =      F  vacuum potentials using an averaging scheme for the charge density
   VACPOTFLAT =  0.1000000 required flatness to determine vacuum potential
 Exchange correlation treatment:
   GGA     = PE    functional components
   XC_C    = 1    coefficients multiplying the functional components
   LIBXC   =     F    Libxc                    
   VOSKOWN =     0    Vosko Wilk Nusair interpolation
   LHFCALC =     F    Hartree Fock is set to
   LHFONE  =     F    Hartree Fock one center treatment
   AEXX    =    0.0000 exact exchange contribution

 Parameters of functionals:
   PE:
     No parameter
 
 Van der Waals corrections
   IVDW    =     0    specifies the selected vdW correction

 Linear response parameters
   LEPSILON=     F    determine dielectric tensor
   LRPA    =     F    only Hartree local field effects (RPA)
   LNABLA  =     F    use nabla operator in PAW spheres
   LVEL    =     F    velocity operator in full k-point grid
   CSHIFT  =0.1000    complex shift for real part using Kramers Kronig
   OMEGAMAX=  -1.0    maximum frequency
   DEG_THRESHOLD= 0.2000000E-02 threshold for treating states as degnerate
   RTIME   =   -0.100 relaxation time in fs
  (WPLASMAI=    0.000 imaginary part of plasma frequency in eV, 0.658/RTIME)
   DFIELD  = 0.0000000 0.0000000 0.0000000 field for delta impulse in time
 
  Optional k-point grid parameters
   LKPOINTS_OPT  =     F    use optional k-point grid
   KPOINTS_OPT_MODE=     1    mode for optional k-point grid
 
 Orbital magnetization related:
   ORBITALMAG=     F  switch on orbital magnetization
   LCHIMAG   =     F  perturbation theory with respect to B field
   DQ        =  0.001000  dq finite difference perturbation B field
   LLRAUG    =     F  two centre corrections for induced B field
   LBONE     =     F  B-component reconstruction in AE one-centre
   LVGVCALC  =     T  calculate vGv susceptibility
   LVGVAPPL  =     F  apply vGv susceptibility instead of pGv for G=0

 Random number generation:
   RANDOM_GENERATOR = DEFAULT
   PCG_SEED         = not used


--------------------------------------------------------------------------------------------------------


 conjugate gradient relaxation of ions
 charge density and potential will be updated during run
 non-spin polarized calculation
 RMM-DIIS sequential band-by-band and
  variant of blocked Davidson during initial phase
 perform sub-space diagonalisation
    before iterative eigenvector-optimisation
 modified Broyden-mixing scheme, WC =      100.0
 initial mixing is a Kerker type mixing with AMIX =  0.4000 and BMIX =      1.0000
 Hartree-type preconditioning will be used
 using additional bands           52
 reciprocal scheme for non local part
 use partial core corrections
 calculate Harris-corrections to forces 
   (improved forces if not selfconsistent)
 use gradient corrections 
 use of overlap-Matrix (Vanderbilt PP)
 Gauss-broadening in eV      SIGMA  =   0.10


--------------------------------------------------------------------------------------------------------


  energy-cutoff  :      400.00
  volume of cell :      738.49
      direct lattice vectors                 reciprocal lattice vectors
     9.031521718  0.000893275  0.011738186     0.110724026 -0.000081594 -0.000542760
     0.006676459  9.071327501 -0.001698513    -0.000011180  0.110237497  0.000213222
     0.044172835 -0.017430404  9.013959363    -0.000144189  0.000020878  0.110939787

  length of vectors
     9.031529391  9.071330117  9.014084449     0.110725386  0.110237704  0.110939883


 
 k-points in units of 2pi/SCALE and weight: HECN                                    
   0.00000000  0.00000000  0.00000000       0.037
   0.03690801 -0.00002720 -0.00018092       0.074
  -0.00000373  0.03674583  0.00007107       0.074
   0.03690428  0.03671863 -0.00010985       0.074
  -0.03691174  0.03677303  0.00025199       0.074
  -0.00004806  0.00000696  0.03697993       0.074
   0.03685995 -0.00002024  0.03679901       0.074
  -0.03695607  0.00003416  0.03716085       0.074
  -0.00005179  0.03675279  0.03705100       0.074
   0.03685622  0.03672559  0.03687008       0.074
  -0.03695980  0.03677999  0.03723192       0.074
  -0.00004434 -0.03673887  0.03690885       0.074
   0.03686367 -0.03676607  0.03672793       0.074
  -0.03695234 -0.03671167  0.03708977       0.074
 
 k-points in reciprocal lattice and weights: HECN                                    
   0.00000000  0.00000000  0.00000000       0.037
   0.33333333 -0.00000000  0.00000000       0.074
  -0.00000000  0.33333333  0.00000000       0.074
   0.33333333  0.33333333  0.00000000       0.074
  -0.33333333  0.33333333  0.00000000       0.074
  -0.00000000 -0.00000000  0.33333333       0.074
   0.33333333 -0.00000000  0.33333333       0.074
  -0.33333333  0.00000000  0.33333333       0.074
  -0.00000000  0.33333333  0.33333333       0.074
   0.33333333  0.33333333  0.33333333       0.074
  -0.33333333  0.33333333  0.33333333       0.074
  -0.00000000 -0.33333333  0.33333333       0.074
   0.33333333 -0.33333333  0.33333333       0.074
  -0.33333333 -0.33333333  0.33333333       0.074
 
 position of ions in fractional coordinates (direct lattice) 
   0.99375065  0.99869904  0.99791431
   0.24969581  0.99996327  0.25294603
   0.25148989  0.50043348  0.25018032
   0.49996752  0.50010548  0.00012756
   0.49904481  0.24789586  0.74548406
   0.99817213  0.49990233  0.49676097
   0.49995759  0.75226734  0.74872767
   0.98741531  0.23018904  0.27007538
   0.76984676  0.73638645  0.99769782
   0.01650939  0.27533025  0.75125827
   0.76598240  0.26265670  0.48298220
   0.99526148  0.72486118  0.75350038
   0.26183560  0.49214178  0.74788742
   0.24547348  0.25038577  0.99553414
   0.50463143  0.25405391  0.25159795
   0.74815355  0.99588339  0.25340833
   0.75570540  0.25868474  0.99364820
   0.24218774  0.74968638  0.99798260
   0.24658805  0.25113234  0.50427463
   0.24481074  0.75009088  0.50390001
   0.24493836  0.24850025  0.25163897
   0.25684637  0.99979690  0.99499961
   0.00034968  0.25331962  0.01150705
   0.75073311  0.24833109  0.24486127
   0.74554802  0.99972781  0.00094658
   0.50260459  0.99991274  0.24932571
   0.99530668  0.48949502  0.24275196
   0.50074222  0.76084457  0.00546374
   0.99914975  0.00712107  0.74819380
   0.76107646  0.24086718  0.74401110
   0.74274363  0.00570468  0.50332197
   0.50558334  0.24143298  0.49439544
   0.50057418  0.00023285  0.74795374
   0.99585507  0.99944918  0.25307706
   0.50355983  0.24369838  0.00129961
   0.25112088  0.75098178  0.24944264
   0.24397795  0.49985978  0.99490207
   0.99979253  0.74618820  0.00025238
   0.74671170  0.74832588  0.24497443
   0.75576651  0.50319579  0.99897523
   0.50217824  0.50198106  0.25261955
   0.25013524  0.24906464  0.74970947
   0.24939151  0.00033368  0.50314992
   0.99523596  0.24852367  0.51367175
   0.24117208  0.75220536  0.75132560
   0.25317401  0.49982989  0.50501368
   0.99610236  0.75511642  0.50713587
   0.00278824  0.50044996  0.75219539
   0.75299353  0.75251300  0.75238636
   0.74695815  0.49525495  0.49892326
   0.49978000  0.75100540  0.49684204
   0.49856294  0.49992556  0.74529582
   0.50848914  0.00785773  0.99314520
   0.99924969  0.50320791  0.00063114
   0.49988212  0.74515927  0.25359950
   0.24152283  0.00412548  0.74397306
   0.49013034  0.98798714  0.50276242
   0.75376975  0.98907307  0.75197235
   0.99760228  0.76553028  0.25367829
   0.74309014  0.50604712  0.25063830
   0.00450615  0.00216200  0.49883092
   0.50032646  0.51284693  0.49758957
   0.74033993  0.51228718  0.74791081
   0.75315870  0.73977668  0.49881727
 
 position of ions in cartesian coordinates  (Angst):
   9.02582908  9.04301968  9.00512753
   2.27298272  9.06680845  2.28127779
   2.28572874  4.53545992  2.25721727
   4.51881207  4.53706498  0.00616909
   4.54171922  2.23619618  6.72519986
   9.04029419  4.52701061  4.48865088
   4.55347378  6.81145938  6.75359164
   8.93132967  2.08429470  2.44564795
   7.00187533  6.66330011  9.00099348
   0.18412838  2.48453088  6.77153762
   6.94107496  2.37491058  4.36212701
   9.02684938  6.56320842  6.80247317
   2.40109595  4.45157714  6.74366439
   2.26264630  2.25419802  8.97616044
   4.57039965  2.30067153  2.27338561
   6.77480774  9.03023568  2.29130281
   6.87078908  2.32996940  8.96513574
   2.23641284  6.78347176  8.99734408
   2.25101722  2.26953422  4.54797897
   2.23828012  6.79575551  4.54373381
   2.22494087  2.25005975  2.27071652
   2.37034063  9.05237130  8.97020280
   0.00535770  2.29774499  0.10329795
   6.79273656  2.24909527  2.21556003
   6.74014957  9.06950787  0.01558576
   4.55697359  9.06663904  2.25161312
   9.00312507  4.43702746  2.19900797
   4.52778535  6.90222230  0.05383547
   9.05694008  0.05244871  6.75590459
   6.90815176  2.17269648  6.71501038
   6.73037648  0.04363935  4.54563253
   4.58963769  2.18195175  4.46198492
   4.55398742 -0.01047772  6.74790005
   9.01193858  9.06280921  2.29121825
   4.54959600  2.21109498  0.01721162
   2.28403617  6.80827809  2.25013801
   2.25077708  4.51726819  8.97002164
   9.03464101  6.76980627  0.01274332
   6.75976035  6.78470616  2.21568351
   6.87320874  4.54791635  9.01273879
   4.54994404  4.54967994  2.28214444
   2.29388156  2.24650264  6.76036382
   2.27461264 -0.00552039  4.53829979
   9.01284483  2.24637515  4.64147643
   2.21636113  6.81062068  6.77397172
   2.31219159  4.52554422  4.55429562
   9.02376320  6.84195858  4.58171199
   0.06174993  4.52663695  6.77944135
   6.83893656  6.81385011  6.78954071
   6.77151413  4.48459061  4.50520071
   4.54073489  6.80440225  4.48310484
   4.53904161  4.52244304  6.72306929
   4.63635318  0.05442330  8.95812589
   9.02813278  4.56564531  0.01656370
   4.53087348  6.75560998  2.29053761
   2.21420964  0.02467155  6.70897096
   4.45542752  8.95402941  4.53595520
   6.84750809  8.95977188  6.78541613
   9.02618338  6.94084531  2.29705556
   6.72568471  4.58681423  2.26710645
   0.06274664  0.01092144  4.49649090
   4.54411320  4.64397618  4.49025399
   6.72285372  4.63474974  6.74945779
   6.82914241  6.70273477  4.50390276
 


--------------------------------------------------------------------------------------------------------


 k-point     1 :   0.0000 0.0000 0.0000  plane waves:   13383
 k-point     2 :   0.3333-0.0000 0.0000  plane waves:   13412
 k-point     3 :  -0.0000 0.3333 0.0000  plane waves:   13424
 k-point     4 :   0.3333 0.3333 0.0000  plane waves:   13434
 k-point     5 :  -0.3333 0.3333 0.0000  plane waves:   13440
 k-point     6 :  -0.0000-0.0000 0.3333  plane waves:   13410
 k-point     7 :   0.3333-0.0000 0.3333  plane waves:   13437
 k-point     8 :  -0.3333 0.0000 0.3333  plane waves:   13416
 k-point     9 :  -0.0000 0.3333 0.3333  plane waves:   13428
 k-point    10 :   0.3333 0.3333 0.3333  plane waves:   13399
 k-point    11 :  -0.3333 0.3333 0.3333  plane waves:   13395
 k-point    12 :  -0.0000-0.3333 0.3333  plane waves:   13434
 k-point    13 :   0.3333-0.3333 0.3333  plane waves:   13406
 k-point    14 :  -0.3333-0.3333 0.3333  plane waves:   13393

 maximum and minimum number of plane-waves per node :     13440    13383

 maximum number of plane-waves:     13440
 maximum index in each direction: 
   IXMAX=   15   IYMAX=   15   IZMAX=   14
   IXMIN=  -15   IYMIN=  -15   IZMIN=  -15


 serial   3D FFT for wavefunctions
 parallel 3D FFT for charge:
    minimum data exchange during FFTs selected (reduces bandwidth)


 total amount of memory used by VASP MPI-rank0   279347. kBytes
=======================================================================

   base      :      30000. kBytes
   nonl-proj :     203427. kBytes
   fftplans  :       1680. kBytes
   grid      :       8060. kBytes
   one-center:        995. kBytes
   wavefun   :      35185. kBytes
 
     INWAV:  cpu time      0.0000: real time      0.0002
 Broyden mixing: mesh for mixing (old mesh)
   NGX = 29   NGY = 29   NGZ = 29
  (NGX  = 96   NGY  = 96   NGZ  = 96)
  gives a total of  24389 points

 initial charge density was supplied:
 charge density of overlapping atoms calculated
 number of electron     511.0000000 magnetization 
 keeping initial charge density in first step


--------------------------------------------------------------------------------------------------------


 Maximum index for augmentation-charges          625 (set IRDMAX)


--------------------------------------------------------------------------------------------------------


 First call to EWALD:  gamma=   0.196
 Maximum number of real-space cells 3x 3x 3
 Maximum number of reciprocal cells 3x 3x 3

    FEWALD:  cpu time      0.0021: real time      0.0023


--------------------------------------- Ionic step        1  -------------------------------------------




--------------------------------------- Iteration      1(   1)  ---------------------------------------


    POTLOK:  cpu time      0.0231: real time      0.0314
    SETDIJ:  cpu time      0.0063: real time      0.0092
     EDDAV:  cpu time     20.6754: real time     20.7965
       DOS:  cpu time      0.0013: real time      0.0040
    --------------------------------------------
      LOOP:  cpu time     20.7062: real time     20.8411

 eigenvalue-minimisations  :  8624
 total energy-change (2. order) : 0.4506021E+04  (-0.2323559E+05)
 number of electron     511.0000000 magnetization 
 augmentation part      511.0000000 magnetization 

 Free energy of the ion-electron system (eV)
  ---------------------------------------------------
  alpha Z        PSCENC =      4650.35817871
  Ewald energy   TEWEN  =    -41451.35437318
  -Hartree energ DENC   =     -5759.33109387
  -exchange      EXHF   =         0.00000000
  -V(xc)+E(xc)   XCENC  =      1728.29130756
  PAW double counting   =     26359.63713107   -25893.84076579
  entropy T*S    EENTRO =        -0.06143621
  eigenvalues    EBANDS =       471.67862612
  atomic energy  EATOM  =     44400.64352583
  Solvation  Ediel_sol  =         0.00000000
  ---------------------------------------------------
  free energy    TOTEN  =      4506.02110026 eV

  energy without entropy =     4506.08253647  energy(sigma->0) =     4506.05181836


--------------------------------------------------------------------------------------------------------




--------------------------------------- Iteration      1(   2)  ---------------------------------------


     EDDAV:  cpu time     22.7249: real time     23.5500
       DOS:  cpu time      0.0009: real time      0.0009
    --------------------------------------------
      LOOP:  cpu time     22.7257: real time     23.5509

 eigenvalue-minimisations  :  9800
 total energy-change (2. order) :-0.4694940E+04  (-0.4483909E+04)
 number of electron     511.0000000 magnetization 
 augmentation part      511.0000000 magnetization 

 Free energy of the ion-electron system (eV)
  ---------------------------------------------------
  alpha Z        PSCENC =      4650.35817871
  Ewald energy   TEWEN  =    -41451.35437318
  -Hartree energ DENC   =     -5759.33109387
  -exchange      EXHF   =         0.00000000
  -V(xc)+E(xc)   XCENC  =      1728.29130756
  PAW double counting   =     26359.63713107   -25893.84076579
  entropy T*S    EENTRO =        -0.07902280
  eigenvalues    EBANDS =     -4223.24345875
  atomic energy  EATOM  =     44400.64352583
  Solvation  Ediel_sol  =         0.00000000
  ---------------------------------------------------
  free energy    TOTEN  =      -188.91857121 eV

  energy without entropy =     -188.83954841  energy(sigma->0) =     -188.87905981


--------------------------------------------------------------------------------------------------------




--------------------------------------- Iteration      1(   3)  ---------------------------------------


     EDDAV:  cpu time     30.2561: real time     30.8612
       DOS:  cpu time      0.0009: real time      0.0009
    --------------------------------------------
      LOOP:  cpu time     30.2571: real time     30.8621

 eigenvalue-minimisations  : 13720
 total energy-change (2. order) :-0.5643074E+03  (-0.5539122E+03)
 number of electron     511.0000000 magnetization 
 augmentation part      511.0000000 magnetization 

 Free energy of the ion-electron system (eV)
  ---------------------------------------------------
  alpha Z        PSCENC =      4650.35817871
  Ewald energy   TEWEN  =    -41451.35437318
  -Hartree energ DENC   =     -5759.33109387
  -exchange      EXHF   =         0.00000000
  -V(xc)+E(xc)   XCENC  =      1728.29130756
  PAW double counting   =     26359.63713107   -25893.84076579
  entropy T*S    EENTRO =        -0.07482502
  eigenvalues    EBANDS =     -4787.55508256
  atomic energy  EATOM  =     44400.64352583
  Solvation  Ediel_sol  =         0.00000000
  ---------------------------------------------------
  free energy    TOTEN  =      -753.22599724 eV

  energy without entropy =     -753.15117222  energy(sigma->0) =     -753.18858473


--------------------------------------------------------------------------------------------------------




--------------------------------------- Iteration      1(   4)  ---------------------------------------


     EDDAV:  cpu time     31.8405: real time     32.4643
       DOS:  cpu time      0.0009: real time      0.0033
    --------------------------------------------
      LOOP:  cpu time     31.8414: real time     32.4676

 eigenvalue-minimisations  : 14420
 total energy-change (2. order) :-0.3406485E+02  (-0.3373687E+02)
 number of electron     511.0000000 magnetization 
 augmentation part      511.0000000 magnetization 

 Free energy of the ion-electron system (eV)
  ---------------------------------------------------
  alpha Z        PSCENC =      4650.35817871
  Ewald energy   TEWEN  =    -41451.35437318
  -Hartree energ DENC   =     -5759.33109387
  -exchange      EXHF   =         0.00000000
  -V(xc)+E(xc)   XCENC  =      1728.29130756
  PAW double counting   =     26359.63713107   -25893.84076579
  entropy T*S    EENTRO =        -0.08127530
  eigenvalues    EBANDS =     -4821.61348404
  atomic energy  EATOM  =     44400.64352583
  Solvation  Ediel_sol  =         0.00000000
  ---------------------------------------------------
  free energy    TOTEN  =      -787.29084899 eV

  energy without entropy =     -787.20957369  energy(sigma->0) =     -787.25021134


--------------------------------------------------------------------------------------------------------




--------------------------------------- Iteration      1(   5)  ---------------------------------------


     EDDAV:  cpu time     33.0334: real time     33.6545
       DOS:  cpu time      0.0008: real time      0.0008
    CHARGE:  cpu time      0.1771: real time      0.1831
    MIXING:  cpu time      0.0026: real time      0.0062
    --------------------------------------------
      LOOP:  cpu time     33.2139: real time     33.8446

 eigenvalue-minimisations  : 14924
 total energy-change (2. order) :-0.3303192E+01  (-0.3291390E+01)
 number of electron     510.9999987 magnetization 
 augmentation part       92.1898177 magnetization 

 Broyden mixing:
  rms(total) = 0.55058E+01    rms(broyden)= 0.55043E+01
  rms(prec ) = 0.88036E+01
  weight for this iteration     100.00

 Free energy of the ion-electron system (eV)
  ---------------------------------------------------
  alpha Z        PSCENC =      4650.35817871
  Ewald energy   TEWEN  =    -41451.35437318
  -Hartree energ DENC   =     -5759.33109387
  -exchange      EXHF   =         0.00000000
  -V(xc)+E(xc)   XCENC  =      1728.29130756
  PAW double counting   =     26359.63713107   -25893.84076579
  entropy T*S    EENTRO =        -0.08231689
  eigenvalues    EBANDS =     -4824.91563415
  atomic energy  EATOM  =     44400.64352583
  Solvation  Ediel_sol  =         0.00000000
  ---------------------------------------------------
  free energy    TOTEN  =      -790.59404070 eV

  energy without entropy =     -790.51172381  energy(sigma->0) =     -790.55288225


--------------------------------------------------------------------------------------------------------




--------------------------------------- Iteration      1(   6)  ---------------------------------------


    POTLOK:  cpu time      0.0192: real time      0.0196
    SETDIJ:  cpu time      0.0052: real time      0.0052
    EDDIAG:  cpu time      1.3543: real time      1.3804
  RMM-DIIS:  cpu time     18.5876: real time     19.0590
    ORTHCH:  cpu time      0.3410: real time      0.3464
       DOS:  cpu time      0.0009: real time      0.0009
    CHARGE:  cpu time      0.1719: real time      0.1740
    MIXING:  cpu time      0.0014: real time      0.0027
    --------------------------------------------
      LOOP:  cpu time     20.4815: real time     20.9883

 eigenvalue-minimisations  : 12037
 total energy-change (2. order) : 0.1238394E+03  (-0.5587806E+02)
 number of electron     510.9999975 magnetization 
 augmentation part       95.5526815 magnetization 

 Broyden mixing:
  rms(total) = 0.13411E+01    rms(broyden)= 0.13394E+01
  rms(prec ) = 0.21409E+01
  weight for this iteration     100.00

 eigenvalues of (default mixing * dielectric matrix)
  average eigenvalue GAMMA=   0.9420
  0.9420

 Free energy of the ion-electron system (eV)
  ---------------------------------------------------
  alpha Z        PSCENC =      4650.35817871
  Ewald energy   TEWEN  =    -41451.35437318
  -Hartree energ DENC   =     -5506.36596237
  -exchange      EXHF   =         0.00000000
  -V(xc)+E(xc)   XCENC  =      1731.34851625
  PAW double counting   =     26096.96108939   -25688.21467569
  entropy T*S    EENTRO =        -0.10434473
  eigenvalues    EBANDS =     -4900.02657095
  atomic energy  EATOM  =     44400.64352583
  Solvation  Ediel_sol  =         0.00000000
  ---------------------------------------------------
  free energy    TOTEN  =      -666.75461674 eV

  energy without entropy =     -666.65027201  energy(sigma->0) =     -666.70244438


--------------------------------------------------------------------------------------------------------




--------------------------------------- Iteration      1(   7)  ---------------------------------------


    POTLOK:  cpu time      0.0185: real time      0.0186
    SETDIJ:  cpu time      0.0052: real time      0.0052
    EDDIAG:  cpu time      1.3796: real time      1.3983
  RMM-DIIS:  cpu time     21.7359: real time     21.9086
    ORTHCH:  cpu time      0.3488: real time      0.3502
       DOS:  cpu time      0.0008: real time      0.0008
    CHARGE:  cpu time      0.2008: real time      0.2062
    MIXING:  cpu time      0.0074: real time      0.0074
    --------------------------------------------
      LOOP:  cpu time     23.6970: real time     23.8954

 eigenvalue-minimisations  : 13748
 total energy-change (2. order) :-0.5530135E+01  (-0.1162211E+02)
 number of electron     510.9999975 magnetization 
 augmentation part       94.6876785 magnetization 

 Broyden mixing:
  rms(total) = 0.93270E+00    rms(broyden)= 0.93217E+00
  rms(prec ) = 0.12439E+01
  weight for this iteration     100.00

 eigenvalues of (default mixing * dielectric matrix)
  average eigenvalue GAMMA=   1.0131
  1.0131  1.0131

 Free energy of the ion-electron system (eV)
  ---------------------------------------------------
  alpha Z        PSCENC =      4650.35817871
  Ewald energy   TEWEN  =    -41451.35437318
  -Hartree energ DENC   =     -5440.43275837
[...]
  0.002  -0.004   0.000   0.003  -0.001  -0.000  -0.010  -0.000   0.008   0.002   0.002   0.528  -0.002   0.000   0.000  -0.002
  0.023  -0.041  -0.014  -0.000   0.014   0.060   0.002  -0.049   0.019   0.006   0.028  -0.002   0.485  -0.009  -0.003  -0.028
 -0.005   0.014   0.005  -0.000   0.001  -0.008   0.004   0.009  -0.593  -0.004  -0.010   0.000  -0.009   0.975   0.001  -0.002
 -0.016   0.031   0.005   0.003  -0.001  -0.056   0.005   0.005  -0.004  -0.556   0.022   0.000  -0.003   0.001   0.992  -0.058
  0.033  -0.065   0.000  -0.010   0.009  -0.047   0.003  -0.073  -0.010   0.022  -1.088  -0.002  -0.028  -0.002  -0.058   2.668
 -0.003   0.004  -0.000   0.004  -0.002   0.004   0.013   0.012  -0.000   0.000  -0.002  -0.618   0.004  -0.005   0.004  -0.001
 -0.022   0.037  -0.001  -0.001  -0.015  -0.076   0.021   0.144  -0.009  -0.003  -0.028   0.004  -1.011  -0.007  -0.021   0.008


------------------------ aborting loop because EDIFF is reached ----------------------------------------


    CHARGE:  cpu time      0.1748: real time      0.1761
    FORLOC:  cpu time      0.0074: real time      0.0074
    FORNL :  cpu time      6.5852: real time      6.6360
    STRESS:  cpu time     27.8602: real time     28.1586
    FORCOR:  cpu time      0.0239: real time      0.0239
    FORHAR:  cpu time      0.0102: real time      0.0102
    MIXING:  cpu time      0.0008: real time      0.0008
    OFIELD:  cpu time      0.0000: real time      0.0000

  FORCE on cell =-STRESS in cart. coord.  units (eV):
  Direction    XX          YY          ZZ          XY          YZ          ZX
  --------------------------------------------------------------------------------------
  Alpha Z  4650.05752  4650.05752  4650.05752
  Ewald  -13875.63288-13895.92584-13679.02355    -1.82905    -0.11365    10.41359
  Hartree  1742.73300  1787.51311  1893.47690     1.86310    -1.17590     0.92081
  E(xc)   -2157.93036 -2158.52621 -2157.71161     0.01045    -0.08712     0.04981
  Local    2556.84395  2530.51005  2218.32343    -1.04074     0.19769   -14.55637
  n-local -1287.20001 -1283.77278 -1283.59778     2.14641     0.58441     1.81102
  augment   777.29661   775.06362   776.15223     0.07745     0.13394     0.53647
  Kinetic  7593.61510  7594.88043  7582.15200    -1.22240     0.46795     0.83389
  Fock        0.00000     0.00000     0.00000     0.00000     0.00000     0.00000
  -------------------------------------------------------------------------------------
  Total      -0.21707    -0.20011    -0.17086     0.00522     0.00732     0.00922
  in kB      -0.47091    -0.43411    -0.37065     0.01132     0.01588     0.02001
  external pressure =       -0.43 kB  Pullay stress =        0.00 kB


 VOLUME and BASIS-vectors are now :
 -----------------------------------------------------------------------------
  energy-cutoff  :      400.00
  volume of cell :      738.54
      direct lattice vectors                 reciprocal lattice vectors
     9.031907207  0.001122092  0.012037173     0.110719325 -0.000084388 -0.000546410
     0.006906319  9.071346875 -0.001550481    -0.000013977  0.110237260  0.000211422
     0.044472434 -0.017282414  9.014139922    -0.000147853  0.000019074  0.110937584

  length of vectors
     9.031915297  9.071349636  9.014266193     0.110720706  0.110237464  0.110937684


 FORCES acting on ions
    electron-ion (+dipol)            ewald-force                    non-local-force                 convergence-correction
 -----------------------------------------------------------------------------------------------
   -.569E+02 -.291E+02 0.789E+01   0.567E+02 0.278E+02 -.724E+01   0.205E+00 0.128E+01 -.652E+00   -.160E-02 -.600E-02 0.294E-02
   -.773E+02 -.455E+01 0.486E+02   0.764E+02 0.298E+01 -.471E+02   0.853E+00 0.157E+01 -.148E+01   -.311E-02 -.125E-02 0.187E-02
   -.196E+02 0.759E+01 0.373E+02   0.206E+02 -.631E+01 -.373E+02   -.102E+01 -.128E+01 -.421E-01   -.597E-03 0.227E-02 -.939E-03
   0.740E+02 0.403E+02 -.206E+02   -.744E+02 -.422E+02 0.210E+02   0.423E+00 0.185E+01 -.394E+00   0.191E-02 0.378E-02 0.265E-02
   0.496E+01 0.215E+02 -.462E+02   -.606E+01 -.202E+02 0.470E+02   0.110E+01 -.138E+01 -.853E+00   -.428E-02 0.963E-03 0.525E-02
   -.116E+03 -.167E+02 0.169E+02   0.117E+03 0.173E+02 -.169E+02   -.425E+00 -.559E+00 0.785E-01   0.442E-02 0.785E-02 -.338E-02
   0.996E+02 -.349E+02 -.545E+02   -.998E+02 0.335E+02 0.534E+02   0.157E+00 0.145E+01 0.108E+01   0.396E-03 -.429E-02 0.573E-03
   -.104E+03 -.314E+02 0.101E+03   0.105E+03 0.300E+02 -.995E+02   -.447E+00 0.141E+01 -.130E+01   0.597E-03 -.204E-02 -.619E-03
   0.927E+02 -.793E+02 -.303E+02   -.918E+02 0.774E+02 0.308E+02   -.951E+00 0.195E+01 -.530E+00   0.525E-03 -.132E-02 0.293E-02
   0.701E+01 0.744E+02 -.591E+02   -.612E+01 -.729E+02 0.570E+02   -.893E+00 -.146E+01 0.204E+01   0.376E-02 -.135E-02 0.175E-02
   0.108E+03 0.769E+02 -.742E+02   -.107E+03 -.753E+02 0.750E+02   -.117E+01 -.161E+01 -.851E+00   0.462E-02 -.265E-02 -.109E-01
   -.115E+03 -.962E+02 -.438E+01   0.116E+03 0.948E+02 0.339E+01   -.980E+00 0.135E+01 0.989E+00   0.270E-02 0.600E-03 0.128E-02
   -.748E+01 -.423E+02 -.410E+02   0.899E+01 0.424E+02 0.408E+02   -.151E+01 -.145E+00 0.228E+00   0.722E-03 0.877E-02 0.508E-03
   -.631E+02 0.661E+01 -.418E+02   0.640E+02 -.522E+01 0.411E+02   -.903E+00 -.139E+01 0.668E+00   0.528E-03 0.169E-02 0.299E-02
   0.698E+02 0.385E+02 0.563E+02   -.698E+02 -.368E+02 -.570E+02   0.219E-01 -.163E+01 0.684E+00   -.124E-02 0.173E-02 -.319E-02
   0.708E+02 -.761E+01 0.396E+02   -.700E+02 0.581E+01 -.393E+02   -.819E+00 0.181E+01 -.379E+00   0.300E-02 -.258E-02 -.309E-02
   0.526E+02 0.347E+02 0.478E+01   -.537E+02 -.326E+02 -.518E+01   0.108E+01 -.202E+01 0.396E+00   -.104E-02 0.140E-02 0.374E-02
   -.506E+02 -.493E+01 -.585E+01   0.496E+02 0.386E+01 0.609E+01   0.944E+00 0.107E+01 -.243E+00   -.261E-02 -.265E-02 -.906E-03
   -.575E+02 0.477E+01 0.340E+02   0.567E+02 -.434E+01 -.334E+02   0.791E+00 -.427E+00 -.625E+00   -.183E-02 -.223E-03 -.303E-02
   -.199E+02 -.231E+01 0.581E+01   0.195E+02 0.204E+01 -.597E+01   0.388E+00 0.275E+00 0.152E+00   -.791E-03 -.174E-02 0.125E-02
   -.352E+02 -.755E+01 0.227E+02   0.362E+02 0.864E+01 -.231E+02   -.102E+01 -.109E+01 0.484E+00   -.146E-02 0.236E-03 0.189E-03
   -.188E+02 0.381E+00 -.249E+01   0.180E+02 -.971E+00 0.381E+01   0.772E+00 0.590E+00 -.132E+01   -.162E-02 -.151E-02 0.876E-03
   -.144E+02 0.823E+01 -.767E+01   0.148E+02 -.877E+01 0.854E+01   -.455E+00 0.536E+00 -.867E+00   0.609E-03 0.101E-03 0.426E-02
   0.542E+02 0.333E+02 0.662E+02   -.569E+02 -.329E+02 -.705E+02   0.270E+01 -.411E+00 0.430E+01   0.330E-02 -.579E-03 -.974E-03
   0.195E+02 -.234E+02 -.177E+02   -.183E+02 0.238E+02 0.198E+02   -.125E+01 -.376E+00 -.209E+01   0.152E-02 -.314E-02 0.143E-02
   0.710E+01 -.166E+02 0.177E+02   -.770E+01 0.173E+02 -.179E+02   0.599E+00 -.789E+00 0.130E+00   0.482E-03 -.116E-02 -.779E-03
   -.483E+02 0.421E+01 0.169E+02   0.491E+02 -.344E+01 -.158E+02   -.831E+00 -.766E+00 -.108E+01   0.108E-02 -.511E-03 0.847E-04
   0.311E+02 -.126E+02 -.110E+02   -.313E+02 0.116E+02 0.100E+02   0.230E+00 0.103E+01 0.103E+01   0.232E-02 -.258E-02 0.639E-03
   -.795E+01 0.121E+01 -.222E+02   0.738E+01 -.142E+01 0.224E+02   0.568E+00 0.209E+00 -.181E+00   0.217E-03 -.507E-02 0.163E-02
   0.154E+02 0.196E+02 -.177E+02   -.160E+02 -.196E+02 0.177E+02   0.639E+00 0.215E-01 -.787E-01   -.110E-02 -.127E-02 0.467E-02
   0.359E+02 -.131E+02 -.564E+00   -.361E+02 0.131E+02 0.162E+00   0.191E+00 0.525E-02 0.404E+00   0.919E-03 -.380E-02 -.196E-02
   0.251E+02 0.206E+02 0.135E+02   -.254E+02 -.200E+02 -.130E+02   0.253E+00 -.620E+00 -.506E+00   -.390E-02 -.105E-02 -.171E-02
   0.196E+02 -.107E+02 -.106E+02   -.202E+02 0.108E+02 0.103E+02   0.659E+00 -.103E+00 0.318E+00   -.124E-03 -.158E-02 0.351E-03
   -.758E+01 -.564E+01 0.362E+02   0.785E+01 0.412E+01 -.369E+02   -.273E+00 0.153E+01 0.635E+00   -.226E-03 0.123E-02 -.244E-04
   0.155E+02 -.414E+01 -.182E+02   -.156E+02 0.543E+01 0.181E+02   0.103E+00 -.129E+01 0.111E+00   0.268E-03 0.123E-02 0.422E-03
   -.195E+02 0.391E+01 0.101E+02   0.192E+02 -.422E+01 -.100E+02   0.313E+00 0.311E+00 -.564E-01   0.183E-03 -.567E-03 -.593E-04
   -.153E+02 -.297E+00 -.149E+02   0.162E+02 0.571E+00 0.164E+02   -.862E+00 -.276E+00 -.153E+01   0.160E-03 0.143E-02 0.230E-03
   -.554E+02 -.153E+02 -.351E+01   0.576E+02 0.163E+02 0.464E+01   -.221E+01 -.992E+00 -.112E+01   -.102E-02 -.279E-03 -.118E-02
   0.250E+02 -.419E+02 0.179E+02   -.251E+02 0.424E+02 -.170E+02   0.576E-01 -.482E+00 -.844E+00   -.925E-03 -.101E-02 -.241E-02
   0.190E+02 0.431E+02 -.245E+01   -.201E+02 -.451E+02 0.237E+01   0.105E+01 0.192E+01 0.845E-01   -.372E-03 0.275E-02 0.172E-02
   0.448E+02 0.241E+02 0.317E+02   -.456E+02 -.248E+02 -.323E+02   0.781E+00 0.720E+00 0.627E+00   0.103E-02 0.180E-02 -.176E-02
   -.272E+02 0.224E+02 -.137E+02   0.290E+02 -.233E+02 0.136E+02   -.186E+01 0.885E+00 0.123E+00   0.188E-02 -.401E-03 -.168E-03
   -.288E+02 -.234E+00 0.220E+01   0.283E+02 0.390E-01 -.321E+01   0.435E+00 0.195E+00 0.101E+01   -.505E-03 -.949E-03 -.117E-02
   -.430E+02 -.528E+00 -.160E+02   0.441E+02 0.638E+00 0.172E+02   -.102E+01 -.111E+00 -.122E+01   0.361E-02 -.163E-02 -.456E-02
   -.144E+02 -.105E+02 -.101E+02   0.155E+02 0.113E+02 0.998E+01   -.114E+01 -.769E+00 0.111E+00   -.203E-02 -.200E-02 -.168E-03
   0.854E+01 -.118E+01 0.171E+02   -.934E+01 0.136E+01 -.187E+02   0.807E+00 -.173E+00 0.159E+01   -.102E-02 0.177E-02 0.118E-03
   -.460E+02 0.897E+00 -.741E+01   0.463E+02 -.942E+00 0.661E+01   -.362E+00 0.459E-01 0.799E+00   -.224E-04 -.129E-02 0.177E-02
   -.215E+02 0.710E+01 -.843E+01   0.208E+02 -.720E+01 0.737E+01   0.733E+00 0.955E-01 0.106E+01   0.119E-02 0.636E-02 0.959E-03
   0.164E+02 -.388E+02 -.998E+01   -.182E+02 0.388E+02 0.880E+01   0.176E+01 -.328E-01 0.118E+01   0.423E-03 -.694E-03 0.500E-03
   0.190E+01 0.157E+02 -.895E+01   -.141E+01 -.147E+02 0.939E+01   -.495E+00 -.100E+01 -.432E+00   0.543E-03 0.606E-02 -.846E-03
   0.398E+02 -.337E+02 0.615E+01   -.402E+02 0.332E+02 -.522E+01   0.405E+00 0.530E+00 -.926E+00   -.444E-03 -.999E-03 -.711E-03
   0.210E+02 0.134E+02 -.278E+02   -.197E+02 -.134E+02 0.284E+02   -.128E+01 -.368E-01 -.567E+00   -.119E-02 0.251E-02 0.193E-02
   0.525E+02 -.215E+02 -.462E+02   -.525E+02 0.228E+02 0.463E+02   0.137E-01 -.133E+01 -.114E+00   0.253E-02 -.205E-02 0.167E-02
   -.792E+02 0.385E+02 -.211E+02   0.800E+02 -.380E+02 0.220E+02   -.770E+00 -.472E+00 -.850E+00   -.956E-03 0.662E-02 0.161E-02
   0.741E+02 -.622E+02 0.537E+02   -.748E+02 0.606E+02 -.531E+02   0.656E+00 0.155E+01 -.524E+00   0.232E-02 -.402E-02 -.614E-03
   -.425E+02 0.275E+02 -.413E+02   0.418E+02 -.280E+02 0.399E+02   0.736E+00 0.420E+00 0.133E+01   -.125E-02 -.359E-02 -.106E-02
   0.253E+02 -.387E+02 0.332E+02   -.266E+02 0.375E+02 -.333E+02   0.126E+01 0.119E+01 0.409E-01   -.359E-02 -.481E-02 -.237E-02
   0.237E+02 -.547E+02 -.174E+02   -.229E+02 0.539E+02 0.166E+02   -.818E+00 0.741E+00 0.886E+00   0.134E-02 -.743E-02 0.482E-02
   -.919E+02 0.418E+02 0.279E+02   0.919E+02 -.412E+02 -.278E+02   0.131E-01 -.619E+00 -.947E-01   -.901E-03 0.850E-03 -.249E-02
   0.261E+02 0.338E+02 0.825E+02   -.260E+02 -.333E+02 -.824E+02   -.141E+00 -.488E+00 -.733E-01   -.330E-02 0.677E-02 -.612E-02
   -.362E+02 0.227E+02 -.453E+02   0.363E+02 -.228E+02 0.455E+02   -.136E+00 0.107E+00 -.136E+00   0.315E-02 -.228E-02 -.640E-02
   0.112E+03 0.690E+02 0.146E+02   -.113E+03 -.683E+02 -.147E+02   0.113E+00 -.666E+00 0.103E+00   -.289E-02 0.100E-01 -.312E-02
   0.225E+02 0.107E+03 -.582E+02   -.230E+02 -.107E+03 0.582E+02   0.519E+00 -.377E+00 0.789E-02   -.199E-02 0.127E-01 0.479E-02
   0.266E+02 -.103E+03 0.158E+02   -.264E+02 0.103E+03 -.158E+02   -.193E+00 0.393E+00 0.424E-01   0.135E-02 -.290E-02 0.290E-03
 -----------------------------------------------------------------------------------------------
   0.188E+01 -.187E+01 -.761E+00   -.568E-12 -.199E-12 -.270E-12   -.190E+01 0.187E+01 0.757E+00   0.567E-02 0.626E-02 -.407E-02
 
 
 POSITION                                       TOTAL-FORCE (eV/Angst)
 -----------------------------------------------------------------------------------
      9.02680      9.04338      9.00571         0.000937      0.001305     -0.000016
      2.27348      9.06692      2.28166         0.001976      0.000554      0.000288
      2.28596      4.53569      2.25735        -0.000146      0.000776     -0.001084
      4.51925      4.53717      0.00654         0.001490      0.001082      0.002165
      4.54222      2.23644      6.72548         0.001148      0.001950     -0.003247
      9.04088      4.52739      4.48908        -0.001218     -0.001364      0.000594
      4.55389      6.81167      6.75390        -0.004411      0.000481     -0.001700
      8.93171      2.08456      2.44617        -0.000612     -0.000343      0.002217
      7.00259      6.66366      9.00187         0.000891      0.000681      0.004624
      0.18439      2.48432      6.77167         0.000911     -0.000270     -0.000990
      6.94168      2.37488      4.36213         0.004631     -0.003144     -0.002701
      9.02780      6.56379      6.80300         0.000339      0.005458      0.000016
      2.40155      4.45191      6.74390         0.001860      0.000333     -0.000466
      2.26327      2.25445      8.97624         0.002327      0.001337     -0.003353
      4.57082      2.30070      2.27362         0.001089     -0.001582     -0.000055
      6.77529      9.03062      2.29180        -0.000951      0.001214      0.000940
      6.87142      2.33047      8.96533         0.002293      0.003757     -0.003680
      2.23699      6.78368      8.99754        -0.000513     -0.000150     -0.001946
      2.25131      2.26961      4.54834         0.000223      0.000869      0.001747
      2.23877      6.79576      4.54407        -0.001674     -0.002972      0.000097
      2.22521      2.25016      2.27089         0.001698      0.000545      0.000121
      2.37095      9.05252      8.97056         0.000033     -0.000605     -0.001668
      0.00561      2.29779      0.10338         0.003528      0.001051      0.001812
      6.79336      2.24924      2.21625         0.001481     -0.000741      0.001858
      6.74075      9.06964      0.01607         0.002831      0.000134      0.003561
      4.55756      9.06676      2.25177         0.001403     -0.000609     -0.003585
      9.00384      4.43738      2.19955         0.001913      0.001327      0.002243
      4.52826      6.90229      0.05413         0.001709     -0.000813      0.000178
      9.05751      0.05259      6.75638        -0.000111     -0.004310     -0.000417
      6.90887      2.17297      6.71544         0.002555     -0.000701      0.002616
      6.73078      0.04385      4.54601        -0.001126      0.000671      0.000617
      4.59007      2.18203      4.46219         0.000123     -0.002890     -0.002446
      4.55443     -0.01025      6.74810        -0.000055      0.000429     -0.003224
      9.01259      9.06301      2.29175        -0.000512      0.002100     -0.000516
      4.54994      2.21117      0.01730         0.002488      0.000212     -0.001610
      2.28434      6.80840      2.25029        -0.000236      0.001174     -0.001553
      2.25127      4.51745      8.97037        -0.000058      0.000138     -0.000144
      9.03524      6.77007      0.01330         0.000210      0.000933      0.003103
      6.76028      6.78484      2.21595        -0.000537     -0.000282      0.000214
      6.87399      4.54828      9.01328         0.000686      0.000896      0.002196
      4.55051      4.54985      2.28226        -0.000845     -0.000773     -0.001920
      2.29432      2.24647      6.76057         0.002244     -0.001315     -0.000920
      2.27482     -0.00550      4.53842        -0.001747     -0.001706     -0.002279
      9.01353      2.24640      4.64201         0.000906     -0.002497      0.001301
      2.21667      6.81077      6.77427        -0.002883     -0.000596     -0.001378
      2.31246      4.52565      4.55461        -0.001981     -0.000388      0.000089
      9.02432      6.84218      4.58226        -0.000967     -0.000387      0.000196
      0.06200      4.52695      6.77975        -0.001856     -0.000796      0.000932
      6.83945      6.81411      6.78986        -0.003586      0.000530      0.000533
      6.77211      4.48496      4.50597        -0.000665     -0.001439      0.005595
      4.54122      6.80461      4.48330        -0.001617      0.001060     -0.001970
      4.53957      4.52275      6.72356        -0.002455      0.001750      0.000909
      4.63699      0.05476      8.95836         0.003980     -0.000040     -0.001779
      9.02853      4.56596      0.01686        -0.000852      0.001740     -0.000116
      4.53133      6.75566      2.29087        -0.000538     -0.000305     -0.001157
      2.21453      0.02498      6.70896        -0.000359      0.001551     -0.003597
      4.45576      8.95419      4.53621        -0.004805     -0.001146     -0.003153
      6.84822      8.96016      6.78614        -0.000457     -0.000207      0.004716
      9.02692      6.94152      2.29760         0.001026     -0.003417     -0.000919
      6.72559      4.58710      2.26765        -0.001264     -0.006729      0.004434
      0.06312      0.01112      4.49617        -0.004101      0.003543      0.001384
      4.54440      4.64456      4.49027        -0.002929     -0.001133     -0.004764
      6.72307      4.63537      6.74995        -0.001585     -0.001740      0.001442
      6.82979      6.70269      4.50452        -0.001281      0.005811      0.005620
 -----------------------------------------------------------------------------------
    total drift:                               -0.009942      0.010531     -0.008044


--------------------------------------------------------------------------------------------------------



  FREE ENERGIE OF THE ION-ELECTRON SYSTEM (eV)
  ---------------------------------------------------
  free  energy   TOTEN  =      -674.92999835 eV

  energy  without entropy=     -674.83130452  energy(sigma->0) =     -674.88065143
 
 d Force = 0.1379058E-07[-0.103E-04, 0.104E-04]  d Energy =-0.2034467E-05 0.205E-05
 d Force = 0.1977447E-01[ 0.197E-01, 0.199E-01]  d Ewald  = 0.6615747E+00-0.642E+00


--------------------------------------------------------------------------------------------------------


    POTLOK:  cpu time      0.0293: real time      0.0293


--------------------------------------------------------------------------------------------------------




--------------------------------------------------------------------------------------------------------


  
 reached required accuracy - stopping structural energy minimisation
     LOOP+:  cpu time     91.1225: real time     91.9453
    4ORBIT:  cpu time      0.0000: real time      0.0000

 total amount of memory used by VASP MPI-rank0   279347. kBytes
=======================================================================

   base      :      30000. kBytes
   nonl-proj :     203427. kBytes
   fftplans  :       1680. kBytes
   grid      :       8060. kBytes
   one-center:        995. kBytes
   wavefun   :      35185. kBytes
 
  
  
 General timing and accounting informations for this job:
 ========================================================
  
                  Total CPU time used (sec):     2330.429
                            User time (sec):     2317.968
                          System time (sec):       12.461
                         Elapsed time (sec):     2359.899
  
                   Maximum memory used (kb):      373256.
                   Average memory used (kb):          N/A
  
                          Minor page faults:       658384
                          Major page faults:            1
                 Voluntary context switches:         1439
