HECN                                    
           1
     9.031522    0.000893    0.011738
     0.006676    9.071328   -0.001699
     0.044173   -0.017430    9.013959
   Zr   W    Hf   N    C    Ta   Nb
     7     6     7    13    19     6     6
Direct configuration=     1
   0.99375065  0.99869904  0.99791431
   0.24969581  0.99996327  0.25294603
   0.25148989  0.50043348  0.25018032
   0.49996752  0.50010548  0.00012756
   0.49904481  0.24789586  0.74548406
   0.99817213  0.49990233  0.49676097
   0.49995759  0.75226734  0.74872767
   0.98741531  0.23018904  0.27007538
   0.76984676  0.73638645  0.99769782
   0.01650939  0.27533025  0.75125827
   0.76598240  0.26265670  0.48298220
   0.99526148  0.72486118  0.75350038
   0.26183560  0.49214178  0.74788742
   0.24547348  0.25038577  0.99553414
   0.50463143  0.25405391  0.25159795
   0.74815355  0.99588339  0.25340833
   0.75570540  0.25868474  0.99364820
   0.24218774  0.74968638  0.99798260
   0.24658805  0.25113234  0.50427463
   0.24481074  0.75009088  0.50390001
   0.24493836  0.24850025  0.25163897
   0.25684637  0.99979690  0.99499961
   0.00034968  0.25331962  0.01150705
   0.75073311  0.24833109  0.24486127
   0.74554802  0.99972781  0.00094658
   0.50260459  0.99991274  0.24932571
   0.99530668  0.48949502  0.24275196
   0.50074222  0.76084457  0.00546374
   0.99914975  0.00712107  0.74819380
   0.76107646  0.24086718  0.74401110
   0.74274363  0.00570468  0.50332197
   0.50558334  0.24143298  0.49439544
   0.50057418  0.00023285  0.74795374
   0.99585507  0.99944918  0.25307706
   0.50355983  0.24369838  0.00129961
   0.25112088  0.75098178  0.24944264
   0.24397795  0.49985978  0.99490207
   0.99979253  0.74618820  0.00025238
   0.74671170  0.74832588  0.24497443
   0.75576651  0.50319579  0.99897523
   0.50217824  0.50198106  0.25261955
   0.25013524  0.24906464  0.74970947
   0.24939151  0.00033368  0.50314992
   0.99523596  0.24852367  0.51367175
   0.24117208  0.75220536  0.75132560
   0.25317401  0.49982989  0.50501368
   0.99610236  0.75511642  0.50713587
   0.00278824  0.50044996  0.75219539
   0.75299353  0.75251300  0.75238636
   0.74695815  0.49525495  0.49892326
   0.49978000  0.75100540  0.49684204
   0.49856294  0.49992556  0.74529582
   0.50848914  0.00785773  0.99314520
   0.99924969  0.50320791  0.00063114
   0.49988212  0.74515927  0.25359950
   0.24152283  0.00412548  0.74397306
   0.49013034  0.98798714  0.50276242
   0.75376975  0.98907307  0.75197235
   0.99760228  0.76553028  0.25367829
   0.74309014  0.50604712  0.25063830
   0.00450615  0.00216200  0.49883092
   0.50032646  0.51284693  0.49758957
   0.74033993  0.51228718  0.74791081
   0.75315870  0.73977668  0.49881727
HECN                                    
           1
     9.029321    0.001302    0.012286
     0.007086    9.068223   -0.001502
     0.044711   -0.017229    9.011442
   Zr   W    Hf   N    C    Ta   Nb
     7     6     7    13    19     6     6
Direct configuration=     2
   0.99374930  0.99867850  0.99790773
   0.24970718  0.99995579  0.25296767
   0.25148519  0.50044890  0.25016786
   0.49999443  0.50008913  0.00015000
   0.49904430  0.24788542  0.74548659
   0.99815441  0.49989944  0.49675990
   0.49994186  0.75226520  0.74871095
   0.98739181  0.23017978  0.27010187
   0.76984212  0.73638629  0.99774533
   0.01651308  0.27527755  0.75125347
   0.76600570  0.26261447  0.48292029
   0.99528001  0.72488099  0.75350216
   0.26183528  0.49215795  0.74788348
   0.24549307  0.25037683  0.99550824
   0.50465201  0.25402375  0.25160547
   0.74813637  0.99590831  0.25342582
   0.75570964  0.25869469  0.99360821
   0.24219767  0.74968944  0.99795594
   0.24658962  0.25111299  0.50429254
   0.24482536  0.75006927  0.50391157
   0.24494106  0.24849640  0.25164369
   0.25684411  0.99978169  0.99499414
   0.00037602  0.25331606  0.01151386
   0.75076910  0.24832367  0.24492142
   0.74555825  0.99971415  0.00095828
   0.50261680  0.99989869  0.24929805
   0.99532279  0.48950880  0.24277485
   0.50076386  0.76082873  0.00546451
   0.99914153  0.00708985  0.74819823
   0.76109754  0.24086174  0.74401003
   0.74274428  0.00569188  0.50334259
   0.50559729  0.24141687  0.49439358
   0.50058329  0.00022936  0.74794359
   0.99585145  0.99943201  0.25308782
   0.50358083  0.24367686  0.00128032
   0.25110952  0.75097711  0.24943036
   0.24397560  0.49984850  0.99490139
   0.99978850  0.74618731  0.00027210
   0.74671578  0.74829478  0.24496053
   0.75578111  0.50320499  0.99898371
   0.50221747  0.50198158  0.25260083
   0.25013719  0.24902907  0.74970359
   0.24938770  0.00031568  0.50315306
   0.99523497  0.24846988  0.51369354
   0.24114446  0.75219681  0.75132540
   0.25316001  0.49981663  0.50503146
   0.99606367  0.75510463  0.50714356
   0.00277141  0.50047653  0.75221268
   0.75297493  0.75250965  0.75236211
   0.74696270  0.49526715  0.49898596
   0.49979102  0.75100192  0.49681930
   0.49856987  0.49993023  0.74531551
   0.50851498  0.00786723  0.99312448
   0.99923426  0.50321367  0.00062067
   0.49989388  0.74514141  0.25359924
   0.24152416  0.00413832  0.74394591
   0.49010251  0.98797915  0.50274959
   0.75375992  0.98907158  0.75201013
   0.99763700  0.76573349  0.25374289
   0.74289477  0.50614132  0.25070782
   0.00466184  0.00214104  0.49864625
   0.50029501  0.51302406  0.49752735
   0.74016719  0.51248389  0.74792414
   0.75319237  0.73959069  0.49881649
HECN                                    
           1
     9.030629    0.001059    0.011960
     0.006842    9.070068   -0.001619
     0.044391   -0.017348    9.012938
   Zr   W    Hf   N    C    Ta   Nb
     7     6     7    13    19     6     6
Direct configuration=     3
   0.99375010  0.99869071  0.99791164
   0.24970042  0.99996024  0.25295481
   0.25148799  0.50043974  0.25017527
   0.49997843  0.50009885  0.00013666
   0.49904460  0.24789162  0.74548509
   0.99816494  0.49990116  0.49676054
   0.49995121  0.75226647  0.74872089
   0.98740578  0.23018528  0.27008612
   0.76984488  0.73638639  0.99771709
   0.01651089  0.27530888  0.75125632
   0.76599185  0.26263957  0.48295709
   0.99526899  0.72486922  0.75350110
   0.26183547  0.49214833  0.74788582
   0.24548142  0.25038214  0.99552364
   0.50463977  0.25404168  0.25160100
   0.74814658  0.99589349  0.25341542
   0.75570712  0.25868878  0.99363198
   0.24219177  0.74968762  0.99797179
   0.24658868  0.25112449  0.50428189
   0.24481667  0.75008212  0.50390470
   0.24493946  0.24849869  0.25164089
   0.25684545  0.99979073  0.99499739
   0.00036036  0.25331818  0.01150982
   0.75074771  0.24832809  0.24488567
   0.74555217  0.99972227  0.00095132
   0.50260954  0.99990704  0.24931449
   0.99531322  0.48950061  0.24276124
   0.50075100  0.76083814  0.00546406
   0.99914642  0.00710841  0.74819560
   0.76108501  0.24086497  0.74401067
   0.74274389  0.00569949  0.50333033
   0.50558900  0.24142645  0.49439469
   0.50057788  0.00023143  0.74794963
   0.99585360  0.99944222  0.25308142
   0.50356835  0.24368965  0.00129179
   0.25111627  0.75097989  0.24943766
   0.24397699  0.49985521  0.99490179
   0.99979090  0.74618784  0.00026038
   0.74671336  0.74831327  0.24496879
   0.75577243  0.50319952  0.99897867
   0.50219415  0.50198127  0.25261196
   0.25013603  0.24905022  0.74970709
   0.24938997  0.00032638  0.50315120
   0.99523556  0.24850186  0.51368059
   0.24116088  0.75220189  0.75132552
   0.25316833  0.49982451  0.50502089
   0.99608667  0.75511164  0.50713899
   0.00278142  0.50046074  0.75220240
   0.75298598  0.75251164  0.75237652
   0.74696000  0.49525989  0.49894869
   0.49978447  0.75100399  0.49683281
   0.49856576  0.49992745  0.74530380
   0.50849962  0.00786158  0.99313680
   0.99924343  0.50321024  0.00062689
   0.49988689  0.74515203  0.25359939
   0.24152337  0.00413068  0.74396205
   0.49011905  0.98798390  0.50275722
   0.75376576  0.98907247  0.75198767
   0.99761637  0.76561269  0.25370449
   0.74301090  0.50608532  0.25066649
   0.00456930  0.00215350  0.49875603
   0.50031370  0.51291876  0.49756434
   0.74026987  0.51236695  0.74791621
   0.75317235  0.73970125  0.49881695
HECN                                    
           1
     9.030936    0.001002    0.011884
     0.006785    9.070501   -0.001646
     0.044316   -0.017377    9.013289
   Zr   W    Hf   N    C    Ta   Nb
     7     6     7    13    19     6     6
Direct configuration=     4
   0.99375029  0.99869357  0.99791255
   0.24969884  0.99996128  0.25295179
   0.25148864  0.50043759  0.25017700
   0.49997468  0.50010113  0.00013353
   0.49904467  0.24789308  0.74548474
   0.99816741  0.49990156  0.49676069
   0.49995341  0.75226677  0.74872322
   0.98740906  0.23018658  0.27008243
   0.76984553  0.73638641  0.99771047
   0.01651037  0.27531623  0.75125699
   0.76598860  0.26264546  0.48296572
   0.99526641  0.72486646  0.75350085
   0.26183551  0.49214608  0.74788637
   0.24547869  0.25038339  0.99552725
   0.50463690  0.25404588  0.25159995
   0.74814898  0.99589002  0.25341298
   0.75570653  0.25868739  0.99363756
   0.24219039  0.74968719  0.99797551
   0.24658847  0.25112719  0.50427940
   0.24481463  0.75008513  0.50390309
   0.24493908  0.24849922  0.25164023
   0.25684577  0.99979285  0.99499816
   0.00035669  0.25331868  0.01150887
   0.75074269  0.24832912  0.24487728
   0.74555074  0.99972418  0.00094969
   0.50260784  0.99990900  0.24931835
   0.99531097  0.48949869  0.24275805
   0.50074798  0.76084035  0.00546395
   0.99914756  0.00711276  0.74819498
   0.76108207  0.24086573  0.74401082
   0.74274380  0.00570127  0.50332746
   0.50558705  0.24142869  0.49439494
   0.50057661  0.00023192  0.74795104
   0.99585411  0.99944461  0.25307992
   0.50356542  0.24369265  0.00129448
   0.25111786  0.75098054  0.24943937
   0.24397732  0.49985678  0.99490189
   0.99979146  0.74618797  0.00025763
   0.74671279  0.74831760  0.24497073
   0.75577039  0.50319824  0.99897749
   0.50218868  0.50198120  0.25261457
   0.25013576  0.24905518  0.74970791
   0.24939050  0.00032889  0.50315076
   0.99523570  0.24850936  0.51367755
   0.24116473  0.75220308  0.75132555
   0.25317029  0.49982636  0.50501841
   0.99609206  0.75511328  0.50713792
   0.00278376  0.50045703  0.75219999
   0.75298858  0.75251211  0.75237991
   0.74695936  0.49525819  0.49893994
   0.49978293  0.75100448  0.49683598
   0.49856479  0.49992680  0.74530106
   0.50849601  0.00786026  0.99313969
   0.99924558  0.50320944  0.00062835
   0.49988525  0.74515452  0.25359943
   0.24152318  0.00412889  0.74396583
   0.49012293  0.98798501  0.50275901
   0.75376713  0.98907267  0.75198240
   0.99761153  0.76558436  0.25369548
   0.74303814  0.50607218  0.25065679
   0.00454758  0.00215643  0.49878178
   0.50031809  0.51289406  0.49757301
   0.74029396  0.51233952  0.74791436
   0.75316766  0.73972719  0.49881706
HECN                                    
           1
     9.031229    0.000948    0.011811
     0.006731    9.070914   -0.001672
     0.044244   -0.017404    9.013624
   Zr   W    Hf   N    C    Ta   Nb
     7     6     7    13    19     6     6
Direct configuration=     5
   0.99375047  0.99869631  0.99791343
   0.24969733  0.99996228  0.25294891
   0.25148927  0.50043553  0.25017866
   0.49997110  0.50010331  0.00013054
   0.49904474  0.24789447  0.74548440
   0.99816977  0.49990194  0.49676083
   0.49995550  0.75226705  0.74872544
   0.98741219  0.23018781  0.27007890
   0.76984614  0.73638643  0.99770414
   0.01650988  0.27532325  0.75125763
   0.76598549  0.26265109  0.48297397
   0.99526394  0.72486382  0.75350062
   0.26183555  0.49214393  0.74788690
   0.24547608  0.25038458  0.99553070
   0.50463416  0.25404990  0.25159895
   0.74815126  0.99588670  0.25341065
   0.75570596  0.25868607  0.99364288
   0.24218906  0.74968678  0.99797906
   0.24658826  0.25112976  0.50427701
   0.24481268  0.75008801  0.50390155
   0.24493872  0.24849974  0.25163960
   0.25684607  0.99979488  0.99499888
   0.00035318  0.25331915  0.01150796
   0.75073790  0.24833011  0.24486927
   0.74554938  0.99972600  0.00094813
   0.50260621  0.99991087  0.24932203
   0.99530883  0.48949685  0.24275500
   0.50074510  0.76084246  0.00546385
   0.99914866  0.00711692  0.74819439
   0.76107926  0.24086645  0.74401096
   0.74274372  0.00570298  0.50332471
   0.50558520  0.24143084  0.49439519
   0.50057540  0.00023239  0.74795239
   0.99585459  0.99944690  0.25307849
   0.50356262  0.24369552  0.00129705
   0.25111937  0.75098116  0.24944101
   0.24397764  0.49985828  0.99490198
   0.99979200  0.74618809  0.00025500
   0.74671224  0.74832175  0.24497258
   0.75576845  0.50319701  0.99897636
   0.50218345  0.50198113  0.25261707
   0.25013550  0.24905991  0.74970869
   0.24939101  0.00033129  0.50315034
   0.99523583  0.24851652  0.51367465
   0.24116841  0.75220422  0.75132557
   0.25317215  0.49982813  0.50501604
   0.99609721  0.75511485  0.50713689
   0.00278601  0.50045350  0.75219769
   0.75299105  0.75251255  0.75238314
   0.74695876  0.49525657  0.49893159
   0.49978146  0.75100494  0.49683901
   0.49856387  0.49992618  0.74529843
   0.50849257  0.00785899  0.99314245
   0.99924764  0.50320867  0.00062974
   0.49988369  0.74515690  0.25359946
   0.24152301  0.00412718  0.74396945
   0.49012664  0.98798608  0.50276072
   0.75376844  0.98907287  0.75197737
   0.99760691  0.76555729  0.25368688
   0.74306416  0.50605964  0.25064754
   0.00452685  0.00215922  0.49880637
   0.50032228  0.51287047  0.49758130
   0.74031696  0.51231332  0.74791258
   0.75316317  0.73975196  0.49881716
HECN                                    
           1
     9.031353    0.000925    0.011780
     0.006708    9.071089   -0.001683
     0.044214   -0.017415    9.013766
   Zr   W    Hf   N    C    Ta   Nb
     7     6     7    13    19     6     6
Direct configuration=     6
   0.99375055  0.99869747  0.99791380
   0.24969668  0.99996270  0.25294769
   0.25148953  0.50043466  0.25017937
   0.49996958  0.50010423  0.00012928
   0.49904477  0.24789506  0.74548426
   0.99817077  0.49990210  0.49676089
   0.49995639  0.75226718  0.74872639
   0.98741351  0.23018833  0.27007740
   0.76984641  0.73638644  0.99770146
   0.01650967  0.27532622  0.75125790
   0.76598418  0.26265347  0.48297746
   0.99526289  0.72486270  0.75350052
   0.26183557  0.49214301  0.74788712
   0.24547497  0.25038509  0.99553216
   0.50463300  0.25405160  0.25159852
   0.74815223  0.99588529  0.25340966
   0.75570572  0.25868550  0.99364514
   0.24218850  0.74968661  0.99798056
   0.24658817  0.25113086  0.50427600
   0.24481185  0.75008923  0.50390089
   0.24493857  0.24849995  0.25163933
   0.25684620  0.99979574  0.99499919
   0.00035169  0.25331935  0.01150758
   0.75073586  0.24833053  0.24486588
   0.74554880  0.99972677  0.00094747
   0.50260552  0.99991166  0.24932359
   0.99530792  0.48949607  0.24275371
   0.50074388  0.76084336  0.00546380
   0.99914912  0.00711868  0.74819414
   0.76107807  0.24086676  0.74401102
   0.74274368  0.00570370  0.50332354
   0.50558441  0.24143175  0.49439529
   0.50057488  0.00023258  0.74795296
   0.99585479  0.99944787  0.25307788
   0.50356144  0.24369674  0.00129814
   0.25112001  0.75098142  0.24944170
   0.24397777  0.49985892  0.99490202
   0.99979222  0.74618814  0.00025389
   0.74671201  0.74832350  0.24497336
   0.75576762  0.50319649  0.99897588
   0.50218124  0.50198110  0.25261812
   0.25013539  0.24906192  0.74970902
   0.24939122  0.00033231  0.50315016
   0.99523589  0.24851956  0.51367342
   0.24116997  0.75220470  0.75132558
   0.25317294  0.49982888  0.50501504
   0.99609940  0.75511552  0.50713646
   0.00278696  0.50045200  0.75219671
   0.75299210  0.75251274  0.75238451
   0.74695850  0.49525588  0.49892805
   0.49978084  0.75100514  0.49684030
   0.49856347  0.49992592  0.74529732
   0.50849111  0.00785845  0.99314362
   0.99924851  0.50320835  0.00063033
   0.49988302  0.74515791  0.25359948
   0.24152293  0.00412646  0.74397098
   0.49012821  0.98798653  0.50276144
   0.75376900  0.98907296  0.75197524
   0.99760495  0.76554582  0.25368323
   0.74307519  0.50605432  0.25064361
   0.00451806  0.00216040  0.49881681
   0.50032405  0.51286047  0.49758481
   0.74032672  0.51230221  0.74791183
   0.75316127  0.73976247  0.49881721
HECN                                    
           1
     9.032104    0.001192    0.012128
     0.006977    9.071438   -0.001503
     0.044564   -0.017235    9.014272
   Zr   W    Hf   N    C    Ta   Nb
     7     6     7    13    19     6     6
Direct configuration=     7
   0.99376019  0.99869511  0.99790774
   0.24970958  0.99996277  0.25296306
   0.25148197  0.50045225  0.25017146
   0.49998695  0.50010253  0.00014900
   0.49904847  0.24789844  0.74547824
   0.99816397  0.49991231  0.49675542
   0.49993166  0.75226342  0.74871502
   0.98739540  0.23018859  0.27009627
   0.76983944  0.73638975  0.99774969
   0.01650509  0.27528164  0.75125055
   0.76599842  0.26261493  0.48293133
   0.99528691  0.72489487  0.75349887
   0.26183801  0.49216410  0.74788061
   0.24549887  0.25039287  0.99550350
   0.50464417  0.25403581  0.25159767
   0.74813722  0.99590563  0.25342069
   0.75570298  0.25870989  0.99361159
   0.24218880  0.74968425  0.99795820
   0.24658608  0.25112330  0.50429813
   0.24482153  0.75007007  0.50390830
   0.24494478  0.24850101  0.25164190
   0.25684365  0.99978537  0.99499211
   0.00037757  0.25332596  0.01151354
   0.75076235  0.24832099  0.24491720
   0.74555986  0.99971897  0.00096286
   0.50261706  0.99990582  0.24929889
   0.99532794  0.48950597  0.24276994
   0.50075795  0.76083494  0.00546847
   0.99914450  0.00709167  0.74820022
   0.76109747  0.24086543  0.74401627
   0.74273819  0.00570071  0.50333140
   0.50558791  0.24141689  0.49438524
   0.50057840  0.00023313  0.74794069
   0.99585008  0.99943783  0.25308288
   0.50357379  0.24369221  0.00128497
   0.25111586  0.75098373  0.24943181
   0.24397582  0.49985552  0.99490514
   0.99979896  0.74619174  0.00027411
   0.74670990  0.74831288  0.24495819
   0.75577768  0.50320097  0.99898331
   0.50220437  0.50198207  0.25259728
   0.25014413  0.24903442  0.74970381
   0.24938515  0.00031758  0.50314358
   0.99524967  0.24848299  0.51368779
   0.24114533  0.75220031  0.75132224
   0.25315948  0.49982420  0.50502376
   0.99607985  0.75510257  0.50714270
   0.00277485  0.50047810  0.75220996
   0.75296837  0.75250671  0.75236432
   0.74696481  0.49527194  0.49897971
   0.49977575  0.75100555  0.49681906
   0.49856208  0.49993672  0.74531553
   0.50850941  0.00786831  0.99313157
   0.99923489  0.50321956  0.00061917
   0.49988396  0.74514271  0.25360289
   0.24152417  0.00414590  0.74394059
   0.49009559  0.98798076  0.50274285
   0.75376491  0.98908591  0.75200452
   0.99761567  0.76558437  0.25369010
   0.74300971  0.50605466  0.25066702
   0.00453530  0.00218161  0.49877412
   0.50030090  0.51290028  0.49754688
   0.74028338  0.51233185  0.74792020
   0.75316328  0.73973642  0.49884601
HECN                                    
           1
     9.031907    0.001122    0.012037
     0.006906    9.071347   -0.001550
     0.044472   -0.017282    9.014140
   Zr   W    Hf   N    C    Ta   Nb
     7     6     7    13    19     6     6
Direct configuration=     8
   0.99375767  0.99869572  0.99790933
   0.24970620  0.99996276  0.25295903
   0.25148395  0.50044765  0.25017353
   0.49998240  0.50010297  0.00014384
   0.49904750  0.24789755  0.74547982
   0.99816575  0.49990964  0.49675685
   0.49993813  0.75226440  0.74871799
   0.98740014  0.23018852  0.27009133
   0.76984126  0.73638888  0.99773706
   0.01650629  0.27529331  0.75125248
   0.76599469  0.26262502  0.48294341
   0.99528063  0.72488645  0.75349930
   0.26183737  0.49215858  0.74788232
   0.24549262  0.25039084  0.99551100
   0.50464125  0.25403995  0.25159789
   0.74814115  0.99590031  0.25341780
   0.75570370  0.25870351  0.99362037
   0.24218872  0.74968487  0.99796405
   0.24658662  0.25112528  0.50429233
   0.24481899  0.75007509  0.50390636
   0.24494316  0.24850073  0.25164123
   0.25684431  0.99978808  0.99499397
   0.00037079  0.25332423  0.01151198
   0.75075542  0.24832349  0.24490376
   0.74555696  0.99972101  0.00095883
   0.50261404  0.99990735  0.24930536
   0.99532270  0.48950338  0.24276569
   0.50075427  0.76083714  0.00546725
   0.99914571  0.00709874  0.74819862
   0.76109239  0.24086578  0.74401489
   0.74273963  0.00570149  0.50332934
   0.50558699  0.24142078  0.49438787
   0.50057748  0.00023299  0.74794390
   0.99585131  0.99944046  0.25308157
   0.50357056  0.24369339  0.00128842
   0.25111694  0.75098312  0.24943440
   0.24397633  0.49985641  0.99490432
   0.99979719  0.74619079  0.00026882
   0.74671046  0.74831566  0.24496216
   0.75577505  0.50319980  0.99898137
   0.50219832  0.50198182  0.25260273
   0.25014184  0.24904162  0.74970518
   0.24938674  0.00032143  0.50314531
   0.99524606  0.24849256  0.51368402
   0.24115178  0.75220146  0.75132312
   0.25316301  0.49982542  0.50502147
   0.99608496  0.75510596  0.50714107
   0.00277802  0.50047127  0.75220649
   0.75297458  0.75250829  0.75236960
   0.74696316  0.49526774  0.49896619
   0.49977708  0.75100544  0.49682462
   0.49856244  0.49993389  0.74531076
   0.50850462  0.00786573  0.99313473
   0.99923845  0.50321662  0.00062210
   0.49988371  0.74514669  0.25360200
   0.24152385  0.00414081  0.74394855
   0.49010413  0.98798227  0.50274772
   0.75376598  0.98908252  0.75199685
   0.99761286  0.76557428  0.25368830
   0.74302685  0.50605457  0.25066089
   0.00453078  0.00217606  0.49878530
   0.50030696  0.51288986  0.49755681
   0.74029473  0.51232409  0.74791801
   0.75316275  0.73974324  0.49883847
