<?xml version="1.0" encoding="ISO-8859-1"?>
<modeling>
 <generator>
  <i name="program" type="string">vasp </i>
  <i name="version" type="string">6.4.3  </i>
  <i name="subversion" type="string">19Mar24 (build Sep 18 2024 11:30:23) complex                          parallel </i>
  <i name="platform" type="string">LinuxIFC </i>
  <i name="date" type="string">2026 07 03 </i>
  <i name="time" type="string">21:30:38 </i>
 </generator>
 <incar>
  <i type="string" name="SYSTEM">HECN</i>
  <i type="int" name="ISTART">     0</i>
  <i type="string" name="PREC">Normal</i>
  <i type="string" name="ALGO">Fast</i>
  <i type="int" name="ICHARG">     2</i>
  <i type="int" name="NELM">    60</i>
  <i type="int" name="IBRION">     2</i>
  <i name="EDIFF">      0.00001000</i>
  <i name="EDIFFG">     -0.01000000</i>
  <i type="int" name="NSW">   100</i>
  <i type="int" name="ISIF">     3</i>
  <i name="ENCUT">    400.00000000</i>
  <i name="POTIM">      0.50000000</i>
  <i type="logical" name="LREAL"> F  </i>
  <i type="int" name="ISMEAR">     0</i>
  <i name="SIGMA">      0.10000000</i>
  <i type="logical" name="LWAVE"> F  </i>
  <i type="logical" name="LCHARG"> F  </i>
 </incar>
 <primitive_cell>
  <structure name="primitive_cell" >
   <crystal>
    <varray name="basis" >
     <v>       8.93249989       0.00000000       0.00000000 </v>
     <v>       0.00575300       9.05559834       0.00000000 </v>
     <v>       0.03210180      -0.01574346       8.93712807 </v>
    </varray>
    <i name="volume">    722.91652451 </i>
    <varray name="rec_basis" >
     <v>       0.11195074      -0.00007112      -0.00040225 </v>
     <v>       0.00000000       0.11042893       0.00019453 </v>
     <v>       0.00000000       0.00000000       0.11189277 </v>
    </varray>
   </crystal>
   <varray name="positions" >
    <v>       0.99688001       0.99204997       0.99924002 </v>
    <v>       0.25398003       0.99714995       0.24912000 </v>
    <v>       0.24803003       0.50165000       0.24955001 </v>
    <v>       0.50501006       0.49745998       0.99834003 </v>
    <v>       0.50479003       0.24631001       0.74710002 </v>
    <v>       0.99427992       0.50449999       0.49779000 </v>
    <v>       0.49950005       0.75481999       0.74817004 </v>
    <v>       0.99437004       0.23617001       0.26379999 </v>
    <v>       0.75718000       0.74102998       0.01100000 </v>
    <v>       0.00201000       0.25541000       0.73894001 </v>
    <v>       0.75307001       0.26163001       0.50533002 </v>
    <v>       0.99514004       0.74492004       0.74511997 </v>
    <v>       0.25679999       0.49462002       0.74545002 </v>
    <v>       0.24788999       0.24839000       0.99657997 </v>
    <v>       0.50833000       0.25676999       0.25376001 </v>
    <v>       0.74879004       0.98787999       0.26967001 </v>
    <v>       0.75719000       0.25603001       0.99591997 </v>
    <v>       0.24762001       0.74973999       0.99974006 </v>
    <v>       0.25272001       0.24823001       0.50015003 </v>
    <v>       0.24457999       0.75048999       0.49983999 </v>
    <v>       0.24982001       0.24942998       0.24825000 </v>
    <v>       0.26146999       0.99984002       0.99295996 </v>
    <v>       0.00281000       0.25024000       0.00130000 </v>
    <v>       0.75313998       0.24617000       0.25492002 </v>
    <v>       0.74767001       0.99748000       0.01202000 </v>
    <v>       0.50714994       0.99977000       0.24673000 </v>
    <v>       0.99051999       0.48088002       0.24100998 </v>
    <v>       0.50519005       0.76130999       0.00855000 </v>
    <v>       0.98896989       0.00202000       0.73708999 </v>
    <v>       0.75744996       0.24437997       0.74896999 </v>
    <v>       0.73632001       0.00417000       0.51063000 </v>
    <v>       0.50563996       0.23264999       0.49544997 </v>
    <v>       0.50008998       0.00061000       0.73471998 </v>
    <v>       0.99720000       0.99771992       0.25899999 </v>
    <v>       0.50427997       0.24673000       0.00262000 </v>
    <v>       0.25133999       0.74958002       0.24910999 </v>
    <v>       0.24328000       0.50072997       0.99510994 </v>
    <v>       0.99837005       0.74313996       0.00460000 </v>
    <v>       0.75633000       0.73891003       0.25767000 </v>
    <v>       0.75839004       0.50315998       0.00288000 </v>
    <v>       0.50700002       0.50333002       0.25878999 </v>
    <v>       0.24900999       0.25315000       0.74854000 </v>
    <v>       0.24446000       0.99823996       0.50287998 </v>
    <v>       0.99804009       0.24229999       0.50128003 </v>
    <v>       0.24177002       0.75340997       0.75018002 </v>
    <v>       0.25841001       0.50062002       0.50129001 </v>
    <v>       0.99000004       0.76215003       0.49746000 </v>
    <v>       0.99203996       0.50055999       0.75138002 </v>
    <v>       0.75036005       0.74888000       0.74756004 </v>
    <v>       0.74036002       0.50197000       0.50067003 </v>
    <v>       0.50575006       0.74958002       0.49720000 </v>
    <v>       0.50501003       0.50217998       0.73912003 </v>
    <v>       0.51588997       0.01358000       0.98075008 </v>
    <v>       0.99841994       0.50976998       0.98613004 </v>
    <v>       0.50379003       0.73926997       0.25905001 </v>
    <v>       0.23780002       0.01082000       0.74607998 </v>
    <v>       0.47957999       0.98308000       0.49717999 </v>
    <v>       0.74279003       0.97869994       0.76450995 </v>
    <v>       0.99864998       0.77573999       0.26102000 </v>
    <v>       0.73551001       0.51468004       0.26666001 </v>
    <v>       0.02362000       0.99783001       0.49557002 </v>
    <v>       0.50539000       0.52833005       0.49917999 </v>
    <v>       0.73876003       0.52828003       0.73814999 </v>
    <v>       0.75400003       0.72937999       0.49116997 </v>
   </varray>
  </structure>
  <varray name="primitive_index" >
   <v type="int" >        1 </v>
   <v type="int" >        2 </v>
   <v type="int" >        3 </v>
   <v type="int" >        4 </v>
   <v type="int" >        5 </v>
   <v type="int" >        6 </v>
   <v type="int" >        7 </v>
   <v type="int" >        8 </v>
   <v type="int" >        9 </v>
   <v type="int" >       10 </v>
   <v type="int" >       11 </v>
   <v type="int" >       12 </v>
   <v type="int" >       13 </v>
   <v type="int" >       14 </v>
   <v type="int" >       15 </v>
   <v type="int" >       16 </v>
   <v type="int" >       17 </v>
   <v type="int" >       18 </v>
   <v type="int" >       19 </v>
   <v type="int" >       20 </v>
   <v type="int" >       21 </v>
   <v type="int" >       22 </v>
   <v type="int" >       23 </v>
   <v type="int" >       24 </v>
   <v type="int" >       25 </v>
   <v type="int" >       26 </v>
   <v type="int" >       27 </v>
   <v type="int" >       28 </v>
   <v type="int" >       29 </v>
   <v type="int" >       30 </v>
   <v type="int" >       31 </v>
   <v type="int" >       32 </v>
   <v type="int" >       33 </v>
   <v type="int" >       34 </v>
   <v type="int" >       35 </v>
   <v type="int" >       36 </v>
   <v type="int" >       37 </v>
   <v type="int" >       38 </v>
   <v type="int" >       39 </v>
   <v type="int" >       40 </v>
   <v type="int" >       41 </v>
   <v type="int" >       42 </v>
   <v type="int" >       43 </v>
   <v type="int" >       44 </v>
   <v type="int" >       45 </v>
   <v type="int" >       46 </v>
   <v type="int" >       47 </v>
   <v type="int" >       48 </v>
   <v type="int" >       49 </v>
   <v type="int" >       50 </v>
   <v type="int" >       51 </v>
   <v type="int" >       52 </v>
   <v type="int" >       53 </v>
   <v type="int" >       54 </v>
   <v type="int" >       55 </v>
   <v type="int" >       56 </v>
   <v type="int" >       57 </v>
   <v type="int" >       58 </v>
   <v type="int" >       59 </v>
   <v type="int" >       60 </v>
   <v type="int" >       61 </v>
   <v type="int" >       62 </v>
   <v type="int" >       63 </v>
   <v type="int" >       64 </v>
  </varray>
 </primitive_cell>
 <kpoints>
  <generation param="Gamma">
   <v type="int" name="divisions">       3        3        3 </v>
   <v name="usershift">      0.00000000       0.00000000       0.00000000 </v>
   <v name="genvec1">      0.33333333      -0.00000000      -0.00000000 </v>
   <v name="genvec2">      0.00000000       0.33333333      -0.00000000 </v>
   <v name="genvec3">      0.00000000       0.00000000       0.33333333 </v>
   <v name="shift">      0.00000000       0.00000000       0.00000000 </v>
  </generation>
  <varray name="kpointlist" >
   <v>       0.00000000       0.00000000       0.00000000 </v>
   <v>       0.33333333      -0.00000000      -0.00000000 </v>
   <v>       0.00000000       0.33333333      -0.00000000 </v>
   <v>       0.33333333       0.33333333      -0.00000000 </v>
   <v>      -0.33333333       0.33333333      -0.00000000 </v>
   <v>       0.00000000       0.00000000       0.33333333 </v>
   <v>       0.33333333      -0.00000000       0.33333333 </v>
   <v>      -0.33333333       0.00000000       0.33333333 </v>
   <v>       0.00000000       0.33333333       0.33333333 </v>
   <v>       0.33333333       0.33333333       0.33333333 </v>
   <v>      -0.33333333       0.33333333       0.33333333 </v>
   <v>       0.00000000      -0.33333333       0.33333333 </v>
   <v>       0.33333333      -0.33333333       0.33333333 </v>
   <v>      -0.33333333      -0.33333333       0.33333333 </v>
  </varray>
  <varray name="weights" >
   <v>       0.03703704 </v>
   <v>       0.07407407 </v>
   <v>       0.07407407 </v>
   <v>       0.07407407 </v>
   <v>       0.07407407 </v>
   <v>       0.07407407 </v>
   <v>       0.07407407 </v>
   <v>       0.07407407 </v>
   <v>       0.07407407 </v>
   <v>       0.07407407 </v>
   <v>       0.07407407 </v>
   <v>       0.07407407 </v>
   <v>       0.07407407 </v>
   <v>       0.07407407 </v>
  </varray>
 </kpoints>
 <parameters>
  <separator name="general" >
   <i type="string" name="SYSTEM">HECN</i>
   <i type="logical" name="LCOMPAT"> F  </i>
  </separator>
  <separator name="electronic" >
   <i type="string" name="PREC">normal</i>
   <i name="ENMAX">    400.00000000</i>
   <i name="ENAUG">    644.87300000</i>
   <i name="EDIFF">      0.00001000</i>
   <i type="int" name="IALGO">    68</i>
   <i type="int" name="IWAVPR">    11</i>
   <i type="int" name="NBANDS">   308</i>
   <i type="int" name="NBANDSLOW">    -1</i>
   <i type="int" name="NBANDSHIGH">    -1</i>
   <i name="NELECT">    469.00000000</i>
   <i type="int" name="TURBO">     0</i>
   <i type="int" name="IRESTART">     0</i>
   <i type="int" name="NREBOOT">     0</i>
   <i type="int" name="NMIN">     0</i>
   <i name="EREF">      0.00000000</i>
   <separator name="electronic smearing" >
    <i type="int" name="ISMEAR">     0</i>
    <i name="SIGMA">      0.10000000</i>
    <i name="KSPACING">      0.50000000</i>
    <i type="logical" name="KGAMMA"> T  </i>
    <i type="logical" name="KBLOWUP"> T  </i>
   </separator>
   <separator name="electronic projectors" >
    <i type="logical" name="LREAL"> F  </i>
    <v name="ROPT">      0.00000000      0.00000000      0.00000000      0.00000000      0.00000000      0.00000000      0.00000000</v>
    <i type="int" name="LMAXPAW">  -100</i>
    <i type="int" name="LMAXMIX">     2</i>
    <i type="logical" name="NLSPLINE"> F  </i>
   </separator>
   <separator name="electronic startup" >
    <i type="int" name="ISTART">     0</i>
    <i type="int" name="ICHARG">     2</i>
    <i type="int" name="INIWAV">     1</i>
   </separator>
   <separator name="electronic spin" >
    <i type="int" name="ISPIN">     1</i>
    <i type="logical" name="LNONCOLLINEAR"> F  </i>
    <v name="MAGMOM">      1.00000000      1.00000000      1.00000000      1.00000000      1.00000000      1.00000000      1.00000000      1.00000000      1.00000000      1.00000000      1.00000000      1.00000000      1.00000000      1.00000000      1.00000000      1.00000000      1.00000000      1.00000000      1.00000000      1.00000000
      1.00000000      1.00000000      1.00000000      1.00000000      1.00000000      1.00000000      1.00000000      1.00000000      1.00000000      1.00000000      1.00000000      1.00000000      1.00000000      1.00000000      1.00000000      1.00000000      1.00000000      1.00000000      1.00000000      1.00000000
      1.00000000      1.00000000      1.00000000      1.00000000      1.00000000      1.00000000      1.00000000      1.00000000      1.00000000      1.00000000      1.00000000      1.00000000      1.00000000      1.00000000      1.00000000      1.00000000      1.00000000      1.00000000      1.00000000      1.00000000
      1.00000000      1.00000000      1.00000000      1.00000000</v>
    <i name="NUPDOWN">     -1.00000000</i>
    <i type="logical" name="LSORBIT"> F  </i>
    <v name="SAXIS">      0.00000000      0.00000000      1.00000000</v>
    <i type="logical" name="LSPIRAL"> F  </i>
    <v name="QSPIRAL">      0.00000000      0.00000000      0.00000000</v>
    <i type="logical" name="LZEROZ"> F  </i>
   </separator>
   <separator name="electronic exchange-correlation" >
    <i type="logical" name="LASPH"> F  </i>
   </separator>
   <separator name="electronic convergence" >
    <i type="int" name="NELM">    60</i>
    <i type="int" name="NELMDL">    -5</i>
    <i type="int" name="NELMIN">     2</i>
    <i name="ENINI">    400.00000000</i>
    <separator name="electronic convergence detail" >
     <i type="logical" name="LDIAG"> T  </i>
     <i type="logical" name="LSUBROT"> F  </i>
     <i name="WEIMIN">      0.00100000</i>
     <i name="EBREAK">      0.00000001</i>
     <i name="DEPER">      0.30000000</i>
     <i type="int" name="NRMM">     4</i>
     <i name="TIME">      0.40000000</i>
    </separator>
   </separator>
   <separator name="electronic mixer" >
    <i name="AMIX">      0.40000000</i>
    <i name="BMIX">      1.00000000</i>
    <i name="AMIN">      0.10000000</i>
    <i name="AMIX_MAG">      1.60000000</i>
    <i name="BMIX_MAG">      1.00000000</i>
    <separator name="electronic mixer details" >
     <i type="int" name="IMIX">     4</i>
     <i type="logical" name="MIXFIRST"> F  </i>
     <i type="int" name="MAXMIX">   -45</i>
     <i name="WC">    100.00000000</i>
     <i type="int" name="INIMIX">     1</i>
     <i type="int" name="MIXPRE">     1</i>
     <i type="int" name="MREMOVE">     5</i>
    </separator>
   </separator>
   <separator name="electronic dipolcorrection" >
    <i type="logical" name="LDIPOL"> F  </i>
    <i type="logical" name="LMONO"> F  </i>
    <i type="int" name="IDIPOL">     0</i>
    <i name="EPSILON">      1.00000000</i>
    <v name="DIPOL">   -100.00000000   -100.00000000   -100.00000000</v>
    <i name="EFIELD">      0.00000000</i>
    <i type="logical" name="LVACPOTAV"> F  </i>
   </separator>
  </separator>
  <separator name="grids" >
   <i type="int" name="NGX">    48</i>
   <i type="int" name="NGY">    48</i>
   <i type="int" name="NGZ">    48</i>
   <i type="int" name="NGXF">    96</i>
   <i type="int" name="NGYF">    96</i>
   <i type="int" name="NGZF">    96</i>
   <i type="logical" name="ADDGRID"> F  </i>
  </separator>
  <separator name="ionic" >
   <i type="int" name="NSW">   100</i>
   <i type="int" name="IBRION">     2</i>
   <i type="int" name="MDALGO">     0</i>
   <i type="int" name="ISIF">     3</i>
   <i name="PSTRESS">      0.00000000</i>
   <i name="EDIFFG">     -0.01000000</i>
   <i type="int" name="NFREE">     1</i>
   <i name="POTIM">      0.50000000</i>
   <i name="SMASS">     -3.00000000</i>
   <i name="SCALEE">      1.00000000</i>
  </separator>
  <separator name="ionic md" >
   <i name="TEBEG">      0.00010000</i>
   <i name="TEEND">      0.00010000</i>
   <i type="int" name="NBLOCK">     1</i>
   <i type="int" name="KBLOCK">   100</i>
   <i type="int" name="NPACO">   256</i>
   <i name="APACO">     10.00000000</i>
  </separator>
  <separator name="symmetry" >
   <i type="int" name="ISYM">     2</i>
   <i name="SYMPREC">      0.00001000</i>
  </separator>
  <separator name="dos" >
   <i type="int" name="LORBIT">     0</i>
   <v name="RWIGS">     -1.00000000     -1.00000000     -1.00000000     -1.00000000     -1.00000000     -1.00000000     -1.00000000</v>
   <i type="int" name="NEDOS">   301</i>
   <i name="EMIN">     10.00000000</i>
   <i name="EMAX">    -10.00000000</i>
   <i name="EFERMI">      0.00000000</i>
  </separator>
  <separator name="writing" >
   <i type="int" name="NWRITE">     2</i>
   <i type="logical" name="LWAVE"> F  </i>
   <i type="logical" name="LDOWNSAMPLE"> F  </i>
   <i type="logical" name="LCHARG"> F  </i>
   <i type="logical" name="LPARD"> F  </i>
   <i type="logical" name="LVTOT"> F  </i>
   <i type="logical" name="LVHAR"> F  </i>
   <i type="logical" name="LELF"> F  </i>
   <i type="logical" name="LOPTICS"> F  </i>
   <v name="STM">      0.00000000      0.00000000      0.00000000      0.00000000      0.00000000      0.00000000      0.00000000</v>
  </separator>
  <separator name="performance" >
   <i type="int" name="NPAR">    28</i>
   <i type="int" name="NSIM">     4</i>
   <i type="int" name="NBLK">    -1</i>
   <i type="logical" name="LPLANE"> T  </i>
   <i type="logical" name="LSCALAPACK"> T  </i>
   <i type="logical" name="LSCAAWARE"> F  </i>
   <i type="logical" name="LSCALU"> F  </i>
   <i type="logical" name="LASYNC"> F  </i>
   <i type="logical" name="LORBITALREAL"> F  </i>
  </separator>
  <separator name="miscellaneous" >
   <i type="int" name="IDIOT">     3</i>
   <i type="int" name="PHON_NSTRUCT">    -1</i>
   <i type="logical" name="LMUSIC"> F  </i>
   <v name="POMASS">     91.22400000    183.85000000    178.49000000     14.00100000     12.01100000     95.94000000    180.94800000</v>
   <v name="DARWINR">      0.00000000      0.00000000      0.00000000      0.00000000      0.00000000      0.00000000      0.00000000</v>
   <v name="DARWINV">      1.00000000      1.00000000      1.00000000      1.00000000      1.00000000      1.00000000      1.00000000</v>
   <i type="logical" name="LCORR"> T  </i>
  </separator>
  <i type="logical" name="GGA_COMPAT"> T  </i>
  <i type="logical" name="LBERRY"> F  </i>
  <i type="int" name="ICORELEVEL">     0</i>
  <i type="logical" name="LDAU"> F  </i>
  <i type="int" name="I_CONSTRAINED_M">     0</i>
  <separator name="electronic exchange-correlation" >
   <i type="string" name="GGA    ">PE</i>
   <i type="string" name="XC_C">1</i>
   <i type="int" name="VOSKOWN">     0</i>
   <i type="logical" name="LHFCALC"> F  </i>
   <i type="string" name="PRECFOCK"></i>
   <i type="logical" name="LSYMGRAD"> F  </i>
   <i type="logical" name="LHFONE"> F  </i>
   <i type="logical" name="LRHFCALC"> F  </i>
   <i type="logical" name="LTHOMAS"> F  </i>
   <i type="logical" name="LMODELHF"> F  </i>
   <i type="logical" name="LFOCKACE"> F  </i>
   <i name="ENCUT4O">     -1.00000000</i>
   <i type="int" name="EXXOEP">     0</i>
   <i type="int" name="FOURORBIT">     0</i>
   <i name="AEXX">      0.00000000</i>
   <i name="HFALPHA">      0.00000000</i>
   <i name="MCALPHA">      0.00000000</i>
   <i name="ALDAX">      1.00000000</i>
   <i name="AGGAX">      1.00000000</i>
   <i name="AMGGAX">      1.00000000</i>
   <i name="ALDAC">      1.00000000</i>
   <i name="AGGAC">      1.00000000</i>
   <i name="AMGGAC">      1.00000000</i>
   <i type="int" name="NKREDX">     1</i>
   <i type="int" name="NKREDY">     1</i>
   <i type="int" name="NKREDZ">     1</i>
   <i type="logical" name="SHIFTRED"> F  </i>
   <i type="logical" name="ODDONLY"> F  </i>
   <i type="logical" name="EVENONLY"> F  </i>
   <i type="int" name="LMAXFOCK">     0</i>
   <i type="int" name="NMAXFOCKAE">     0</i>
   <i type="logical" name="LFOCKAEDFT"> F  </i>
   <i name="HFSCREEN">      0.00000000</i>
   <i name="HFSCREENC">      0.00000000</i>
   <i type="int" name="NBANDSGWLOW">     0</i>
  </separator>
  <separator name="vdW DFT" >
   <i type="logical" name="LUSE_VDW"> F  </i>
   <i type="int" name="IVDW_NL">    -1</i>
   <i type="logical" name="LSPIN_VDW"> F  </i>
   <i name="ZAB_VDW">     -0.84910000</i>
   <i name="GAMMA_VDW">      1.39626340</i>
   <i name="ALPHA_VDW">      0.00000000</i>
   <i name="PARAM1">      0.12340000</i>
   <i name="PARAM2">      1.00000000</i>
   <i name="BPARAM">      6.30000000</i>
   <i name="CPARAM">      0.00930000</i>
  </separator>
  <separator name="model GW" >
   <i type="int" name="MODEL_GW">     0</i>
   <i name="MODEL_EPS0">      6.77734242</i>
   <i name="MODEL_ALPHA">      1.00000000</i>
  </separator>
  <separator name="linear response parameters" >
   <i type="logical" name="LEPSILON"> F  </i>
   <i type="logical" name="LRPA"> F  </i>
   <i type="logical" name="LNABLA"> F  </i>
   <i type="logical" name="LVEL"> F  </i>
   <i name="CSHIFT">      0.10000000</i>
   <i name="OMEGAMAX">     -1.00000000</i>
   <i name="DEG_THRESHOLD">      0.00200000</i>
   <i name="RTIME">     -0.10000000</i>
   <i name="WPLASMAI">      0.00000000</i>
   <v name="DFIELD">      0.00000000      0.00000000      0.00000000</v>
   <v name="WPLASMA">      0.00000000      0.00000000      0.00000000      0.00000000      0.00000000      0.00000000      0.00000000      0.00000000      0.00000000</v>
  </separator>
  <separator name="orbital magnetization" >
   <i type="logical" name="NUCIND"> F  </i>
   <v name="MAGPOS">      0.00000000      0.00000000      0.00000000</v>
   <i type="logical" name="LNICSALL"> T  </i>
   <i type="logical" name="ORBITALMAG"> F  </i>
   <i type="logical" name="LMAGBLOCH"> F  </i>
   <i type="logical" name="LCHIMAG"> F  </i>
   <i type="logical" name="LGAUGE"> T  </i>
   <i type="int" name="MAGATOM">     0</i>
   <v name="MAGDIPOL">      0.00000000      0.00000000      0.00000000</v>
   <v name="AVECCONST">      0.00000000      0.00000000      0.00000000</v>
  </separator>
  <separator name="response functions" >
   <i type="logical" name="LALL_IN_ONE"> F  </i>
   <i type="int" name="IALL_IN_ONE">    -1</i>
   <i type="int" name="NBANDS_WAVE">    -1</i>
   <i type="logical" name="LFINITE_TEMPERATURE"> F  </i>
   <i type="logical" name="LADDER"> F  </i>
   <i type="logical" name="LRPAFORCE"> F  </i>
   <i type="logical" name="LFXC"> F  </i>
   <i type="logical" name="LHARTREE"> T  </i>
   <i type="int" name="IBSE">     0</i>
   <v type="int" name="KPOINT">    -1     0     0     0</v>
   <i type="logical" name="LTCTC"> F  </i>
   <i type="logical" name="LTCTE"> F  </i>
   <i type="logical" name="LTETE"> F  </i>
   <i type="logical" name="LTRIPLET"> F  </i>
   <i type="logical" name="LFXCEPS"> F  </i>
   <i type="logical" name="LFXHEG"> F  </i>
   <i type="int" name="NATURALO">     2</i>
   <i type="logical" name="LHOLEGF"> F  </i>
   <i type="logical" name="L2ORDER"> F  </i>
   <i type="logical" name="LDMP1"> F  </i>
   <i type="logical" name="LMP2LT"> F  </i>
   <i type="logical" name="LSMP2LT"> F  </i>
   <i type="logical" name="LGWLF"> F  </i>
   <i name="ENCUTGW">     -1.60000002</i>
   <i name="ENCUTGWSOFT">     -1.60000002</i>
   <i name="ENCUTLF">     -1.00000000</i>
   <i type="logical" name="ESF_SPLINES"> F  </i>
   <i name="ESF_CONV">      0.01000000</i>
   <i type="int" name="ESF_NINTER">    15</i>
   <i type="int" name="LMAXMP2">    -1</i>
   <i name="SCISSOR">      0.00000000</i>
   <i type="int" name="NOMEGA">     0</i>
   <i type="int" name="NOMEGAR">     0</i>
   <i type="int" name="NBANDSGW">    -1</i>
   <i type="int" name="NBANDSO">    -1</i>
   <i type="int" name="NBANDSV">    -1</i>
   <i type="int" name="NELMGW">     1</i>
   <i type="int" name="NELMHF">     1</i>
   <i type="int" name="DIM">     3</i>
   <i type="int" name="IESPILON">     4</i>
   <i type="int" name="ANTIRES">     0</i>
   <i name="OMEGAMAX">    -30.00000000</i>
   <i name="OMEGAMIN">    -30.00000000</i>
   <i name="OMEGATL">   -200.00000000</i>
   <i type="int" name="OMEGAGRID">     0</i>
   <i name="CSHIFT">     -0.10000000</i>
   <i type="logical" name="LSELFENERGY"> F  </i>
   <i type="logical" name="LSPECTRAL"> F  </i>
   <i type="logical" name="LSPECTRALGW"> F  </i>
   <i type="logical" name="LSINGLES"> F  </i>
   <i type="logical" name="LFERMIGW"> F  </i>
   <i type="logical" name="ODDONLYGW"> F  </i>
   <i type="logical" name="EVENONLYGW"> F  </i>
   <i type="int" name="NKREDLFX">     1</i>
   <i type="int" name="NKREDLFY">     1</i>
   <i type="int" name="NKREDLFZ">     1</i>
   <i type="int" name="MAXMEM">  2800</i>
   <i type="int" name="TELESCOPE">     0</i>
   <i type="int" name="NTAUPAR">    -1</i>
   <i type="int" name="NOMEGAPAR">    -1</i>
   <i name="DAMP_NEWTON">      0.80000001</i>
   <i name="LAMBDA">      1.00000000</i>
  </separator>
  <separator name="External order field" >
   <i name="OFIELD_KAPPA">      0.00000000</i>
   <v name="OFIELD_K">      0.00000000      0.00000000      0.00000000</v>
   <i name="OFIELD_Q6_NEAR">      0.00000000</i>
   <i name="OFIELD_Q6_FAR">      0.00000000</i>
   <i name="OFIELD_A">      0.00000000</i>
  </separator>
  <separator name="optional k-points parameters" >
   <i type="int" name="KPOINTS_OPT_MODE">     1</i>
   <i type="logical" name="LKPOINTS_OPT"> F  </i>
  </separator>
  <separator name="solvation model" >
   <i type="logical" name="LSOL"> F  </i>
  </separator>
 </parameters>
 <atominfo>
  <atoms>      64 </atoms>
  <types>       7 </types>
  <array name="atoms" >
   <dimension dim="1">ion</dimension>
   <field type="string">element</field>
   <field type="int">atomtype</field>
   <set>
    <rc><c>Zr</c><c>   1</c></rc>
    <rc><c>Zr</c><c>   1</c></rc>
    <rc><c>Zr</c><c>   1</c></rc>
    <rc><c>Zr</c><c>   1</c></rc>
    <rc><c>Zr</c><c>   1</c></rc>
    <rc><c>Zr</c><c>   1</c></rc>
    <rc><c>Zr</c><c>   1</c></rc>
    <rc><c>W </c><c>   2</c></rc>
    <rc><c>W </c><c>   2</c></rc>
    <rc><c>W </c><c>   2</c></rc>
    <rc><c>W </c><c>   2</c></rc>
    <rc><c>W </c><c>   2</c></rc>
    <rc><c>W </c><c>   2</c></rc>
    <rc><c>Hf</c><c>   3</c></rc>
    <rc><c>Hf</c><c>   3</c></rc>
    <rc><c>Hf</c><c>   3</c></rc>
    <rc><c>Hf</c><c>   3</c></rc>
    <rc><c>Hf</c><c>   3</c></rc>
    <rc><c>Hf</c><c>   3</c></rc>
    <rc><c>Hf</c><c>   3</c></rc>
    <rc><c>N </c><c>   4</c></rc>
    <rc><c>N </c><c>   4</c></rc>
    <rc><c>N </c><c>   4</c></rc>
    <rc><c>N </c><c>   4</c></rc>
    <rc><c>N </c><c>   4</c></rc>
    <rc><c>N </c><c>   4</c></rc>
    <rc><c>N </c><c>   4</c></rc>
    <rc><c>N </c><c>   4</c></rc>
    <rc><c>N </c><c>   4</c></rc>
    <rc><c>N </c><c>   4</c></rc>
    <rc><c>N </c><c>   4</c></rc>
    <rc><c>N </c><c>   4</c></rc>
    <rc><c>N </c><c>   4</c></rc>
    <rc><c>C </c><c>   5</c></rc>
    <rc><c>C </c><c>   5</c></rc>
    <rc><c>C </c><c>   5</c></rc>
    <rc><c>C </c><c>   5</c></rc>
    <rc><c>C </c><c>   5</c></rc>
    <rc><c>C </c><c>   5</c></rc>
    <rc><c>C </c><c>   5</c></rc>
    <rc><c>C </c><c>   5</c></rc>
    <rc><c>C </c><c>   5</c></rc>
    <rc><c>C </c><c>   5</c></rc>
    <rc><c>C </c><c>   5</c></rc>
    <rc><c>C </c><c>   5</c></rc>
    <rc><c>C </c><c>   5</c></rc>
    <rc><c>C </c><c>   5</c></rc>
    <rc><c>C </c><c>   5</c></rc>
    <rc><c>C </c><c>   5</c></rc>
    <rc><c>C </c><c>   5</c></rc>
    <rc><c>C </c><c>   5</c></rc>
    <rc><c>C </c><c>   5</c></rc>
    <rc><c>Mo</c><c>   6</c></rc>
    <rc><c>Mo</c><c>   6</c></rc>
    <rc><c>Mo</c><c>   6</c></rc>
    <rc><c>Mo</c><c>   6</c></rc>
    <rc><c>Mo</c><c>   6</c></rc>
    <rc><c>Mo</c><c>   6</c></rc>
    <rc><c>Ta</c><c>   7</c></rc>
    <rc><c>Ta</c><c>   7</c></rc>
    <rc><c>Ta</c><c>   7</c></rc>
    <rc><c>Ta</c><c>   7</c></rc>
    <rc><c>Ta</c><c>   7</c></rc>
    <rc><c>Ta</c><c>   7</c></rc>
   </set>
  </array>
  <array name="atomtypes" >
   <dimension dim="1">type</dimension>
   <field type="int">atomspertype</field>
   <field type="string">element</field>
   <field>mass</field>
   <field>valence</field>
   <field type="string">pseudopotential</field>
   <set>
    <rc><c>   7</c><c>Zr</c><c>     91.22400000</c><c>     12.00000000</c><c> PAW_PBE Zr_sv 07Sep2000                </c></rc>
    <rc><c>   6</c><c>W </c><c>    183.85000000</c><c>     12.00000000</c><c> PAW_PBE W_pv 06Sep2000                 </c></rc>
    <rc><c>   7</c><c>Hf</c><c>    178.49000000</c><c>     10.00000000</c><c> PAW_PBE Hf_pv 06Sep2000                </c></rc>
    <rc><c>  13</c><c>N </c><c>     14.00100000</c><c>      5.00000000</c><c> PAW_PBE N 08Apr2002                    </c></rc>
    <rc><c>  19</c><c>C </c><c>     12.01100000</c><c>      4.00000000</c><c> PAW_PBE C 08Apr2002                    </c></rc>
    <rc><c>   6</c><c>Mo</c><c>     95.94000000</c><c>      6.00000000</c><c> PAW_PBE Mo 08Apr2002                   </c></rc>
    <rc><c>   6</c><c>Ta</c><c>    180.94800000</c><c>     11.00000000</c><c> PAW_PBE Ta_pv 07Sep2000                </c></rc>
   </set>
  </array>
 </atominfo>
 <structure name="initialpos" >
  <crystal>
   <varray name="basis" >
    <v>       8.93249989       0.00000000       0.00000000 </v>
    <v>       0.00575300       9.05559834       0.00000000 </v>
    <v>       0.03210180      -0.01574346       8.93712807 </v>
   </varray>
   <i name="volume">    722.91652451 </i>
   <varray name="rec_basis" >
    <v>       0.11195074      -0.00007112      -0.00040225 </v>
    <v>       0.00000000       0.11042893       0.00019453 </v>
    <v>       0.00000000       0.00000000       0.11189277 </v>
   </varray>
  </crystal>
  <varray name="positions" >
   <v>       0.99688001       0.99204997       0.99924002 </v>
   <v>       0.25398003       0.99714995       0.24912000 </v>
   <v>       0.24803003       0.50165000       0.24955001 </v>
   <v>       0.50501006       0.49745998       0.99834003 </v>
   <v>       0.50479003       0.24631001       0.74710002 </v>
   <v>       0.99427992       0.50449999       0.49779000 </v>
   <v>       0.49950005       0.75481999       0.74817004 </v>
   <v>       0.99437004       0.23617001       0.26379999 </v>
   <v>       0.75718000       0.74102998       0.01100000 </v>
   <v>       0.00201000       0.25541000       0.73894001 </v>
   <v>       0.75307001       0.26163001       0.50533002 </v>
   <v>       0.99514004       0.74492004       0.74511997 </v>
   <v>       0.25679999       0.49462002       0.74545002 </v>
   <v>       0.24788999       0.24839000       0.99657997 </v>
   <v>       0.50833000       0.25676999       0.25376001 </v>
   <v>       0.74879004       0.98787999       0.26967001 </v>
   <v>       0.75719000       0.25603001       0.99591997 </v>
   <v>       0.24762001       0.74973999       0.99974006 </v>
   <v>       0.25272001       0.24823001       0.50015003 </v>
   <v>       0.24457999       0.75048999       0.49983999 </v>
   <v>       0.24982001       0.24942998       0.24825000 </v>
   <v>       0.26146999       0.99984002       0.99295996 </v>
   <v>       0.00281000       0.25024000       0.00130000 </v>
   <v>       0.75313998       0.24617000       0.25492002 </v>
   <v>       0.74767001       0.99748000       0.01202000 </v>
   <v>       0.50714994       0.99977000       0.24673000 </v>
   <v>       0.99051999       0.48088002       0.24100998 </v>
   <v>       0.50519005       0.76130999       0.00855000 </v>
   <v>       0.98896989       0.00202000       0.73708999 </v>
   <v>       0.75744996       0.24437997       0.74896999 </v>
   <v>       0.73632001       0.00417000       0.51063000 </v>
   <v>       0.50563996       0.23264999       0.49544997 </v>
   <v>       0.50008998       0.00061000       0.73471998 </v>
   <v>       0.99720000       0.99771992       0.25899999 </v>
   <v>       0.50427997       0.24673000       0.00262000 </v>
   <v>       0.25133999       0.74958002       0.24910999 </v>
   <v>       0.24328000       0.50072997       0.99510994 </v>
   <v>       0.99837005       0.74313996       0.00460000 </v>
   <v>       0.75633000       0.73891003       0.25767000 </v>
   <v>       0.75839004       0.50315998       0.00288000 </v>
   <v>       0.50700002       0.50333002       0.25878999 </v>
   <v>       0.24900999       0.25315000       0.74854000 </v>
   <v>       0.24446000       0.99823996       0.50287998 </v>
   <v>       0.99804009       0.24229999       0.50128003 </v>
   <v>       0.24177002       0.75340997       0.75018002 </v>
   <v>       0.25841001       0.50062002       0.50129001 </v>
   <v>       0.99000004       0.76215003       0.49746000 </v>
   <v>       0.99203996       0.50055999       0.75138002 </v>
   <v>       0.75036005       0.74888000       0.74756004 </v>
   <v>       0.74036002       0.50197000       0.50067003 </v>
   <v>       0.50575006       0.74958002       0.49720000 </v>
   <v>       0.50501003       0.50217998       0.73912003 </v>
   <v>       0.51588997       0.01358000       0.98075008 </v>
   <v>       0.99841994       0.50976998       0.98613004 </v>
   <v>       0.50379003       0.73926997       0.25905001 </v>
   <v>       0.23780002       0.01082000       0.74607998 </v>
   <v>       0.47957999       0.98308000       0.49717999 </v>
   <v>       0.74279003       0.97869994       0.76450995 </v>
   <v>       0.99864998       0.77573999       0.26102000 </v>
   <v>       0.73551001       0.51468004       0.26666001 </v>
   <v>       0.02362000       0.99783001       0.49557002 </v>
   <v>       0.50539000       0.52833005       0.49917999 </v>
   <v>       0.73876003       0.52828003       0.73814999 </v>
   <v>       0.75400003       0.72937999       0.49116997 </v>
  </varray>
 </structure>
 <calculation>
  <scstep>
   <time name="dav">   20.16   20.31</time>
   <time name="total">   20.19   20.35</time>
   <energy>
    <i name="alphaZ">   4381.58583189 </i>
    <i name="ewald"> -34658.67519640 </i>
    <i name="hartreedc">  -4785.07152392 </i>
    <i name="XCdc">   1021.84205426 </i>
    <i name="pawpsdc">  21707.84712414 </i>
    <i name="pawaedc"> -20929.46839124 </i>
    <i name="eentropy">     -0.07932197 </i>
    <i name="bandstr">    120.99777055 </i>
    <i name="atom">  36374.71633798 </i>
    <i name="e_fr_energy">   3233.69468529 </i>
    <i name="e_wo_entrp">   3233.77400726 </i>
    <i name="e_0_energy">   3233.73434627 </i>
   </energy>
  </scstep>
  <scstep>
   <time name="dav">   21.31   21.87</time>
   <time name="total">   21.31   21.87</time>
   <energy>
    <i name="e_fr_energy">   -438.61544446 </i>
    <i name="e_wo_entrp">   -438.52560893 </i>
    <i name="e_0_energy">   -438.57052670 </i>
   </energy>
  </scstep>
  <scstep>
   <time name="dav">   25.03   25.26</time>
   <time name="total">   25.04   25.26</time>
   <energy>
    <i name="e_fr_energy">   -768.78514694 </i>
    <i name="e_wo_entrp">   -768.69859547 </i>
    <i name="e_0_energy">   -768.74187120 </i>
   </energy>
  </scstep>
  <scstep>
   <time name="dav">   29.39   29.56</time>
   <time name="total">   29.40   29.56</time>
   <energy>
    <i name="e_fr_energy">   -784.59885161 </i>
    <i name="e_wo_entrp">   -784.51414370 </i>
    <i name="e_0_energy">   -784.55649765 </i>
   </energy>
  </scstep>
  <scstep>
   <time name="dav">   25.86   26.05</time>
   <time name="total">   26.04   26.24</time>
   <energy>
    <i name="e_fr_energy">   -785.16971738 </i>
    <i name="e_wo_entrp">   -785.08489328 </i>
    <i name="e_0_energy">   -785.12730533 </i>
   </energy>
  </scstep>
  <scstep>
   <time name="diag">    1.38    1.39</time>
   <time name="diis">   14.97   15.10</time>
   <time name="orth">    0.33    0.34</time>
   <time name="total">   16.90   17.05</time>
   <energy>
    <i name="e_fr_energy">   -676.45011641 </i>
    <i name="e_wo_entrp">   -676.33105575 </i>
    <i name="e_0_energy">   -676.39058608 </i>
   </energy>
  </scstep>
  <scstep>
   <time name="diag">    1.33    1.34</time>
   <time name="diis">   14.24   14.33</time>
   <time name="orth">    0.35    0.35</time>
   <time name="total">   16.10   16.20</time>
   <energy>
    <i name="e_fr_energy">   -671.24723741 </i>
    <i name="e_wo_entrp">   -671.14262906 </i>
    <i name="e_0_energy">   -671.19493324 </i>
   </energy>
  </scstep>
  <scstep>
   <time name="diag">    1.39    1.40</time>
   <time name="diis">   18.17   18.32</time>
   <time name="orth">    0.33    0.33</time>
   <time name="total">   20.08   20.24</time>
   <energy>
    <i name="e_fr_energy">   -667.99377096 </i>
    <i name="e_wo_entrp">   -667.87914506 </i>
    <i name="e_0_energy">   -667.93645801 </i>
   </energy>
  </scstep>
  <scstep>
   <time name="diag">    1.39    1.40</time>
   <time name="diis">   16.54   16.66</time>
   <time name="orth">    0.34    0.34</time>
   <time name="total">   18.46   18.58</time>
   <energy>
    <i name="e_fr_energy">   -667.07147764 </i>
    <i name="e_wo_entrp">   -666.95598529 </i>
    <i name="e_0_energy">   -667.01373146 </i>
   </energy>
  </scstep>
  <scstep>
   <time name="diag">    1.33    1.34</time>
   <time name="diis">   16.88   17.09</time>
   <time name="orth">    0.34    0.34</time>
   <time name="total">   18.72   18.94</time>
   <energy>
    <i name="e_fr_energy">   -666.90169869 </i>
    <i name="e_wo_entrp">   -666.78587549 </i>
    <i name="e_0_energy">   -666.84378709 </i>
   </energy>
  </scstep>
  <scstep>
   <time name="diag">    1.37    1.38</time>
   <time name="diis">   17.87   17.99</time>
   <time name="orth">    0.38    0.38</time>
   <time name="total">   19.81   19.94</time>
   <energy>
    <i name="e_fr_energy">   -666.82258838 </i>
    <i name="e_wo_entrp">   -666.70459973 </i>
    <i name="e_0_energy">   -666.76359405 </i>
   </energy>
  </scstep>
  <scstep>
   <time name="diag">    1.40    1.41</time>
   <time name="diis">   17.69   17.84</time>
   <time name="orth">    0.33    0.33</time>
   <time name="total">   19.61   19.76</time>
   <energy>
    <i name="e_fr_energy">   -666.64605792 </i>
    <i name="e_wo_entrp">   -666.52800427 </i>
    <i name="e_0_energy">   -666.58703109 </i>
   </energy>
  </scstep>
  <scstep>
   <time name="diag">    1.65    1.68</time>
   <time name="diis">   19.28   19.41</time>
   <time name="orth">    0.37    0.37</time>
   <time name="total">   21.49   21.65</time>
   <energy>
    <i name="e_fr_energy">   -666.61842097 </i>
    <i name="e_wo_entrp">   -666.49970300 </i>
    <i name="e_0_energy">   -666.55906198 </i>
   </energy>
  </scstep>
  <scstep>
   <time name="diag">    1.33    1.35</time>
   <time name="diis">   20.93   21.09</time>
   <time name="orth">    0.34    0.34</time>
   <time name="total">   22.78   22.96</time>
   <energy>
    <i name="e_fr_energy">   -666.64084642 </i>
    <i name="e_wo_entrp">   -666.52279102 </i>
    <i name="e_0_energy">   -666.58181872 </i>
   </energy>
  </scstep>
  <scstep>
   <time name="diag">    1.33    1.33</time>
   <time name="diis">   20.91   21.02</time>
   <time name="orth">    0.35    0.35</time>
   <time name="total">   22.77   22.88</time>
   <energy>
    <i name="e_fr_energy">   -666.63857648 </i>
    <i name="e_wo_entrp">   -666.51995751 </i>
    <i name="e_0_energy">   -666.57926700 </i>
   </energy>
  </scstep>
  <scstep>
   <time name="diag">    1.36    1.36</time>
   <time name="diis">   17.83   17.92</time>
   <time name="orth">    0.35    0.35</time>
   <time name="total">   19.73   19.83</time>
   <energy>
    <i name="e_fr_energy">   -666.62785037 </i>
    <i name="e_wo_entrp">   -666.50964157 </i>
    <i name="e_0_energy">   -666.56874597 </i>
   </energy>
  </scstep>
  <scstep>
   <time name="diag">    1.42    1.42</time>
   <time name="diis">   20.99   21.06</time>
   <time name="orth">    0.34    0.34</time>
   <time name="total">   22.92   23.00</time>
   <energy>
    <i name="e_fr_energy">   -666.62862626 </i>
    <i name="e_wo_entrp">   -666.51038100 </i>
    <i name="e_0_energy">   -666.56950363 </i>
   </energy>
  </scstep>
  <scstep>
   <time name="diag">    1.34    1.35</time>
   <time name="diis">   20.60   20.78</time>
   <time name="orth">    0.34    0.34</time>
   <time name="total">   22.46   22.65</time>
   <energy>
    <i name="e_fr_energy">   -666.62803354 </i>
    <i name="e_wo_entrp">   -666.50974678 </i>
    <i name="e_0_energy">   -666.56889016 </i>
   </energy>
  </scstep>
  <scstep>
   <time name="diag">    1.44    1.44</time>
   <time name="diis">   21.07   21.17</time>
   <time name="orth">    0.34    0.34</time>
   <time name="total">   23.03   23.14</time>
   <energy>
    <i name="e_fr_energy">   -666.62803098 </i>
    <i name="e_wo_entrp">   -666.50969714 </i>
    <i name="e_0_energy">   -666.56886406 </i>
   </energy>
  </scstep>
  <scstep>
   <time name="diag">    1.34    1.34</time>
   <time name="diis">   21.24   21.39</time>
   <time name="orth">    0.34    0.34</time>
   <time name="total">   23.12   23.27</time>
   <energy>
    <i name="e_fr_energy">   -666.62803003 </i>
    <i name="e_wo_entrp">   -666.50971815 </i>
    <i name="e_0_energy">   -666.56887409 </i>
   </energy>
  </scstep>
  <scstep>
   <time name="diag">    1.42    1.42</time>
   <time name="diis">   19.96   20.08</time>
   <time name="orth">    0.36    0.36</time>
   <time name="total">   21.92   22.05</time>
   <energy>
    <i name="e_fr_energy">   -666.62804375 </i>
    <i name="e_wo_entrp">   -666.50971729 </i>
    <i name="e_0_energy">   -666.56888052 </i>
   </energy>
  </scstep>
  <scstep>
   <time name="diag">    1.33    1.33</time>
   <time name="diis">   18.57   18.66</time>
   <time name="orth">    0.33    0.34</time>
   <time name="total">   20.43   20.53</time>
   <energy>
    <i name="e_fr_energy">   -666.62805207 </i>
    <i name="e_wo_entrp">   -666.50972934 </i>
    <i name="e_0_energy">   -666.56889070 </i>
   </energy>
  </scstep>
  <scstep>
   <time name="diag">    1.35    1.35</time>
   <time name="diis">   12.79   12.84</time>
   <time name="orth">    0.35    0.35</time>
   <time name="total">   14.51   14.56</time>
   <energy>
    <i name="alphaZ">   4381.58583189 </i>
    <i name="ewald"> -34658.67519640 </i>
    <i name="hartreedc">  -4572.12260937 </i>
    <i name="XCdc">   1026.82475707 </i>
    <i name="pawpsdc">  23884.99352951 </i>
    <i name="pawaedc"> -23169.95576809 </i>
    <i name="eentropy">     -0.11831956 </i>
    <i name="bandstr">  -3933.87661602 </i>
    <i name="atom">  36374.71633798 </i>
    <i name="e_fr_energy">   -666.62805299 </i>
    <i name="e_wo_entrp">   -666.50973343 </i>
    <i name="e_0_energy">   -666.56889321 </i>
   </energy>
  </scstep>
  <structure>
   <crystal>
    <varray name="basis" >
     <v>       8.93249989       0.00000000       0.00000000 </v>
     <v>       0.00575300       9.05559834       0.00000000 </v>
     <v>       0.03210180      -0.01574346       8.93712807 </v>
    </varray>
    <i name="volume">    722.91652451 </i>
    <varray name="rec_basis" >
     <v>       0.11195074      -0.00007112      -0.00040225 </v>
     <v>       0.00000000       0.11042893       0.00019453 </v>
     <v>       0.00000000       0.00000000       0.11189277 </v>
    </varray>
   </crystal>
   <varray name="positions" >
    <v>       0.99688001       0.99204997       0.99924002 </v>
    <v>       0.25398003       0.99714995       0.24912000 </v>
    <v>       0.24803003       0.50165000       0.24955001 </v>
    <v>       0.50501006       0.49745998       0.99834003 </v>
    <v>       0.50479003       0.24631001       0.74710002 </v>
    <v>       0.99427992       0.50449999       0.49779000 </v>
    <v>       0.49950005       0.75481999       0.74817004 </v>
    <v>       0.99437004       0.23617001       0.26379999 </v>
    <v>       0.75718000       0.74102998       0.01100000 </v>
    <v>       0.00201000       0.25541000       0.73894001 </v>
    <v>       0.75307001       0.26163001       0.50533002 </v>
    <v>       0.99514004       0.74492004       0.74511997 </v>
    <v>       0.25679999       0.49462002       0.74545002 </v>
    <v>       0.24788999       0.24839000       0.99657997 </v>
    <v>       0.50833000       0.25676999       0.25376001 </v>
    <v>       0.74879004       0.98787999       0.26967001 </v>
    <v>       0.75719000       0.25603001       0.99591997 </v>
    <v>       0.24762001       0.74973999       0.99974006 </v>
    <v>       0.25272001       0.24823001       0.50015003 </v>
    <v>       0.24457999       0.75048999       0.49983999 </v>
    <v>       0.24982001       0.24942998       0.24825000 </v>
    <v>       0.26146999       0.99984002       0.99295996 </v>
    <v>       0.00281000       0.25024000       0.00130000 </v>
    <v>       0.75313998       0.24617000       0.25492002 </v>
    <v>       0.74767001       0.99748000       0.01202000 </v>
    <v>       0.50714994       0.99977000       0.24673000 </v>
    <v>       0.99051999       0.48088002       0.24100998 </v>
    <v>       0.50519005       0.76130999       0.00855000 </v>
    <v>       0.98896989       0.00202000       0.73708999 </v>
    <v>       0.75744996       0.24437997       0.74896999 </v>
    <v>       0.73632001       0.00417000       0.51063000 </v>
    <v>       0.50563996       0.23264999       0.49544997 </v>
    <v>       0.50008998       0.00061000       0.73471998 </v>
    <v>       0.99720000       0.99771992       0.25899999 </v>
    <v>       0.50427997       0.24673000       0.00262000 </v>
    <v>       0.25133999       0.74958002       0.24910999 </v>
    <v>       0.24328000       0.50072997       0.99510994 </v>
    <v>       0.99837005       0.74313996       0.00460000 </v>
    <v>       0.75633000       0.73891003       0.25767000 </v>
    <v>       0.75839004       0.50315998       0.00288000 </v>
    <v>       0.50700002       0.50333002       0.25878999 </v>
    <v>       0.24900999       0.25315000       0.74854000 </v>
    <v>       0.24446000       0.99823996       0.50287998 </v>
    <v>       0.99804009       0.24229999       0.50128003 </v>
    <v>       0.24177002       0.75340997       0.75018002 </v>
    <v>       0.25841001       0.50062002       0.50129001 </v>
    <v>       0.99000004       0.76215003       0.49746000 </v>
    <v>       0.99203996       0.50055999       0.75138002 </v>
    <v>       0.75036005       0.74888000       0.74756004 </v>
    <v>       0.74036002       0.50197000       0.50067003 </v>
    <v>       0.50575006       0.74958002       0.49720000 </v>
    <v>       0.50501003       0.50217998       0.73912003 </v>
    <v>       0.51588997       0.01358000       0.98075008 </v>
    <v>       0.99841994       0.50976998       0.98613004 </v>
    <v>       0.50379003       0.73926997       0.25905001 </v>
    <v>       0.23780002       0.01082000       0.74607998 </v>
    <v>       0.47957999       0.98308000       0.49717999 </v>
    <v>       0.74279003       0.97869994       0.76450995 </v>
    <v>       0.99864998       0.77573999       0.26102000 </v>
    <v>       0.73551001       0.51468004       0.26666001 </v>
    <v>       0.02362000       0.99783001       0.49557002 </v>
    <v>       0.50539000       0.52833005       0.49917999 </v>
    <v>       0.73876003       0.52828003       0.73814999 </v>
    <v>       0.75400003       0.72937999       0.49116997 </v>
   </varray>
  </structure>
  <varray name="forces" >
   <v>       0.04031642       0.50506614      -0.71700106 </v>
   <v>       0.83768161       0.49740675      -0.47598784 </v>
   <v>       0.03940752      -0.07336874      -0.31299269 </v>
   <v>      -0.77694627       0.08378975       0.10942997 </v>
   <v>      -0.16256051      -0.50280034       0.13527510 </v>
   <v>       0.60114496      -1.41117728       0.38779604 </v>
   <v>      -0.85763628       1.25077874       0.66059061 </v>
   <v>       0.08350014      -1.08548038       0.19560779 </v>
   <v>       0.39074491      -0.06688359      -0.33175911 </v>
   <v>       1.26060617       0.31047684      -0.76028978 </v>
   <v>       0.46578137       0.61429413      -0.24659911 </v>
   <v>       0.50884398      -0.25956078       0.84117775 </v>
   <v>      -0.20440461      -0.09339049       0.48801297 </v>
   <v>      -0.04832279      -0.03967192      -0.07952806 </v>
   <v>      -0.25027420      -0.79712828      -0.27576235 </v>
   <v>      -1.08373818       1.26666608      -0.64720028 </v>
   <v>      -0.08216177      -0.26656181      -0.04378513 </v>
   <v>       0.26720199       0.10606123      -0.35424825 </v>
   <v>       0.37796120       0.35114972       0.23581002 </v>
   <v>       0.79909002       0.10869038       0.58724375 </v>
   <v>       0.15154200       0.01853926       0.11349739 </v>
   <v>      -0.37925120       0.09063902       0.37940272 </v>
   <v>      -0.09176303      -0.02238421       0.09313153 </v>
   <v>      -0.01941900       0.07862935      -0.09345587 </v>
   <v>       0.31888528       0.01981252       0.05709955 </v>
   <v>      -0.00534373       0.11439449      -0.02794740 </v>
   <v>      -0.09920790       0.07957533       0.33950389 </v>
   <v>      -0.06012516      -0.30412408      -0.42344557 </v>
   <v>      -0.19640309       0.18070423       0.43475353 </v>
   <v>       0.23977362       0.11559546      -0.09679359 </v>
   <v>       0.60678046       0.05479748      -0.11334526 </v>
   <v>      -0.01900771       0.33160806       0.08018226 </v>
   <v>       0.06884934       0.13748050       0.24235874 </v>
   <v>      -0.09042152       1.18451260      -1.00191464 </v>
   <v>      -0.00219872       0.43396291      -0.06247470 </v>
   <v>      -0.25001317      -0.11773930      -0.08944261 </v>
   <v>       0.38277851      -0.09883362      -0.25214579 </v>
   <v>      -0.26111171       0.08905610      -0.36082380 </v>
   <v>      -0.43573171       1.50825910      -1.68627282 </v>
   <v>      -0.31158042       0.23279173      -0.03883306 </v>
   <v>      -1.38021190      -0.74955260      -0.87303966 </v>
   <v>      -0.36749118       0.38334473      -0.02787304 </v>
   <v>       1.48335932       0.01881179      -0.21462976 </v>
   <v>      -0.29446147       0.56634806       0.28350295 </v>
   <v>      -0.26923814      -0.41215609       0.00056372 </v>
   <v>      -0.69752864      -0.10433469       0.20918797 </v>
   <v>       1.08533859      -0.89765914       1.12885388 </v>
   <v>       0.56045406      -0.30925662      -0.07134889 </v>
   <v>       0.16542817       1.27741045       0.81100437 </v>
   <v>       1.09637269      -1.46303289       0.42550719 </v>
   <v>      -0.94799439       1.19564069       0.48766374 </v>
   <v>      -1.17283948      -0.24300138       0.87342051 </v>
   <v>      -0.06006826       0.00868398      -0.19784460 </v>
   <v>       0.22436981       0.98170472      -0.39328560 </v>
   <v>      -0.07078341       1.19565570      -0.91655761 </v>
   <v>       0.13950696      -0.07747267       0.42246102 </v>
   <v>      -0.18062307       0.16201689      -0.14737608 </v>
   <v>      -0.38134795      -0.40820023       0.59263293 </v>
   <v>       0.96611340      -2.24924277      -1.64649366 </v>
   <v>       2.32210199      -2.50365609      -2.56389435 </v>
   <v>      -2.53663708       1.20546607       1.50189059 </v>
   <v>      -2.27314413      -2.76797136       0.25906213 </v>
   <v>       1.09295861      -2.82531286       1.70134484 </v>
   <v>      -0.25690126       3.39013322       1.46642258 </v>
  </varray>
  <varray name="stress" >
   <v>      56.97725469       1.71098155       3.45679240 </v>
   <v>       1.71098085      41.44705391      -1.33497780 </v>
   <v>       3.45679234      -1.33497877      54.17127393 </v>
  </varray>
  <energy>
   <i name="e_fr_energy">   -666.62805299 </i>
   <i name="e_wo_entrp">   -666.50973343 </i>
   <i name="e_0_energy">   -666.56889321 </i>
  </energy>
  <time name="totalsc">  521.90  525.90</time>
 </calculation>
 <calculation>
  <scstep>
   <time name="dav">   19.63   19.76</time>
   <time name="total">   19.84   19.97</time>
   <energy>
    <i name="alphaZ">   4161.86657131 </i>
    <i name="ewald"> -34182.16142000 </i>
    <i name="hartreedc">  -4396.40571999 </i>
    <i name="XCdc">    999.67129857 </i>
    <i name="pawpsdc">  23884.92741489 </i>
    <i name="pawaedc"> -23169.90522146 </i>
    <i name="eentropy">     -0.13356261 </i>
    <i name="bandstr">  -4337.14583102 </i>
    <i name="atom">  36374.71633798 </i>
    <i name="e_fr_energy">   -664.57013234 </i>
    <i name="e_wo_entrp">   -664.43656974 </i>
    <i name="e_0_energy">   -664.50335104 </i>
   </energy>
  </scstep>
  <scstep>
   <time name="diag">    1.38    1.39</time>
   <time name="diis">   14.89   15.03</time>
   <time name="orth">    0.34    0.34</time>
   <time name="total">   16.79   16.94</time>
   <energy>
    <i name="e_fr_energy">   -669.26531170 </i>
    <i name="e_wo_entrp">   -669.13784006 </i>
    <i name="e_0_energy">   -669.20157588 </i>
   </energy>
  </scstep>
  <scstep>
   <time name="diag">    1.36    1.36</time>
   <time name="diis">   16.30   16.44</time>
   <time name="orth">    0.34    0.34</time>
   <time name="total">   18.18   18.33</time>
   <energy>
    <i name="e_fr_energy">   -668.45196765 </i>
    <i name="e_wo_entrp">   -668.33297641 </i>
    <i name="e_0_energy">   -668.39247203 </i>
   </energy>
  </scstep>
  <scstep>
   <time name="diag">    1.49    1.50</time>
   <time name="diis">   17.91   18.05</time>
   <time name="orth">    0.34    0.34</time>
   <time name="total">   19.92   20.07</time>
   <energy>
    <i name="e_fr_energy">   -667.94071377 </i>
    <i name="e_wo_entrp">   -667.80601541 </i>
    <i name="e_0_energy">   -667.87336459 </i>
   </energy>
  </scstep>
  <scstep>
   <time name="diag">    1.47    1.47</time>
   <time name="diis">   16.32   16.45</time>
   <time name="orth">    0.33    0.33</time>
   <time name="total">   18.30   18.44</time>
   <energy>
    <i name="e_fr_energy">   -667.71024816 </i>
    <i name="e_wo_entrp">   -667.58780569 </i>
    <i name="e_0_energy">   -667.64902692 </i>
   </energy>
  </scstep>
  <scstep>
   <time name="diag">    1.33    1.34</time>
   <time name="diis">   18.31   18.61</time>
   <time name="orth">    0.35    0.35</time>
   <time name="total">   20.17   20.48</time>
   <energy>
    <i name="e_fr_energy">   -667.59296061 </i>
    <i name="e_wo_entrp">   -667.46187507 </i>
    <i name="e_0_energy">   -667.52741784 </i>
   </energy>
  </scstep>
  <scstep>
   <time name="diag">    1.36    1.37</time>
   <time name="diis">   19.52   19.64</time>
   <time name="orth">    0.34    0.34</time>
   <time name="total">   21.40   21.53</time>
   <energy>
    <i name="e_fr_energy">   -667.57130250 </i>
    <i name="e_wo_entrp">   -667.44358369 </i>
    <i name="e_0_energy">   -667.50744309 </i>
   </energy>
  </scstep>
  <scstep>
   <time name="diag">    1.39    1.40</time>
   <time name="diis">   21.25   21.45</time>
   <time name="orth">    0.34    0.34</time>
   <time name="total">   23.16   23.37</time>
   <energy>
    <i name="e_fr_energy">   -667.56341798 </i>
    <i name="e_wo_entrp">   -667.43399500 </i>
    <i name="e_0_energy">   -667.49870649 </i>
   </energy>
  </scstep>
  <scstep>
   <time name="diag">    1.35    1.36</time>
   <time name="diis">   21.61   21.77</time>
   <time name="orth">    0.33    0.33</time>
   <time name="total">   23.47   23.64</time>
   <energy>
    <i name="e_fr_energy">   -667.56345684 </i>
    <i name="e_wo_entrp">   -667.43477164 </i>
    <i name="e_0_energy">   -667.49911424 </i>
   </energy>
  </scstep>
  <scstep>
   <time name="diag">    1.41    1.42</time>
   <time name="diis">   21.59   21.82</time>
   <time name="orth">    0.37    0.37</time>
   <time name="total">   23.58   23.82</time>
   <energy>
    <i name="e_fr_energy">   -667.56349753 </i>
    <i name="e_wo_entrp">   -667.43428021 </i>
    <i name="e_0_energy">   -667.49888887 </i>
   </energy>
  </scstep>
  <scstep>
   <time name="diag">    1.37    1.37</time>
   <time name="diis">   21.75   21.97</time>
   <time name="orth">    0.37    0.37</time>
   <time name="total">   23.67   23.89</time>
   <energy>
    <i name="e_fr_energy">   -667.56402482 </i>
    <i name="e_wo_entrp">   -667.43516678 </i>
    <i name="e_0_energy">   -667.49959580 </i>
   </energy>
  </scstep>
  <scstep>
   <time name="diag">    1.33    1.33</time>
   <time name="diis">   21.62   21.91</time>
   <time name="orth">    0.34    0.34</time>
   <time name="total">   23.46   23.76</time>
   <energy>
    <i name="e_fr_energy">   -667.56424332 </i>
    <i name="e_wo_entrp">   -667.43513520 </i>
    <i name="e_0_energy">   -667.49968926 </i>
   </energy>
  </scstep>
  <scstep>
   <time name="diag">    1.42    1.43</time>
   <time name="diis">   21.63   21.89</time>
   <time name="orth">    0.34    0.34</time>
   <time name="total">   23.57   23.85</time>
   <energy>
    <i name="e_fr_energy">   -667.56441988 </i>
    <i name="e_wo_entrp">   -667.43543076 </i>
    <i name="e_0_energy">   -667.49992532 </i>
   </energy>
  </scstep>
  <scstep>
   <time name="diag">    1.34    1.35</time>
   <time name="diis">   20.93   21.17</time>
   <time name="orth">    0.34    0.34</time>
   <time name="total">   22.81   23.07</time>
   <energy>
    <i name="e_fr_energy">   -667.56449096 </i>
    <i name="e_wo_entrp">   -667.43544070 </i>
    <i name="e_0_energy">   -667.49996583 </i>
   </energy>
  </scstep>
  <scstep>
   <time name="diag">    1.38    1.39</time>
   <time name="diis">   20.55   20.72</time>
   <time name="orth">    0.33    0.33</time>
   <time name="total">   22.45   22.62</time>
   <energy>
    <i name="e_fr_energy">   -667.56451137 </i>
    <i name="e_wo_entrp">   -667.43548969 </i>
    <i name="e_0_energy">   -667.50000053 </i>
   </energy>
  </scstep>
  <scstep>
   <time name="diag">    1.35    1.35</time>
   <time name="diis">   19.14   19.37</time>
   <time name="orth">    0.34    0.34</time>
   <time name="total">   21.01   21.24</time>
   <energy>
    <i name="e_fr_energy">   -667.56452459 </i>
    <i name="e_wo_entrp">   -667.43549088 </i>
    <i name="e_0_energy">   -667.50000774 </i>
   </energy>
  </scstep>
  <scstep>
   <time name="diag">    1.33    1.36</time>
   <time name="diis">   14.20   14.31</time>
   <time name="orth">    0.34    0.34</time>
   <time name="total">   15.89   16.04</time>
   <energy>
    <i name="alphaZ">   4161.86657131 </i>
    <i name="ewald"> -34182.16142000 </i>
    <i name="hartreedc">  -4618.45018337 </i>
    <i name="XCdc">   1012.03964418 </i>
    <i name="pawpsdc">  23260.60763074 </i>
    <i name="pawaedc"> -22542.99631476 </i>
    <i name="eentropy">     -0.12903038 </i>
    <i name="bandstr">  -4133.05776707 </i>
    <i name="atom">  36374.71633798 </i>
    <i name="e_fr_energy">   -667.56453138 </i>
    <i name="e_wo_entrp">   -667.43550100 </i>
    <i name="e_0_energy">   -667.50001619 </i>
   </energy>
  </scstep>
  <structure>
   <crystal>
    <varray name="basis" >
     <v>       9.10560238       0.00519813       0.01050207 </v>
     <v>       0.01113425       9.18325721      -0.00410492 </v>
     <v>       0.04322226      -0.02000461       9.10183589 </v>
    </varray>
    <i name="volume">    761.08177597 </i>
    <varray name="rec_basis" >
     <v>       0.10982318      -0.00013339      -0.00052181 </v>
     <v>      -0.00006244       0.10889401       0.00023963 </v>
     <v>      -0.00012675       0.00004927       0.10986865 </v>
    </varray>
   </crystal>
   <varray name="positions" >
    <v>       0.99710993       0.99473392       0.99536964 </v>
    <v>       0.25851171       0.99979537       0.24655061 </v>
    <v>       0.24824918       0.50125620       0.24786047 </v>
    <v>       0.50081152       0.49790739       0.99893073 </v>
    <v>       0.50391118       0.24363267       0.74783023 </v>
    <v>       0.99752390       0.49698575       0.49988332 </v>
    <v>       0.49485102       0.76148957       0.75173591 </v>
    <v>       0.99482093       0.23038908       0.26485588 </v>
    <v>       0.75929700       0.74067055       0.00920916 </v>
    <v>       0.00883197       0.25705689       0.73483596 </v>
    <v>       0.75558828       0.26490028       0.50399888 </v>
    <v>       0.99787278       0.74354515       0.74966065 </v>
    <v>       0.25568690       0.49412707       0.74808432 </v>
    <v>       0.24763069       0.24817790       0.99615068 </v>
    <v>       0.50698641       0.25252080       0.25227144 </v>
    <v>       0.74294520       0.99462194       0.26617642 </v>
    <v>       0.75674802       0.25460952       0.99568362 </v>
    <v>       0.24906963       0.75030170       0.99782782 </v>
    <v>       0.25475552       0.25010293       0.50142294 </v>
    <v>       0.24888395       0.75107453       0.50300993 </v>
    <v>       0.25063620       0.24952981       0.24886265 </v>
    <v>       0.25941406       0.00032645       0.99500798 </v>
    <v>       0.00231268       0.25012163       0.00180272 </v>
    <v>       0.75303665       0.24658801       0.25441554 </v>
    <v>       0.74939107       0.99758608       0.01232822 </v>
    <v>       0.50712123       0.00037916       0.24657914 </v>
    <v>       0.98997733       0.48130714       0.24284263 </v>
    <v>       0.50487459       0.75968583       0.00626424 </v>
    <v>       0.98790010       0.00298676       0.73943679 </v>
    <v>       0.75874641       0.24499489       0.74844750 </v>
    <v>       0.73959912       0.00446086       0.51001816 </v>
    <v>       0.50553461       0.23441734       0.49588279 </v>
    <v>       0.50045665       0.00134469       0.73602823 </v>
    <v>       0.99672703       0.00402087       0.25359165 </v>
    <v>       0.50426782       0.24904130       0.00228276 </v>
    <v>       0.24999186       0.74895193       0.24862718 </v>
    <v>       0.24535255       0.50020108       0.99374886 </v>
    <v>       0.99696653       0.74361101       0.00265227 </v>
    <v>       0.75400425       0.74692928       0.24856749 </v>
    <v>       0.75670721       0.50439978       0.00267038 </v>
    <v>       0.49956528       0.49932867       0.25407732 </v>
    <v>       0.24702447       0.25519197       0.74838954 </v>
    <v>       0.25247543       0.99833816       0.50172140 </v>
    <v>       0.99644231       0.24531981       0.50281038 </v>
    <v>       0.24031732       0.75121426       0.75018306 </v>
    <v>       0.25463909       0.50006615       0.50241921 </v>
    <v>       0.99584291       0.75737844       0.50355356 </v>
    <v>       0.99506931       0.49891179       0.75099488 </v>
    <v>       0.75123338       0.75569287       0.75193784 </v>
    <v>       0.74627807       0.49417986       0.50296692 </v>
    <v>       0.50061656       0.75595423       0.49983241 </v>
    <v>       0.49865964       0.50089362       0.74383476 </v>
    <v>       0.51556936       0.01362441       0.97968211 </v>
    <v>       0.99963598       0.51499621       0.98400708 </v>
    <v>       0.50342143       0.74563108       0.25410243 </v>
    <v>       0.23854554       0.01041124       0.74836043 </v>
    <v>       0.47860679       0.98394175       0.49638446 </v>
    <v>       0.74072034       0.97653086       0.76770899 </v>
    <v>       0.00390743       0.76374196       0.25213222 </v>
    <v>       0.74810956       0.50131804       0.25282010 </v>
    <v>       0.00988685       0.00426609       0.50367723 </v>
    <v>       0.49311767       0.51358644       0.50057841 </v>
    <v>       0.74463956       0.51324446       0.74733386 </v>
    <v>       0.75257247       0.74745429       0.49908572 </v>
   </varray>
  </structure>
  <varray name="forces" >
   <v>       0.07634214      -0.03541649      -0.28905984 </v>
   <v>      -0.26389790      -0.27499721       0.17977591 </v>
   <v>      -0.13648023       0.01263286      -0.21490445 </v>
   <v>      -0.10699031      -0.19062271       0.10447988 </v>
   <v>      -0.21402014      -0.30646625       0.15185353 </v>
   <v>       0.14175315       0.18545135       0.28445610 </v>
   <v>       0.22156780      -0.37571537       0.02642350 </v>
   <v>      -0.16202159       0.14714234       0.60851968 </v>
   <v>       0.52156424      -0.38061757      -0.35176622 </v>
   <v>       0.94398666       0.08600749      -0.50239474 </v>
   <v>       0.22252788      -0.09073280      -0.22743762 </v>
   <v>       0.19332910      -0.77205796       0.70364875 </v>
   <v>      -0.21550808      -0.12325963       0.41106602 </v>
   <v>      -0.07252352      -0.03404900      -0.21330947 </v>
   <v>      -0.10324591       0.05507765      -0.25741192 </v>
   <v>       0.30895453       0.09952195      -0.39469385 </v>
   <v>      -0.14042648      -0.06662644      -0.25529197 </v>
   <v>      -0.20224819       0.14399265      -0.08788599 </v>
   <v>      -0.26044252      -0.22821662       0.19862202 </v>
   <v>      -0.26219794       0.14349261      -0.08583166 </v>
   <v>      -0.03302160      -0.16282169       0.08351795 </v>
   <v>      -0.18066230       0.05896037       0.25020125 </v>
   <v>      -0.09955191      -0.11266209       0.18463146 </v>
   <v>       0.01549381       0.14961910      -0.11680323 </v>
   <v>      -0.01649158       0.08307825      -0.29104405 </v>
   <v>      -0.05837304       0.19682953      -0.06682129 </v>
   <v>       0.08845697       0.38469822       0.22395998 </v>
   <v>      -0.11391510      -0.16563245      -0.24203165 </v>
   <v>      -0.12754990       0.16518108       0.27532293 </v>
   <v>       0.16861680       0.52385325      -0.10046383 </v>
   <v>       0.73035806      -0.40405551      -0.12088276 </v>
   <v>      -0.06596710       0.78469929      -0.07085993 </v>
   <v>       0.22202962       0.24142209       0.16266038 </v>
   <v>       0.08898782      -1.32018432       0.03897792 </v>
   <v>      -0.04254313       0.04881496      -0.05189331 </v>
   <v>      -0.13635018       0.09865102      -0.03299189 </v>
   <v>      -0.05005054       0.08601007      -0.08579766 </v>
   <v>       0.17083323       0.49322170      -0.20132635 </v>
   <v>      -0.06825801      -0.35972186       0.35582672 </v>
   <v>      -0.05575582      -0.04092247      -0.10923203 </v>
   <v>       0.79056808       0.01725693       0.22997536 </v>
   <v>      -0.11835023      -0.00091484      -0.01721969 </v>
   <v>      -1.24327143       0.33885921       0.23324533 </v>
   <v>       0.11613859       0.06424087      -0.08940404 </v>
   <v>      -0.13207694      -0.06050109       0.09157890 </v>
   <v>      -0.12683367      -0.02899759      -0.04497135 </v>
   <v>      -0.01598101      -0.11892955      -0.01206077 </v>
   <v>       0.38557918      -0.21258976       0.23183097 </v>
   <v>      -0.03580106      -1.23509884       0.27628691 </v>
   <v>      -0.48294453       1.02291476      -0.43862073 </v>
   <v>      -0.02994415      -1.15761331      -0.01806604 </v>
   <v>       0.02380147       0.08322635      -0.05404842 </v>
   <v>       0.26574747       0.08680829      -0.34867104 </v>
   <v>      -0.22625142       0.59075765      -0.24061082 </v>
   <v>      -0.18986771      -0.36030081       0.49030114 </v>
   <v>      -0.46473683      -0.06449380      -0.20587916 </v>
   <v>       0.31923546      -0.18667838      -0.25826394 </v>
   <v>      -0.61661138       0.26205311       0.49406624 </v>
   <v>      -0.21330928       1.11392607       0.04670609 </v>
   <v>      -0.35316340       0.73263414       0.00746295 </v>
   <v>       0.87936661      -0.12712851      -0.09077226 </v>
   <v>       0.92742080       0.82838009      -0.20570139 </v>
   <v>      -0.17117412       0.74190291       0.35682878 </v>
   <v>      -0.21384931      -1.07329327      -0.30780127 </v>
  </varray>
  <varray name="stress" >
   <v>    -122.18080053       1.71510692       0.89644747 </v>
   <v>       1.71510608    -127.46237792      -4.43098730 </v>
   <v>       0.89644631      -4.43099190    -116.58106893 </v>
  </varray>
  <energy>
   <i name="e_fr_energy">   -667.56453138 </i>
   <i name="e_wo_entrp">   -667.43550100 </i>
   <i name="e_0_energy">   -667.50001619 </i>
  </energy>
  <time name="totalsc">  392.83  396.52</time>
 </calculation>
 <calculation>
  <scstep>
   <time name="dav">   19.77   19.97</time>
   <time name="total">   19.95   20.15</time>
   <energy>
    <i name="alphaZ">   4259.16232914 </i>
    <i name="ewald"> -34421.82888534 </i>
    <i name="hartreedc">  -4676.84993535 </i>
    <i name="XCdc">   1024.20743718 </i>
    <i name="pawpsdc">  23260.56863231 </i>
    <i name="pawaedc"> -22542.96720436 </i>
    <i name="eentropy">     -0.12301360 </i>
    <i name="bandstr">  -3944.74501067 </i>
    <i name="atom">  36374.71633798 </i>
    <i name="e_fr_energy">   -667.85931271 </i>
    <i name="e_wo_entrp">   -667.73629911 </i>
    <i name="e_0_energy">   -667.79780591 </i>
   </energy>
  </scstep>
  <scstep>
   <time name="diag">    1.38    1.39</time>
   <time name="diis">   15.02   15.21</time>
   <time name="orth">    0.33    0.33</time>
   <time name="total">   16.91   17.11</time>
   <energy>
    <i name="e_fr_energy">   -668.74072030 </i>
    <i name="e_wo_entrp">   -668.61805321 </i>
    <i name="e_0_energy">   -668.67938675 </i>
   </energy>
  </scstep>
  <scstep>
   <time name="diag">    1.43    1.44</time>
   <time name="diis">   16.19   16.36</time>
   <time name="orth">    0.33    0.33</time>
   <time name="total">   18.13   18.32</time>
   <energy>
    <i name="e_fr_energy">   -668.73109904 </i>
    <i name="e_wo_entrp">   -668.60466254 </i>
    <i name="e_0_energy">   -668.66788079 </i>
   </energy>
  </scstep>
  <scstep>
   <time name="diag">    1.33    1.34</time>
   <time name="diis">   16.81   17.14</time>
   <time name="orth">    0.34    0.34</time>
   <time name="total">   18.67   19.00</time>
   <energy>
    <i name="e_fr_energy">   -668.62363523 </i>
    <i name="e_wo_entrp">   -668.50096552 </i>
    <i name="e_0_energy">   -668.56230037 </i>
   </energy>
  </scstep>
  <scstep>
   <time name="diag">    1.33    1.34</time>
   <time name="diis">   16.47   16.55</time>
   <time name="orth">    0.33    0.33</time>
   <time name="total">   18.32   18.41</time>
   <energy>
    <i name="e_fr_energy">   -668.58291587 </i>
    <i name="e_wo_entrp">   -668.45649350 </i>
    <i name="e_0_energy">   -668.51970469 </i>
   </energy>
  </scstep>
  <scstep>
   <time name="diag">    1.46    1.48</time>
   <time name="diis">   18.46   18.72</time>
   <time name="orth">    0.33    0.33</time>
   <time name="total">   20.43   20.72</time>
   <energy>
    <i name="e_fr_energy">   -668.57097216 </i>
    <i name="e_wo_entrp">   -668.44610787 </i>
    <i name="e_0_energy">   -668.50854001 </i>
   </energy>
  </scstep>
  <scstep>
   <time name="diag">    1.42    1.43</time>
   <time name="diis">   19.94   20.09</time>
   <time name="orth">    0.33    0.34</time>
   <time name="total">   21.87   22.04</time>
   <energy>
    <i name="e_fr_energy">   -668.56763198 </i>
    <i name="e_wo_entrp">   -668.44192068 </i>
    <i name="e_0_energy">   -668.50477633 </i>
   </energy>
  </scstep>
  <scstep>
   <time name="diag">    1.32    1.33</time>
   <time name="diis">   21.26   21.42</time>
   <time name="orth">    0.34    0.34</time>
   <time name="total">   23.11   23.27</time>
   <energy>
    <i name="e_fr_energy">   -668.56774067 </i>
    <i name="e_wo_entrp">   -668.44252984 </i>
    <i name="e_0_energy">   -668.50513525 </i>
   </energy>
  </scstep>
  <scstep>
   <time name="diag">    1.45    1.47</time>
   <time name="diis">   21.28   21.52</time>
   <time name="orth">    0.34    0.34</time>
   <time name="total">   23.25   23.51</time>
   <energy>
    <i name="e_fr_energy">   -668.56778775 </i>
    <i name="e_wo_entrp">   -668.44227716 </i>
    <i name="e_0_energy">   -668.50503246 </i>
   </energy>
  </scstep>
  <scstep>
   <time name="diag">    1.37    1.38</time>
   <time name="diis">   21.17   21.36</time>
   <time name="orth">    0.34    0.34</time>
   <time name="total">   23.05   23.25</time>
   <energy>
    <i name="e_fr_energy">   -668.56795426 </i>
    <i name="e_wo_entrp">   -668.44264721 </i>
    <i name="e_0_energy">   -668.50530074 </i>
   </energy>
  </scstep>
  <scstep>
   <time name="diag">    1.41    1.42</time>
   <time name="diis">   21.11   21.24</time>
   <time name="orth">    0.34    0.36</time>
   <time name="total">   23.04   23.21</time>
   <energy>
    <i name="e_fr_energy">   -668.56806788 </i>
    <i name="e_wo_entrp">   -668.44262865 </i>
    <i name="e_0_energy">   -668.50534827 </i>
   </energy>
  </scstep>
  <scstep>
   <time name="diag">    1.41    1.42</time>
   <time name="diis">   20.78   20.92</time>
   <time name="orth">    0.36    0.36</time>
   <time name="total">   22.73   22.88</time>
   <energy>
    <i name="e_fr_energy">   -668.56811901 </i>
    <i name="e_wo_entrp">   -668.44274835 </i>
    <i name="e_0_energy">   -668.50543368 </i>
   </energy>
  </scstep>
  <scstep>
   <time name="diag">    1.40    1.40</time>
   <time name="diis">   20.15   20.31</time>
   <time name="orth">    0.36    0.37</time>
   <time name="total">   22.13   22.29</time>
   <energy>
    <i name="e_fr_energy">   -668.56814542 </i>
    <i name="e_wo_entrp">   -668.44274315 </i>
    <i name="e_0_energy">   -668.50544429 </i>
   </energy>
  </scstep>
  <scstep>
   <time name="diag">    1.36    1.38</time>
   <time name="diis">   17.33   17.46</time>
   <time name="orth">    0.37    0.37</time>
   <time name="total">   19.25   19.39</time>
   <energy>
    <i name="e_fr_energy">   -668.56816700 </i>
    <i name="e_wo_entrp">   -668.44278797 </i>
    <i name="e_0_energy">   -668.50547749 </i>
   </energy>
  </scstep>
  <scstep>
   <time name="diag">    1.36    1.36</time>
   <time name="diis">   13.75   13.86</time>
   <time name="orth">    0.34    0.34</time>
   <time name="total">   15.47   15.58</time>
   <energy>
    <i name="alphaZ">   4259.16232914 </i>
    <i name="ewald"> -34421.82888534 </i>
    <i name="hartreedc">  -4572.32025898 </i>
    <i name="XCdc">   1018.31702781 </i>
    <i name="pawpsdc">  23507.35080416 </i>
    <i name="pawaedc"> -22790.80825778 </i>
    <i name="eentropy">     -0.12540104 </i>
    <i name="bandstr">  -4043.03186759 </i>
    <i name="atom">  36374.71633798 </i>
    <i name="e_fr_energy">   -668.56817163 </i>
    <i name="e_wo_entrp">   -668.44277059 </i>
    <i name="e_0_energy">   -668.50547111 </i>
   </energy>
  </scstep>
  <structure>
   <crystal>
    <varray name="basis" >
     <v>       9.02747344       0.00285198       0.00576202 </v>
     <v>       0.00870545       9.12563902      -0.00225219 </v>
     <v>       0.03820310      -0.01808137       9.02749584 </v>
    </varray>
    <i name="volume">    743.69572152 </i>
    <varray name="rec_basis" >
     <v>       0.11077330      -0.00010579      -0.00046899 </v>
     <v>      -0.00003476       0.10958145       0.00021963 </v>
     <v>      -0.00007071       0.00002741       0.11077304 </v>
    </varray>
   </crystal>
   <varray name="positions" >
    <v>       0.99700684       0.99354017       0.99708448 </v>
    <v>       0.25650460       0.99861960       0.24769109 </v>
    <v>       0.24815118       0.50143185       0.24860943 </v>
    <v>       0.50267092       0.49770709       0.99866671 </v>
    <v>       0.50429998       0.24482392       0.74750670 </v>
    <v>       0.99608669       0.50033054       0.49895878 </v>
    <v>       0.49691302       0.75851928       0.75015188 </v>
    <v>       0.99462033       0.23296192       0.26438932 </v>
    <v>       0.75835865       0.74083139       0.01000398 </v>
    <v>       0.00580975       0.25632641       0.73665794 </v>
    <v>       0.75447344       0.26344567       0.50458944 </v>
    <v>       0.99666478       0.74415689       0.74765000 </v>
    <v>       0.25618096       0.49434569       0.74691639 </v>
    <v>       0.24774522       0.24827232       0.99634084 </v>
    <v>       0.50757944       0.25441194       0.25293131 </v>
    <v>       0.74553306       0.99162049       0.26772036 </v>
    <v>       0.75694322       0.25524167       0.99578842 </v>
    <v>       0.24842695       0.75005243       0.99867591 </v>
    <v>       0.25385540       0.24926961       0.50085948 </v>
    <v>       0.24698007       0.75081484       0.50160717 </v>
    <v>       0.25027516       0.24948547       0.24859153 </v>
    <v>       0.26032553       0.00010904       0.99409920 </v>
    <v>       0.00253310       0.25017409       0.00157970 </v>
    <v>       0.75308225       0.24640203       0.25463898 </v>
    <v>       0.74862923       0.99753924       0.01219248 </v>
    <v>       0.50713402       0.00010806       0.24664586 </v>
    <v>       0.99021866       0.48111655       0.24203008 </v>
    <v>       0.50501267       0.76040906       0.00727740 </v>
    <v>       0.98837522       0.00255576       0.73839600 </v>
    <v>       0.75817227       0.24472163       0.74867959 </v>
    <v>       0.73814700       0.00433235       0.51029094 </v>
    <v>       0.50558193       0.23363063       0.49569057 </v>
    <v>       0.50029516       0.00101754       0.73544848 </v>
    <v>       0.99693531       0.00121742       0.25598700 </v>
    <v>       0.50427363       0.24801266       0.00243175 </v>
    <v>       0.25058835       0.74923123       0.24884059 </v>
    <v>       0.24443406       0.50043726       0.99435322 </v>
    <v>       0.99758709       0.74340138       0.00351465 </v>
    <v>       0.75503143       0.74336130       0.25259872 </v>
    <v>       0.75745253       0.50384760       0.00276217 </v>
    <v>       0.50285368       0.50110859       0.25616287 </v>
    <v>       0.24790404       0.25428268       0.74845480 </v>
    <v>       0.24892589       0.99829670       0.50223893 </v>
    <v>       0.99715133       0.24397508       0.50213074 </v>
    <v>       0.24095996       0.75219114       0.75018141 </v>
    <v>       0.25630916       0.50031149       0.50191695 </v>
    <v>       0.99325776       0.75950244       0.50085697 </v>
    <v>       0.99372739       0.49964620       0.75116744 </v>
    <v>       0.75085071       0.75266004       0.74999677 </v>
    <v>       0.74365690       0.49764808       0.50195358 </v>
    <v>       0.50289251       0.75311546       0.49866188 </v>
    <v>       0.50147347       0.50146364       0.74174231 </v>
    <v>       0.51571078       0.01360477       0.98015524 </v>
    <v>       0.99909783       0.51267088       0.98494750 </v>
    <v>       0.50358375       0.74280079       0.25629362 </v>
    <v>       0.23821651       0.01059292       0.74735025 </v>
    <v>       0.47903751       0.98355812       0.49673635 </v>
    <v>       0.74163781       0.97749512       0.76629062 </v>
    <v>       0.00157193       0.76908497       0.25607619 </v>
    <v>       0.74252032       0.50727091       0.25896277 </v>
    <v>       0.01597327       0.00139656       0.50007598 </v>
    <v>       0.49854834       0.52014504       0.49995535 </v>
    <v>       0.74203710       0.51993608       0.74326980 </v>
    <v>       0.75321331       0.73940806       0.49557327 </v>
   </varray>
  </structure>
  <varray name="forces" >
   <v>       0.05360127       0.16849409      -0.44592727 </v>
   <v>       0.10598217       0.04069300      -0.05456704 </v>
   <v>      -0.05862528      -0.02272711      -0.24668803 </v>
   <v>      -0.38959464      -0.08469798       0.11428655 </v>
   <v>      -0.19742185      -0.40359345       0.14529651 </v>
   <v>       0.29271984      -0.48305053       0.32220154 </v>
   <v>      -0.16180153       0.21940305       0.25011881 </v>
   <v>      -0.03500706      -0.42004775       0.42187822 </v>
   <v>       0.46347687      -0.20092228      -0.36663166 </v>
   <v>       1.10365016       0.18384879      -0.63733764 </v>
   <v>       0.27785951       0.21547140      -0.19830868 </v>
   <v>       0.29868546      -0.57828668       0.81615203 </v>
   <v>      -0.21362368      -0.10112473       0.43956740 </v>
   <v>      -0.06283108      -0.03909727      -0.16210433 </v>
   <v>      -0.15465317      -0.29947678      -0.25987043 </v>
   <v>      -0.19217465       0.55667300      -0.50029928 </v>
[...]
      </set>
     </set>
    </set>
   </array>
  </eigenvalues>
  <separator name="orbital magnetization" >
   <v name="MAGDIPOLOUT">      0.00000000      0.00000000      0.00000000</v>
  </separator>
  <dos>
   <i name="efermi">      7.83323419 </i>
   <total>
    <array>
     <dimension dim="1">gridpoints</dimension>
     <dimension dim="2">spin</dimension>
     <field>energy</field>
     <field>total</field>
     <field>integrated</field>
     <set>
      <set comment="spin 1">
       <r>   -44.1858     0.0000     0.0000 </r>
       <r>   -43.9900     0.0000     0.0000 </r>
       <r>   -43.7942     0.0000     0.0000 </r>
       <r>   -43.5984     0.0000     0.0000 </r>
       <r>   -43.4026     0.0000     0.0000 </r>
       <r>   -43.2068     0.0000     0.0000 </r>
       <r>   -43.0110     0.0000     0.0000 </r>
       <r>   -42.8153     0.0000     0.0000 </r>
       <r>   -42.6195     0.0000     0.0000 </r>
       <r>   -42.4237     0.0000     0.0000 </r>
       <r>   -42.2279     0.0000     0.0000 </r>
       <r>   -42.0321     0.0000     0.0000 </r>
       <r>   -41.8363     0.0000     0.0000 </r>
       <r>   -41.6405     0.3987     0.0781 </r>
       <r>   -41.4447     8.2126     1.6860 </r>
       <r>   -41.2489     1.6217     2.0035 </r>
       <r>   -41.0532     7.7889     3.5285 </r>
       <r>   -40.8574    43.0392    11.9551 </r>
       <r>   -40.6616    10.3937    13.9901 </r>
       <r>   -40.4658     0.0507    14.0000 </r>
       <r>   -40.2700     0.0000    14.0000 </r>
       <r>   -40.0742     0.0000    14.0000 </r>
       <r>   -39.8784     0.0000    14.0000 </r>
       <r>   -39.6826     0.0000    14.0000 </r>
       <r>   -39.4868     0.0000    14.0000 </r>
       <r>   -39.2910     0.0000    14.0000 </r>
       <r>   -39.0953     0.0000    14.0000 </r>
       <r>   -38.8995     0.0000    14.0000 </r>
       <r>   -38.7037     0.0000    14.0000 </r>
       <r>   -38.5079     0.0000    14.0000 </r>
       <r>   -38.3121     0.0000    14.0000 </r>
       <r>   -38.1163     0.0000    14.0000 </r>
       <r>   -37.9205     0.0000    14.0000 </r>
       <r>   -37.7247     0.0000    14.0000 </r>
       <r>   -37.5289     0.0000    14.0000 </r>
       <r>   -37.3332     0.0000    14.0000 </r>
       <r>   -37.1374     0.0000    14.0000 </r>
       <r>   -36.9416     0.0000    14.0000 </r>
       <r>   -36.7458     0.0000    14.0000 </r>
       <r>   -36.5500     0.0000    14.0000 </r>
       <r>   -36.3542     0.0000    14.0000 </r>
       <r>   -36.1584     0.0000    14.0000 </r>
       <r>   -35.9626     0.0000    14.0000 </r>
       <r>   -35.7668     0.0000    14.0000 </r>
       <r>   -35.5711     0.0000    14.0000 </r>
       <r>   -35.3753     0.0000    14.0000 </r>
       <r>   -35.1795     0.0000    14.0000 </r>
       <r>   -34.9837     0.0000    14.0000 </r>
       <r>   -34.7879     0.0000    14.0000 </r>
       <r>   -34.5921     0.0000    14.0000 </r>
       <r>   -34.3963     0.0000    14.0000 </r>
       <r>   -34.2005     0.0000    14.0000 </r>
       <r>   -34.0047     0.0000    14.0000 </r>
       <r>   -33.8090     0.0000    14.0000 </r>
       <r>   -33.6132     0.0000    14.0000 </r>
       <r>   -33.4174     0.0000    14.0000 </r>
       <r>   -33.2216     0.0000    14.0000 </r>
       <r>   -33.0258     0.0000    14.0000 </r>
       <r>   -32.8300     0.0000    14.0000 </r>
       <r>   -32.6342     0.0000    14.0000 </r>
       <r>   -32.4384     0.0000    14.0000 </r>
       <r>   -32.2426     0.0000    14.0000 </r>
       <r>   -32.0469     0.0002    14.0000 </r>
       <r>   -31.8511     1.0012    14.1961 </r>
       <r>   -31.6553    13.9580    16.9289 </r>
       <r>   -31.4595    74.9344    31.6002 </r>
       <r>   -31.2637    78.3830    46.9468 </r>
       <r>   -31.0679    15.5137    49.9842 </r>
       <r>   -30.8721     0.0807    50.0000 </r>
       <r>   -30.6763     0.0000    50.0000 </r>
       <r>   -30.4805     0.0000    50.0000 </r>
       <r>   -30.2847     0.0000    50.0000 </r>
       <r>   -30.0890     0.0000    50.0000 </r>
       <r>   -29.8932     0.0000    50.0000 </r>
       <r>   -29.6974     0.0000    50.0000 </r>
       <r>   -29.5016     0.0000    50.0000 </r>
       <r>   -29.3058     0.0000    50.0000 </r>
       <r>   -29.1100     0.0000    50.0000 </r>
       <r>   -28.9142     0.0000    50.0000 </r>
       <r>   -28.7184     0.0000    50.0000 </r>
       <r>   -28.5226     0.0000    50.0000 </r>
       <r>   -28.3269     0.0000    50.0000 </r>
       <r>   -28.1311     0.0000    50.0000 </r>
       <r>   -27.9353     0.0015    50.0003 </r>
       <r>   -27.7395     3.5772    50.7007 </r>
       <r>   -27.5437    51.3110    60.7468 </r>
       <r>   -27.3479    81.4819    76.7001 </r>
       <r>   -27.1521    45.7690    85.6611 </r>
       <r>   -26.9563     1.7303    85.9999 </r>
       <r>   -26.7605     0.0005    86.0000 </r>
       <r>   -26.5648     0.0000    86.0000 </r>
       <r>   -26.3690     0.0000    86.0000 </r>
       <r>   -26.1732     0.0000    86.0000 </r>
       <r>   -25.9774     0.0000    86.0000 </r>
       <r>   -25.7816     0.0000    86.0000 </r>
       <r>   -25.5858     0.0000    86.0000 </r>
       <r>   -25.3900     0.0000    86.0000 </r>
       <r>   -25.1942     0.0000    86.0000 </r>
       <r>   -24.9984     0.0000    86.0000 </r>
       <r>   -24.8027     0.0000    86.0000 </r>
       <r>   -24.6069     0.0000    86.0000 </r>
       <r>   -24.4111     0.0000    86.0000 </r>
       <r>   -24.2153     0.0000    86.0000 </r>
       <r>   -24.0195     0.0000    86.0000 </r>
       <r>   -23.8237     0.0035    86.0007 </r>
       <r>   -23.6279     2.7736    86.5437 </r>
       <r>   -23.4321    22.0338    90.8577 </r>
       <r>   -23.2363    46.2297    99.9090 </r>
       <r>   -23.0405    22.4378   104.3021 </r>
       <r>   -22.8448    61.3237   116.3086 </r>
       <r>   -22.6490    28.9471   121.9761 </r>
       <r>   -22.4532     9.6917   123.8736 </r>
       <r>   -22.2574    20.5774   127.9025 </r>
       <r>   -22.0616     0.4982   128.0000 </r>
       <r>   -21.8658     0.0000   128.0000 </r>
       <r>   -21.6700     0.0000   128.0000 </r>
       <r>   -21.4742     0.0000   128.0000 </r>
       <r>   -21.2784     0.0000   128.0000 </r>
       <r>   -21.0827     0.0000   128.0000 </r>
       <r>   -20.8869     0.0000   128.0000 </r>
       <r>   -20.6911     0.0000   128.0000 </r>
       <r>   -20.4953     0.0000   128.0000 </r>
       <r>   -20.2995     0.0000   128.0000 </r>
       <r>   -20.1037     0.0029   128.0006 </r>
       <r>   -19.9079     4.2244   128.8277 </r>
       <r>   -19.7121    24.4806   133.6207 </r>
       <r>   -19.5163     9.3997   135.4611 </r>
       <r>   -19.3206    58.9519   147.0032 </r>
       <r>   -19.1248    89.4623   164.5189 </r>
       <r>   -18.9290    24.7777   169.3701 </r>
       <r>   -18.7332     3.2132   169.9993 </r>
       <r>   -18.5374     0.0038   170.0000 </r>
       <r>   -18.3416     0.0000   170.0000 </r>
       <r>   -18.1458     0.0000   170.0000 </r>
       <r>   -17.9500     0.0000   170.0000 </r>
       <r>   -17.7542     0.0000   170.0000 </r>
       <r>   -17.5585     0.0000   170.0000 </r>
       <r>   -17.3627     0.0000   170.0000 </r>
       <r>   -17.1669     0.0000   170.0000 </r>
       <r>   -16.9711     0.0000   170.0000 </r>
       <r>   -16.7753     0.0000   170.0000 </r>
       <r>   -16.5795     0.0000   170.0000 </r>
       <r>   -16.3837     0.0000   170.0000 </r>
       <r>   -16.1879     0.0000   170.0000 </r>
       <r>   -15.9921     0.0000   170.0000 </r>
       <r>   -15.7963     0.0000   170.0000 </r>
       <r>   -15.6006     0.0000   170.0000 </r>
       <r>   -15.4048     0.0000   170.0000 </r>
       <r>   -15.2090     0.0000   170.0000 </r>
       <r>   -15.0132     0.0000   170.0000 </r>
       <r>   -14.8174     0.0000   170.0000 </r>
       <r>   -14.6216     0.0000   170.0000 </r>
       <r>   -14.4258     0.0000   170.0000 </r>
       <r>   -14.2300     0.0000   170.0000 </r>
       <r>   -14.0342     0.0000   170.0000 </r>
       <r>   -13.8385     0.0000   170.0000 </r>
       <r>   -13.6427     0.0000   170.0000 </r>
       <r>   -13.4469     0.0000   170.0000 </r>
       <r>   -13.2511     0.0000   170.0000 </r>
       <r>   -13.0553     0.0000   170.0000 </r>
       <r>   -12.8595     0.0000   170.0000 </r>
       <r>   -12.6637     0.0000   170.0000 </r>
       <r>   -12.4679     0.0000   170.0000 </r>
       <r>   -12.2721     0.0000   170.0000 </r>
       <r>   -12.0764     0.0000   170.0000 </r>
       <r>   -11.8806     0.0000   170.0000 </r>
       <r>   -11.6848     0.0000   170.0000 </r>
       <r>   -11.4890     0.0000   170.0000 </r>
       <r>   -11.2932     0.0000   170.0000 </r>
       <r>   -11.0974     0.0000   170.0000 </r>
       <r>   -10.9016     0.0000   170.0000 </r>
       <r>   -10.7058     0.0000   170.0000 </r>
       <r>   -10.5100     0.0000   170.0000 </r>
       <r>   -10.3143     0.0000   170.0000 </r>
       <r>   -10.1185     0.0000   170.0000 </r>
       <r>    -9.9227     0.0000   170.0000 </r>
       <r>    -9.7269     0.0000   170.0000 </r>
       <r>    -9.5311     0.0000   170.0000 </r>
       <r>    -9.3353     0.0000   170.0000 </r>
       <r>    -9.1395     0.0000   170.0000 </r>
       <r>    -8.9437     0.0000   170.0000 </r>
       <r>    -8.7479     0.0948   170.0186 </r>
       <r>    -8.5521     4.2196   170.8447 </r>
       <r>    -8.3564     5.7776   171.9759 </r>
       <r>    -8.1606     4.5149   172.8599 </r>
       <r>    -7.9648     9.4234   174.7049 </r>
       <r>    -7.7690     8.8186   176.4315 </r>
       <r>    -7.5732    10.5567   178.4983 </r>
       <r>    -7.3774    18.2000   182.0617 </r>
       <r>    -7.1816    27.4882   187.4436 </r>
       <r>    -6.9858    31.8151   193.6726 </r>
       <r>    -6.7900    11.5370   195.9315 </r>
       <r>    -6.5943     0.3501   196.0000 </r>
       <r>    -6.3985     0.0000   196.0000 </r>
       <r>    -6.2027     0.0000   196.0000 </r>
       <r>    -6.0069     0.0000   196.0000 </r>
       <r>    -5.8111     0.0000   196.0000 </r>
       <r>    -5.6153     0.0000   196.0000 </r>
       <r>    -5.4195     0.0303   196.0059 </r>
       <r>    -5.2237     1.9945   196.3964 </r>
       <r>    -5.0279     6.6539   197.6992 </r>
       <r>    -4.8322     2.2585   198.1414 </r>
       <r>    -4.6364    10.1011   200.1191 </r>
       <r>    -4.4406    10.6700   202.2082 </r>
       <r>    -4.2448    10.2914   204.2231 </r>
       <r>    -4.0490    14.9410   207.1484 </r>
       <r>    -3.8532    19.4095   210.9486 </r>
       <r>    -3.6574    20.0694   214.8779 </r>
       <r>    -3.4616    23.9190   219.5610 </r>
       <r>    -3.2658    17.5584   222.9987 </r>
       <r>    -3.0701    17.8440   226.4924 </r>
       <r>    -2.8743    18.6609   230.1460 </r>
       <r>    -2.6785    12.2866   232.5516 </r>
       <r>    -2.4827     6.5058   233.8253 </r>
       <r>    -2.2869     0.8457   233.9909 </r>
       <r>    -2.0911     0.0464   234.0000 </r>
       <r>    -1.8953     0.0000   234.0000 </r>
       <r>    -1.6995     0.0000   234.0000 </r>
       <r>    -1.5037     0.0000   234.0000 </r>
       <r>    -1.3080     0.0000   234.0000 </r>
       <r>    -1.1122     0.0000   234.0000 </r>
       <r>    -0.9164     0.0000   234.0000 </r>
       <r>    -0.7206     0.0083   234.0016 </r>
       <r>    -0.5248     0.3748   234.0750 </r>
       <r>    -0.3290     0.9393   234.2589 </r>
       <r>    -0.1332     4.2518   235.0914 </r>
       <r>     0.0626     8.4511   236.7460 </r>
       <r>     0.2584     9.3941   238.5853 </r>
       <r>     0.4542    13.0276   241.1359 </r>
       <r>     0.6499    17.3795   244.5387 </r>
       <r>     0.8457    20.1485   248.4835 </r>
       <r>     1.0415    25.8162   253.5380 </r>
       <r>     1.2373    27.0597   258.8360 </r>
       <r>     1.4331    23.4179   263.4210 </r>
       <r>     1.6289    28.1209   268.9268 </r>
       <r>     1.8247    32.4921   275.2884 </r>
       <r>     2.0205    33.2373   281.7959 </r>
       <r>     2.2163    36.3099   288.9050 </r>
       <r>     2.4120    42.4467   297.2156 </r>
       <r>     2.6078    51.1826   307.2366 </r>
       <r>     2.8036    63.3101   319.6320 </r>
       <r>     2.9994    68.5195   333.0474 </r>
       <r>     3.1952    65.9676   345.9632 </r>
       <r>     3.3910    66.0943   358.9037 </r>
       <r>     3.5868    61.6528   370.9747 </r>
       <r>     3.7826    54.1055   381.5679 </r>
       <r>     3.9784    44.3163   390.2446 </r>
       <r>     4.1741    37.3084   397.5492 </r>
       <r>     4.3699    31.2655   403.6706 </r>
       <r>     4.5657    27.8721   409.1277 </r>
       <r>     4.7615    24.5398   413.9323 </r>
       <r>     4.9573    20.4508   417.9364 </r>
       <r>     5.1531    19.0934   421.6746 </r>
       <r>     5.3489    14.3340   424.4811 </r>
       <r>     5.5447     7.8444   426.0169 </r>
       <r>     5.7405    11.6031   428.2887 </r>
       <r>     5.9362    17.3579   431.6872 </r>
       <r>     6.1320    16.9627   435.0083 </r>
       <r>     6.3278    17.6360   438.4612 </r>
       <r>     6.5236    19.7234   442.3228 </r>
       <r>     6.7194    17.5739   445.7636 </r>
       <r>     6.9152    17.1698   449.1253 </r>
       <r>     7.1110    20.3634   453.1122 </r>
       <r>     7.3068    21.9422   457.4083 </r>
       <r>     7.5026    21.8310   461.6826 </r>
       <r>     7.6984    23.9819   466.3780 </r>
       <r>     7.8941    18.5318   470.0063 </r>
       <r>     8.0899    17.9642   473.5235 </r>
       <r>     8.2857    21.6780   477.7678 </r>
       <r>     8.4815    25.5465   482.7695 </r>
       <r>     8.6773    25.4671   487.7557 </r>
       <r>     8.8731    34.3260   494.4764 </r>
       <r>     9.0689    37.9875   501.9139 </r>
       <r>     9.2647    38.7574   509.5022 </r>
       <r>     9.4605    37.8596   516.9147 </r>
       <r>     9.6562    40.4591   524.8361 </r>
       <r>     9.8520    40.4127   532.7485 </r>
       <r>    10.0478    38.6624   540.3182 </r>
       <r>    10.2436    41.8209   548.5063 </r>
       <r>    10.4394    43.8096   557.0837 </r>
       <r>    10.6352    43.9370   565.6861 </r>
       <r>    10.8310    42.1834   573.9452 </r>
       <r>    11.0268    44.5443   582.6665 </r>
       <r>    11.2226    45.3978   591.5549 </r>
       <r>    11.4183    49.2104   601.1897 </r>
       <r>    11.6141    44.0841   609.8209 </r>
       <r>    11.8099    26.2932   614.9688 </r>
       <r>    12.0057     5.1974   615.9864 </r>
       <r>    12.2015     0.0694   616.0000 </r>
       <r>    12.3973     0.0000   616.0000 </r>
       <r>    12.5931     0.0000   616.0000 </r>
       <r>    12.7889     0.0000   616.0000 </r>
       <r>    12.9847     0.0000   616.0000 </r>
       <r>    13.1804     0.0000   616.0000 </r>
       <r>    13.3762     0.0000   616.0000 </r>
       <r>    13.5720     0.0000   616.0000 </r>
       <r>    13.7678     0.0000   616.0000 </r>
       <r>    13.9636     0.0000   616.0000 </r>
       <r>    14.1594     0.0000   616.0000 </r>
       <r>    14.3552     0.0000   616.0000 </r>
       <r>    14.5510     0.0000   616.0000 </r>
      </set>
     </set>
    </array>
   </total>
  </dos>
 </calculation>
 <structure name="finalpos" >
  <crystal>
   <varray name="basis" >
    <v>       8.99000287       0.01614878       0.01352055 </v>
    <v>       0.02211921       9.01655004      -0.01696315 </v>
    <v>       0.04578790      -0.03232228       8.99816855 </v>
   </varray>
   <i name="volume">    729.36709465 </i>
   <varray name="rec_basis" >
    <v>       0.11123601      -0.00027395      -0.00056702 </v>
    <v>      -0.00019983       0.11090841       0.00039941 </v>
    <v>      -0.00016752       0.00020949       0.11113533 </v>
   </varray>
  </crystal>
  <varray name="positions" >
   <v>       0.00280247       0.00062940       0.99156514 </v>
   <v>       0.25765796       0.99814136       0.25579773 </v>
   <v>       0.24707866       0.50146603       0.24753141 </v>
   <v>       0.49981407       0.49781737       0.99942779 </v>
   <v>       0.49971859       0.24044073       0.74600051 </v>
   <v>       0.99960708       0.49928371       0.50335601 </v>
   <v>       0.50158064       0.75899243       0.75270256 </v>
   <v>       0.99043826       0.23088643       0.27280181 </v>
   <v>       0.76867594       0.74379801       0.99392477 </v>
   <v>       0.01947188       0.24298563       0.73229381 </v>
   <v>       0.75660982       0.26662983       0.49091945 </v>
   <v>       0.99884463       0.72962342       0.76315030 </v>
   <v>       0.25027125       0.50722315       0.75466305 </v>
   <v>       0.24729596       0.24800744       0.99513700 </v>
   <v>       0.50501532       0.24880323       0.24752413 </v>
   <v>       0.74434976       0.99543650       0.25962438 </v>
   <v>       0.75439576       0.25219227       0.99071886 </v>
   <v>       0.25294648       0.75597690       0.00103294 </v>
   <v>       0.25584081       0.24908997       0.50354763 </v>
   <v>       0.24807763       0.75112104       0.50467593 </v>
   <v>       0.24777079       0.24845348       0.24991106 </v>
   <v>       0.26052197       0.00361700       0.99951740 </v>
   <v>       0.00112129       0.25317638       0.00785593 </v>
   <v>       0.75283250       0.24899022       0.24530981 </v>
   <v>       0.75220566       0.99692065       0.00739893 </v>
   <v>       0.50453737       0.99953709       0.23298828 </v>
   <v>       0.99250377       0.49126304       0.24644546 </v>
   <v>       0.50645444       0.75755071       0.00476163 </v>
   <v>       0.97223931       0.00675936       0.74420034 </v>
   <v>       0.75822366       0.24960377       0.74459553 </v>
   <v>       0.74807385       0.00219171       0.50598027 </v>
   <v>       0.50683301       0.25015718       0.49298387 </v>
   <v>       0.48826054       0.00068318       0.73329213 </v>
   <v>       0.99719976       0.99823445       0.25531661 </v>
   <v>       0.50269869       0.25052438       0.99926388 </v>
   <v>       0.24831244       0.74946658       0.25146920 </v>
   <v>       0.24536659       0.50277873       0.99595956 </v>
   <v>       0.00464995       0.75231992       0.00460552 </v>
   <v>       0.75132403       0.74659832       0.24590015 </v>
   <v>       0.75529059       0.50456830       0.99949079 </v>
   <v>       0.50537441       0.50079319       0.25572203 </v>
   <v>       0.25027068       0.25300359       0.74918668 </v>
   <v>       0.25230118       0.99894090       0.50935081 </v>
   <v>       0.99834587       0.24542251       0.50585936 </v>
   <v>       0.24154746       0.75220430       0.75311402 </v>
   <v>       0.25445327       0.49941436       0.50385983 </v>
   <v>       0.99461507       0.75465166       0.50709190 </v>
   <v>       0.99909054       0.48913754       0.75563891 </v>
   <v>       0.75511463       0.74930538       0.74981871 </v>
   <v>       0.74622383       0.50188751       0.49895326 </v>
   <v>       0.49902855       0.74731893       0.50240097 </v>
   <v>       0.49939302       0.50141210       0.74424169 </v>
   <v>       0.51694374       0.01410018       0.97838196 </v>
   <v>       0.99906404       0.51757549       0.98881823 </v>
   <v>       0.50313822       0.75155351       0.26343661 </v>
   <v>       0.22243593       0.00064430       0.74920751 </v>
   <v>       0.49059128       0.97948821       0.48162368 </v>
   <v>       0.72755916       0.98185525       0.77283795 </v>
   <v>       0.00077860       0.76512381       0.25087452 </v>
   <v>       0.74850438       0.50575903       0.25032056 </v>
   <v>       0.00624754       0.00054723       0.50831055 </v>
   <v>       0.49889496       0.50959786       0.50014310 </v>
   <v>       0.74482913       0.50756785       0.74929444 </v>
   <v>       0.74834171       0.74075578       0.49787131 </v>
  </varray>
 </structure>
</modeling>
