HECN                                    
           1
     8.932500    0.000000    0.000000
     0.005753    9.055598    0.000000
     0.032102   -0.015743    8.937128
   Zr   W    Hf   N    C    Mo   Ta
     7     6     7    13    19     6     6
Direct configuration=     1
   0.99688001  0.99204997  0.99924002
   0.25398003  0.99714995  0.24912000
   0.24803003  0.50165000  0.24955001
   0.50501006  0.49745998  0.99834003
   0.50479003  0.24631001  0.74710002
   0.99427992  0.50449999  0.49779000
   0.49950005  0.75481999  0.74817004
   0.99437004  0.23617001  0.26379999
   0.75718000  0.74102998  0.01100000
   0.00201000  0.25541000  0.73894001
   0.75307001  0.26163001  0.50533002
   0.99514004  0.74492004  0.74511997
   0.25679999  0.49462002  0.74545002
   0.24788999  0.24839000  0.99657997
   0.50833000  0.25676999  0.25376001
   0.74879004  0.98787999  0.26967001
   0.75719000  0.25603001  0.99591997
   0.24762001  0.74973999  0.99974006
   0.25272001  0.24823001  0.50015003
   0.24457999  0.75048999  0.49983999
   0.24982001  0.24942998  0.24825000
   0.26146999  0.99984002  0.99295996
   0.00281000  0.25024000  0.00130000
   0.75313998  0.24617000  0.25492002
   0.74767001  0.99748000  0.01202000
   0.50714994  0.99977000  0.24673000
   0.99051999  0.48088002  0.24100998
   0.50519005  0.76130999  0.00855000
   0.98896989  0.00202000  0.73708999
   0.75744996  0.24437997  0.74896999
   0.73632001  0.00417000  0.51063000
   0.50563996  0.23264999  0.49544997
   0.50008998  0.00061000  0.73471998
   0.99720000  0.99771992  0.25899999
   0.50427997  0.24673000  0.00262000
   0.25133999  0.74958002  0.24910999
   0.24328000  0.50072997  0.99510994
   0.99837005  0.74313996  0.00460000
   0.75633000  0.73891003  0.25767000
   0.75839004  0.50315998  0.00288000
   0.50700002  0.50333002  0.25878999
   0.24900999  0.25315000  0.74854000
   0.24446000  0.99823996  0.50287998
   0.99804009  0.24229999  0.50128003
   0.24177002  0.75340997  0.75018002
   0.25841001  0.50062002  0.50129001
   0.99000004  0.76215003  0.49746000
   0.99203996  0.50055999  0.75138002
   0.75036005  0.74888000  0.74756004
   0.74036002  0.50197000  0.50067003
   0.50575006  0.74958002  0.49720000
   0.50501003  0.50217998  0.73912003
   0.51588997  0.01358000  0.98075008
   0.99841994  0.50976998  0.98613004
   0.50379003  0.73926997  0.25905001
   0.23780002  0.01082000  0.74607998
   0.47957999  0.98308000  0.49717999
   0.74279003  0.97869994  0.76450995
   0.99864998  0.77573999  0.26102000
   0.73551001  0.51468004  0.26666001
   0.02362000  0.99783001  0.49557002
   0.50539000  0.52833005  0.49917999
   0.73876003  0.52828003  0.73814999
   0.75400003  0.72937999  0.49116997
HECN                                    
           1
     9.105602    0.005198    0.010502
     0.011134    9.183257   -0.004105
     0.043222   -0.020005    9.101836
   Zr   W    Hf   N    C    Mo   Ta
     7     6     7    13    19     6     6
Direct configuration=     2
   0.99710993  0.99473392  0.99536964
   0.25851171  0.99979537  0.24655061
   0.24824918  0.50125620  0.24786047
   0.50081152  0.49790739  0.99893073
   0.50391118  0.24363267  0.74783023
   0.99752390  0.49698575  0.49988332
   0.49485102  0.76148957  0.75173591
   0.99482093  0.23038908  0.26485588
   0.75929700  0.74067055  0.00920916
   0.00883197  0.25705689  0.73483596
   0.75558828  0.26490028  0.50399888
   0.99787278  0.74354515  0.74966065
   0.25568690  0.49412707  0.74808432
   0.24763069  0.24817790  0.99615068
   0.50698641  0.25252080  0.25227144
   0.74294520  0.99462194  0.26617642
   0.75674802  0.25460952  0.99568362
   0.24906963  0.75030170  0.99782782
   0.25475552  0.25010293  0.50142294
   0.24888395  0.75107453  0.50300993
   0.25063620  0.24952981  0.24886265
   0.25941406  0.00032645  0.99500798
   0.00231268  0.25012163  0.00180272
   0.75303665  0.24658801  0.25441554
   0.74939107  0.99758608  0.01232822
   0.50712123  0.00037916  0.24657914
   0.98997733  0.48130714  0.24284263
   0.50487459  0.75968583  0.00626424
   0.98790010  0.00298676  0.73943679
   0.75874641  0.24499489  0.74844750
   0.73959912  0.00446086  0.51001816
   0.50553461  0.23441734  0.49588279
   0.50045665  0.00134469  0.73602823
   0.99672703  0.00402087  0.25359165
   0.50426782  0.24904130  0.00228276
   0.24999186  0.74895193  0.24862718
   0.24535255  0.50020108  0.99374886
   0.99696653  0.74361101  0.00265227
   0.75400425  0.74692928  0.24856749
   0.75670721  0.50439978  0.00267038
   0.49956528  0.49932867  0.25407732
   0.24702447  0.25519197  0.74838954
   0.25247543  0.99833816  0.50172140
   0.99644231  0.24531981  0.50281038
   0.24031732  0.75121426  0.75018306
   0.25463909  0.50006615  0.50241921
   0.99584291  0.75737844  0.50355356
   0.99506931  0.49891179  0.75099488
   0.75123338  0.75569287  0.75193784
   0.74627807  0.49417986  0.50296692
   0.50061656  0.75595423  0.49983241
   0.49865964  0.50089362  0.74383476
   0.51556936  0.01362441  0.97968211
   0.99963598  0.51499621  0.98400708
   0.50342143  0.74563108  0.25410243
   0.23854554  0.01041124  0.74836043
   0.47860679  0.98394175  0.49638446
   0.74072034  0.97653086  0.76770899
   0.00390743  0.76374196  0.25213222
   0.74810956  0.50131804  0.25282010
   0.00988685  0.00426609  0.50367723
   0.49311767  0.51358644  0.50057841
   0.74463956  0.51324446  0.74733386
   0.75257247  0.74745429  0.49908572
HECN                                    
           1
     9.027473    0.002852    0.005762
     0.008705    9.125639   -0.002252
     0.038203   -0.018081    9.027496
   Zr   W    Hf   N    C    Mo   Ta
     7     6     7    13    19     6     6
Direct configuration=     3
   0.99700684  0.99354017  0.99708448
   0.25650460  0.99861960  0.24769109
   0.24815118  0.50143185  0.24860943
   0.50267092  0.49770709  0.99866671
   0.50429998  0.24482392  0.74750670
   0.99608669  0.50033054  0.49895878
   0.49691302  0.75851928  0.75015188
   0.99462033  0.23296192  0.26438932
   0.75835865  0.74083139  0.01000398
   0.00580975  0.25632641  0.73665794
   0.75447344  0.26344567  0.50458944
   0.99666478  0.74415689  0.74765000
   0.25618096  0.49434569  0.74691639
   0.24774522  0.24827232  0.99634084
   0.50757944  0.25441194  0.25293131
   0.74553306  0.99162049  0.26772036
   0.75694322  0.25524167  0.99578842
   0.24842695  0.75005243  0.99867591
   0.25385540  0.24926961  0.50085948
   0.24698007  0.75081484  0.50160717
   0.25027516  0.24948547  0.24859153
   0.26032553  0.00010904  0.99409920
   0.00253310  0.25017409  0.00157970
   0.75308225  0.24640203  0.25463898
   0.74862923  0.99753924  0.01219248
   0.50713402  0.00010806  0.24664586
   0.99021866  0.48111655  0.24203008
   0.50501267  0.76040906  0.00727740
   0.98837522  0.00255576  0.73839600
   0.75817227  0.24472163  0.74867959
   0.73814700  0.00433235  0.51029094
   0.50558193  0.23363063  0.49569057
   0.50029516  0.00101754  0.73544848
   0.99693531  0.00121742  0.25598700
   0.50427363  0.24801266  0.00243175
   0.25058835  0.74923123  0.24884059
   0.24443406  0.50043726  0.99435322
   0.99758709  0.74340138  0.00351465
   0.75503143  0.74336130  0.25259872
   0.75745253  0.50384760  0.00276217
   0.50285368  0.50110859  0.25616287
   0.24790404  0.25428268  0.74845480
   0.24892589  0.99829670  0.50223893
   0.99715133  0.24397508  0.50213074
   0.24095996  0.75219114  0.75018141
   0.25630916  0.50031149  0.50191695
   0.99325776  0.75950244  0.50085697
   0.99372739  0.49964620  0.75116744
   0.75085071  0.75266004  0.74999677
   0.74365690  0.49764808  0.50195358
   0.50289251  0.75311546  0.49866188
   0.50147347  0.50146364  0.74174231
   0.51571078  0.01360477  0.98015524
   0.99909783  0.51267088  0.98494750
   0.50358375  0.74280079  0.25629362
   0.23821651  0.01059292  0.74735025
   0.47903751  0.98355812  0.49673635
   0.74163781  0.97749512  0.76629062
   0.00157193  0.76908497  0.25607619
   0.74252032  0.50727091  0.25896277
   0.01597327  0.00139656  0.50007598
   0.49854834  0.52014504  0.49995535
   0.74203710  0.51993608  0.74326980
   0.75321331  0.73940806  0.49557327
HECN                                    
           1
     8.926380    0.007667    0.014313
     0.013528    8.974469   -0.013115
     0.046381   -0.028539    8.932988
   Zr   W    Hf   N    C    Mo   Ta
     7     6     7    13    19     6     6
Direct configuration=     4
   0.99734116  0.99510542  0.99382399
   0.25829982  0.99956271  0.24669946
   0.24793354  0.50120868  0.24693319
   0.49958994  0.49742848  0.99939100
   0.50309118  0.24212704  0.74841934
   0.99842114  0.49588333  0.50111361
   0.49480705  0.76146530  0.75237672
   0.99457099  0.22930989  0.26673756
   0.76121813  0.73975883  0.00771385
   0.01311325  0.25766797  0.73239641
   0.75653795  0.26540479  0.50324868
   0.99887323  0.74099411  0.75289760
   0.25481929  0.49372468  0.74979786
   0.24737020  0.24802279  0.99543173
   0.50645582  0.25176686  0.25124770
   0.74295712  0.99620146  0.26430452
   0.75628534  0.25417724  0.99485283
   0.24877222  0.75083587  0.99713978
   0.25453288  0.24987135  0.50231337
   0.24901711  0.75184583  0.50338494
   0.25070633  0.24913870  0.24924664
   0.25851477  0.00059634  0.99612145
   0.00189340  0.24989958  0.00241805
   0.75306486  0.24705272  0.25396641
   0.74970942  0.99782866  0.01157368
   0.50698784  0.00106978  0.24631818
   0.99014539  0.48236701  0.24385775
   0.50450780  0.75888133  0.00506247
   0.98725762  0.00369718  0.74082666
   0.75958626  0.24651489  0.74801603
   0.74233264  0.00346251  0.50946684
   0.50536653  0.23692444  0.49574223
   0.50111952  0.00218596  0.73667737
   0.99687694  0.00063452  0.25293866
   0.50416139  0.24976484  0.00207147
   0.24933960  0.74914652  0.24850181
   0.24566215  0.50029214  0.99325971
   0.99717248  0.74500640  0.00169637
   0.75321350  0.74660402  0.24845363
   0.75620848  0.50448056  0.00243552
   0.50117131  0.49890038  0.25376461
   0.24631132  0.25569473  0.74829552
   0.24908538  0.99924553  0.50200027
   0.99651006  0.24631544  0.50294591
   0.23964815  0.75053938  0.75042750
   0.25334980  0.49988030  0.50251585
   0.99724723  0.75604683  0.50430912
   0.99685951  0.49787424  0.75156945
   0.75113664  0.75243831  0.75362638
   0.74557906  0.49715070  0.50148920
   0.49933331  0.75270717  0.50019663
   0.49771880  0.50103403  0.74479774
   0.51624637  0.01389657  0.97844871
   0.99937523  0.51801143  0.98272371
   0.50310357  0.74503056  0.25478642
   0.23723765  0.01010593  0.74826581
   0.47932906  0.98369215  0.49563309
   0.73849815  0.97664504  0.76982353
   0.00424062  0.76594325  0.25099156
   0.74817451  0.50248617  0.25168772
   0.01138670  0.00480523  0.50436934
   0.49468354  0.51448912  0.49989265
   0.74474013  0.51391772  0.74969178
   0.75120000  0.74523878  0.49887258
HECN                                    
           1
     8.962818    0.005932    0.011231
     0.011790    9.028956   -0.009200
     0.043433   -0.024770    8.967052
   Zr   W    Hf   N    C    Mo   Ta
     7     6     7    13    19     6     6
Direct configuration=     5
   0.99721848  0.99453322  0.99501103
   0.25764528  0.99921784  0.24706087
   0.24801224  0.50129116  0.24754378
   0.50071321  0.49752967  0.99912622
   0.50353158  0.24311483  0.74808770
   0.99757003  0.49751279  0.50033153
   0.49557610  0.76038418  0.75156427
   0.99458904  0.23064736  0.26588384
   0.76017478  0.74015349  0.00854951
   0.01044977  0.25717957  0.73395064
   0.75578534  0.26468775  0.50373690
   0.99806940  0.74215146  0.75098836
   0.25531652  0.49395077  0.74874809
   0.24750653  0.24811456  0.99576285
   0.50686426  0.25273681  0.25186174
   0.74389585  0.99452348  0.26554578
   0.75652460  0.25456764  0.99519386
   0.24864599  0.75054947  0.99769908
   0.25428656  0.24965031  0.50178376
   0.24827541  0.75146760  0.50273764
   0.25054932  0.24926560  0.24900833
   0.25917563  0.00041651  0.99538399
   0.00212682  0.24999970  0.00211258
   0.75307110  0.24681453  0.25421109
   0.74931551  0.99772307  0.01179933
   0.50704121  0.00071742  0.24643706
   0.99017300  0.48190790  0.24319144
   0.50469074  0.75944211  0.00586976
   0.98766609  0.00327757  0.73994039
   0.75907098  0.24585822  0.74825742
   0.74080643  0.00378250  0.50976888
   0.50544575  0.23571717  0.49572186
   0.50081970  0.00175736  0.73622952
   0.99689703  0.00084946  0.25404925
   0.50420254  0.24912279  0.00220188
   0.24979466  0.74917746  0.24862481
   0.24521407  0.50034604  0.99365852
   0.99732330  0.74441886  0.00235781
   0.75387538  0.74541698  0.24996138
   0.75666197  0.50424847  0.00255378
   0.50178327  0.49971040  0.25463857
   0.24689213  0.25517696  0.74835235
   0.24902735  0.99889791  0.50208684
   0.99674458  0.24545720  0.50264771
   0.24012607  0.75114440  0.75033814
   0.25442866  0.50003749  0.50229685
   0.99579350  0.75731263  0.50305463
   0.99571757  0.49852412  0.75142491
   0.75103364  0.75251806  0.75230450
   0.74487813  0.49733357  0.50165925
   0.50063116  0.75285544  0.49963653
   0.49908842  0.50118942  0.74368368
   0.51605060  0.01379047  0.97907036
   0.99927444  0.51605510  0.98353143
   0.50327853  0.74421389  0.25533425
   0.23759468  0.01028383  0.74793219
   0.47922243  0.98364356  0.49603499
   0.73964367  0.97695445  0.76853595
   0.00326540  0.76709744  0.25284597
   0.74610992  0.50424407  0.25434177
   0.01306079  0.00355316  0.50280235
   0.49609114  0.51656131  0.49991666
   0.74375584  0.51612125  0.74735623
   0.75193625  0.74309996  0.49766749
HECN                                    
           1
     8.979841    0.009468    0.016593
     0.015378    9.033250   -0.018254
     0.048854   -0.033745    8.985179
   Zr   W    Hf   N    C    Mo   Ta
     7     6     7    13    19     6     6
Direct configuration=     6
   0.99822992  0.99573254  0.99285878
   0.25747457  0.99909994  0.24723027
   0.24709620  0.50094304  0.24652128
   0.49931729  0.49735932  0.99962283
   0.50226013  0.24226350  0.74839964
   0.99863394  0.49745440  0.50117827
   0.49545489  0.75977753  0.75266786
   0.99432643  0.23075505  0.26778191
   0.76205654  0.74013608  0.00590029
   0.01534929  0.25700693  0.73204694
   0.75588999  0.26473923  0.50179680
   0.99945359  0.73927843  0.75518650
   0.25371393  0.49436412  0.75092449
   0.24736065  0.24762955  0.99528714
   0.50571003  0.25166104  0.25051885
   0.74440616  0.99657982  0.26308075
   0.75571387  0.25366404  0.99411862
   0.24859836  0.75174818  0.99715633
   0.25452539  0.24955611  0.50226952
   0.24822365  0.75185484  0.50286155
   0.25021616  0.24876203  0.24936714
   0.25834343  0.00068886  0.99669981
   0.00157469  0.25002423  0.00324361
   0.75328673  0.24759769  0.25323711
   0.74981818  0.99779553  0.01106718
   0.50641793  0.00131920  0.24556773
   0.99083763  0.48373713  0.24421892
   0.50425812  0.75854813  0.00460899
   0.98654403  0.00426022  0.74187951
   0.76018569  0.24775145  0.74762245
   0.74447302  0.00248468  0.50955154
   0.50555535  0.23959278  0.49579789
   0.50114821  0.00270876  0.73662383
   0.99723183  0.99746576  0.25299792
   0.50381715  0.24999967  0.00185798
   0.24922966  0.74933671  0.24848534
   0.24529512  0.50061687  0.99329217
   0.99852957  0.74755113  0.00152983
   0.75302312  0.74609261  0.24953644
   0.75591393  0.50381707  0.00203779
   0.50296130  0.49902859  0.25427649
   0.24720870  0.25528803  0.74842101
   0.24656630  0.00008021  0.50256144
   0.99747975  0.24644945  0.50262257
   0.23952332  0.75051041  0.75060709
   0.25316574  0.49988789  0.50217907
   0.99692423  0.75563897  0.50426150
   0.99805467  0.49688002  0.75179185
   0.75082347  0.74943721  0.75441080
   0.74455860  0.50017386  0.50053310
   0.49925900  0.74989330  0.50044783
   0.49780649  0.50129350  0.74473589
   0.51610012  0.01358564  0.97843003
   0.99905938  0.51784668  0.98352887
   0.50224741  0.74462622  0.25610097
   0.23573710  0.00928643  0.74825536
   0.48100876  0.98390118  0.49438762
   0.73719312  0.97840776  0.77091327
   0.00344319  0.76678509  0.25118096
   0.74758436  0.50377095  0.25148563
   0.01182654  0.00375019  0.50414044
   0.49708078  0.51471517  0.49936613
   0.74434938  0.51412019  0.75073481
   0.75054428  0.74288864  0.49799562
HECN                                    
           1
     8.987788    0.011119    0.019097
     0.017053    9.035255   -0.022481
     0.051385   -0.037935    8.993642
   Zr   W    Hf   N    C    Mo   Ta
     7     6     7    13    19     6     6
Direct configuration=     7
   0.99870163  0.99629104  0.99185623
   0.25739500  0.99904502  0.24730919
   0.24666968  0.50078028  0.24604494
   0.49866669  0.49728031  0.99985453
   0.50166771  0.24186659  0.74854494
   0.99912950  0.49742734  0.50157247
   0.49539822  0.75949496  0.75318182
   0.99420351  0.23080623  0.26866643
   0.76293418  0.74012640  0.00466538
   0.01763303  0.25692460  0.73115848
   0.75593929  0.26476234  0.50089282
   0.00009800  0.73793937  0.75714086
   0.25296644  0.49455831  0.75193921
   0.24729289  0.24740302  0.99506530
   0.50517274  0.25115861  0.24989295
   0.74464426  0.99753822  0.26193301
   0.75533654  0.25324201  0.99361741
   0.24857609  0.75230733  0.99690402
   0.25463657  0.24951232  0.50249574
   0.24819943  0.75203562  0.50291948
   0.25006090  0.24852725  0.24953418
   0.25795521  0.00081671  0.99731327
   0.00131708  0.25003630  0.00377077
   0.75338734  0.24796267  0.25278359
   0.75005261  0.99782892  0.01072593
   0.50612762  0.00159974  0.24516313
   0.99114672  0.48459112  0.24469834
   0.50405703  0.75813044  0.00402125
   0.98602042  0.00471989  0.74278381
   0.76070497  0.24863445  0.74732717
   0.74618196  0.00187827  0.50944865
   0.50560567  0.24140140  0.49583511
   0.50130101  0.00315287  0.73680792
   0.99738878  0.99588616  0.25250637
   0.50363749  0.25040880  0.00169826
   0.24896638  0.74941106  0.24842058
   0.24533293  0.50074307  0.99312158
   0.99909132  0.74901225  0.00114517
   0.75262595  0.74640786  0.24933900
   0.75556556  0.50361566  0.00179737
   0.50351048  0.49871003  0.25410713
   0.24735618  0.25533984  0.74845297
   0.24541909  0.00063262  0.50278381
   0.99782215  0.24691235  0.50261111
   0.23924248  0.75021478  0.75073227
   0.25257728  0.49981825  0.50212446
   0.99745113  0.75485827  0.50482274
   0.99914397  0.49611252  0.75196140
   0.75072553  0.74800050  0.75539083
   0.74440947  0.50149885  0.50000981
   0.49861990  0.74851160  0.50082484
   0.49720880  0.50134278  0.74522656
   0.51612341  0.01348975  0.97813156
   0.99895883  0.51868279  0.98352859
   0.50176661  0.74481918  0.25645870
   0.23487157  0.00882147  0.74840598
   0.48184161  0.98402031  0.49361966
   0.73605022  0.97908752  0.77202234
   0.00352656  0.76663853  0.25040496
   0.74827233  0.50354858  0.25015420
   0.01125097  0.00384297  0.50476435
   0.49754246  0.51385321  0.49910847
   0.74462541  0.51318782  0.75230793
   0.74989558  0.74279043  0.49814879
HECN                                    
           1
     8.985720    0.011154    0.019397
     0.017081    9.034866   -0.021117
     0.051686   -0.036594    8.986607
   Zr   W    Hf   N    C    Mo   Ta
     7     6     7    13    19     6     6
Direct configuration=     8
   0.00012812  0.99851514  0.99103004
   0.25678995  0.99838912  0.24912485
   0.24621686  0.50083935  0.24579165
   0.49868865  0.49740833  0.00013735
   0.50062614  0.24283343  0.74791177
   0.99804781  0.49969415  0.50136511
   0.49654536  0.75861925  0.75271278
   0.99320159  0.23060488  0.27018036
   0.76509286  0.74111744  0.00214515
   0.01902405  0.25490235  0.73025680
   0.75518574  0.26617232  0.49785906
   0.00004584  0.73537151  0.75891538
   0.25192999  0.49618244  0.75292638
   0.24715640  0.24690289  0.99505258
   0.50465165  0.25078439  0.24934166
   0.74575508  0.99741889  0.26107656
   0.75448991  0.25249813  0.99227115
   0.24878216  0.75340896  0.99765404
   0.25556639  0.24961184  0.50224866
   0.24815154  0.75203150  0.50239793
   0.24929639  0.24814461  0.24945304
   0.25799801  0.00102628  0.99805428
   0.00101600  0.25047177  0.00510819
   0.75335693  0.24869897  0.25107501
   0.75021532  0.99728969  0.01035552
   0.50592689  0.00184425  0.24393592
   0.99194475  0.48622041  0.24538753
   0.50385667  0.75755443  0.00381385
   0.98486101  0.00561988  0.74305925
   0.76098639  0.24967202  0.74698426
   0.74873238  0.00096906  0.50875609
   0.50611596  0.24499162  0.49571922
   0.50068567  0.00264735  0.73600798
   0.99758713  0.99598266  0.25315971
   0.50302438  0.25015577  0.00121468
   0.24857883  0.74928283  0.24846656
   0.24442927  0.50129685  0.99351498
   0.00074903  0.75150471  0.00200419
   0.75223499  0.74651014  0.24962718
   0.75511827  0.50299451  0.00117511
   0.50466106  0.49898213  0.25482546
   0.25015216  0.25444842  0.74869330
   0.24596445  0.00050946  0.50342234
   0.99878907  0.24677068  0.50321547
   0.23943695  0.75040073  0.75074448
   0.25349177  0.49985175  0.50180241
   0.99600661  0.75487813  0.50521468
   0.99963507  0.49465492  0.75264793
   0.75086482  0.74792720  0.75577054
   0.74480751  0.50283119  0.49968171
   0.49854683  0.74757495  0.50123393
   0.49755943  0.50155739  0.74483644
   0.51630935  0.01379311  0.97851096
   0.99852991  0.51860328  0.98536652
   0.50111365  0.74503310  0.25906622
   0.23191609  0.00759367  0.74866856
   0.48258377  0.98254760  0.49158942
   0.73436727  0.97856909  0.77324770
   0.00245027  0.76529678  0.24997280
   0.74840405  0.50450718  0.24969810
   0.00931678  0.00236543  0.50552191
   0.49855357  0.51225637  0.49882354
   0.74465949  0.51127100  0.75249249
   0.74909005  0.74159209  0.49768140
HECN                                    
           1
     8.983772    0.011187    0.019679
     0.017107    9.034499   -0.019834
     0.051970   -0.035331    8.979984
   Zr   W    Hf   N    C    Mo   Ta
     7     6     7    13    19     6     6
Direct configuration=     9
   0.00147136  0.00060911  0.99025130
   0.25622017  0.99777139  0.25083556
   0.24579048  0.50089500  0.24555301
   0.49870931  0.49752882  0.00040379
   0.49964540  0.24374373  0.74731513
   0.99702928  0.50182824  0.50116945
   0.49762555  0.75779489  0.75227097
   0.99225812  0.23041511  0.27160675
   0.76712560  0.74205078  0.99977055
   0.02033389  0.25299864  0.72940754
   0.75447629  0.26750016  0.49500068
   0.99999667  0.73295379  0.76058758
   0.25095401  0.49771132  0.75385622
   0.24702788  0.24643205  0.99504067
   0.50416101  0.25043215  0.24882234
   0.74680106  0.99730666  0.26026964
   0.75369277  0.25179800  0.99100291
   0.24897617  0.75444597  0.99836051
   0.25644194  0.24970555  0.50201584
   0.24810647  0.75202770  0.50190655
   0.24857652  0.24778439  0.24937666
   0.25803828  0.00122347  0.99875237
   0.00073245  0.25088156  0.00636818
   0.75332835  0.24939239  0.24946518
   0.75036854  0.99678209  0.01000661
   0.50573792  0.00207462  0.24277970
   0.99269615  0.48775418  0.24603658
   0.50366801  0.75701218  0.00361854
   0.98376927  0.00646715  0.74331866
   0.76125139  0.25064887  0.74666105
   0.75113393  0.00011318  0.50810366
   0.50659646  0.24837161  0.49560951
   0.50010629  0.00217154  0.73525442
   0.99777388  0.99607342  0.25377521
   0.50244709  0.24991763  0.00075913
   0.24821390  0.74916210  0.24850991
   0.24357834  0.50181815  0.99388557
   0.00230992  0.75385108  0.00281310
   0.75186684  0.74660640  0.24989869
   0.75469712  0.50240982  0.00058896
   0.50574444  0.49923820  0.25550215
   0.25278490  0.25360915  0.74891976
   0.24647794  0.00039342  0.50402392
   0.99969952  0.24663722  0.50378485
   0.23962007  0.75057578  0.75075595
   0.25435288  0.49988333  0.50149895
   0.99464642  0.75489677  0.50558399
   0.00009748  0.49328257  0.75329494
   0.75099596  0.74785815  0.75612829
   0.74518232  0.50408554  0.49937239
   0.49847802  0.74669309  0.50161949
   0.49788961  0.50175947  0.74446886
   0.51648441  0.01407865  0.97886836
   0.99812597  0.51852817  0.98709812
   0.50049872  0.74523415  0.26152285
   0.22913316  0.00643775  0.74891621
   0.48328268  0.98116141  0.48967685
   0.73278254  0.97808087  0.77440229
   0.00143683  0.76403366  0.24956587
   0.74852810  0.50540972  0.24926825
   0.00749549  0.00097432  0.50623590
   0.49950567  0.51075308  0.49855530
   0.74469158  0.50946640  0.75266665
   0.74833157  0.74046399  0.49724125
HECN                                    
           1
     9.003533    0.012280    0.017872
     0.018250    9.024633   -0.015218
     0.050198   -0.030626    9.011751
   Zr   W    Hf   N    C    Mo   Ta
     7     6     7    13    19     6     6
Direct configuration=    10
   0.00263572  0.00256572  0.99099096
   0.25622444  0.99762382  0.25293037
   0.24638569  0.50099087  0.24616932
   0.49900578  0.49791834  0.00017265
   0.50072908  0.24347155  0.74651854
   0.99814904  0.50147147  0.50104421
   0.49816718  0.75720840  0.75163686
   0.99121122  0.23040710  0.27285135
   0.76892008  0.74299612  0.99815308
   0.02025497  0.24986926  0.72947661
   0.75468122  0.26917524  0.49288872
   0.99866390  0.73099522  0.76156313
   0.25036774  0.49999939  0.75359081
   0.24721728  0.24680238  0.99542510
   0.50477230  0.24978086  0.24853383
   0.74646237  0.99612958  0.26070797
   0.75311521  0.25120876  0.99046722
   0.25036761  0.75495215  0.99887130
   0.25716637  0.24995435  0.50210089
   0.24813126  0.75119871  0.50246965
   0.24767866  0.24765034  0.24916474
   0.25909043  0.00176454  0.99926299
   0.00054819  0.25215478  0.00760944
   0.75297644  0.24961886  0.24725697
   0.75094031  0.99569387  0.00986798
   0.50587709  0.00160441  0.24123607
   0.99272721  0.48942022  0.24604372
   0.50413665  0.75664259  0.00432418
   0.98114871  0.00741786  0.74312288
   0.76099501  0.25115503  0.74596718
   0.75186155  0.00020493  0.50711229
   0.50715095  0.25087990  0.49461917
   0.49893365  0.00201689  0.73414876
   0.99749219  0.99705915  0.25440871
   0.50187017  0.25010703  0.00037962
   0.24796156  0.74865902  0.24919600
   0.24346663  0.50198118  0.99450764
   0.00320691  0.75370999  0.00344131
   0.75098622  0.74690530  0.24856979
   0.75447497  0.50288274  0.00023484
   0.50516355  0.49989516  0.25552476
   0.25335448  0.25304030  0.74848694
   0.24837754  0.99934611  0.50579724
   0.99924445  0.24687153  0.50419795
   0.24025870  0.75103760  0.75081043
   0.25451902  0.49992821  0.50184193
   0.99352933  0.75541054  0.50607564
   0.99916028  0.49201185  0.75426589
   0.75237010  0.74825537  0.75394157
   0.74577686  0.50302572  0.49930585
   0.49844610  0.74749078  0.50207585
   0.49860935  0.50153686  0.74438758
   0.51624410  0.01366914  0.97941601
   0.99783773  0.51854212  0.98941109
   0.50104689  0.74666990  0.26297948
   0.22584745  0.00510626  0.74878136
   0.48468168  0.97965728  0.48738555
   0.73186108  0.97758710  0.77454540
   0.00062978  0.76407852  0.24934383
   0.74842832  0.50585661  0.24955598
   0.00654464  0.00004513  0.50671321
   0.49936407  0.50938416  0.49897115
   0.74491159  0.50863288  0.75135662
   0.74764134  0.74067272  0.49779194
HECN                                    
           1
     9.006915    0.012467    0.017563
     0.018446    9.022945   -0.014428
     0.049895   -0.029820    9.017187
   Zr   W    Hf   N    C    Mo   Ta
     7     6     7    13    19     6     6
Direct configuration=    11
   0.00283452  0.00290082  0.99111696
   0.25622525  0.99759835  0.25328759
   0.24648735  0.50100723  0.24627443
   0.49905638  0.49798508  0.00013321
   0.50091409  0.24342498  0.74638277
   0.99834024  0.50141035  0.50102293
   0.49825965  0.75710797  0.75152880
   0.99103251  0.23040564  0.27306355
   0.76922640  0.74315818  0.99787725
   0.02024156  0.24933315  0.72948866
   0.75471610  0.26946239  0.49252845
   0.99843641  0.73065963  0.76172961
   0.25026757  0.50039140  0.75354533
   0.24724962  0.24686578  0.99549063
   0.50487669  0.24966930  0.24848471
   0.74640458  0.99592790  0.26078281
   0.75301659  0.25110788  0.99037590
   0.25060521  0.75503879  0.99895841
   0.25729007  0.24999695  0.50211540
   0.24813553  0.75105664  0.50256575
   0.24752534  0.24762741  0.24912858
   0.25927009  0.00185717  0.99935006
   0.00051674  0.25237279  0.00782098
   0.75291627  0.24965787  0.24688039
   0.75103796  0.99550745  0.00984446
   0.50590081  0.00152400  0.24097289
   0.99273248  0.48970563  0.24604479
   0.50421670  0.75657920  0.00444456
   0.98070122  0.00758080  0.74308933
   0.76095119  0.25124181  0.74584880
   0.75198575  0.00022072  0.50694325
   0.50724554  0.25130968  0.49445010
   0.49873339  0.00199052  0.73396020
   0.99744409  0.99722796  0.25451664
   0.50177165  0.25013952  0.00031487
   0.24791851  0.74857278  0.24931303
   0.24344757  0.50200905  0.99461370
   0.00336009  0.75368575  0.00354848
   0.75083580  0.74695665  0.24834313
   0.75443701  0.50296379  0.00017440
   0.50506435  0.50000771  0.25552854
   0.25345173  0.25294287  0.74841320
   0.24870198  0.99916649  0.50609979
   0.99916676  0.24691165  0.50426836
   0.24036773  0.75111670  0.75081970
   0.25454740  0.49993587  0.50190042
   0.99333859  0.75549854  0.50615939
   0.99900032  0.49179409  0.75443154
   0.75260464  0.74832359  0.75356871
   0.74587840  0.50284416  0.49929461
   0.49844066  0.74762739  0.50215360
   0.49873224  0.50149871  0.74437377
   0.51620310  0.01359894  0.97950943
   0.99778860  0.51854430  0.98980549
   0.50114051  0.74691571  0.26322776
   0.22528643  0.00487824  0.74875836
   0.48492050  0.97939979  0.48699502
   0.73170376  0.97750252  0.77456982
   0.00049197  0.76408624  0.24930594
   0.74841128  0.50593315  0.24960500
   0.00638232  0.99988593  0.50679464
   0.49933994  0.50914961  0.49904217
   0.74494913  0.50849020  0.75113331
   0.74752350  0.74070845  0.49788581
HECN                                    
           1
     8.984534    0.015499    0.015262
     0.021463    9.005230   -0.013284
     0.047505   -0.028637    8.991770
   Zr   W    Hf   N    C    Mo   Ta