       N       E                     dE             d eps       ncg     rms          rms(c)
DAV:   1    -0.620300146380E+03   -0.62030E+03   -0.15743E+03  6524   0.927E+01
RMM:   2    -0.654311446546E+03   -0.34011E+02   -0.33820E+02  9383   0.421E+01
RMM:   3    -0.663415687341E+03   -0.91042E+01   -0.82387E+01  9708   0.157E+01
RMM:   4    -0.666109663493E+03   -0.26940E+01   -0.25635E+01  9731   0.719E+00
RMM:   5    -0.667604632735E+03   -0.14950E+01   -0.14508E+01  9793   0.458E+00
RMM:   6    -0.668480869777E+03   -0.87624E+00   -0.86747E+00  9978   0.358E+00
RMM:   7    -0.669066481521E+03   -0.58561E+00   -0.59297E+00  9979   0.296E+00
RMM:   8    -0.669453838657E+03   -0.38736E+00   -0.39950E+00  9933   0.261E+00
RMM:   9    -0.669741463683E+03   -0.28763E+00   -0.30205E+00  9872   0.232E+00
RMM:  10    -0.669947834683E+03   -0.20637E+00   -0.22023E+00  9800   0.212E+00
RMM:  11    -0.670112800697E+03   -0.16497E+00   -0.17857E+00  9749   0.193E+00
RMM:  12    -0.670237549924E+03   -0.12475E+00   -0.13715E+00  9689   0.179E+00
RMM:  13    -0.670341876644E+03   -0.10433E+00   -0.11593E+00  9644   0.165E+00
RMM:  14    -0.670424086669E+03   -0.82210E-01   -0.92592E-01  9608   0.154E+00
RMM:  15    -0.670494896452E+03   -0.70810E-01   -0.80359E-01  9567   0.143E+00
RMM:  16    -0.670552712662E+03   -0.57816E-01   -0.66330E-01  9530   0.134E+00
RMM:  17    -0.670603475387E+03   -0.50763E-01   -0.58549E-01  9492   0.125E+00
RMM:  18    -0.670646207754E+03   -0.42732E-01   -0.49706E-01  9453   0.117E+00
RMM:  19    -0.670684126516E+03   -0.37919E-01   -0.44293E-01  9434   0.110E+00
RMM:  20    -0.670716883774E+03   -0.32757E-01   -0.38517E-01  9406   0.103E+00
RMM:  21    -0.670746096855E+03   -0.29213E-01   -0.34490E-01  9397   0.970E-01
RMM:  22    -0.670771870168E+03   -0.25773E-01   -0.30594E-01  9362   0.915E-01
RMM:  23    -0.670794898698E+03   -0.23029E-01   -0.27459E-01  9354   0.861E-01
RMM:  24    -0.670815551266E+03   -0.20653E-01   -0.24746E-01  9318   0.813E-01
RMM:  25    -0.670834007367E+03   -0.18456E-01   -0.22233E-01  9323   0.766E-01
RMM:  26    -0.670850762657E+03   -0.16755E-01   -0.20283E-01  9315   0.725E-01
RMM:  27    -0.670865718389E+03   -0.14956E-01   -0.18224E-01  9304   0.684E-01
RMM:  28    -0.670879425709E+03   -0.13707E-01   -0.16793E-01  9265   0.648E-01
RMM:  29    -0.670891635604E+03   -0.12210E-01   -0.15081E-01  9256   0.613E-01
RMM:  30    -0.670902915754E+03   -0.11280E-01   -0.14017E-01  9215   0.581E-01
RMM:  31    -0.670912934226E+03   -0.10018E-01   -0.12575E-01  9212   0.550E-01
RMM:  32    -0.670922257397E+03   -0.93232E-02   -0.11782E-01  9178   0.523E-01
RMM:  33    -0.670930505339E+03   -0.82479E-02   -0.10554E-01  9142   0.496E-01
RMM:  34    -0.670938266410E+03   -0.77611E-02   -0.99969E-02  9092   0.471E-01
RMM:  35    -0.670945084890E+03   -0.68185E-02   -0.89164E-02  9087   0.449E-01
RMM:  36    -0.670951526942E+03   -0.64421E-02   -0.84941E-02  9037   0.427E-01
RMM:  37    -0.670957166429E+03   -0.56395E-02   -0.75744E-02  8956   0.406E-01
RMM:  38    -0.670962542246E+03   -0.53758E-02   -0.72776E-02  8953   0.388E-01
RMM:  39    -0.670967222519E+03   -0.46803E-02   -0.64796E-02  8853   0.370E-01
RMM:  40    -0.670971724362E+03   -0.45018E-02   -0.62786E-02  8838   0.354E-01
RMM:  41    -0.670975620071E+03   -0.38957E-02   -0.55810E-02  8732   0.338E-01
RMM:  42    -0.670979405190E+03   -0.37851E-02   -0.54554E-02  8706   0.324E-01
RMM:  43    -0.670982659579E+03   -0.32544E-02   -0.48418E-02  8665   0.310E-01
RMM:  44    -0.670985869106E+03   -0.32095E-02   -0.47878E-02  8559   0.298E-01
RMM:  45    -0.670988590576E+03   -0.27215E-02   -0.42286E-02  8549   0.286E-01
RMM:  46    -0.670991297636E+03   -0.27071E-02   -0.42039E-02  8490   0.275E-01
RMM:  47    -0.670993590079E+03   -0.22924E-02   -0.37195E-02  8408   0.265E-01
RMM:  48    -0.670995891981E+03   -0.23019E-02   -0.37269E-02  8323   0.255E-01
RMM:  49    -0.670997826894E+03   -0.19349E-02   -0.32954E-02  8251   0.246E-01
RMM:  50    -0.670999792842E+03   -0.19659E-02   -0.33263E-02  8225   0.238E-01
RMM:  51    -0.671001432652E+03   -0.16398E-02   -0.29401E-02  8123   0.230E-01
RMM:  52    -0.671003118798E+03   -0.16861E-02   -0.29877E-02  8094   0.223E-01
RMM:  53    -0.671004514237E+03   -0.13954E-02   -0.26410E-02  7978   0.216E-01
RMM:  54    -0.671005966055E+03   -0.14518E-02   -0.26996E-02  7895   0.210E-01
RMM:  55    -0.671007158422E+03   -0.11924E-02   -0.23878E-02  7834   0.204E-01
RMM:  56    -0.671008428797E+03   -0.12704E-02   -0.24685E-02  7712   0.198E-01
RMM:  57    -0.671009451473E+03   -0.10227E-02   -0.21769E-02  7660   0.193E-01
RMM:  58    -0.671010540017E+03   -0.10885E-02   -0.22416E-02  7572   0.188E-01
RMM:  59    -0.671011422904E+03   -0.88289E-03   -0.19881E-02  7542   0.183E-01
RMM:  60    -0.671012373085E+03   -0.95018E-03   -0.20587E-02  7371   0.179E-01
   1 F= -.67101237E+03 E0= -.67098033E+03  d E =-.640905E-01
