 vasp.6.4.3 19Mar24 (build Sep 18 2024 11:30:23) complex                        
  
 executed on             LinuxIFC date 2025.11.17  18:45:52
 running   28 mpi-ranks, on    1 nodes
 distrk:  each k-point on   28 cores,    1 groups
 distr:  one band on NCORE=   1 cores,   28 groups


--------------------------------------------------------------------------------------------------------


 INCAR:
   SYSTEM = HEBCN
   ISTART = 1
   ICHARG = 11
   PREC = Normal
   LREAL = .F.
   IBRION = -1
   ISIF = 2
   NSW = 0
   POTIM = 0.5
   EDIFFG = -0.01
   ENCUT = 400
   NELM = 60
   EDIFF = 1E-5
   LCHARG = .T.
   LWAVE = .F.
   ISMEAR = 0
   SIGMA = 0.1
   ALGO = Fast
   NEDOS = 1000
   LORBIT = 10
   NBANDS = 312
   EMIN = -50
   EMAX = 14

 POTCAR:   PAW_PBE Ti_sv 07Sep2000                
 POTCAR:   PAW_PBE Ta_pv 07Sep2000                
 POTCAR:   PAW_PBE Hf_pv 06Sep2000                
 POTCAR:   PAW_PBE N 08Apr2002                    
 POTCAR:   PAW_PBE C 08Apr2002                    
 POTCAR:   PAW_PBE W_pv 06Sep2000                 
 POTCAR:   PAW_PBE Nb_sv 17Jan2003                
 -----------------------------------------------------------------------------
|                                                                             |
|           W    W    AA    RRRRR   N    N  II  N    N   GGGG   !!!           |
|           W    W   A  A   R    R  NN   N  II  NN   N  G    G  !!!           |
|           W    W  A    A  R    R  N N  N  II  N N  N  G       !!!           |
|           W WW W  AAAAAA  RRRRR   N  N N  II  N  N N  G  GGG   !            |
|           WW  WW  A    A  R   R   N   NN  II  N   NN  G    G                |
|           W    W  A    A  R    R  N    N  II  N    N   GGGG   !!!           |
|                                                                             |
|     For optimal performance we recommend to set                             |
|       NCORE = 2 up to number-of-cores-per-socket                            |
|     NCORE specifies how many cores store one orbital (NPAR=cpu/NCORE).      |
|     This setting can greatly improve the performance of VASP for DFT.       |
|     The default, NCORE=1 might be grossly inefficient on modern             |
|     multi-core architectures or massively parallel machines. Do your        |
|     own testing! More info at https://www.vasp.at/wiki/index.php/NCORE      |
|     Unfortunately you need to use the default for GW and RPA                |
|     calculations (for HF NCORE is supported but not extensively tested      |
|     yet).                                                                   |
|                                                                             |
 -----------------------------------------------------------------------------

 POTCAR:   PAW_PBE Ti_sv 07Sep2000                
   VRHFIN =Ti: 3p4s3d                                                                               
   LEXCH  = PE                                                                                      
   EATOM  =  1587.5048 eV,  116.6783 Ry                                                             
                                                                                                    
   TITEL  = PAW_PBE Ti_sv 07Sep2000                                                                 
   LULTRA =        F    use ultrasoft PP ?                                                          
   IUNSCR =        1    unscreen: 0-lin 1-nonlin 2-no                                               
   RPACOR =    2.000    partial core radius                                                         
   POMASS =   47.880; ZVAL   =   12.000    mass and valenz                                          
   RCORE  =    2.300    outmost cutoff radius                                                       
   RWIGS  =    2.300; RWIGS  =    1.217    wigner-seitz radius (au A)                               
   ENMAX  =  274.574; ENMIN  =  205.930 eV                                                          
   RCLOC  =    1.701    cutoff for local pot                                                        
   LCOR   =        T    correct aug charges                                                         
   LPAW   =        T    paw PP                                                                      
   EAUG   =  482.848                                                                                
   DEXC   =     .000                                                                                
   RMAX   =    2.783    core radius for proj-oper                                                   
   RAUG   =    1.300    factor for augmentation sphere                                              
   RDEP   =    2.381    radius for radial grids                                                     
   QCUT   =   -4.492; QGAM   =    8.985    optimization parameters                                  
                                                                                                    
   Description                                                                                      
     l     E      TYP  RCUT    TYP  RCUT                                                            
     0   .000     23  1.800                                                                         
     0   .000     23  2.300                                                                         
     0   .000     23  1.800                                                                         
     0   .000     23  2.300                                                                         
     1   .000     23  2.300                                                                         
     1  -.100     23  2.300                                                                         
     2   .000     23  2.300                                                                         
     2   .000     23  2.300                                                                         
     3   .000      7   .000                                                                         
  local pseudopotential read in
  partial core-charges read in
  atomic valenz-charges read in
  non local Contribution for L=           0  read in
    real space projection operators read in
  non local Contribution for L=           0  read in
    real space projection operators read in
  non local Contribution for L=           1  read in
    real space projection operators read in
  non local Contribution for L=           1  read in
    real space projection operators read in
  non local Contribution for L=           2  read in
    real space projection operators read in
  non local Contribution for L=           2  read in
    real space projection operators read in
    PAW grid and wavefunctions read in
 
   number of l-projection  operators is LMAX  =           6
   number of lm-projection operators is LMMAX =          18
 
 POTCAR:   PAW_PBE Ta_pv 07Sep2000                
   VRHFIN =Ta:  5p6s5d                                                                              
   LEXCH  = PE                                                                                      
   EATOM  =  1045.8051 eV,   76.8645 Ry                                                             
                                                                                                    
   TITEL  = PAW_PBE Ta_pv 07Sep2000                                                                 
   LULTRA =        F    use ultrasoft PP ?                                                          
   IUNSCR =        1    unscreen: 0-lin 1-nonlin 2-no                                               
   RPACOR =    2.330    partial core radius                                                         
   POMASS =  180.948; ZVAL   =   11.000    mass and valenz                                          
   RCORE  =    2.500    outmost cutoff radius                                                       
   RWIGS  =    2.840; RWIGS  =    1.503    wigner-seitz radius (au A)                               
   ENMAX  =  223.675; ENMIN  =  167.756 eV                                                          
   RCLOC  =    2.205    cutoff for local pot                                                        
   LCOR   =        T    correct aug charges                                                         
   LPAW   =        T    paw PP                                                                      
   EAUG   =  377.421                                                                                
   DEXC   =    -.043                                                                                
   RMAX   =    3.083    core radius for proj-oper                                                   
   RAUG   =    1.300    factor for augmentation sphere                                              
   RDEP   =    2.526    radius for radial grids                                                     
   QCUT   =   -4.055; QGAM   =    8.109    optimization parameters                                  
                                                                                                    
   Description                                                                                      
     l     E      TYP  RCUT    TYP  RCUT                                                            
     1   .000     23  2.500                                                                         
     1   .100     23  2.500                                                                         
     2   .000     23  2.500                                                                         
     2   .000     23  2.500                                                                         
     0   .000     23  2.500                                                                         
     0   .000     23  2.500                                                                         
     3   .000      7   .000                                                                         
  local pseudopotential read in
  partial core-charges read in
  atomic valenz-charges read in
  non local Contribution for L=           1  read in
    real space projection operators read in
  non local Contribution for L=           1  read in
    real space projection operators read in
  non local Contribution for L=           2  read in
    real space projection operators read in
  non local Contribution for L=           2  read in
    real space projection operators read in
  non local Contribution for L=           0  read in
    real space projection operators read in
  non local Contribution for L=           0  read in
    real space projection operators read in
    PAW grid and wavefunctions read in
 
   number of l-projection  operators is LMAX  =           6
   number of lm-projection operators is LMMAX =          18
 
 POTCAR:   PAW_PBE Hf_pv 06Sep2000                
   VRHFIN =Hf: 5p6s5d                                                                               
   LEXCH  = PE                                                                                      
   EATOM  =   859.6195 eV,   63.1803 Ry                                                             
                                                                                                    
   TITEL  = PAW_PBE Hf_pv 06Sep2000                                                                 
   LULTRA =        F    use ultrasoft PP ?                                                          
   IUNSCR =        1    unscreen: 0-lin 1-nonlin 2-no                                               
   RPACOR =    2.500    partial core radius                                                         
   POMASS =  178.490; ZVAL   =   10.000    mass and valenz                                          
   RCORE  =    2.600    outmost cutoff radius                                                       
   RWIGS  =    3.050; RWIGS  =    1.614    wigner-seitz radius (au A)                               
   ENMAX  =  220.342; ENMIN  =  165.256 eV                                                          
   RCLOC  =    2.212    cutoff for local pot                                                        
   LCOR   =        T    correct aug charges                                                         
   LPAW   =        T    paw PP                                                                      
   EAUG   =  380.878                                                                                
   DEXC   =    -.057                                                                                
   RMAX   =    3.106    core radius for proj-oper                                                   
   RAUG   =    1.300    factor for augmentation sphere                                              
   RDEP   =    2.681    radius for radial grids                                                     
   QCUT   =   -4.024; QGAM   =    8.049    optimization parameters                                  
                                                                                                    
   Description                                                                                      
     l     E      TYP  RCUT    TYP  RCUT                                                            
     1   .000     23  2.500                                                                         
     1   .000     23  2.500                                                                         
     2   .000     23  2.500                                                                         
     2   .000     23  2.500                                                                         
     0   .000     23  2.600                                                                         
     0   .000     23  2.600                                                                         
     3   .000      7   .000                                                                         
  local pseudopotential read in
  partial core-charges read in
  atomic valenz-charges read in
  non local Contribution for L=           1  read in
    real space projection operators read in
  non local Contribution for L=           1  read in
    real space projection operators read in
  non local Contribution for L=           2  read in
    real space projection operators read in
  non local Contribution for L=           2  read in
    real space projection operators read in
  non local Contribution for L=           0  read in
    real space projection operators read in
  non local Contribution for L=           0  read in
    real space projection operators read in
    PAW grid and wavefunctions read in
 
   number of l-projection  operators is LMAX  =           6
   number of lm-projection operators is LMMAX =          18
 
 POTCAR:   PAW_PBE N 08Apr2002                    
   VRHFIN =N: s2p3                                                                                  
   LEXCH  = PE                                                                                      
   EATOM  =   264.5486 eV,   19.4438 Ry                                                             
                                                                                                    
   TITEL  = PAW_PBE N 08Apr2002                                                                     
   LULTRA =        F    use ultrasoft PP ?                                                          
   IUNSCR =        0    unscreen: 0-lin 1-nonlin 2-no                                               
   RPACOR =     .000    partial core radius                                                         
   POMASS =   14.001; ZVAL   =    5.000    mass and valenz                                          
   RCORE  =    1.500    outmost cutoff radius                                                       
   RWIGS  =    1.400; RWIGS  =     .741    wigner-seitz radius (au A)                               
   ENMAX  =  400.000; ENMIN  =  300.000 eV                                                          
   ICORE  =        2    local potential                                                             
   LCOR   =        T    correct aug charges                                                         
   LPAW   =        T    paw PP                                                                      
   EAUG   =  627.112                                                                                
   DEXC   =     .000                                                                                
   RMAX   =    2.247    core radius for proj-oper                                                   
   RAUG   =    1.300    factor for augmentation sphere                                              
   RDEP   =    1.514    radius for radial grids                                                     
   QCUT   =   -5.562; QGAM   =   11.124    optimization parameters                                  
                                                                                                    
   Description                                                                                      
     l     E      TYP  RCUT    TYP  RCUT                                                            
     0   .000     23  1.200                                                                         
     0   .000     23  1.200                                                                         
     1   .000     23  1.500                                                                         
     1   .700     23  1.500                                                                         
     2   .000      7  1.500                                                                         
  local pseudopotential read in
  atomic valenz-charges read in
  non local Contribution for L=           0  read in
    real space projection operators read in
  non local Contribution for L=           0  read in
    real space projection operators read in
  non local Contribution for L=           1  read in
    real space projection operators read in
  non local Contribution for L=           1  read in
    real space projection operators read in
    PAW grid and wavefunctions read in
 
   number of l-projection  operators is LMAX  =           4
   number of lm-projection operators is LMMAX =           8
 
 POTCAR:   PAW_PBE C 08Apr2002                    
   VRHFIN =C: s2p2                                                                                  
   LEXCH  = PE                                                                                      
   EATOM  =   147.1560 eV,   10.8157 Ry                                                             
                                                                                                    
   TITEL  = PAW_PBE C 08Apr2002                                                                     
   LULTRA =        F    use ultrasoft PP ?                                                          
   IUNSCR =        0    unscreen: 0-lin 1-nonlin 2-no                                               
   RPACOR =     .000    partial core radius                                                         
   POMASS =   12.011; ZVAL   =    4.000    mass and valenz                                          
   RCORE  =    1.500    outmost cutoff radius                                                       
   RWIGS  =    1.630; RWIGS  =     .863    wigner-seitz radius (au A)                               
   ENMAX  =  400.000; ENMIN  =  300.000 eV                                                          
   ICORE  =        2    local potential                                                             
   LCOR   =        T    correct aug charges                                                         
   LPAW   =        T    paw PP                                                                      
   EAUG   =  644.873                                                                                
   DEXC   =     .000                                                                                
   RMAX   =    2.266    core radius for proj-oper                                                   
   RAUG   =    1.300    factor for augmentation sphere                                              
   RDEP   =    1.501    radius for radial grids                                                     
   RDEPT  =    1.300    core radius for aug-charge                                                  
   QCUT   =   -5.516; QGAM   =   11.032    optimization parameters                                  
                                                                                                    
   Description                                                                                      
     l     E      TYP  RCUT    TYP  RCUT                                                            
     0   .000     23  1.200                                                                         
     0   .000     23  1.200                                                                         
     1   .000     23  1.500                                                                         
     1  2.500     23  1.500                                                                         
     2   .000      7  1.500                                                                         
  local pseudopotential read in
  atomic valenz-charges read in
  non local Contribution for L=           0  read in
    real space projection operators read in
  non local Contribution for L=           0  read in
    real space projection operators read in
  non local Contribution for L=           1  read in
    real space projection operators read in
  non local Contribution for L=           1  read in
    real space projection operators read in
    PAW grid and wavefunctions read in
 
   number of l-projection  operators is LMAX  =           4
   number of lm-projection operators is LMMAX =           8
 
 POTCAR:   PAW_PBE W_pv 06Sep2000                 
   VRHFIN =W : 5p6s5d                                                                               
   LEXCH  = PE                                                                                      
   EATOM  =  1260.0376 eV,   92.6101 Ry                                                             
                                                                                                    
   TITEL  = PAW_PBE W_pv 06Sep2000                                                                  
   LULTRA =        F    use ultrasoft PP ?                                                          
   IUNSCR =        1    unscreen: 0-lin 1-nonlin 2-no                                               
   RPACOR =    2.330    partial core radius                                                         
   POMASS =  183.850; ZVAL   =   12.000    mass and valenz                                          
   RCORE  =    2.500    outmost cutoff radius                                                       
   RWIGS  =    2.750; RWIGS  =    1.455    wigner-seitz radius (au A)                               
   ENMAX  =  223.065; ENMIN  =  167.299 eV                                                          
   RCLOC  =    2.147    cutoff for local pot                                                        
   LCOR   =        T    correct aug charges                                                         
   LPAW   =        T    paw PP                                                                      
   EAUG   =  373.438                                                                                
   DEXC   =    -.018                                                                                
   RMAX   =    3.087    core radius for proj-oper                                                   
   RAUG   =    1.300    factor for augmentation sphere                                              
   RDEP   =    2.539    radius for radial grids                                                     
   QCUT   =   -4.049; QGAM   =    8.098    optimization parameters                                  
                                                                                                    
   Description                                                                                      
     l     E      TYP  RCUT    TYP  RCUT                                                            
     1   .000     23  2.500                                                                         
     1  -.200     23  2.500                                                                         
     2   .000     23  2.500                                                                         
     2   .000     23  2.500                                                                         
     0   .000     23  2.500                                                                         
     0   .000     23  2.500                                                                         
     3   .000      7   .000                                                                         
  local pseudopotential read in
  partial core-charges read in
  atomic valenz-charges read in
  non local Contribution for L=           1  read in
    real space projection operators read in
  non local Contribution for L=           1  read in
    real space projection operators read in
  non local Contribution for L=           2  read in
    real space projection operators read in
  non local Contribution for L=           2  read in
    real space projection operators read in
  non local Contribution for L=           0  read in
    real space projection operators read in
  non local Contribution for L=           0  read in
    real space projection operators read in
    PAW grid and wavefunctions read in
 
   number of l-projection  operators is LMAX  =           6
   number of lm-projection operators is LMMAX =          18
 
 POTCAR:   PAW_PBE Nb_sv 17Jan2003                
   VRHFIN =Nb: 4p5s4d                                                                               
   LEXCH  = PE                                                                                      
   EATOM  =  1555.1913 eV,  114.3033 Ry                                                             
                                                                                                    
   TITEL  = PAW_PBE Nb_sv 17Jan2003                                                                 
   LULTRA =        F    use ultrasoft PP ?                                                          
   IUNSCR =        1    unscreen: 0-lin 1-nonlin 2-no                                               
   RPACOR =    1.800    partial core radius                                                         
   POMASS =   92.910; ZVAL   =   13.000    mass and valenz                                          
   RCORE  =    2.200    outmost cutoff radius                                                       
   RWIGS  =    2.400; RWIGS  =    1.270    wigner-seitz radius (au A)                               
   ENMAX  =  293.235; ENMIN  =  219.927 eV                                                          
   RCLOC  =    1.411    cutoff for local pot                                                        
   LCOR   =        T    correct aug charges                                                         
   LPAW   =        T    paw PP                                                                      
   EAUG   =  455.659                                                                                
   DEXC   =     .000                                                                                
   RMAX   =    2.693    core radius for proj-oper                                                   
   RAUG   =    1.300    factor for augmentation sphere                                              
   RDEP   =    2.299    radius for radial grids                                                     
   QCUT   =   -4.642; QGAM   =    9.285    optimization parameters                                  
                                                                                                    
   Description                                                                                      
     l     E      TYP  RCUT    TYP  RCUT                                                            
     0   .000     23  2.200                                                                         
     0   .000     23  2.200                                                                         
     0   .000     23  2.200                                                                         
     0   .000     23  2.200                                                                         
     1   .000     23  2.200                                                                         
     1  1.000     23  2.200                                                                         
     2   .000     23  2.200                                                                         
     2   .000     23  2.200                                                                         
     3   .000      7   .000                                                                         
  local pseudopotential read in
  partial core-charges read in
  atomic valenz-charges read in
  non local Contribution for L=           0  read in
    real space projection operators read in
  non local Contribution for L=           0  read in
    real space projection operators read in
  non local Contribution for L=           1  read in
    real space projection operators read in
  non local Contribution for L=           1  read in
    real space projection operators read in
  non local Contribution for L=           2  read in
    real space projection operators read in
  non local Contribution for L=           2  read in
    real space projection operators read in
    PAW grid and wavefunctions read in
 
   number of l-projection  operators is LMAX  =           6
   number of lm-projection operators is LMMAX =          18
 
 -----------------------------------------------------------------------------
|                                                                             |
|               ----> ADVICE to this user running VASP <----                  |
|                                                                             |
|     You have a (more or less) 'large supercell' and for larger cells it     |
|     might be more efficient to use real-space projection operators.         |
|     Therefore, try LREAL= Auto in the INCAR file.                           |
|     Mind: If you want to do very accurate calculations, keep the            |
|     reciprocal projection scheme (i.e. LREAL=.FALSE.).                      |
|                                                                             |
 -----------------------------------------------------------------------------

 PAW_PBE Ti_sv 07Sep2000                :
 energy of atom  1       EATOM=-1587.5048
 kinetic energy error for atom=    0.0139 (will be added to EATOM!!)
 PAW_PBE Ta_pv 07Sep2000                :
 energy of atom  2       EATOM=-1045.8051
 kinetic energy error for atom=    0.0046 (will be added to EATOM!!)
 PAW_PBE Hf_pv 06Sep2000                :
 energy of atom  3       EATOM= -859.6195
 kinetic energy error for atom=    0.0038 (will be added to EATOM!!)
 PAW_PBE N 08Apr2002                    :
 energy of atom  4       EATOM= -264.5486
 kinetic energy error for atom=    0.0736 (will be added to EATOM!!)
 PAW_PBE C 08Apr2002                    :
 energy of atom  5       EATOM= -147.1560
 kinetic energy error for atom=    0.0288 (will be added to EATOM!!)
 PAW_PBE W_pv 06Sep2000                 :
 energy of atom  6       EATOM=-1260.0376
 kinetic energy error for atom=    0.0051 (will be added to EATOM!!)
 PAW_PBE Nb_sv 17Jan2003                :
 energy of atom  7       EATOM=-1555.1913
 kinetic energy error for atom=    0.0212 (will be added to EATOM!!)
 
 
 POSCAR: 28-TiHfNbTaW
  positions in direct lattice
  velocities in cartesian coordinates


 exchange-correlation table for PE
   RHO(1)=    0.500       N(1)  =     2000
   RHO(2)=  100.500       N(2)  =     4000
 


--------------------------------------------------------------------------------------------------------


 ion  position               nearest neighbor table
   1  0.004  0.984  0.005-  38 2.06  34 2.16  25 2.19  29 2.23  22 2.25  18 3.06  12 3.08   9 3.09
                            16 3.15  56 3.18  14 3.18  58 3.20   8 3.25  17 3.26
   2  0.248  0.993  0.255-  43 2.14  34 2.17  36 2.18  26 2.22  22 2.28  21 2.30  57 2.97  20 3.10
                            18 3.11   8 3.14  55 3.16  19 3.16  14 3.22  15 3.23
   3  0.256  0.508  0.248-  41 2.14  36 2.16  37 2.17  46 2.22  27 2.26  21 2.31  55 3.03  20 3.11
                            18 3.13  15 3.14  54 3.20  14 3.21  19 3.21
   4  0.499  0.486  0.996-  35 2.07  52 2.18  37 2.22  40 2.24  41 2.24  15 3.06  13 3.08  17 3.09
                            14 3.11  18 3.20   9 3.23
   5  0.491  0.246  0.756-  42 2.11  35 2.14  33 2.18  32 2.27  52 2.28  30 2.30  53 2.90  56 3.06
                            14 3.08  13 3.08  19 3.13  17 3.16  58 3.17  11 3.23
   6  0.000  0.499  0.509-  48 2.15  50 2.18  44 2.19  46 2.20  47 2.22  10 3.04  11 3.04  12 3.10
                            20 3.12  13 3.13  19 3.14   8 3.17
   7  0.502  0.750  0.742-  51 2.10  49 2.17  45 2.22  52 2.24  33 2.25  28 2.30  58 2.94  57 3.06
                            20 3.13  18 3.13  13 3.16   9 3.20
   8  0.000  0.244  0.261-  44 2.14  34 2.18  21 2.21  27 2.21  24 2.23  23 2.32  61 3.03  11 3.07
                            19 3.08   2 3.14  16 3.15  14 3.17   6 3.17  17 3.24   1 3.25  60 3.27
   9  0.750  0.748  0.003-  28 2.16  40 2.19  39 2.19  49 2.23  38 2.24  25 2.25  58 2.97  54 3.05
                            63 3.07   1 3.09  60 3.10  16 3.13  12 3.13  59 3.14   7 3.20  53 3.21
  10  0.007  0.249  0.740-  44 2.13  42 2.20  29 2.21  48 2.24  30 2.28  23 2.32   6 3.04  56 3.04
                            19 3.05  11 3.07  61 3.09  13 3.12  14 3.15  17 3.17  54 3.28  63 3.30
  11  0.755  0.262  0.505-  50 2.12  30 2.16  44 2.17  32 2.22  24 2.26  31 2.29   6 3.04  10 3.07
                             8 3.07  63 3.14  60 3.16  62 3.16   5 3.23  61 3.23  15 3.24  16 3.27
  12  0.998  0.748  0.752-  38 2.20  47 2.22  48 2.22  49 2.24  45 2.25  29 2.28  54 2.97  63 3.08
                             1 3.08   6 3.10  20 3.12   9 3.13  58 3.16  64 3.16  13 3.19  56 3.19
  13  0.254  0.497  0.753-  52 2.18  42 2.20  37 2.24  48 2.25  46 2.28  45 2.29  54 3.08   4 3.08
                             5 3.08  62 3.12  10 3.12   6 3.13  14 3.15  19 3.15   7 3.16  20 3.17
  14  0.245  0.247  0.000-  23 2.17  22 2.20  21 2.21  42 2.23  35 2.27  37 2.28   5 3.08   4 3.11
                            53 3.12  56 3.14  10 3.15  13 3.15  15 3.15   8 3.17   1 3.18   3 3.21
  15  0.499  0.253  0.247-  21 2.22  24 2.23  35 2.24  41 2.24  32 2.26  26 2.28   4 3.06  19 3.13
                            60 3.13   3 3.14  53 3.15  14 3.15  17 3.20  16 3.21  62 3.22   2 3.23
  16  0.750  0.995  0.253-  39 2.20  25 2.20  26 2.25  34 2.25  31 2.25  24 2.26  59 3.10   9 3.13
                             1 3.15   8 3.15  64 3.16  55 3.16  61 3.17  57 3.20  15 3.21  53 3.22
  17  0.754  0.252  0.993-  23 2.19  30 2.20  40 2.25  35 2.25  25 2.26  24 2.30  53 3.02   4 3.09
                            58 3.12   5 3.16  10 3.17  63 3.18  15 3.20  60 3.23   8 3.24  54 3.25
  18  0.260  0.755  0.999-  28 2.19  22 2.21  45 2.21  36 2.23  37 2.26  38 2.29   1 3.06  54 3.11
                             2 3.11   3 3.13   7 3.13  13 3.18  59 3.19  55 3.19   4 3.20  12 3.20
  19  0.251  0.251  0.499-  46 2.22  21 2.23  44 2.23  42 2.24  43 2.25  32 2.26  10 3.05   8 3.08
                            56 3.09  61 3.09  15 3.13  57 3.13   5 3.13   6 3.14  13 3.15   2 3.16
  20  0.246  0.748  0.502-  47 2.22  45 2.22  46 2.22  43 2.24  36 2.24  51 2.25  57 2.97  55 3.08
                            61 3.09   2 3.10  62 3.11   3 3.11   6 3.12  12 3.12   7 3.13  59 3.13
  21  0.249  0.249  0.249-   8 2.21  14 2.21  15 2.22  19 2.23   2 2.30   3 2.31
  22  0.256  0.001  1.000-  14 2.20  18 2.21   1 2.25  53 2.26   2 2.28  56 2.29
  23  0.000  0.249  0.000-  14 2.17  17 2.19  10 2.32   8 2.32  54 2.41
  24  0.749  0.247  0.251-  15 2.23   8 2.23  16 2.26  11 2.26  17 2.30  60 2.32
  25  0.757  1.000  0.006-  58 2.12   1 2.19  16 2.20  53 2.21   9 2.25  17 2.26
  26  0.497  0.998  0.239-   2 2.22  16 2.25  57 2.27  53 2.28  15 2.28  55 2.29
  27  0.002  0.491  0.245-   8 2.21   3 2.26  54 2.27  60 2.31  59 2.35
  28  0.506  0.758  0.001-   9 2.16  18 2.19   7 2.30  53 2.32  55 2.35
  29  0.992  0.003  0.755-  10 2.21   1 2.23  56 2.26  12 2.28  61 2.30  58 2.31
  30  0.750  0.244  0.747-  11 2.16  17 2.20  10 2.28   5 2.30  58 2.35  63 2.40
  31  0.740  0.005  0.506-  16 2.25  11 2.29  57 2.32  58 2.36  61 2.39  64 2.40
  32  0.506  0.243  0.501-  11 2.22  19 2.26  15 2.26   5 2.27  57 2.32  62 2.38
  33  0.499  0.002  0.733-  58 2.11  57 2.15   5 2.18  56 2.24  53 2.24   7 2.25
  34  0.003  0.001  0.247-   1 2.16   2 2.17   8 2.18  59 2.21  61 2.23  16 2.25
  35  0.501  0.255  0.996-   4 2.07  53 2.13   5 2.14  15 2.24  17 2.25  14 2.27
  36  0.254  0.749  0.250-   3 2.16   2 2.18  55 2.19  18 2.23  59 2.24  20 2.24
  37  0.249  0.502  0.004-   3 2.17  54 2.19   4 2.22  13 2.24  18 2.26  14 2.28
  38  0.002  0.754  0.999-   1 2.06  54 2.10  12 2.20  59 2.23   9 2.24  18 2.29
  39  0.748  0.748  0.249-  60 2.16   9 2.19  16 2.20  64 2.20  55 2.21  59 2.25
  40  0.751  0.503  0.002-   9 2.19  60 2.22  63 2.23   4 2.24  17 2.25  54 2.25
  41  0.496  0.504  0.247-   3 2.14  55 2.15  60 2.19  15 2.24   4 2.24  62 2.28
  42  0.254  0.251  0.750-   5 2.11  13 2.20  56 2.20  10 2.20  14 2.23  19 2.24
  43  0.248  0.998  0.496-  57 2.07  61 2.12   2 2.14  56 2.20  20 2.24  19 2.25
  44  1.000  0.254  0.501-  10 2.13   8 2.14  11 2.17   6 2.19  19 2.23  61 2.26
  45  0.252  0.753  0.751-  18 2.21  20 2.22   7 2.22  12 2.25  56 2.26  13 2.29
  46  0.248  0.499  0.497-   6 2.20   3 2.22  19 2.22  20 2.22  62 2.24  13 2.28
  47  0.996  0.747  0.503-  64 2.17  20 2.22  12 2.22   6 2.22  59 2.26  61 2.28
  48  0.000  0.499  0.751-   6 2.15  54 2.15  12 2.22  10 2.24  13 2.25  63 2.26
  49  0.746  0.753  0.752-  58 2.07  63 2.15   7 2.17   9 2.23  12 2.24  64 2.28
  50  0.755  0.499  0.500-  11 2.12  64 2.14   6 2.18  60 2.22  63 2.25  62 2.26
  51  0.500  0.750  0.506-   7 2.10  57 2.11  55 2.15  62 2.15  64 2.24  20 2.25
  52  0.499  0.501  0.752-   4 2.18  13 2.18  63 2.19  62 2.22   7 2.24   5 2.28
  53  0.510  0.017  0.985-  35 2.13  25 2.21  33 2.24  22 2.26  26 2.28  28 2.32  58 2.76   5 2.90
                            17 3.02  14 3.12  15 3.15  56 3.19   9 3.21  16 3.22  18 3.24
  54  0.003  0.519  0.992-  38 2.10  48 2.15  37 2.19  40 2.25  27 2.27  23 2.41  12 2.97   9 3.05
                            13 3.08  59 3.10  18 3.11  63 3.14   3 3.20  14 3.24  17 3.25  60 3.26
  55  0.500  0.743  0.265-  41 2.15  51 2.15  36 2.19  39 2.21  26 2.29  28 2.35  57 2.96  62 2.99
                            60 3.02   3 3.03  64 3.05  20 3.08   2 3.16  16 3.16  18 3.19   9 3.21
  56  0.247  0.006  0.743-  42 2.20  43 2.20  33 2.24  45 2.26  29 2.26  22 2.29  57 3.04  10 3.04
                            61 3.05   5 3.06  19 3.09  14 3.14  20 3.15   1 3.18  53 3.19  12 3.19
  57  0.480  0.984  0.493-  43 2.07  51 2.11  33 2.15  26 2.27  31 2.32  32 2.32  55 2.96  20 2.97
                             2 2.97  56 3.04   7 3.06  19 3.13  16 3.20  15 3.26  64 3.26  58 3.34
  58  0.733  0.984  0.770-  49 2.07  33 2.11  25 2.12  29 2.31  30 2.35  31 2.36  53 2.76   7 2.94
                             9 2.97  17 3.12  12 3.16   5 3.17   1 3.20  57 3.34  10 3.41  11 3.43
  59  0.002  0.754  0.249-  34 2.21  38 2.23  36 2.24  39 2.25  47 2.26  27 2.35  16 3.10  54 3.10
                            20 3.13   9 3.14  18 3.19
  60  0.742  0.506  0.251-  39 2.16  41 2.19  40 2.22  50 2.22  27 2.31  24 2.32  64 3.01  55 3.02
                             9 3.10  15 3.13  11 3.16  17 3.23  54 3.26   8 3.27
  61  0.009  0.002  0.497-  43 2.12  34 2.23  44 2.26  47 2.28  29 2.30  31 2.39   8 3.03  56 3.05
                            10 3.09  20 3.09  19 3.09  16 3.17  12 3.22  11 3.23
  62  0.500  0.509  0.503-  51 2.15  52 2.22  46 2.24  50 2.26  41 2.28  32 2.38  55 2.99  64 3.03
                            20 3.11  13 3.12  11 3.16  19 3.20  15 3.22
  63  0.746  0.513  0.752-  49 2.15  52 2.19  40 2.23  50 2.25  48 2.26  30 2.40  64 3.04   9 3.07
                            12 3.08  11 3.14  54 3.14  17 3.18  10 3.30
  64  0.752  0.738  0.497-  50 2.14  47 2.17  39 2.20  51 2.24  49 2.28  31 2.40  60 3.01  62 3.03
                            63 3.04  55 3.05  16 3.16  12 3.16  57 3.26
 
  LATTYP: Found a triclinic cell.
 ALAT       =     8.9032990502
 B/A-ratio  =     1.4089283320
 C/A-ratio  =     1.7341864883
 COS(alpha) =     0.0006957072
 COS(beta)  =     0.5773723009
 COS(gamma) =     0.7066433319
  
  Lattice vectors:
  
 A1 = (  -0.0195856624,   0.0138102965,  -8.9032667968)
 A2 = (   8.8563120844,   0.0196730849,  -8.8836958495)
 A3 = (  -8.9014132066,  -8.9324651574,  -8.9089236035)


Analysis of symmetry for initial positions (statically):
=====================================================================
 Subroutine PRICEL returns:
 Original cell was already a primitive cell.
 

 Routine SETGRP: Setting up the symmetry group for a 
 triclinic supercell.


 Subroutine GETGRP returns: Found  1 space group operations
 (whereof  1 operations were pure point group operations)
 out of a pool of  2 trial point group operations.


The static configuration has the point symmetry C_1 .


Analysis of symmetry for dynamics (positions and initial velocities):
=====================================================================
 Subroutine PRICEL returns:
 Original cell was already a primitive cell.
 

 Routine SETGRP: Setting up the symmetry group for a 
 triclinic supercell.


 Subroutine GETGRP returns: Found  1 space group operations
 (whereof  1 operations were pure point group operations)
 out of a pool of  2 trial point group operations.


The dynamic configuration has the point symmetry C_1 .


 Subroutine INISYM returns: Found  1 space group operations
 (whereof  1 operations are pure point group operations),
 and found     1 'primitive' translations


----------------------------------------------------------------------------------------

                                     Primitive cell                                     

  volume of cell :     706.5061

  direct lattice vectors                    reciprocal lattice vectors
     8.875897747  0.005862788  0.019570947     0.112665256 -0.000075112 -0.000247961
     0.005929797  8.940412665 -0.013914141    -0.000074264  0.111851980  0.000173662
     0.019585662 -0.013810297  8.903266797    -0.000247774  0.000174969  0.112319140

  length of vectors
     8.875921260  8.940425459  8.903299050     0.112665554  0.111852139  0.112319550

  position of ions in fractional coordinates (direct lattice)
     0.003805330  0.984120834  0.005123449
     0.247631260  0.992559413  0.255070241
     0.255518838  0.507968580  0.247535141
     0.498586980  0.486377349  0.995779962
     0.491469633  0.245571706  0.755576203
     0.000254442  0.499072217  0.509451070
     0.501831150  0.750338226  0.742446412
     0.000181912  0.244303500  0.260582759
     0.749515054  0.748300598  0.002913151
     0.006703935  0.249344821  0.740029789
     0.755084864  0.261633712  0.505195815
     0.998482882  0.748002159  0.752117340
     0.253670087  0.497136319  0.752571868
     0.245177543  0.246587439  0.000289148
     0.498576913  0.253183583  0.247223961
     0.750029280  0.994581108  0.253458276
     0.754240527  0.251795396  0.993326611
     0.259750560  0.754567215  0.999356443
     0.251162259  0.250538397  0.498794674
     0.246059713  0.747914589  0.501588770
     0.248783126  0.249307847  0.248622011
     0.256203510  0.001218631  0.999762653
     0.000499012  0.249325709  0.000045180
     0.749369310  0.247253241  0.251288567
     0.757132610  0.999861971  0.006111237
     0.497291478  0.998269479  0.239297357
     0.001860924  0.491351957  0.245370489
     0.506255559  0.758132651  0.000797496
     0.992141904  0.002556708  0.755250555
     0.750074378  0.244431238  0.746759113
     0.740224154  0.005448128  0.506200198
     0.505522156  0.242651756  0.501083811
     0.498991956  0.002355489  0.733390810
     0.003182370  0.000994031  0.246886382
     0.500683545  0.254620451  0.995690945
     0.254071057  0.749193294  0.249770206
     0.248946464  0.501988367  0.003813246
     0.002212314  0.753700869  0.998786206
     0.748014206  0.748175579  0.249376115
     0.750583452  0.503301697  0.001718593
     0.496129725  0.503759960  0.247267170
     0.254137153  0.251393657  0.750109352
     0.248004638  0.998436399  0.495817602
     0.999590710  0.254083351  0.500546188
     0.251610841  0.753168009  0.750939220
     0.248146200  0.499180755  0.496630126
     0.996397180  0.747427620  0.503239812
     0.000494530  0.499390714  0.750748477
     0.745798866  0.753130708  0.752446820
     0.754873393  0.498659524  0.499899247
     0.499569398  0.749588907  0.506284393
     0.499386262  0.500533954  0.751526071
     0.510197028  0.016847347  0.984654342
     0.003486172  0.518524214  0.991980129
     0.499853427  0.743184755  0.264760957
     0.246563810  0.005782882  0.743103636
     0.480241487  0.984001460  0.493378580
     0.732866094  0.983717517  0.769675708
     0.001677214  0.753733049  0.249206991
     0.742306878  0.506234543  0.250737730
     0.009054811  0.001839321  0.497308829
     0.500456427  0.508608029  0.502855197
     0.745732001  0.513038339  0.751746132
     0.751959802  0.737700516  0.496689427

  ion indices of the primitive-cell ions
   primitive index   ion index
                 1           1
                 2           2
                 3           3
                 4           4
                 5           5
                 6           6
                 7           7
                 8           8
                 9           9
                10          10
                11          11
                12          12
                13          13
                14          14
                15          15
                16          16
                17          17
                18          18
                19          19
                20          20
                21          21
                22          22
                23          23
                24          24
                25          25
                26          26
                27          27
                28          28
                29          29
                30          30
                31          31
                32          32
                33          33
                34          34
                35          35
                36          36
                37          37
                38          38
                39          39
                40          40
                41          41
                42          42
                43          43
                44          44
                45          45
                46          46
                47          47
                48          48
                49          49
                50          50
                51          51
                52          52
                53          53
                54          54
                55          55
                56          56
                57          57
                58          58
                59          59
                60          60
                61          61
                62          62
                63          63
                64          64

----------------------------------------------------------------------------------------

 
 -----------------------------------------------------------------------------
|                                                                             |
|           W    W    AA    RRRRR   N    N  II  N    N   GGGG   !!!           |
|           W    W   A  A   R    R  NN   N  II  NN   N  G    G  !!!           |
|           W    W  A    A  R    R  N N  N  II  N N  N  G       !!!           |
|           W WW W  AAAAAA  RRRRR   N  N N  II  N  N N  G  GGG   !            |
|           WW  WW  A    A  R   R   N   NN  II  N   NN  G    G                |
|           W    W  A    A  R    R  N    N  II  N    N   GGGG   !!!           |
|                                                                             |
|     The requested file  could not be found or opened for reading            |
|     k-point information. Automatic k-point generation is used as a          |
|     fallback, which may lead to unwanted results.                           |
|                                                                             |
 -----------------------------------------------------------------------------

 

Automatic generation of k-mesh.
 Grid dimensions derived from KSPACING:
 generate k-points for:    2    2    2

 Generating k-lattice:

  Cartesian coordinates                     Fractional coordinates (reciprocal lattice)
     0.056332628 -0.000037556 -0.000123980     0.500000000 -0.000000000 -0.000000000
    -0.000037132  0.055925990  0.000086831     0.000000000  0.500000000 -0.000000000
    -0.000123887  0.000087484  0.056159570    -0.000000000  0.000000000  0.500000000

  Length of vectors
     0.056332777  0.055926070  0.056159775

  Shift w.r.t. Gamma in fractional coordinates (k-lattice)
     0.000000000  0.000000000  0.000000000

 
 Subroutine IBZKPT returns following result:
 ===========================================
 
 Found      8 irreducible k-points:
 
 Following reciprocal coordinates:
            Coordinates               Weight
  0.000000  0.000000  0.000000      1.000000
  0.500000 -0.000000  0.000000      1.000000
 -0.000000  0.500000  0.000000      1.000000
  0.500000  0.500000 -0.000000      1.000000
 -0.000000  0.000000  0.500000      1.000000
  0.500000 -0.000000  0.500000      1.000000
 -0.000000  0.500000  0.500000      1.000000
  0.500000  0.500000  0.500000      1.000000
 
 Following cartesian coordinates:
            Coordinates               Weight
  0.000000  0.000000  0.000000      1.000000
  0.056333 -0.000038 -0.000124      1.000000
 -0.000037  0.055926  0.000087      1.000000
  0.056295  0.055888 -0.000037      1.000000
 -0.000124  0.000087  0.056160      1.000000
  0.056209  0.000050  0.056036      1.000000
 -0.000161  0.056013  0.056246      1.000000
  0.056172  0.055976  0.056122      1.000000
 
 -----------------------------------------------------------------------------
|                                                                             |
|           W    W    AA    RRRRR   N    N  II  N    N   GGGG   !!!           |
|           W    W   A  A   R    R  NN   N  II  NN   N  G    G  !!!           |
|           W    W  A    A  R    R  N N  N  II  N N  N  G       !!!           |
|           W WW W  AAAAAA  RRRRR   N  N N  II  N  N N  G  GGG   !            |
|           WW  WW  A    A  R   R   N   NN  II  N   NN  G    G                |
|           W    W  A    A  R    R  N    N  II  N    N   GGGG   !!!           |
|                                                                             |
|     The number of bands has been changed from the values supplied in        |
|     the INCAR file. This is a result of running the parallel version.       |
|     The orbitals not found in the WAVECAR file will be initialized with     |
|     random numbers, which is usually adequate. For correlated               |
|     calculations, however, you should redo the groundstate calculation.     |
|     I found NBANDS = 312. Now, NBANDS = 336.                                |
|                                                                             |
 -----------------------------------------------------------------------------



--------------------------------------------------------------------------------------------------------




 Dimension of arrays:
   k-points           NKPTS =      8   k-points in BZ     NKDIM =      8   number of bands    NBANDS=    336
   number of dos      NEDOS =   1000   number of ions     NIONS =     64
   non local maximal  LDIM  =      6   non local SUM 2l+1 LMDIM =     18
   total plane-waves  NPLWV = 110592
   max r-space proj   IRMAX =      1   max aug-charges    IRDMAX=   9134
   dimension x,y,z NGX =    48 NGY =   48 NGZ =   48
   dimension x,y,z NGXF=    96 NGYF=   96 NGZF=   96
   support grid    NGXF=    96 NGYF=   96 NGZF=   96
   ions per type =               7   6   7  13  19   6   6
   NGX,Y,Z   is equivalent  to a cutoff of   8.99,  8.93,  8.96 a.u.
   NGXF,Y,Z  is equivalent  to a cutoff of  17.98, 17.85, 17.93 a.u.

 SYSTEM =  HEBCN                                   
 POSCAR =  28-TiHfNbTaW                            

 Startparameter for this run:
   NWRITE =      2    write-flag & timer
   PREC   = normal    normal or accurate (medium, high low for compatibility)
   ISTART =      1    job   : 0-new  1-cont  2-samecut
   ICHARG =     11    charge: 1-file 2-atom 10-const
   ISPIN  =      1    spin polarized calculation?
   LNONCOLLINEAR =      F non collinear calculations
   LSORBIT =      F    spin-orbit coupling
   INIWAV =      1    electr: 0-lowe 1-rand  2-diag
   LASPH  =      F    aspherical Exc in radial PAW
 Electronic Relaxation 1
   ENCUT  =  400.0 eV  29.40 Ry    5.42 a.u.  14.47 14.58 14.52*2*pi/ulx,y,z
   ENINI  =  400.0     initial cutoff
   ENAUG  =  644.9 eV  augmentation charge cutoff
   NELM   =     60;   NELMIN=  2; NELMDL=  0     # of ELM steps 
   EDIFF  = 0.1E-04   stopping-criterion for ELM
   LREAL  =      F    real-space projection
   NLSPLINE    = F    spline interpolate recip. space projectors
   LCOMPAT=      F    compatible to vasp.4.4
   GGA_COMPAT  = T    GGA compatible to vasp.4.4-vasp.4.6
   LMAXPAW     = -100 max onsite density
   LMAXMIX     =    2 max onsite mixed and CHGCAR
   VOSKOWN=      0    Vosko Wilk Nusair interpolation
   ROPT   =    0.00000   0.00000   0.00000   0.00000
   ROPT   =    0.00000   0.00000   0.00000
 Ionic relaxation
   EDIFFG = -.1E-01   stopping-criterion for IOM
   NSW    =      0    number of steps for IOM
   NBLOCK =      1;   KBLOCK =      1    inner block; outer block 
   IBRION =     -1    ionic relax: 0-MD 1-quasi-New 2-CG
   NFREE  =      0    steps in history (QN), initial steepest desc. (CG)
   ISIF   =      2    stress and relaxation
   IWAVPR =     10    prediction:  0-non 1-charg 2-wave 3-comb
   ISYM   =      2    0-nonsym 1-usesym 2-fastsym
   LCORR  =      T    Harris-Foulkes like correction to forces

   POTIM  = 0.5000    time-step for ionic-motion
   TEIN   =    0.0    initial temperature
   TEBEG  =    0.0;   TEEND  =   0.0 temperature during run
   SMASS  =  -3.00    Nose mass-parameter (am)
   estimated Nose-frequenzy (Omega)   =  0.10E-29 period in steps = 0.13E+47 mass=  -0.180E-26a.u.
   SCALEE = 1.0000    scale energy and forces
   NPACO  =    256;   APACO  = 10.0  distance and # of slots for P.C.
   PSTRESS=    0.0 pullay stress

  Mass of Ions in am
   POMASS =  47.88180.95178.49 14.00 12.01183.85 92.91
  Ionic Valenz
   ZVAL   =  12.00 11.00 10.00  5.00  4.00 12.00 13.00
  Atomic Wigner-Seitz radii
   RWIGS  =  -1.00 -1.00 -1.00 -1.00 -1.00 -1.00 -1.00
  virtual crystal weights 
   VCA    =   1.00  1.00  1.00  1.00  1.00  1.00  1.00
   NELECT =     511.0000    total number of electrons
   NUPDOWN=      -1.0000    fix difference up-down

 DOS related values:
   EMIN   = -50.00;   EMAX   = 14.00  energy-range for DOS
   EFERMI =   0.00;   METHOD = LEGACY      
   ISMEAR =     0;   SIGMA  =   0.10  broadening in eV -4-tet -1-fermi 0-gaus

 Electronic relaxation 2 (details)
   IALGO  =     68    algorithm
   LDIAG  =      T    sub-space diagonalisation (order eigenvalues)
   LSUBROT=      F    optimize rotation matrix (better conditioning)
   TURBO    =      0    0=normal 1=particle mesh
   IRESTART =      0    0=no restart 2=restart with 2 vectors
   NREBOOT  =      0    no. of reboots
   NMIN     =      0    reboot dimension
   EREF     =   0.00    reference energy to select bands
   IMIX   =      4    mixing-type and parameters
     AMIX     =   0.40;   BMIX     =  1.00
     AMIX_MAG =   1.60;   BMIX_MAG =  1.00
     AMIN     =   0.10
     WC   =   100.;   INIMIX=   1;  MIXPRE=   1;  MAXMIX= -45

 Intra band minimization:
   WEIMIN = 0.0000     energy-eigenvalue tresh-hold
   EBREAK =  0.74E-08  absolut break condition
   DEPER  =   0.30     relativ break condition  

   TIME   =   0.40     timestep for ELM

  volume/ion in A,a.u.               =      11.04        74.50
  Fermi-wavevector in a.u.,A,eV,Ry     =   1.469523  2.776997 29.381767  2.159499
  Thomas-Fermi vector in A             =   2.584890
 
 Write flags
   LWAVE        =      F    write WAVECAR
   LDOWNSAMPLE  =      F    k-point downsampling of WAVECAR
   LCHARG       =      T    write CHGCAR
   LVTOT        =      F    write LOCPOT, total local potential
   LVHAR        =      F    write LOCPOT, Hartree potential only
   WRT_POTENTIAL= false  ! write potential to hdf5 file
   LELF         =      F    write electronic localiz. function (ELF)
   LORBIT       =     10    0 simple, 1 ext, 2 COOP (PROOUT), +10 PAW based schemes


 Dipole corrections
   LMONO      =      F    monopole corrections only (constant potential shift)
   LDIPOL     =      F    correct potential (dipole corrections)
   IDIPOL     =      0    1-x, 2-y, 3-z, 4-all directions 
   EPSILON    =  1.0000000 bulk dielectric constant
   LVACPOTAV  =      F  vacuum potentials using an averaging scheme for the charge density
   VACPOTFLAT =  0.1000000 required flatness to determine vacuum potential
 Exchange correlation treatment:
   GGA     = PE    functional components
   XC_C    = 1    coefficients multiplying the functional components
   LIBXC   =     F    Libxc                    
   VOSKOWN =     0    Vosko Wilk Nusair interpolation
   LHFCALC =     F    Hartree Fock is set to
   LHFONE  =     F    Hartree Fock one center treatment
   AEXX    =    0.0000 exact exchange contribution

 Parameters of functionals:
   PE:
     No parameter
 
 Van der Waals corrections
   IVDW    =     0    specifies the selected vdW correction

 Linear response parameters
   LEPSILON=     F    determine dielectric tensor
   LRPA    =     F    only Hartree local field effects (RPA)
   LNABLA  =     F    use nabla operator in PAW spheres
   LVEL    =     F    velocity operator in full k-point grid
   CSHIFT  =0.1000    complex shift for real part using Kramers Kronig
   OMEGAMAX=  -1.0    maximum frequency
   DEG_THRESHOLD= 0.2000000E-02 threshold for treating states as degnerate
   RTIME   =   -0.100 relaxation time in fs
  (WPLASMAI=    0.000 imaginary part of plasma frequency in eV, 0.658/RTIME)
   DFIELD  = 0.0000000 0.0000000 0.0000000 field for delta impulse in time
 
  Optional k-point grid parameters
   LKPOINTS_OPT  =     F    use optional k-point grid
   KPOINTS_OPT_MODE=     1    mode for optional k-point grid
 
 Orbital magnetization related:
   ORBITALMAG=     F  switch on orbital magnetization
   LCHIMAG   =     F  perturbation theory with respect to B field
   DQ        =  0.001000  dq finite difference perturbation B field
   LLRAUG    =     F  two centre corrections for induced B field
   LBONE     =     F  B-component reconstruction in AE one-centre
   LVGVCALC  =     T  calculate vGv susceptibility
   LVGVAPPL  =     F  apply vGv susceptibility instead of pGv for G=0

 Random number generation:
   RANDOM_GENERATOR = DEFAULT
   PCG_SEED         = not used


--------------------------------------------------------------------------------------------------------


 Static calculation
 charge density and potential remain constant during run
 non-spin polarized calculation
 RMM-DIIS sequential band-by-band and
  variant of blocked Davidson during initial phase
 perform sub-space diagonalisation
    before iterative eigenvector-optimisation
 no mixing
 using additional bands           80
 reciprocal scheme for non local part
 use partial core corrections
 calculate Harris-corrections to forces 
   (improved forces if not selfconsistent)
 use gradient corrections 
 WARNING: stress and forces are not correct
  (second derivative of E(xc) not defined)
 use of overlap-Matrix (Vanderbilt PP)
 Gauss-broadening in eV      SIGMA  =   0.10


--------------------------------------------------------------------------------------------------------


  energy-cutoff  :      400.00
  volume of cell :      706.51
      direct lattice vectors                 reciprocal lattice vectors
     8.875897747  0.005862788  0.019570947     0.112665256 -0.000075112 -0.000247961
     0.005929797  8.940412665 -0.013914141    -0.000074264  0.111851980  0.000173662
     0.019585662 -0.013810297  8.903266797    -0.000247774  0.000174969  0.112319140

  length of vectors
     8.875921260  8.940425459  8.903299050     0.112665554  0.111852139  0.112319550


 
 old parameters found on file WAVECAR:
  energy-cutoff  :      400.00
  volume of cell :      706.51
      direct lattice vectors                 reciprocal lattice vectors
     8.875897747  0.005862788  0.019570947     0.112665256 -0.000075112 -0.000247961
     0.005929797  8.940412665 -0.013914141    -0.000074264  0.111851980  0.000173662
     0.019585662 -0.013810297  8.903266797    -0.000247774  0.000174969  0.112319140

  length of vectors

 
 k-points in units of 2pi/SCALE and weight: read from INCAR                         
   0.00000000  0.00000000  0.00000000       0.125
   0.05633263 -0.00003756 -0.00012398       0.125
  -0.00003713  0.05592599  0.00008683       0.125
   0.05629550  0.05588843 -0.00003715       0.125
  -0.00012389  0.00008748  0.05615957       0.125
   0.05620874  0.00004993  0.05603559       0.125
  -0.00016102  0.05601347  0.05624640       0.125
   0.05617161  0.05597592  0.05612242       0.125
 
 k-points in reciprocal lattice and weights: read from INCAR                         
   0.00000000  0.00000000  0.00000000       0.125
   0.50000000 -0.00000000  0.00000000       0.125
  -0.00000000  0.50000000  0.00000000       0.125
   0.50000000  0.50000000 -0.00000000       0.125
  -0.00000000  0.00000000  0.50000000       0.125
   0.50000000 -0.00000000  0.50000000       0.125
  -0.00000000  0.50000000  0.50000000       0.125
   0.50000000  0.50000000  0.50000000       0.125
 
 position of ions in fractional coordinates (direct lattice) 
   0.00380533  0.98412083  0.00512345
   0.24763126  0.99255941  0.25507024
   0.25551884  0.50796858  0.24753514
   0.49858698  0.48637735  0.99577996
   0.49146963  0.24557171  0.75557620
   0.00025444  0.49907222  0.50945107
   0.50183115  0.75033823  0.74244641
   0.00018191  0.24430350  0.26058276
   0.74951505  0.74830060  0.00291315
   0.00670393  0.24934482  0.74002979
   0.75508486  0.26163371  0.50519582
   0.99848288  0.74800216  0.75211734
   0.25367009  0.49713632  0.75257187
   0.24517754  0.24658744  0.00028915
   0.49857691  0.25318358  0.24722396
   0.75002928  0.99458111  0.25345828
   0.75424053  0.25179540  0.99332661
   0.25975056  0.75456722  0.99935644
   0.25116226  0.25053840  0.49879467
   0.24605971  0.74791459  0.50158877
   0.24878313  0.24930785  0.24862201
   0.25620351  0.00121863  0.99976265
   0.00049901  0.24932571  0.00004518
   0.74936931  0.24725324  0.25128857
   0.75713261  0.99986197  0.00611124
   0.49729148  0.99826948  0.23929736
   0.00186092  0.49135196  0.24537049
   0.50625556  0.75813265  0.00079750
   0.99214190  0.00255671  0.75525056
   0.75007438  0.24443124  0.74675911
   0.74022415  0.00544813  0.50620020
   0.50552216  0.24265176  0.50108381
   0.49899196  0.00235549  0.73339081
   0.00318237  0.00099403  0.24688638
   0.50068354  0.25462045  0.99569095
   0.25407106  0.74919329  0.24977021
   0.24894646  0.50198837  0.00381325
   0.00221231  0.75370087  0.99878621
   0.74801421  0.74817558  0.24937611
   0.75058345  0.50330170  0.00171859
   0.49612972  0.50375996  0.24726717
   0.25413715  0.25139366  0.75010935
   0.24800464  0.99843640  0.49581760
   0.99959071  0.25408335  0.50054619
   0.25161084  0.75316801  0.75093922
   0.24814620  0.49918076  0.49663013
   0.99639718  0.74742762  0.50323981
   0.00049453  0.49939071  0.75074848
   0.74579887  0.75313071  0.75244682
   0.75487339  0.49865952  0.49989925
   0.49956940  0.74958891  0.50628439
   0.49938626  0.50053395  0.75152607
   0.51019703  0.01684735  0.98465434
   0.00348617  0.51852421  0.99198013
   0.49985343  0.74318475  0.26476096
   0.24656381  0.00578288  0.74310364
   0.48024149  0.98400146  0.49337858
   0.73286609  0.98371752  0.76967571
   0.00167721  0.75373305  0.24920699
   0.74230688  0.50623454  0.25073773
   0.00905481  0.00183932  0.49730883
   0.50045643  0.50860803  0.50285520
   0.74573200  0.51303834  0.75174613
   0.75195980  0.73770052  0.49668943
 
 position of ions in cartesian coordinates  (Angst):
   0.03971171  8.79839792  0.03199671
   2.20883114  8.87181996  2.26199418
   2.27581937  4.53952825  2.20180420
   4.44779418  4.33758531  8.86868497
   4.37848886  2.18795904  6.73329812
   0.01519574  4.45487739  4.52883961
   4.47319263  6.70102210  6.60957949
   0.00816699  2.18057645  2.31664211
   6.65711330  6.69447016  0.03019332
   0.07547598  2.21906487  6.58534443
   6.71350208  2.33656335  4.50903045
   8.88159818  6.68291491  6.70543479
   2.26923729  4.43569781  6.69839546
   2.17763867  2.20602689  0.00394167
   4.43166108  2.26307452  2.20733567
   6.66804501  8.89286246  2.25744670
   6.71550985  2.24185856  8.85510952
   2.32956690  6.73386374  8.89212145
   2.24054540  2.23450066  4.44233152
   2.19825978  6.68118057  4.46018767
   2.21452136  2.22694005  2.21494811
   2.29362440 -0.00140989  8.90615082
   0.00590851  2.22907703 -0.00305714
   6.65771318  2.21146903  2.24851471
   6.72628030  8.94353314  0.05531556
   4.42451464  8.92455184  2.12637062
   0.02423673  4.38951153  2.17779860
   4.49798377  6.78097581  0.00645946
   8.82095733  0.01824451  6.74357877
   6.67365868  2.17940070  6.65987423
   6.58010047  0.04605751  4.52124650
   4.49821590  2.16545048  4.46780012
   4.44337949  0.01385618  6.53930702
   0.03308772  0.00549613  2.19814378
   4.46502706  2.26559652  8.87115816
   2.26444320  6.69613738  2.21831881
   2.21267474  4.48939002  0.03183773
   0.04366746  6.72461624  8.88201627
   6.64861833  6.68993991  2.22449121
   6.66512011  4.50410164  0.02298771
   4.41142679  4.50331580  2.20418592
   2.27187749  2.23869376  6.67989946
   2.21689525  8.92104004  4.40535769
   8.88357513  2.27055771  4.47252384
   2.25244587  6.72473725  6.68025680
   2.21520717  4.45747817  4.41954130
   8.85820787  6.68120313  4.48957893
   0.02205459  4.45439390  6.67717507
   6.63883755  6.72728027  6.70335161
   6.71292685  4.45574383  4.45857154
   4.44848772  6.69757109  4.50693219
   4.45018860  4.46752910  6.69384608
   4.54784166  0.14001505  8.77639093
   0.05344624  4.62214135  8.82471715
   4.44624036  6.64365250  2.35667927
   2.20306364  0.04288442  6.62079495
   4.27807241  8.79338096  4.38838838
   6.52575237  8.78850773  6.85328347
   0.02423715  6.73525271  2.20830161
   6.59655268  4.52683495  2.23986873
   0.09012060  0.00962939  4.42782480
   4.45486477  4.54315516  4.47977154
   6.63680664  4.58076469  6.70045257
   6.68842072  6.59289619  4.42661058
 


--------------------------------------------------------------------------------------------------------


 k-point     1 :   0.0000 0.0000 0.0000  plane waves:   12923
 k-point     2 :   0.5000-0.0000 0.0000  plane waves:   12838
 k-point     3 :  -0.0000 0.5000 0.0000  plane waves:   12834
 k-point     4 :   0.5000 0.5000-0.0000  plane waves:   12778
 k-point     5 :  -0.0000 0.0000 0.5000  plane waves:   12832
 k-point     6 :   0.5000-0.0000 0.5000  plane waves:   12778
 k-point     7 :  -0.0000 0.5000 0.5000  plane waves:   12778
 k-point     8 :   0.5000 0.5000 0.5000  plane waves:   12804

 maximum and minimum number of plane-waves per node :     12923    12778

 maximum number of plane-waves:     12923
 maximum index in each direction: 
   IXMAX=   14   IYMAX=   14   IZMAX=   14
   IXMIN=  -14   IYMIN=  -15   IZMIN=  -15


 serial   3D FFT for wavefunctions
 parallel 3D FFT for charge:
    minimum data exchange during FFTs selected (reduces bandwidth)


 total amount of memory used by VASP MPI-rank0   179456. kBytes
=======================================================================

   base      :      30000. kBytes
   nonl-proj :     117562. kBytes
   fftplans  :       1680. kBytes
   grid      :       8060. kBytes
   one-center:        995. kBytes
   wavefun   :      21159. kBytes
 
     INWAV:  cpu time     11.8845: real time     13.3319
 initial charge density was supplied:
 number of electron     510.9999924 magnetization 
 keeping initial charge density in first step


--------------------------------------------------------------------------------------------------------


 Maximum index for augmentation-charges          568 (set IRDMAX)


--------------------------------------------------------------------------------------------------------


 First call to EWALD:  gamma=   0.199
 Maximum number of real-space cells 3x 3x 3
 Maximum number of reciprocal cells 3x 3x 3

    FEWALD:  cpu time      0.0643: real time      0.0652


--------------------------------------- Ionic step        1  -------------------------------------------




--------------------------------------- Iteration      1(   1)  ---------------------------------------


    POTLOK:  cpu time      0.5209: real time      0.8542
    SETDIJ:  cpu time      0.0873: real time      0.3165
     EDDAV:  cpu time     64.2120: real time     68.7177
       DOS:  cpu time      0.1908: real time      0.3061
    --------------------------------------------
      LOOP:  cpu time     65.0112: real time     70.1947

 eigenvalue-minimisations  :  6524
 total energy-change (2. order) :-0.6203001E+03  (-0.1574327E+03)
 number of electron     510.9999924 magnetization 
 augmentation part      510.9999924 magnetization 

 Free energy of the ion-electron system (eV)
  ---------------------------------------------------
  alpha Z        PSCENC =      4403.81808942
  Ewald energy   TEWEN  =    -42099.13855499
  -Hartree energ DENC   =     -6511.41421106
  -exchange      EXHF   =         0.00000000
  -V(xc)+E(xc)   XCENC  =      1803.36331925
  PAW double counting   =     29688.30378378   -29257.26828090
  entropy T*S    EENTRO =        -0.10335104
  eigenvalues    EBANDS =     -5177.21792685
  atomic energy  EATOM  =     46529.35698601
  Solvation  Ediel_sol  =         0.00000000
  ---------------------------------------------------
  free energy    TOTEN  =      -620.30014638 eV

  energy without entropy =     -620.19679534  energy(sigma->0) =     -620.24847086


--------------------------------------------------------------------------------------------------------




--------------------------------------- Iteration      1(   2)  ---------------------------------------


    EDDIAG:  cpu time      7.7130: real time      7.9207
  RMM-DIIS:  cpu time     13.9160: real time     14.6339
    ORTHCH:  cpu time      1.6327: real time      1.8052
       DOS:  cpu time      0.0447: real time      0.0447
    --------------------------------------------
      LOOP:  cpu time     23.3064: real time     24.4044

 eigenvalue-minimisations  :  9383
 total energy-change (2. order) :-0.3401130E+02  (-0.3382011E+02)
 number of electron     510.9999924 magnetization 
 augmentation part      510.9999924 magnetization 

 Free energy of the ion-electron system (eV)
  ---------------------------------------------------
  alpha Z        PSCENC =      4403.81808942
  Ewald energy   TEWEN  =    -42099.13855499
  -Hartree energ DENC   =     -6511.41421106
  -exchange      EXHF   =         0.00000000
  -V(xc)+E(xc)   XCENC  =      1803.36331925
  PAW double counting   =     29688.30378378   -29257.26828090
  entropy T*S    EENTRO =        -0.08557924
  eigenvalues    EBANDS =     -5211.24699881
  atomic energy  EATOM  =     46529.35698601
  Solvation  Ediel_sol  =         0.00000000
  ---------------------------------------------------
  free energy    TOTEN  =      -654.31144655 eV

  energy without entropy =     -654.22586731  energy(sigma->0) =     -654.26865693


--------------------------------------------------------------------------------------------------------




--------------------------------------- Iteration      1(   3)  ---------------------------------------


    EDDIAG:  cpu time      6.6975: real time      6.8110
  RMM-DIIS:  cpu time     13.6123: real time     15.3032
    ORTHCH:  cpu time      1.6126: real time      1.6566
       DOS:  cpu time      0.0119: real time      0.0119
    --------------------------------------------
      LOOP:  cpu time     21.9343: real time     23.7828

 eigenvalue-minimisations  :  9708
 total energy-change (2. order) :-0.9104241E+01  (-0.8238668E+01)
 number of electron     510.9999924 magnetization 
 augmentation part      510.9999924 magnetization 

 Free energy of the ion-electron system (eV)
  ---------------------------------------------------
  alpha Z        PSCENC =      4403.81808942
  Ewald energy   TEWEN  =    -42099.13855499
  -Hartree energ DENC   =     -6511.41421106
  -exchange      EXHF   =         0.00000000
  -V(xc)+E(xc)   XCENC  =      1803.36331925
  PAW double counting   =     29688.30378378   -29257.26828090
  entropy T*S    EENTRO =        -0.07872125
  eigenvalues    EBANDS =     -5220.35809760
  atomic energy  EATOM  =     46529.35698601
  Solvation  Ediel_sol  =         0.00000000
  ---------------------------------------------------
  free energy    TOTEN  =      -663.41568734 eV

  energy without entropy =     -663.33696610  energy(sigma->0) =     -663.37632672


--------------------------------------------------------------------------------------------------------




--------------------------------------- Iteration      1(   4)  ---------------------------------------


    EDDIAG:  cpu time      6.6672: real time      7.3890
  RMM-DIIS:  cpu time     14.6791: real time     14.8753
    ORTHCH:  cpu time      1.5883: real time      1.5885
       DOS:  cpu time      0.0045: real time      0.0045
    --------------------------------------------
      LOOP:  cpu time     22.9391: real time     23.8574

 eigenvalue-minimisations  :  9731
 total energy-change (2. order) :-0.2693976E+01  (-0.2563511E+01)
 number of electron     510.9999924 magnetization 
 augmentation part      510.9999924 magnetization 

 Free energy of the ion-electron system (eV)
  ---------------------------------------------------
  alpha Z        PSCENC =      4403.81808942
  Ewald energy   TEWEN  =    -42099.13855499
  -Hartree energ DENC   =     -6511.41421106
  -exchange      EXHF   =         0.00000000
  -V(xc)+E(xc)   XCENC  =      1803.36331925
  PAW double counting   =     29688.30378378   -29257.26828090
  entropy T*S    EENTRO =        -0.07175413
  eigenvalues    EBANDS =     -5223.05904087
  atomic energy  EATOM  =     46529.35698601
  Solvation  Ediel_sol  =         0.00000000
  ---------------------------------------------------
  free energy    TOTEN  =      -666.10966349 eV

  energy without entropy =     -666.03790937  energy(sigma->0) =     -666.07378643


--------------------------------------------------------------------------------------------------------




--------------------------------------- Iteration      1(   5)  ---------------------------------------


    EDDIAG:  cpu time      6.9173: real time      6.9314
  RMM-DIIS:  cpu time     14.7815: real time     14.9941
    ORTHCH:  cpu time      1.2279: real time      1.2469
       DOS:  cpu time      0.0194: real time      0.0194
    --------------------------------------------
      LOOP:  cpu time     22.9461: real time     23.1920

 eigenvalue-minimisations  :  9793
 total energy-change (2. order) :-0.1494969E+01  (-0.1450780E+01)
 number of electron     510.9999924 magnetization 
 augmentation part      510.9999924 magnetization 

 Free energy of the ion-electron system (eV)
  ---------------------------------------------------
  alpha Z        PSCENC =      4403.81808942
  Ewald energy   TEWEN  =    -42099.13855499
  -Hartree energ DENC   =     -6511.41421106
  -exchange      EXHF   =         0.00000000
  -V(xc)+E(xc)   XCENC  =      1803.36331925
  PAW double counting   =     29688.30378378   -29257.26828090
  entropy T*S    EENTRO =        -0.06850064
  eigenvalues    EBANDS =     -5224.55726360
  atomic energy  EATOM  =     46529.35698601
  Solvation  Ediel_sol  =         0.00000000
  ---------------------------------------------------
  free energy    TOTEN  =      -667.60463273 eV

  energy without entropy =     -667.53613210  energy(sigma->0) =     -667.57038242


--------------------------------------------------------------------------------------------------------




--------------------------------------- Iteration      1(   6)  ---------------------------------------


    EDDIAG:  cpu time      6.3339: real time      6.4095
  RMM-DIIS:  cpu time     13.8970: real time     15.5113
    ORTHCH:  cpu time      1.0355: real time      1.1388
       DOS:  cpu time      0.0045: real time      0.0045
    --------------------------------------------
      LOOP:  cpu time     21.2708: real time     23.0640

 eigenvalue-minimisations  :  9978
 total energy-change (2. order) :-0.8762370E+00  (-0.8674719E+00)
 number of electron     510.9999924 magnetization 
 augmentation part      510.9999924 magnetization 

 Free energy of the ion-electron system (eV)
  ---------------------------------------------------
  alpha Z        PSCENC =      4403.81808942
  Ewald energy   TEWEN  =    -42099.13855499
  -Hartree energ DENC   =     -6511.41421106
  -exchange      EXHF   =         0.00000000
  -V(xc)+E(xc)   XCENC  =      1803.36331925
  PAW double counting   =     29688.30378378   -29257.26828090
  entropy T*S    EENTRO =        -0.06739859
  eigenvalues    EBANDS =     -5225.43460269
  atomic energy  EATOM  =     46529.35698601
  Solvation  Ediel_sol  =         0.00000000
  ---------------------------------------------------
  free energy    TOTEN  =      -668.48086978 eV

  energy without entropy =     -668.41347118  energy(sigma->0) =     -668.44717048


--------------------------------------------------------------------------------------------------------




--------------------------------------- Iteration      1(   7)  ---------------------------------------


    EDDIAG:  cpu time      4.4567: real time      4.9357
  RMM-DIIS:  cpu time     15.4469: real time     15.5094
    ORTHCH:  cpu time      1.7222: real time      1.7289
       DOS:  cpu time      0.0168: real time      0.0168
    --------------------------------------------
      LOOP:  cpu time     21.6426: real time     22.1908

 eigenvalue-minimisations  :  9979
[...]
  in kB     -32.34685   -27.27864   -32.92100    -0.52432     1.97444     1.33842
  external pressure =      -30.85 kB  Pullay stress =        0.00 kB


 VOLUME and BASIS-vectors are now :
 -----------------------------------------------------------------------------
  energy-cutoff  :      400.00
  volume of cell :      706.51
      direct lattice vectors                 reciprocal lattice vectors
     8.875897747  0.005862788  0.019570947     0.112665256 -0.000075112 -0.000247961
     0.005929797  8.940412665 -0.013914141    -0.000074264  0.111851980  0.000173662
     0.019585662 -0.013810297  8.903266797    -0.000247774  0.000174969  0.112319140

  length of vectors
     8.875921260  8.940425459  8.903299050     0.112665554  0.111852139  0.112319550


 FORCES acting on ions
    electron-ion (+dipol)            ewald-force                    non-local-force                 convergence-correction
 -----------------------------------------------------------------------------------------------
   -.217E+02 -.921E+02 0.793E+01   0.214E+02 0.913E+02 -.462E+01   -.191E+00 0.158E+01 -.134E+01   0.534E+00 -.524E+00 -.185E+01
   -.201E+02 -.557E+02 0.493E+02   0.190E+02 0.541E+02 -.478E+02   0.114E+01 0.149E+01 -.502E+00   -.746E-02 0.541E-01 -.106E+01
   0.260E+02 0.638E+02 0.180E+02   -.254E+02 -.628E+02 -.158E+02   -.564E+00 -.130E+01 -.293E-01   -.183E-01 0.221E+00 -.205E+01
   0.404E+02 -.953E+01 -.273E+02   -.405E+02 0.760E+01 0.265E+02   0.606E+00 0.192E+01 0.505E+00   -.332E+00 0.106E+00 0.264E+00
   0.933E+01 -.599E+02 0.220E+02   -.910E+01 0.672E+02 -.225E+02   0.129E+01 -.148E+01 -.923E+00   -.125E+01 -.545E+01 0.139E+01
   -.880E+02 0.299E+02 0.965E+01   0.896E+02 -.290E+02 -.920E+01   -.949E+00 -.541E+00 -.631E+00   -.471E+00 -.262E+00 0.270E+00
   0.103E+03 0.324E+02 -.745E+02   -.105E+03 -.400E+02 0.730E+02   0.546E+00 0.208E+01 0.563E+00   0.576E+00 0.521E+01 0.105E+01
   0.855E+01 -.834E+01 0.576E+02   -.862E+01 0.109E+02 -.548E+02   -.817E+00 0.508E+00 -.123E+01   0.724E+00 -.295E+01 -.166E+01
   -.514E+01 0.118E+02 -.290E+02   0.391E+01 -.173E+02 0.305E+02   0.280E+00 0.169E+01 -.298E+00   0.740E+00 0.349E+01 -.111E+01
   -.104E+02 -.220E+02 -.588E+02   0.105E+02 0.277E+02 0.557E+02   -.123E+01 -.815E+00 0.140E+01   0.957E+00 -.450E+01 0.176E+01
   0.811E+01 0.701E+02 0.369E+02   -.750E+01 -.659E+02 -.367E+02   -.244E+00 -.927E+00 -.950E+00   -.214E+00 -.330E+01 0.693E+00
   -.743E+02 -.141E+01 0.645E+00   0.758E+02 -.416E+01 -.453E+01   -.818E+00 0.124E+01 0.617E+00   -.409E+00 0.424E+01 0.282E+01
   0.409E+02 -.522E+01 -.160E+02   -.394E+02 0.574E+01 0.138E+02   -.109E+01 -.989E-01 0.183E+00   -.348E+00 -.286E+00 0.195E+01
   0.229E+02 -.399E+02 -.124E+02   -.218E+02 0.443E+02 0.128E+02   -.571E+00 -.114E+01 0.442E+00   -.482E+00 -.326E+01 -.825E+00
   -.255E+01 0.216E+02 0.621E+01   0.272E+01 -.172E+02 -.621E+01   0.458E+00 -.178E+01 0.122E+01   -.599E+00 -.257E+01 -.113E+01
   0.101E+02 -.671E+02 -.710E+01   -.893E+01 0.664E+02 0.876E+01   -.129E+01 0.126E+01 -.106E+00   0.296E-01 -.528E+00 -.134E+01
   -.358E+02 -.203E+02 -.489E+02   0.348E+02 0.252E+02 0.491E+02   0.625E+00 -.173E+01 0.540E+00   0.404E+00 -.301E+01 -.611E+00
   0.305E+01 0.349E+02 0.253E+02   -.234E+01 -.394E+02 -.246E+02   0.905E-02 0.103E+01 0.479E-02   -.618E+00 0.337E+01 -.618E+00
   -.427E+01 -.356E+02 0.872E+01   0.302E+01 0.412E+02 -.892E+01   0.895E+00 -.133E+01 -.577E+00   0.196E+00 -.404E+01 0.775E+00
   0.404E+02 0.358E+02 -.322E+02   -.423E+02 -.414E+02 0.315E+02   0.834E+00 0.121E+01 -.647E-01   0.915E+00 0.411E+01 0.587E+00
   -.934E+01 -.111E+02 0.103E+02   0.106E+02 0.133E+02 -.966E+01   -.119E+01 -.499E+00 -.684E-01   -.501E-01 -.159E+01 -.592E+00
   -.427E+01 -.860E+01 -.143E+00   0.276E+01 0.840E+01 0.421E+01   0.175E+01 0.352E+00 -.304E+01   -.277E+00 -.161E+00 -.106E+01
   0.102E+01 -.157E+02 -.436E+01   -.182E+01 0.158E+02 0.492E+01   0.429E+00 0.149E+01 -.137E+00   0.389E+00 -.152E+01 -.389E+00
   0.784E+01 0.292E+02 0.215E+02   -.915E+01 -.280E+02 -.224E+02   0.138E+01 0.301E-01 0.136E+01   0.553E-01 -.113E+01 -.565E+00
   -.141E+02 -.377E+02 -.540E+02   0.178E+02 0.392E+02 0.591E+02   -.399E+01 -.111E+01 -.383E+01   0.251E+00 -.502E+00 -.117E+01
   -.264E+02 -.373E+02 0.188E+02   0.253E+02 0.378E+02 -.201E+02   0.144E+01 -.305E+00 0.158E+01   -.368E+00 -.328E+00 -.424E+00
   -.131E+02 0.336E+02 0.127E+02   0.145E+02 -.333E+02 -.853E+01   -.118E+01 -.223E+00 -.263E+01   -.105E+00 -.344E-01 -.142E+01
   0.310E+02 0.103E+02 -.210E+02   -.319E+02 -.144E+02 0.199E+02   0.928E+00 0.225E+01 0.143E+01   -.529E-01 0.178E+01 -.238E+00
   0.820E+01 -.120E+02 -.209E+01   -.106E+02 0.124E+02 0.209E+01   0.193E+01 -.421E+00 -.111E+01   0.497E+00 0.112E+00 0.105E+01
   -.256E+02 0.516E+01 -.130E+02   0.236E+02 -.232E+01 0.131E+02   0.169E+01 -.499E+00 -.716E+00   0.303E+00 -.222E+01 0.595E+00
   -.796E+01 -.341E+02 0.125E+02   0.898E+01 0.346E+02 -.130E+02   -.643E+00 -.286E+00 -.332E+00   -.367E+00 -.337E+00 0.885E+00
   0.604E+01 0.745E+01 0.331E+02   -.579E+01 -.504E+01 -.320E+02   -.406E-01 -.325E+00 -.127E+01   -.354E+00 -.202E+01 0.174E+00
   0.261E+02 -.887E+01 0.724E+01   -.260E+02 0.100E+02 -.926E+01   0.273E+00 -.889E+00 0.127E+01   -.334E+00 -.283E+00 0.684E+00
   0.274E+02 -.333E+02 0.656E+01   -.274E+02 0.332E+02 -.661E+01   -.286E+00 0.275E+00 0.905E+00   0.347E+00 -.645E-01 -.832E+00
   0.481E+01 0.780E+00 -.447E+02   -.484E+01 0.330E+01 0.446E+02   0.189E+00 -.271E+01 0.134E+00   -.219E+00 -.141E+01 -.104E+00
   0.275E+00 0.406E+01 0.135E+02   -.165E+01 -.576E+01 -.129E+02   0.120E+01 0.228E+00 -.888E-01   0.197E+00 0.136E+01 -.550E+00
   0.652E+01 0.105E+02 0.145E+02   -.417E+01 -.104E+02 -.132E+02   -.193E+01 0.102E-01 -.120E+01   -.416E+00 0.205E-01 -.794E-01
   -.237E+02 0.124E+02 0.149E+02   0.246E+02 -.118E+02 -.140E+02   -.873E+00 -.215E+01 -.481E+00   0.859E-02 0.133E+01 -.312E+00
   -.573E+00 -.383E+02 0.260E+02   0.186E+01 0.378E+02 -.253E+02   -.112E+01 -.428E+00 -.211E+00   -.188E+00 0.872E+00 -.420E+00
   -.116E+02 0.345E+02 -.655E+01   0.938E+01 -.356E+02 0.662E+01   0.187E+01 0.910E+00 -.494E-01   0.380E+00 0.290E+00 -.233E-01
   0.139E+02 0.422E+02 0.198E+02   -.150E+02 -.439E+02 -.204E+02   0.101E+01 0.145E+01 0.113E+01   0.920E-01 0.306E+00 -.487E+00
   0.292E+02 -.209E+02 -.592E+01   -.276E+02 0.242E+02 0.537E+01   -.135E+01 -.118E+01 0.941E-01   -.285E+00 -.213E+01 0.445E+00
   0.497E+01 -.148E+02 -.820E+01   -.674E+01 0.146E+02 0.560E+01   0.156E+01 0.263E+00 0.190E+01   0.233E+00 0.382E-01 0.779E+00
   -.121E+02 0.192E+01 0.395E+01   0.130E+02 0.779E+00 -.427E+01   -.105E+01 -.106E+01 -.458E-01   0.288E+00 -.165E+01 0.339E+00
   0.211E+02 0.169E+02 -.113E+02   -.201E+02 -.199E+02 0.106E+02   -.101E+01 0.789E+00 0.225E+00   0.949E-02 0.208E+01 0.562E+00
   0.986E+01 0.145E+02 -.124E+02   -.112E+02 -.142E+02 0.113E+02   0.110E+01 -.117E+00 0.115E+01   0.294E+00 -.601E-01 -.858E-02
   -.335E+02 -.554E+01 -.147E+02   0.342E+02 0.309E+01 0.140E+02   -.568E+00 0.890E+00 0.403E+00   -.786E-01 0.152E+01 0.289E+00
   -.283E+02 0.201E+02 -.158E+02   0.282E+02 -.202E+02 0.125E+02   0.247E+00 0.330E+00 0.203E+01   -.116E+00 -.686E-01 0.122E+01
   -.319E+02 -.495E+01 -.965E+01   0.310E+02 0.182E+01 0.832E+01   0.942E+00 0.133E+01 0.764E+00   -.263E-01 0.176E+01 0.568E+00
   -.842E+01 0.417E+02 0.327E+01   0.978E+01 -.417E+02 -.326E+01   -.115E+01 -.443E+00 -.164E-01   -.251E+00 0.381E+00 -.750E-02
   0.285E+02 -.922E+01 0.509E+01   -.291E+02 0.613E+01 -.267E+01   0.316E+00 0.132E+01 -.242E+01   0.883E-01 0.165E+01 -.472E-02
   0.313E+02 0.163E+02 -.130E+02   -.311E+02 -.165E+02 0.135E+02   -.283E+00 -.462E-01 -.975E+00   0.551E-01 0.221E+00 0.529E+00
   0.523E+02 -.889E+01 -.110E+03   -.523E+02 0.115E+02 0.113E+03   0.620E+00 -.187E+01 -.632E+00   -.450E+00 -.856E+00 -.183E+01
   -.384E+02 0.985E+02 0.223E+01   0.389E+02 -.984E+02 -.253E+01   -.869E+00 -.135E+01 0.234E+00   0.177E+00 0.959E+00 -.136E-01
   0.309E+02 -.430E+02 0.952E+02   -.318E+02 0.380E+02 -.944E+02   0.104E+01 0.170E+01 -.343E+00   -.785E-01 0.327E+01 -.628E+00
   0.482E+02 0.101E+02 -.365E+02   -.485E+02 -.106E+02 0.344E+02   0.457E+00 0.754E-01 0.825E+00   -.149E+00 0.208E+00 0.128E+01
   -.418E+02 -.967E+02 0.623E+02   0.424E+02 0.961E+02 -.636E+02   0.949E+00 0.109E+01 -.367E+00   -.116E+01 -.375E+00 0.152E+01
   -.108E+03 -.783E+02 0.635E+02   0.108E+03 0.775E+02 -.660E+02   0.316E+00 0.163E+01 0.364E+00   -.145E+00 -.559E+00 0.185E+01
   -.283E+02 0.186E+02 0.295E+01   0.283E+02 -.218E+02 0.741E+00   -.160E+00 -.190E+00 -.231E-01   0.136E+00 0.339E+01 -.325E+01
   -.282E+02 0.111E+03 0.732E+02   0.281E+02 -.112E+03 -.722E+02   0.262E-01 -.343E+00 0.926E-01   0.663E-01 0.971E+00 -.137E+01
   0.579E+02 -.252E+02 -.158E+02   -.595E+02 0.242E+02 0.138E+02   -.261E+00 0.105E+00 0.184E+00   0.153E+01 0.590E+00 0.174E+01
   0.921E+02 0.122E+03 0.785E+01   -.928E+02 -.122E+03 -.735E+01   0.151E+00 -.524E+00 -.222E+00   0.414E+00 0.116E+01 -.235E+00
   -.451E+02 0.981E+02 -.643E+02   0.440E+02 -.995E+02 0.630E+02   0.276E+00 -.565E+00 -.493E-01   0.630E+00 0.161E+01 0.152E+01
   -.522E+02 -.103E+03 0.164E+01   0.540E+02 0.992E+02 -.260E+01   -.261E+00 0.251E+00 0.223E+00   -.134E+01 0.339E+01 0.780E+00
 -----------------------------------------------------------------------------------------------
   -.279E+01 -.430E+01 0.498E+01   -.341E-12 0.104E-11 0.121E-12   0.278E+01 0.215E+01 -.513E+01   -.469E-01 0.209E+01 0.144E+00
 
 
 POSITION                                       TOTAL-FORCE (eV/Angst)
 -----------------------------------------------------------------------------------
      0.03971      8.79840      0.03200         0.028003      0.340714      0.120218
      2.20883      8.87182      2.26199         0.055296     -0.020902     -0.044150
      2.27582      4.53953      2.20180         0.004268     -0.019771      0.071908
      4.44779      4.33759      8.86868         0.139300      0.101778     -0.087645
      4.37849      2.18796      6.73330         0.265570      0.376803     -0.024322
      0.01520      4.45488      4.52884         0.171499      0.150563      0.088588
      4.47319      6.70102      6.60958        -0.292195     -0.259889      0.122024
      0.00817      2.18058      2.31664        -0.156358      0.087964     -0.047430
      6.65711      6.69447      0.03019        -0.209531     -0.283903      0.083182
      0.07548      2.21906      6.58534        -0.202184      0.336185      0.035242
      6.71350      2.33656      4.50903         0.157237     -0.018411     -0.105779
      8.88160      6.68291      6.70543         0.261900     -0.089236     -0.444345
      2.26924      4.43570      6.69840        -0.005278      0.132957     -0.144070
      2.17764      2.20603      0.00394         0.105129      0.082445      0.033629
      4.43166      2.26307      2.20734         0.031056      0.046861      0.086251
      6.66805      8.89286      2.25745        -0.040833      0.094379      0.214945
      6.71551      2.24186      8.85511        -0.012257      0.168329      0.058884
      2.32957      6.73386      8.89212         0.100876     -0.078611      0.088011
      2.24055      2.23450      4.44233        -0.157940      0.261246     -0.008547
      2.19826      6.68118      4.46019        -0.143534     -0.286252     -0.100968
      2.21452      2.22694      2.21495        -0.008578      0.096274      0.017485
      2.29362     -0.00141      8.90615        -0.034000     -0.006199     -0.035998
      0.00591      2.22908     -0.00306         0.013843      0.101728      0.027670
      6.65771      2.21147      2.24851         0.122721      0.055253     -0.016432
      6.72628      8.94353      0.05532        -0.024238     -0.043641      0.026636
      4.42451      8.92455      2.12637        -0.088717     -0.054680     -0.092918
      0.02424      4.38951      2.17780         0.077814      0.085043      0.070434
      4.49798      6.78098      0.00646        -0.051461     -0.050943      0.044378
      8.82096      0.01824      6.74358         0.028499      0.004258     -0.056832
      6.67366      2.17940      6.65987        -0.066118      0.115869      0.048779
      6.58010      0.04606      4.52125         0.008254     -0.142907      0.027766
      4.49822      2.16545      4.46780        -0.144228      0.072152     -0.032456
      4.44338      0.01386      6.53931        -0.036132     -0.018789     -0.061727
      0.03309      0.00550      2.19814         0.032572      0.043928      0.028860
      4.46503      2.26560      8.87116        -0.056928     -0.036488     -0.034876
      2.26444      6.69614      2.21832         0.025883     -0.112720      0.008803
      2.21267      4.48939      0.03184         0.017385      0.113455      0.012028
      0.04367      6.72462      8.88202         0.044502     -0.237629      0.050089
      6.64862      6.68994      2.22449        -0.024055     -0.038872      0.016928
      6.66512      4.50410      0.02299         0.065618      0.097344     -0.004128
      4.41143      4.50332      2.20419        -0.037628      0.037867      0.015225
      2.27188      2.23869      6.67990        -0.027517     -0.013588     -0.013016
      2.21690      8.92104      4.40536         0.030838      0.011705      0.078600
      8.88358      2.27056      4.47252         0.108209     -0.010036     -0.027637
      2.25245      6.72474      6.68026        -0.001822     -0.129570      0.027898
      2.21521      4.45748      4.41954         0.018898      0.047700      0.037844
      8.85821      6.68120      4.48958         0.097775     -0.035780     -0.082666
      0.02205      4.45439      6.67718        -0.004313      0.066399     -0.035897
      6.63884      6.72728      6.70335        -0.043031     -0.040153      0.001155
      6.71293      4.45574      4.45857        -0.045158     -0.054234     -0.006696
      4.44849      6.69757      4.50693        -0.144695     -0.117663     -0.003799
      4.45019      4.46753      6.69385         0.018019     -0.031275     -0.001807
      4.54784      0.14002      8.77639         0.111207     -0.110280      0.122118
      0.05345      4.62214      8.82472        -0.157912     -0.349557     -0.081646
      4.44624      6.64365      2.35668        -0.013722     -0.045733     -0.155975
      2.20306      0.04288      6.62079         0.083988     -0.197696      0.030222
      4.27807      8.79338      4.38839         0.351629      0.174798     -0.097708
      6.52575      8.78851      6.85328         0.092115      0.235076     -0.316194
      0.02424      6.73525      2.20830        -0.007360     -0.011601      0.419748
      6.59655      4.52683      2.23987        -0.000910     -0.096552     -0.236673
      0.09012      0.00963      4.42782        -0.348417     -0.308300     -0.002417
      4.45486      4.54316      4.47977        -0.128744     -0.167288      0.042045
      6.63681      4.58076      6.70045        -0.158477     -0.336980      0.202321
      6.68842      6.59290      4.42661         0.204367      0.317055      0.044834
 -----------------------------------------------------------------------------------
    total drift:                               -0.062253     -0.062337     -0.000544


--------------------------------------------------------------------------------------------------------



  FREE ENERGIE OF THE ION-ELECTRON SYSTEM (eV)
  ---------------------------------------------------
  free  energy   TOTEN  =      -671.01237308 eV

  energy  without entropy=     -670.94828261  energy(sigma->0) =     -670.98032785
 


--------------------------------------------------------------------------------------------------------


    POTLOK:  cpu time      0.6312: real time      0.6727


--------------------------------------------------------------------------------------------------------


     LOOP+:  cpu time   1309.8593: real time   1396.2267
    4ORBIT:  cpu time      0.0000: real time      0.0000



 total charge

# of ion       s       p       d       tot
------------------------------------------
    1        2.166   6.205   1.864  10.235
    2        2.167   6.214   1.901  10.283
    3        2.176   6.226   1.907  10.310
    4        2.174   6.223   1.920  10.317
    5        2.169   6.215   1.941  10.325
    6        2.171   6.230   1.955  10.356
    7        2.169   6.221   1.932  10.322
    8        0.299   6.246   2.338   8.883
    9        0.301   6.267   2.371   8.938
   10        0.297   6.245   2.361   8.903
   11        0.304   6.253   2.345   8.902
   12        0.299   6.260   2.383   8.942
   13        0.304   6.269   2.378   8.951
   14        0.319   6.681   1.784   8.783
   15        0.309   6.626   1.737   8.671
   16        0.310   6.633   1.746   8.689
   17        0.310   6.632   1.749   8.691
   18        0.323   6.683   1.781   8.788
   19        0.317   6.680   1.838   8.836
   20        0.329   6.732   1.909   8.970
   21        1.252   2.446   0.000   3.698
   22        1.248   2.414   0.000   3.662
   23        1.250   2.429   0.000   3.679
   24        1.249   2.453   0.000   3.702
   25        1.250   2.450   0.000   3.700
   26        1.243   2.423   0.000   3.667
   27        1.249   2.399   0.000   3.648
   28        1.248   2.412   0.000   3.660
   29        1.242   2.410   0.000   3.651
   30        1.248   2.431   0.000   3.679
   31        1.244   2.390   0.000   3.634
   32        1.247   2.427   0.000   3.675
   33        1.241   2.435   0.000   3.676
   34        0.880   1.568   0.000   2.449
   35        0.886   1.586   0.000   2.472
   36        0.881   1.564   0.000   2.446
   37        0.876   1.555   0.000   2.432
   38        0.882   1.591   0.000   2.473
   39        0.879   1.587   0.000   2.466
   40        0.874   1.557   0.000   2.431
   41        0.881   1.565   0.000   2.446
   42        0.879   1.592   0.000   2.471
   43        0.887   1.591   0.000   2.478
   44        0.883   1.603   0.000   2.485
   45        0.871   1.567   0.000   2.438
   46        0.880   1.556   0.000   2.436
   47        0.880   1.563   0.000   2.443
   48        0.873   1.574   0.000   2.447
   49        0.880   1.579   0.000   2.459
   50        0.887   1.574   0.000   2.461
   51        0.885   1.594   0.000   2.479
   52        0.881   1.545   0.000   2.426
   53        0.329   6.297   3.394  10.020
   54        0.362   6.346   3.365  10.073
   55        0.357   6.352   3.396  10.106
   56        0.331   6.315   3.305   9.951
   57        0.358   6.335   3.378  10.071
   58        0.346   6.315   3.379  10.040
   59        2.112   5.960   2.178  10.250
   60        2.115   5.961   2.195  10.271
   61        2.112   5.954   2.184  10.249
   62        2.115   5.963   2.206  10.284
   63        2.115   5.962   2.202  10.279
   64        2.116   5.963   2.213  10.292
--------------------------------------------------
tot         66.920 262.893  73.533 403.346
 

 total amount of memory used by VASP MPI-rank0   179456. kBytes
=======================================================================

   base      :      30000. kBytes
   nonl-proj :     117562. kBytes
   fftplans  :       1680. kBytes
   grid      :       8060. kBytes
   one-center:        995. kBytes
   wavefun   :      21159. kBytes
 
  
  
 General timing and accounting informations for this job:
 ========================================================
  
                  Total CPU time used (sec):     1343.509
                            User time (sec):     1309.047
                          System time (sec):       34.462
                         Elapsed time (sec):     1436.415
  
                   Maximum memory used (kb):      261124.
                   Average memory used (kb):          N/A
  
                          Minor page faults:       284130
                          Major page faults:           14
                 Voluntary context switches:         1557
