  64  64   0   0
  0.1129557E+02  0.8932500E-09  0.9055600E-09  0.8937200E-09  0.5000000E-15
  1.000000000000000E-004
  CAR 
 HECN                                    
     12.94413815    -44.29430723  301      7.42646670      1.00000000
    -44.294  0.0000E+00  0.0000E+00
    -44.104  0.0000E+00  0.0000E+00
    -43.913  0.0000E+00  0.0000E+00
    -43.722  0.0000E+00  0.0000E+00
    -43.531  0.0000E+00  0.0000E+00
    -43.340  0.0000E+00  0.0000E+00
    -43.150  0.0000E+00  0.0000E+00
    -42.959  0.0000E+00  0.0000E+00
    -42.768  0.0000E+00  0.0000E+00
    -42.577  0.0000E+00  0.0000E+00
    -42.386  0.0000E+00  0.0000E+00
    -42.196  0.6077E-13  0.1159E-13
    -42.005  0.5798E-06  0.1106E-06
    -41.814  0.6251E-02  0.1193E-02
    -41.623  0.2042E+00  0.4016E-01
    -41.432  0.1037E+00  0.5995E-01
    -41.242  0.7743E-01  0.7473E-01
    -41.051  0.2251E+00  0.1177E+00
    -40.860  0.3280E-01  0.1239E+00
    -40.669  0.8083E-01  0.1393E+00
    -40.478  0.3421E-02  0.1400E+00
    -40.288  0.2925E-06  0.1400E+00
    -40.097  0.2353E-13  0.1400E+00
    -39.906  0.0000E+00  0.1400E+00
    -39.715  0.0000E+00  0.1400E+00
    -39.524  0.0000E+00  0.1400E+00
    -39.334  0.0000E+00  0.1400E+00
    -39.143  0.0000E+00  0.1400E+00
    -38.952  0.0000E+00  0.1400E+00
    -38.761  0.0000E+00  0.1400E+00
    -38.570  0.0000E+00  0.1400E+00
    -38.380  0.0000E+00  0.1400E+00
    -38.189  0.0000E+00  0.1400E+00
    -37.998  0.0000E+00  0.1400E+00
    -37.807  0.0000E+00  0.1400E+00
    -37.616  0.0000E+00  0.1400E+00
    -37.426  0.0000E+00  0.1400E+00
    -37.235  0.0000E+00  0.1400E+00
    -37.044  0.0000E+00  0.1400E+00
    -36.853  0.3520E-11  0.1400E+00
    -36.663  0.6754E-05  0.1400E+00
    -36.472  0.1358E-01  0.1426E+00
    -36.281  0.1298E+00  0.1674E+00
    -36.090  0.6616E+00  0.2936E+00
    -35.899  0.8944E+00  0.4642E+00
    -35.709  0.1845E+00  0.4994E+00
    -35.518  0.2932E-02  0.5000E+00
    -35.327  0.1877E-06  0.5000E+00
    -35.136  0.1179E-13  0.5000E+00
    -34.945  0.0000E+00  0.5000E+00
    -34.755  0.0000E+00  0.5000E+00
    -34.564  0.0000E+00  0.5000E+00
    -34.373  0.0000E+00  0.5000E+00
    -34.182  0.0000E+00  0.5000E+00
    -33.991  0.0000E+00  0.5000E+00
    -33.801  0.0000E+00  0.5000E+00
    -33.610  0.0000E+00  0.5000E+00
    -33.419  0.0000E+00  0.5000E+00
    -33.228  0.0000E+00  0.5000E+00
    -33.037  0.0000E+00  0.5000E+00
    -32.847  0.0000E+00  0.5000E+00
    -32.656  0.0000E+00  0.5000E+00
    -32.465  0.0000E+00  0.5000E+00
    -32.274  0.0000E+00  0.5000E+00
    -32.083  0.0000E+00  0.5000E+00
    -31.893  0.0000E+00  0.5000E+00
    -31.702  0.0000E+00  0.5000E+00
    -31.511  0.0000E+00  0.5000E+00
    -31.320  0.0000E+00  0.5000E+00
    -31.129  0.0000E+00  0.5000E+00
    -30.939  0.0000E+00  0.5000E+00
    -30.748  0.0000E+00  0.5000E+00
    -30.557  0.0000E+00  0.5000E+00
    -30.366  0.0000E+00  0.5000E+00
    -30.175  0.0000E+00  0.5000E+00
    -29.985  0.0000E+00  0.5000E+00
    -29.794  0.0000E+00  0.5000E+00
    -29.603  0.0000E+00  0.5000E+00
    -29.412  0.0000E+00  0.5000E+00
    -29.222  0.0000E+00  0.5000E+00
    -29.031  0.0000E+00  0.5000E+00
    -28.840  0.5737E-15  0.5000E+00
    -28.649  0.2612E-07  0.5000E+00
    -28.458  0.1152E-02  0.5002E+00
    -28.268  0.1214E+00  0.5234E+00
    -28.077  0.2793E+00  0.5767E+00
    -27.886  0.4868E+00  0.6696E+00
    -27.695  0.4710E+00  0.7594E+00
    -27.504  0.3980E+00  0.8354E+00
    -27.314  0.1284E+00  0.8599E+00
    -27.123  0.7622E-03  0.8600E+00
    -26.932  0.7618E-08  0.8600E+00
    -26.741  0.6983E-16  0.8600E+00
    -26.550  0.0000E+00  0.8600E+00
    -26.360  0.0000E+00  0.8600E+00
    -26.169  0.0000E+00  0.8600E+00
    -25.978  0.0000E+00  0.8600E+00
    -25.787  0.0000E+00  0.8600E+00
    -25.596  0.0000E+00  0.8600E+00
    -25.406  0.0000E+00  0.8600E+00
    -25.215  0.0000E+00  0.8600E+00
    -25.024  0.0000E+00  0.8600E+00
    -24.833  0.0000E+00  0.8600E+00
    -24.642  0.0000E+00  0.8600E+00
    -24.452  0.0000E+00  0.8600E+00
    -24.261  0.2953E-14  0.8600E+00
    -24.070  0.8583E-07  0.8600E+00
    -23.879  0.2547E-02  0.8605E+00
    -23.688  0.1671E+00  0.8924E+00
    -23.498  0.1437E+00  0.9198E+00
    -23.307  0.2012E+00  0.9582E+00
    -23.116  0.9880E+00  0.1147E+01
    -22.925  0.5644E+00  0.1254E+01
    -22.734  0.1293E+00  0.1279E+01
    -22.544  0.5021E-02  0.1280E+01
    -22.353  0.6615E-06  0.1280E+01
    -22.162  0.8430E-13  0.1280E+01
    -21.971  0.0000E+00  0.1280E+01
    -21.781  0.0000E+00  0.1280E+01
    -21.590  0.0000E+00  0.1280E+01
    -21.399  0.0000E+00  0.1280E+01
    -21.208  0.0000E+00  0.1280E+01
    -21.017  0.0000E+00  0.1280E+01
    -20.827  0.1164E-16  0.1280E+01
    -20.636  0.1751E-08  0.1280E+01
    -20.445  0.2483E-03  0.1280E+01
    -20.254  0.4829E-01  0.1289E+01
    -20.063  0.2096E+00  0.1329E+01
    -19.873  0.4261E+00  0.1411E+01
    -19.682  0.2692E+00  0.1462E+01
    -19.491  0.5612E+00  0.1569E+01
    -19.300  0.3812E+00  0.1642E+01
    -19.109  0.2445E+00  0.1688E+01
    -18.919  0.6084E-01  0.1700E+01
    -18.728  0.7310E-04  0.1700E+01
    -18.537  0.1174E-09  0.1700E+01
    -18.346  0.0000E+00  0.1700E+01
    -18.155  0.0000E+00  0.1700E+01
    -17.965  0.0000E+00  0.1700E+01
    -17.774  0.0000E+00  0.1700E+01
    -17.583  0.0000E+00  0.1700E+01
    -17.392  0.0000E+00  0.1700E+01
    -17.201  0.0000E+00  0.1700E+01
    -17.011  0.0000E+00  0.1700E+01
    -16.820  0.0000E+00  0.1700E+01
    -16.629  0.0000E+00  0.1700E+01
    -16.438  0.0000E+00  0.1700E+01
    -16.247  0.0000E+00  0.1700E+01
    -16.057  0.0000E+00  0.1700E+01
    -15.866  0.0000E+00  0.1700E+01
    -15.675  0.0000E+00  0.1700E+01
    -15.484  0.0000E+00  0.1700E+01
    -15.293  0.0000E+00  0.1700E+01
    -15.103  0.0000E+00  0.1700E+01
    -14.912  0.0000E+00  0.1700E+01
    -14.721  0.0000E+00  0.1700E+01
    -14.530  0.0000E+00  0.1700E+01
    -14.340  0.0000E+00  0.1700E+01
    -14.149  0.0000E+00  0.1700E+01
    -13.958  0.0000E+00  0.1700E+01
    -13.767  0.0000E+00  0.1700E+01
    -13.576  0.0000E+00  0.1700E+01
    -13.386  0.0000E+00  0.1700E+01
    -13.195  0.0000E+00  0.1700E+01
    -13.004  0.0000E+00  0.1700E+01
    -12.813  0.0000E+00  0.1700E+01
    -12.622  0.0000E+00  0.1700E+01
    -12.432  0.0000E+00  0.1700E+01
    -12.241  0.0000E+00  0.1700E+01
    -12.050  0.0000E+00  0.1700E+01
    -11.859  0.0000E+00  0.1700E+01
    -11.668  0.0000E+00  0.1700E+01
    -11.478  0.0000E+00  0.1700E+01
    -11.287  0.0000E+00  0.1700E+01
    -11.096  0.0000E+00  0.1700E+01
    -10.905  0.0000E+00  0.1700E+01
    -10.714  0.0000E+00  0.1700E+01
    -10.524  0.0000E+00  0.1700E+01
    -10.333  0.0000E+00  0.1700E+01
    -10.142  0.0000E+00  0.1700E+01
     -9.951  0.0000E+00  0.1700E+01
     -9.760  0.0000E+00  0.1700E+01
     -9.570  0.0000E+00  0.1700E+01
     -9.379  0.0000E+00  0.1700E+01
     -9.188  0.3067E-13  0.1700E+01
     -8.997  0.1177E-06  0.1700E+01
     -8.806  0.6776E-03  0.1700E+01
     -8.616  0.3225E-01  0.1706E+01
     -8.425  0.6994E-01  0.1720E+01
     -8.234  0.7648E-01  0.1734E+01
     -8.043  0.1842E+00  0.1769E+01
     -7.852  0.7204E-01  0.1783E+01
     -7.662  0.1714E+00  0.1816E+01
     -7.471  0.1786E+00  0.1850E+01
     -7.280  0.1396E+00  0.1877E+01
     -7.089  0.1077E+00  0.1897E+01
     -6.899  0.1961E+00  0.1934E+01
     -6.708  0.1207E+00  0.1957E+01
     -6.517  0.1319E-01  0.1960E+01
     -6.326  0.6334E-05  0.1960E+01
     -6.135  0.3243E-11  0.1960E+01
     -5.945  0.0000E+00  0.1960E+01
     -5.754  0.2091E-14  0.1960E+01
     -5.563  0.2457E-07  0.1960E+01
     -5.372  0.3072E-03  0.1960E+01
     -5.181  0.2040E-01  0.1964E+01
     -4.991  0.6827E-01  0.1977E+01
     -4.800  0.2017E-01  0.1981E+01
     -4.609  0.8286E-01  0.1997E+01
     -4.418  0.1320E+00  0.2022E+01
     -4.227  0.1598E+00  0.2052E+01
     -4.037  0.2335E+00  0.2097E+01
     -3.846  0.2497E+00  0.2144E+01
     -3.655  0.1899E+00  0.2181E+01
     -3.464  0.1815E+00  0.2215E+01
     -3.273  0.1903E+00  0.2252E+01
     -3.083  0.1672E+00  0.2284E+01
     -2.892  0.1357E+00  0.2309E+01
     -2.701  0.8959E-01  0.2327E+01
     -2.510  0.5997E-01  0.2338E+01
     -2.319  0.1025E-01  0.2340E+01
     -2.129  0.3444E-03  0.2340E+01
     -1.938  0.8747E-07  0.2340E+01
     -1.747  0.2357E-13  0.2340E+01
     -1.556  0.0000E+00  0.2340E+01
     -1.365  0.0000E+00  0.2340E+01
     -1.175  0.0000E+00  0.2340E+01
     -0.984  0.2090E-14  0.2340E+01
     -0.793  0.1898E-07  0.2340E+01
     -0.602  0.1652E-03  0.2340E+01
     -0.411  0.4181E-02  0.2341E+01
     -0.221  0.1297E-01  0.2343E+01
     -0.030  0.4988E-01  0.2353E+01
      0.161  0.1022E+00  0.2372E+01
      0.352  0.1103E+00  0.2393E+01
      0.542  0.1551E+00  0.2423E+01
      0.733  0.1965E+00  0.2460E+01
      0.924  0.2647E+00  0.2511E+01
      1.115  0.2724E+00  0.2563E+01
      1.306  0.2457E+00  0.2610E+01
      1.496  0.2686E+00  0.2661E+01
      1.687  0.3309E+00  0.2724E+01
      1.878  0.3321E+00  0.2788E+01
      2.069  0.3756E+00  0.2859E+01
      2.260  0.4426E+00  0.2944E+01
      2.450  0.5065E+00  0.3040E+01
      2.641  0.5649E+00  0.3148E+01
      2.832  0.6272E+00  0.3268E+01
      3.023  0.6510E+00  0.3392E+01
      3.214  0.6415E+00  0.3514E+01
      3.404  0.5930E+00  0.3627E+01
      3.595  0.5405E+00  0.3731E+01
      3.786  0.4737E+00  0.3821E+01
      3.977  0.4613E+00  0.3909E+01
      4.168  0.3859E+00  0.3983E+01
      4.358  0.3266E+00  0.4045E+01
      4.549  0.2909E+00  0.4100E+01
      4.740  0.2677E+00  0.4151E+01
      4.931  0.2090E+00  0.4191E+01
      5.122  0.1567E+00  0.4221E+01
      5.312  0.1511E+00  0.4250E+01
      5.503  0.1014E+00  0.4269E+01
      5.694  0.1270E+00  0.4294E+01
      5.885  0.1800E+00  0.4328E+01
      6.076  0.1774E+00  0.4362E+01
      6.266  0.2117E+00  0.4402E+01
      6.457  0.2336E+00  0.4447E+01
      6.648  0.1987E+00  0.4485E+01
      6.839  0.2209E+00  0.4527E+01
      7.029  0.2687E+00  0.4578E+01
      7.220  0.3157E+00  0.4638E+01
      7.411  0.2554E+00  0.4687E+01
      7.602  0.2014E+00  0.4726E+01
      7.793  0.2903E+00  0.4781E+01
      7.983  0.3322E+00  0.4844E+01
      8.174  0.3860E+00  0.4918E+01
      8.365  0.4020E+00  0.4995E+01
      8.556  0.4307E+00  0.5077E+01
      8.747  0.4343E+00  0.5160E+01
      8.937  0.4103E+00  0.5238E+01
      9.128  0.4187E+00  0.5318E+01
      9.319  0.3964E+00  0.5393E+01
      9.510  0.3892E+00  0.5468E+01
      9.701  0.3778E+00  0.5540E+01
      9.891  0.3639E+00  0.5609E+01
     10.082  0.3509E+00  0.5676E+01
     10.273  0.3408E+00  0.5741E+01
     10.464  0.9732E-01  0.5760E+01
     10.655  0.1240E-02  0.5760E+01
     10.845  0.8018E-07  0.5760E+01
     11.036  0.6885E-14  0.5760E+01
     11.227  0.0000E+00  0.5760E+01
     11.418  0.0000E+00  0.5760E+01
     11.609  0.0000E+00  0.5760E+01
     11.799  0.0000E+00  0.5760E+01
     11.990  0.0000E+00  0.5760E+01
     12.181  0.0000E+00  0.5760E+01
     12.372  0.0000E+00  0.5760E+01
     12.563  0.0000E+00  0.5760E+01
     12.753  0.0000E+00  0.5760E+01
     12.944  0.0000E+00  0.5760E+01
