 running on   24 total cores
 distrk:  each k-point on   24 cores,    1 groups
 distr:  one band on    1 cores,   24 groups
 using from now: INCAR     
 vasp.5.4.4.18Apr17-6-g9f103f2a35 (build Oct 18 2021 20:38:43) complex          
  
 POSCAR found type information on POSCAR  Hf Ta Zr N  C  Cr Mo
 POSCAR found :  7 types and      64 ions
 scaLAPACK will be used

 ----------------------------------------------------------------------------- 
|                                                                             |
|           W    W    AA    RRRRR   N    N  II  N    N   GGGG   !!!           |
|           W    W   A  A   R    R  NN   N  II  NN   N  G    G  !!!           |
|           W    W  A    A  R    R  N N  N  II  N N  N  G       !!!           |
|           W WW W  AAAAAA  RRRRR   N  N N  II  N  N N  G  GGG   !            |
|           WW  WW  A    A  R   R   N   NN  II  N   NN  G    G                |
|           W    W  A    A  R    R  N    N  II  N    N   GGGG   !!!           |
|                                                                             |
|      For optimal performance we recommend to set                            |
|        NCORE= 4 - approx SQRT( number of cores)                             |
|      NCORE specifies how many cores store one orbital (NPAR=cpu/NCORE).     |
|      This setting can  greatly improve the performance of VASP for DFT.     |
|      The default,   NCORE=1            might be grossly inefficient         |
|      on modern multi-core architectures or massively parallel machines.     |
|      Do your own testing !!!!                                               |
|      Unfortunately you need to use the default for GW and RPA calculations. |
|      (for HF NCORE is supported but not extensively tested yet)             |
|                                                                             |
 ----------------------------------------------------------------------------- 


 ----------------------------------------------------------------------------- 
|                                                                             |
|  ADVICE TO THIS USER RUNNING 'VASP/VAMP'   (HEAR YOUR MASTER'S VOICE ...):  |
|                                                                             |
|      You have a (more or less) 'large supercell' and for larger cells       |
|      it might be more efficient to use real space projection operators      |
|      So try LREAL= Auto  in the INCAR   file.                               |
|      Mind: If you want to do a very accurate calculations keep the          |
|      reciprocal projection scheme          (i.e. LREAL=.FALSE.)             |
|                                                                             |
 ----------------------------------------------------------------------------- 

 LDA part: xc-table for Pade appr. of Perdew
 POSCAR, INCAR and KPOINTS ok, starting setup
 FFT: planning ...
 WAVECAR not read
 entering main loop
       N       E                     dE             d eps       ncg     rms          rms(c)
DAV:   1     0.477749076827E+04    0.47775E+04   -0.19425E+05  8064   0.146E+03
DAV:   2     0.143833707701E+02   -0.47631E+04   -0.45603E+04  8400   0.491E+02
DAV:   3    -0.723660272409E+03   -0.73804E+03   -0.69870E+03 12840   0.169E+02
DAV:   4    -0.785685685654E+03   -0.62025E+02   -0.60602E+02 14400   0.517E+01
DAV:   5    -0.788959918576E+03   -0.32742E+01   -0.32432E+01 14688   0.110E+01    0.751E+01
RMM:   6    -0.980096440555E+03   -0.19114E+03   -0.28120E+03 11178   0.157E+02    0.124E+02
RMM:   7    -0.649952766656E+03    0.33014E+03   -0.29146E+02 11750   0.422E+01    0.340E+01
RMM:   8    -0.663188007794E+03   -0.13235E+02   -0.63187E+01 13137   0.149E+01    0.394E+01
RMM:   9    -0.655528463793E+03    0.76595E+01   -0.14431E+01 11235   0.117E+01    0.300E+01
RMM:  10    -0.649005361309E+03    0.65231E+01   -0.84325E+00 12963   0.605E+00    0.150E+01
RMM:  11    -0.650022853511E+03   -0.10175E+01   -0.40457E+00 12820   0.421E+00    0.219E+01
RMM:  12    -0.647829545719E+03    0.21933E+01   -0.51300E+00 12343   0.465E+00    0.116E+01
RMM:  13    -0.647930177528E+03   -0.10063E+00   -0.19664E+00 12507   0.291E+00    0.122E+01
RMM:  14    -0.647689549348E+03    0.24063E+00   -0.17627E+00 12731   0.251E+00    0.916E+00
RMM:  15    -0.647867621295E+03   -0.17807E+00   -0.56205E-01 11987   0.173E+00    0.109E+01
RMM:  16    -0.647236924120E+03    0.63070E+00   -0.43943E-01 12422   0.147E+00    0.255E+00
RMM:  17    -0.647296838765E+03   -0.59915E-01   -0.47986E-01 12872   0.108E+00    0.540E+00
RMM:  18    -0.647209202232E+03    0.87637E-01   -0.25403E-01 12924   0.894E-01    0.175E+00
RMM:  19    -0.647207730399E+03    0.14718E-02   -0.10046E-01 12928   0.422E-01    0.139E+00
RMM:  20    -0.647188564389E+03    0.19166E-01   -0.51455E-02 12786   0.346E-01    0.358E-01
RMM:  21    -0.647190121762E+03   -0.15574E-02   -0.28067E-02 12651   0.227E-01    0.485E-01
RMM:  22    -0.647188827084E+03    0.12947E-02   -0.67117E-03 12448   0.110E-01    0.108E-01
RMM:  23    -0.647188760083E+03    0.67001E-04   -0.19360E-03 11684   0.474E-02    0.592E-02
RMM:  24    -0.647188757180E+03    0.29033E-05   -0.77155E-04 10804   0.351E-02    0.348E-02
RMM:  25    -0.647188758849E+03   -0.16687E-05   -0.24600E-04  7622   0.214E-02    0.277E-02
RMM:  26    -0.647188753351E+03    0.54974E-05   -0.97867E-05  6481   0.184E-02
   1 F= -.64718875E+03 E0= -.64710364E+03  d E =-.647189E+03
 curvature:   0.00 expect dE= 0.000E+00 dE for cont linesearch  0.000E+00
 trial: gam= 0.00000 g(F)=  0.355E+01 g(S)=  0.289E+00 ort = 0.000E+00 (trialstep = 0.100E+01)
 search vector abs. value=  0.384E+01
 bond charge predicted
       N       E                     dE             d eps       ncg     rms          rms(c)
DAV:   1    -0.646576010764E+03    0.61275E+00   -0.59921E+02  9384   0.921E+01    0.133E+01
RMM:   2    -0.674215174483E+03   -0.27639E+02   -0.85903E+01 10618   0.316E+01    0.504E+01
RMM:   3    -0.649703980222E+03    0.24511E+02   -0.13940E+01 10742   0.134E+01    0.906E+00
RMM:   4    -0.650031690320E+03   -0.32771E+00   -0.36580E+00 12896   0.378E+00    0.112E+01
RMM:   5    -0.649338665682E+03    0.69302E+00   -0.99330E-01 11323   0.275E+00    0.507E+00
RMM:   6    -0.649492711899E+03   -0.15405E+00   -0.56603E-01 11597   0.195E+00    0.831E+00
RMM:   7    -0.649315841906E+03    0.17687E+00   -0.51733E-01 12091   0.182E+00    0.589E+00
RMM:   8    -0.649277284523E+03    0.38557E-01   -0.22866E-01 11574   0.132E+00    0.505E+00
RMM:   9    -0.649186313664E+03    0.90971E-01   -0.14835E-01 12531   0.899E-01    0.289E+00
RMM:  10    -0.649163463934E+03    0.22850E-01   -0.76209E-02 13184   0.432E-01    0.108E+00
RMM:  11    -0.649164547395E+03   -0.10835E-02   -0.34927E-02 13427   0.287E-01    0.111E+00
RMM:  12    -0.649161424233E+03    0.31232E-02   -0.13349E-02 12598   0.239E-01    0.613E-01
RMM:  13    -0.649161221878E+03    0.20236E-03   -0.93381E-03 12947   0.143E-01    0.249E-01
RMM:  14    -0.649161746461E+03   -0.52458E-03   -0.49632E-03 13091   0.888E-02    0.166E-01
RMM:  15    -0.649162106239E+03   -0.35978E-03   -0.24572E-03 12746   0.696E-02    0.677E-02
RMM:  16    -0.649162171057E+03   -0.64818E-04   -0.10864E-03 11694   0.421E-02    0.432E-02
WARNING in EDDRMM: call to ZHEGV failed, returncode =   6  3      7
RMM:  17    -0.649162183095E+03   -0.12038E-04   -0.45239E-04 10956   0.312E-02    0.257E-02
WARNING in EDDRMM: call to ZHEGV failed, returncode =   6  3      5
RMM:  18    -0.649162186165E+03   -0.30704E-05   -0.14549E-04  9691   0.208E-02    0.124E-02
RMM:  19    -0.649162187701E+03   -0.15362E-05   -0.61624E-05  8147   0.182E-02
   2 F= -.64916219E+03 E0= -.64908340E+03  d E =-.197343E+01
 trial-energy change:   -1.973434  1 .order   -1.946101   -3.839052   -0.053150
 step:   1.0134(harm=  1.0140)  dis= 0.09665  next Energy=  -649.162545 (dE=-0.197E+01)
 bond charge predicted
       N       E                     dE             d eps       ncg     rms          rms(c)
DAV:   1    -0.649162002600E+03    0.18356E-03   -0.10912E-01 10392   0.125E+00    0.192E-01
RMM:   2    -0.649169010169E+03   -0.70076E-02   -0.15143E-02 11266   0.378E-01    0.971E-01
RMM:   3    -0.649162868792E+03    0.61414E-02   -0.27366E-03 10007   0.198E-01    0.282E-01
RMM:   4    -0.649162630642E+03    0.23815E-03   -0.67268E-04  9582   0.724E-02    0.152E-01
RMM:   5    -0.649162704090E+03   -0.73447E-04   -0.26529E-04  8734   0.439E-02    0.214E-01
RMM:   6    -0.649162505401E+03    0.19869E-03   -0.10845E-04  6877   0.397E-02    0.486E-02
RMM:   7    -0.649162569867E+03   -0.64467E-04   -0.14308E-04  8823   0.329E-02    0.136E-01
RMM:   8    -0.649162496393E+03    0.73474E-04   -0.54075E-05  5816   0.286E-02    0.346E-02
RMM:   9    -0.649162515169E+03   -0.18776E-04   -0.40408E-05  5417   0.225E-02    0.775E-02
RMM:  10    -0.649162492612E+03    0.22557E-04   -0.17260E-05  4991   0.207E-02    0.124E-02
RMM:  11    -0.649162495339E+03   -0.27274E-05   -0.11196E-05  4924   0.121E-02
   3 F= -.64916250E+03 E0= -.64908383E+03  d E =-.197374E+01
 curvature:  -0.51 expect dE=-0.559E+00 dE for cont linesearch -0.246E-06
 trial: gam= 0.28819 g(F)=  0.592E+00 g(S)=  0.513E+00 ort =-0.137E-02 (trialstep = 0.100E+01)
 search vector abs. value=  0.142E+01
 bond charge predicted
       N       E                     dE             d eps       ncg     rms          rms(c)
DAV:   1    -0.650600605934E+03   -0.14381E+01   -0.25520E+02 11472   0.791E+01    0.212E+01
RMM:   2    -0.714324150949E+03   -0.63724E+02   -0.56353E+01 11757   0.193E+01    0.592E+01
RMM:   3    -0.652744190316E+03    0.61580E+02   -0.21564E+01 10378   0.173E+01    0.191E+01
RMM:   4    -0.650635430279E+03    0.21088E+01   -0.44821E+00 12078   0.515E+00    0.107E+01
RMM:   5    -0.650265831235E+03    0.36960E+00   -0.16432E+00 10269   0.407E+00    0.116E+01
RMM:   6    -0.649786702404E+03    0.47913E+00   -0.91811E-01 10697   0.275E+00    0.623E+00
RMM:   7    -0.649806436091E+03   -0.19734E-01   -0.56385E-01 11913   0.180E+00    0.787E+00
RMM:   8    -0.649567159718E+03    0.23928E+00   -0.19658E-01 11353   0.135E+00    0.355E+00
RMM:   9    -0.649601415490E+03   -0.34256E-01   -0.17722E-01 11807   0.122E+00    0.486E+00
RMM:  10    -0.649533303247E+03    0.68112E-01   -0.79700E-02 11974   0.783E-01    0.262E+00
RMM:  11    -0.649513911247E+03    0.19392E-01   -0.49505E-02 13000   0.460E-01    0.161E+00
RMM:  12    -0.649505846957E+03    0.80643E-02   -0.18433E-02 12868   0.264E-01    0.809E-01
RMM:  13    -0.649503806070E+03    0.20409E-02   -0.10313E-02 12720   0.235E-01    0.309E-01
RMM:  14    -0.649505333019E+03   -0.15269E-02   -0.73846E-03 12899   0.130E-01    0.293E-01
RMM:  15    -0.649506106058E+03   -0.77304E-03   -0.49496E-03 12872   0.102E-01    0.172E-01
RMM:  16    -0.649506140361E+03   -0.34303E-04   -0.25401E-03 12392   0.728E-02    0.104E-01
RMM:  17    -0.649506185294E+03   -0.44933E-04   -0.11288E-03 11410   0.455E-02    0.426E-02
RMM:  18    -0.649506213357E+03   -0.28063E-04   -0.46293E-04 10484   0.308E-02    0.319E-02
WARNING in EDDRMM: call to ZHEGV failed, returncode =   6  3      7
RMM:  19    -0.649506219373E+03   -0.60158E-05   -0.15966E-04  9624   0.218E-02    0.224E-02
RMM:  20    -0.649506219498E+03   -0.12528E-06   -0.89018E-05  8855   0.188E-02
   4 F= -.64950622E+03 E0= -.64943151E+03  d E =-.343724E+00
 trial-energy change:   -0.343724  1 .order   -0.353945   -1.107580    0.399690
 step:   0.7287(harm=  0.7368)  dis= 0.04565  next Energy=  -649.561037 (dE=-0.399E+00)
 bond charge predicted
       N       E                     dE             d eps       ncg     rms          rms(c)
DAV:   1    -0.649630296705E+03   -0.12408E+00   -0.18486E+01 11280   0.221E+01    0.560E+00
RMM:   2    -0.656426149570E+03   -0.67959E+01   -0.83717E+00 10017   0.106E+01    0.294E+01
RMM:   3    -0.649748694526E+03    0.66775E+01   -0.21443E+00  9948   0.594E+00    0.604E+00
RMM:   4    -0.649608681854E+03    0.14001E+00   -0.26614E-01 11757   0.158E+00    0.258E+00
RMM:   5    -0.649644202651E+03   -0.35521E-01   -0.11013E-01 11644   0.844E-01    0.437E+00
RMM:   6    -0.649571192227E+03    0.73010E-01   -0.39621E-02 10376   0.702E-01    0.124E+00
RMM:   7    -0.649589875734E+03   -0.18684E-01   -0.36969E-02 11559   0.514E-01    0.250E+00
RMM:   8    -0.649564871934E+03    0.25004E-01   -0.19758E-02 11212   0.443E-01    0.834E-01
RMM:   9    -0.649566417201E+03   -0.15453E-02   -0.10684E-02 12092   0.248E-01    0.123E+00
RMM:  10    -0.649560563883E+03    0.58533E-02   -0.42508E-03 11125   0.183E-01    0.248E-01
RMM:  11    -0.649561020544E+03   -0.45666E-03   -0.31929E-03 12109   0.920E-02    0.336E-01
RMM:  12    -0.649560609597E+03    0.41095E-03   -0.96027E-04 10816   0.663E-02    0.106E-01
RMM:  13    -0.649560700113E+03   -0.90516E-04   -0.66380E-04 11617   0.363E-02    0.625E-02
RMM:  14    -0.649560795076E+03   -0.94962E-04   -0.35285E-04 11512   0.321E-02    0.362E-02
RMM:  15    -0.649560828411E+03   -0.33335E-04   -0.20538E-04 10962   0.231E-02    0.199E-02
RMM:  16    -0.649560832224E+03   -0.38131E-05   -0.90222E-05  8795   0.190E-02
   5 F= -.64956083E+03 E0= -.64948484E+03  d E =-.398337E+00
 curvature:  -0.47 expect dE=-0.316E+00 dE for cont linesearch -0.673E-05
 trial: gam= 0.61339 g(F)=  0.391E+00 g(S)=  0.275E+00 ort =-0.450E-02 (trialstep = 0.948E+00)
 search vector abs. value=  0.120E+01
 bond charge predicted
       N       E                     dE             d eps       ncg     rms          rms(c)
DAV:   1    -0.646319934178E+03    0.32409E+01   -0.21589E+02  8664   0.854E+01    0.570E+00
RMM:   2    -0.655772651410E+03   -0.94527E+01   -0.48868E+01 12878   0.174E+01    0.262E+01
RMM:   3    -0.650057312867E+03    0.57153E+01   -0.38756E+00 10283   0.714E+00    0.575E+00
RMM:   4    -0.650157142126E+03   -0.99829E-01   -0.14447E+00 12567   0.207E+00    0.598E+00
RMM:   5    -0.649986436273E+03    0.17071E+00   -0.24588E-01 11816   0.119E+00    0.269E+00
RMM:   6    -0.649967747597E+03    0.18689E-01   -0.11481E-01 12190   0.663E-01    0.212E+00
RMM:   7    -0.649938718766E+03    0.29029E-01   -0.13054E-01 11800   0.777E-01    0.152E+00
RMM:   8    -0.649952504653E+03   -0.13786E-01   -0.57539E-02 11111   0.699E-01    0.252E+00
RMM:   9    -0.649921427403E+03    0.31077E-01   -0.40351E-02 11732   0.568E-01    0.696E-01
RMM:  10    -0.649926132747E+03   -0.47053E-02   -0.21001E-02 12581   0.272E-01    0.122E+00
RMM:  11    -0.649919947917E+03    0.61848E-02   -0.78028E-03 12641   0.193E-01    0.258E-01
RMM:  12    -0.649921106641E+03   -0.11587E-02   -0.51665E-03 12370   0.127E-01    0.526E-01
RMM:  13    -0.649920026763E+03    0.10799E-02   -0.22388E-03 11810   0.111E-01    0.158E-01
RMM:  14    -0.649920128083E+03   -0.10132E-03   -0.14776E-03 11974   0.540E-02    0.764E-02
RMM:  15    -0.649920232524E+03   -0.10444E-03   -0.69431E-04 11373   0.364E-02    0.479E-02
WARNING in EDDRMM: call to ZHEGV failed, returncode =   8  4      9
RMM:  16    -0.649920241240E+03   -0.87165E-05   -0.27080E-04 10787   0.258E-02    0.208E-02
RMM:  17    -0.649920248728E+03   -0.74878E-05   -0.10374E-04  8760   0.188E-02    0.835E-03
RMM:  18    -0.649920249869E+03   -0.11410E-05   -0.40757E-05  6771   0.174E-02
   6 F= -.64992025E+03 E0= -.64985321E+03  d E =-.359418E+00
 trial-energy change:   -0.359418  1 .order   -0.340477   -0.629042   -0.051912
 step:   1.0183(harm=  1.0332)  dis= 0.07048  next Energy=  -649.922185 (dE=-0.361E+00)
 bond charge predicted
       N       E                     dE             d eps       ncg     rms          rms(c)
DAV:   1    -0.649899705266E+03    0.20543E-01   -0.11622E+00  9072   0.645E+00    0.397E-01
RMM:   2    -0.649946804459E+03   -0.47099E-01   -0.25882E-01 12897   0.120E+00    0.193E+00
RMM:   3    -0.649925826238E+03    0.20978E-01   -0.19503E-02 10190   0.517E-01    0.935E-01
RMM:   4    -0.649923118990E+03    0.27072E-02   -0.71505E-03 10518   0.196E-01    0.347E-01
RMM:   5    -0.649922545272E+03    0.57372E-03   -0.19085E-03 10693   0.995E-02    0.235E-01
RMM:   6    -0.649922411786E+03    0.13349E-03   -0.67816E-04  9236   0.574E-02    0.169E-01
RMM:   7    -0.649922356939E+03    0.54847E-04   -0.74558E-04 11379   0.592E-02    0.182E-01
RMM:   8    -0.649922255840E+03    0.10110E-03   -0.24205E-04  8937   0.545E-02    0.128E-01
RMM:   9    -0.649922180601E+03    0.75239E-04   -0.25699E-04 10393   0.411E-02    0.624E-02
RMM:  10    -0.649922181384E+03   -0.78301E-06   -0.76968E-05  6585   0.261E-02
   7 F= -.64992218E+03 E0= -.64985578E+03  d E =-.361349E+00
 curvature:  -0.90 expect dE=-0.326E+00 dE for cont linesearch -0.367E-09
 trial: gam= 0.47221 g(F)=  0.333E+00 g(S)=  0.277E-01 ort = 0.220E-04 (trialstep = 0.962E+00)
 search vector abs. value=  0.627E+00
 bond charge predicted
       N       E                     dE             d eps       ncg     rms          rms(c)
DAV:   1    -0.647851177273E+03    0.20710E+01   -0.12026E+02  8400   0.642E+01    0.270E+00
RMM:   2    -0.650558444572E+03   -0.27073E+01   -0.23827E+01 12780   0.114E+01    0.941E+00
RMM:   3    -0.650263962296E+03    0.29448E+00   -0.10574E+00 11426   0.314E+00    0.469E+00
RMM:   4    -0.650271464651E+03   -0.75024E-02   -0.28859E-01 11571   0.143E+00    0.454E+00
RMM:   5    -0.650172165669E+03    0.99299E-01   -0.10808E-01 11183   0.869E-01    0.191E+00
RMM:   6    -0.650160664552E+03    0.11501E-01   -0.69555E-02 12297   0.439E-01    0.111E+00
RMM:   7    -0.650170590015E+03   -0.99255E-02   -0.39630E-02 12127   0.415E-01    0.213E+00
RMM:   8    -0.650152756772E+03    0.17833E-01   -0.21049E-02 10734   0.433E-01    0.935E-01
RMM:   9    -0.650149157820E+03    0.35990E-02   -0.24911E-02 12195   0.290E-01    0.707E-01
RMM:  10    -0.650147724715E+03    0.14331E-02   -0.52730E-03 10982   0.197E-01    0.483E-01
RMM:  11    -0.650146761748E+03    0.96297E-03   -0.41914E-03 12045   0.116E-01    0.104E-01
RMM:  12    -0.650146933011E+03   -0.17126E-03   -0.15183E-03 11891   0.605E-02    0.193E-01
RMM:  13    -0.650146821694E+03    0.11132E-03   -0.61951E-04 10265   0.556E-02    0.952E-02
RMM:  14    -0.650146811194E+03    0.10500E-04   -0.40078E-04 11346   0.338E-02    0.349E-02
RMM:  15    -0.650146819228E+03   -0.80338E-05   -0.18662E-04  9290   0.214E-02    0.183E-02
RMM:  16    -0.650146818737E+03    0.49106E-06   -0.64070E-05  6360   0.162E-02
   8 F= -.65014682E+03 E0= -.65008624E+03  d E =-.224637E+00
 trial-energy change:   -0.224637  1 .order   -0.221187   -0.346915   -0.095458
 step:   1.2908(harm=  1.3271)  dis= 0.06081  next Energy=  -650.163273 (dE=-0.241E+00)
 bond charge predicted
       N       E                     dE             d eps       ncg     rms          rms(c)
DAV:   1    -0.649887762395E+03    0.25906E+00   -0.13892E+01  8448   0.222E+01    0.961E-01
RMM:   2    -0.650223349325E+03   -0.33559E+00   -0.28077E+00 12670   0.396E+00    0.368E+00
RMM:   3    -0.650179557487E+03    0.43792E-01   -0.17164E-01 11064   0.141E+00    0.188E+00
RMM:   4    -0.650175374674E+03    0.41828E-02   -0.44745E-02 11315   0.597E-01    0.132E+00
RMM:   5    -0.650167672892E+03    0.77018E-02   -0.17513E-02 11214   0.325E-01    0.818E-01
RMM:   6    -0.650165385745E+03    0.22871E-02   -0.72091E-03 10656   0.170E-01    0.408E-01
RMM:   7    -0.650166332389E+03   -0.94664E-03   -0.48504E-03 11541   0.154E-01    0.666E-01
RMM:   8    -0.650164370647E+03    0.19617E-02   -0.29735E-03 10843   0.155E-01    0.290E-01
RMM:   9    -0.650163692302E+03    0.67834E-03   -0.30411E-03 12205   0.102E-01    0.750E-02
RMM:  10    -0.650163906733E+03   -0.21443E-03   -0.77065E-04 10826   0.573E-02    0.210E-01
RMM:  11    -0.650163688257E+03    0.21848E-03   -0.28234E-04  8878   0.479E-02    0.475E-02
RMM:  12    -0.650163698476E+03   -0.10219E-04   -0.21570E-04  8711   0.213E-02    0.501E-02
RMM:  13    -0.650163697165E+03    0.13104E-05   -0.64434E-05  5749   0.205E-02
   9 F= -.65016370E+03 E0= -.65010497E+03  d E =-.241516E+00
 curvature:  -1.14 expect dE=-0.185E+00 dE for cont linesearch -0.836E-07
 trial: gam= 0.26469 g(F)=  0.151E+00 g(S)=  0.112E-01 ort =-0.214E-03 (trialstep = 0.103E+01)
 search vector abs. value=  0.206E+00
 bond charge predicted
       N       E                     dE             d eps       ncg     rms          rms(c)
DAV:   1    -0.649631533930E+03    0.53216E+00   -0.40677E+01  8592   0.322E+01    0.167E+00
RMM:   2    -0.650509110409E+03   -0.87758E+00   -0.70839E+00 12345   0.679E+00    0.632E+00
RMM:   3    -0.650312449402E+03    0.19666E+00   -0.45754E-01 11209   0.207E+00    0.273E+00
RMM:   4    -0.650306946558E+03    0.55028E-02   -0.13535E-01 11810   0.835E-01    0.217E+00
RMM:   5    -0.650285686231E+03    0.21260E-01   -0.36537E-02 11309   0.522E-01    0.152E+00
RMM:   6    -0.650277269329E+03    0.84169E-02   -0.17958E-02 10830   0.336E-01    0.799E-01
RMM:   7    -0.650293318303E+03   -0.16049E-01   -0.20637E-02 11229   0.370E-01    0.214E+00
RMM:   8    -0.650272484529E+03    0.20834E-01   -0.12127E-02 10460   0.350E-01    0.315E-01
RMM:   9    -0.650273806306E+03   -0.13218E-02   -0.84756E-03 11540   0.174E-01    0.584E-01
RMM:  10    -0.650272278456E+03    0.15278E-02   -0.31003E-03 10483   0.120E-01    0.129E-01
RMM:  11    -0.650272275408E+03    0.30485E-05   -0.16323E-03 11500   0.542E-02    0.114E-01
RMM:  12    -0.650272282519E+03   -0.71115E-05   -0.54018E-04  9248   0.428E-02    0.871E-02
RMM:  13    -0.650272266609E+03    0.15911E-04   -0.22394E-04  9377   0.275E-02    0.243E-02
RMM:  14    -0.650272274954E+03   -0.83452E-05   -0.11740E-04  7241   0.176E-02    0.128E-02
RMM:  15    -0.650272277419E+03   -0.24652E-05   -0.37312E-05  5664   0.149E-02
  10 F= -.65027228E+03 E0= -.65021623E+03  d E =-.108580E+00
 trial-energy change:   -0.108580  1 .order   -0.107936   -0.166360   -0.049512
 step:   1.4439(harm=  1.4632)  dis= 0.03671  next Energy=  -650.282345 (dE=-0.119E+00)
 bond charge predicted
       N       E                     dE             d eps       ncg     rms          rms(c)
DAV:   1    -0.650168971772E+03    0.10330E+00   -0.65687E+00  8208   0.131E+01    0.669E-01
RMM:   2    -0.650312555417E+03   -0.14358E+00   -0.12155E+00 12494   0.277E+00    0.230E+00
RMM:   3    -0.650289159266E+03    0.23396E-01   -0.79381E-02 11548   0.753E-01    0.106E+00
RMM:   4    -0.650288651357E+03    0.50791E-03   -0.19646E-02 11456   0.311E-01    0.895E-01
RMM:   5    -0.650284013870E+03    0.46375E-02   -0.50342E-03 10688   0.218E-01    0.428E-01
RMM:   6    -0.650283728985E+03    0.28488E-03   -0.35683E-03 10453   0.127E-01    0.353E-01
RMM:   7    -0.650283837167E+03   -0.10818E-03   -0.33708E-03 11689   0.135E-01    0.480E-01
RMM:   8    -0.650282924733E+03    0.91243E-03   -0.10306E-03  9688   0.923E-02    0.203E-01
RMM:   9    -0.650282983599E+03   -0.58866E-04   -0.85124E-04  9685   0.641E-02    0.215E-01
RMM:  10    -0.650282779778E+03    0.20382E-03   -0.35844E-04  8896   0.477E-02    0.573E-02
RMM:  11    -0.650282778542E+03    0.12361E-05   -0.27236E-04  8295   0.231E-02    0.296E-02
RMM:  12    -0.650282789544E+03   -0.11002E-04   -0.66364E-05  5742   0.200E-02    0.474E-02
RMM:  13    -0.650282781613E+03    0.79310E-05   -0.28189E-05  5375   0.192E-02
  11 F= -.65028278E+03 E0= -.65022767E+03  d E =-.119084E+00
 curvature:  -0.93 expect dE=-0.700E-01 dE for cont linesearch -0.393E-05
 trial: gam= 0.43943 g(F)=  0.609E-01 g(S)=  0.145E-01 ort = 0.934E-03 (trialstep = 0.111E+01)
 search vector abs. value=  0.116E+00
 bond charge predicted
       N       E                     dE             d eps       ncg     rms          rms(c)
DAV:   1    -0.649701088687E+03    0.58170E+00   -0.30049E+01  8880   0.324E+01    0.195E+00
RMM:   2    -0.650670752489E+03   -0.96966E+00   -0.71664E+00 12859   0.592E+00    0.670E+00
RMM:   3    -0.650357880859E+03    0.31287E+00   -0.35998E-01 10398   0.208E+00    0.217E+00
RMM:   4    -0.650381414515E+03   -0.23534E-01   -0.12825E-01 11964   0.825E-01    0.294E+00
RMM:   5    -0.650339677744E+03    0.41737E-01   -0.32680E-02 11041   0.520E-01    0.942E-01
RMM:   6    -0.650339671101E+03    0.66437E-05   -0.23842E-02 11849   0.308E-01    0.952E-01
RMM:   7    -0.650340243899E+03   -0.57280E-03   -0.19872E-02 11942   0.315E-01    0.117E+00
RMM:   8    -0.650334604087E+03    0.56398E-02   -0.68990E-03 10848   0.257E-01    0.518E-01
RMM:   9    -0.650333823766E+03    0.78032E-03   -0.58859E-03 12739   0.138E-01    0.373E-01
RMM:  10    -0.650333449390E+03    0.37438E-03   -0.20402E-03 11021   0.950E-02    0.212E-01
RMM:  11    -0.650333297464E+03    0.15193E-03   -0.10947E-03 11454   0.580E-02    0.117E-01
RMM:  12    -0.650333332282E+03   -0.34818E-04   -0.46747E-04 10369   0.465E-02    0.127E-01
RMM:  13    -0.650333272612E+03    0.59669E-04   -0.24911E-04 10417   0.324E-02    0.375E-02
RMM:  14    -0.650333279939E+03   -0.73272E-05   -0.15028E-04  9544   0.204E-02    0.196E-02
RMM:  15    -0.650333282238E+03   -0.22983E-05   -0.57659E-05  6645   0.161E-02
  12 F= -.65033328E+03 E0= -.65027972E+03  d E =-.505006E-01
 trial-energy change:   -0.050501  1 .order   -0.049947   -0.084197   -0.015698
 step:   1.3514(harm=  1.3656)  dis= 0.03725  next Energy=  -650.334986 (dE=-0.522E-01)
 bond charge predicted
       N       E                     dE             d eps       ncg     rms          rms(c)
DAV:   1    -0.650299827705E+03    0.33452E-01   -0.13407E+00  8592   0.705E+00    0.436E-01
RMM:   2    -0.650350948562E+03   -0.51121E-01   -0.38502E-01 12915   0.145E+00    0.145E+00
RMM:   3    -0.650335902669E+03    0.15046E-01   -0.25648E-02 10192   0.503E-01    0.367E-01
RMM:   4    -0.650337534655E+03   -0.16320E-02   -0.68764E-03 11344   0.168E-01    0.668E-01
RMM:   5    -0.650335402125E+03    0.21325E-02   -0.15921E-03  9838   0.118E-01    0.181E-01
RMM:   6    -0.650335566199E+03   -0.16407E-03   -0.10462E-03  9927   0.716E-02    0.265E-01
RMM:   7    -0.650335477819E+03    0.88380E-04   -0.90963E-04 11364   0.825E-02    0.257E-01
RMM:   8    -0.650335228334E+03    0.24949E-03   -0.37848E-04  9331   0.626E-02    0.123E-01
RMM:   9    -0.650335194240E+03    0.34093E-04   -0.32043E-04 10325   0.375E-02    0.926E-02
RMM:  10    -0.650335160198E+03    0.34042E-04   -0.95814E-05  6156   0.258E-02    0.382E-02
RMM:  11    -0.650335152810E+03    0.73880E-05   -0.55598E-05  5986   0.195E-02
  13 F= -.65033515E+03 E0= -.65028190E+03  d E =-.523712E-01
 curvature:  -1.04 expect dE=-0.703E-01 dE for cont linesearch -0.446E-06
 trial: gam= 0.87958 g(F)=  0.356E-01 g(S)=  0.319E-01 ort = 0.223E-03 (trialstep = 0.853E+00)
 search vector abs. value=  0.158E+00
 bond charge predicted
       N       E                     dE             d eps       ncg     rms          rms(c)
DAV:   1    -0.649893104307E+03    0.44206E+00   -0.26814E+01 11088   0.321E+01    0.298E+00
RMM:   2    -0.651904118747E+03   -0.20110E+01   -0.71221E+00 11356   0.705E+00    0.145E+01
RMM:   3    -0.650477099333E+03    0.14270E+01   -0.90815E-01 10374   0.340E+00    0.488E+00
RMM:   4    -0.650385757822E+03    0.91342E-01   -0.26548E-01 11798   0.118E+00    0.151E+00
RMM:   5    -0.650378547946E+03    0.72099E-02   -0.62921E-02 11762   0.502E-01    0.146E+00
RMM:   6    -0.650370528127E+03    0.80198E-02   -0.14256E-02 10970   0.339E-01    0.836E-01
RMM:   7    -0.650379866410E+03   -0.93383E-02   -0.18379E-02 11352   0.360E-01    0.166E+00
RMM:   8    -0.650366725274E+03    0.13141E-01   -0.94987E-03 10632   0.336E-01    0.386E-01
RMM:   9    -0.650367085666E+03   -0.36039E-03   -0.65204E-03 12665   0.165E-01    0.507E-01
RMM:  10    -0.650365916536E+03    0.11691E-02   -0.21821E-03 11333   0.112E-01    0.122E-01
RMM:  11    -0.650365997395E+03   -0.80859E-04   -0.15259E-03 11758   0.461E-02    0.577E-02
WARNING in EDDRMM: call to ZHEGV failed, returncode =   6  3      5
RMM:  12    -0.650366071614E+03   -0.74220E-04   -0.49134E-04 11079   0.322E-02    0.690E-02
RMM:  13    -0.650366098721E+03   -0.27106E-04   -0.16454E-04 10010   0.318E-02    0.752E-02
RMM:  14    -0.650366097188E+03    0.15324E-05   -0.11802E-04  9970   0.246E-02    0.221E-02
WARNING in EDDRMM: call to ZHEGV failed, returncode =   6  3      7
RMM:  15    -0.650366109939E+03   -0.12750E-04   -0.77905E-05  8082   0.166E-02    0.121E-02
RMM:  16    -0.650366110362E+03   -0.42354E-06   -0.27329E-05  5809   0.177E-02
  14 F= -.65036611E+03 E0= -.65031530E+03  d E =-.309576E-01
 trial-energy change:   -0.030958  1 .order   -0.030136   -0.057725   -0.002546
 step:   0.8887(harm=  0.8920)  dis= 0.03191  next Energy=  -650.366164 (dE=-0.310E-01)
 bond charge predicted
       N       E                     dE             d eps       ncg     rms          rms(c)
DAV:   1    -0.650365285478E+03    0.82446E-03   -0.47815E-02 11088   0.136E+00    0.123E-01
RMM:   2    -0.650368688987E+03   -0.34035E-02   -0.12697E-02 11400   0.273E-01    0.597E-01
RMM:   3    -0.650366413236E+03    0.22758E-02   -0.13785E-03  8544   0.137E-01    0.233E-01
RMM:   4    -0.650366188785E+03    0.22445E-03   -0.41310E-04  8501   0.573E-02    0.631E-02
RMM:   5    -0.650366205067E+03   -0.16282E-04   -0.11892E-04  6300   0.271E-02    0.983E-02
RMM:   6    -0.650366161635E+03    0.43432E-04   -0.32110E-05  5185   0.258E-02    0.262E-02
RMM:   7    -0.650366181028E+03   -0.19393E-04   -0.37945E-05  5384   0.185E-02    0.668E-02
RMM:   8    -0.650366160355E+03    0.20673E-04   -0.22755E-05  5088   0.235E-02    0.124E-02
RMM:   9    -0.650366162723E+03   -0.23688E-05   -0.15100E-05  4966   0.124E-02
  15 F= -.65036616E+03 E0= -.65031545E+03  d E =-.310099E-01
 curvature:  -1.03 expect dE=-0.553E-01 dE for cont linesearch -0.196E-06
 trial: gam= 0.76379 g(F)=  0.282E-01 g(S)=  0.254E-01 ort = 0.173E-03 (trialstep = 0.860E+00)
 search vector abs. value=  0.146E+00
 bond charge predicted
       N       E                     dE             d eps       ncg     rms          rms(c)
DAV:   1    -0.649856888967E+03    0.50927E+00   -0.24684E+01  8448   0.305E+01    0.205E+00
RMM:   2    -0.650839905285E+03   -0.98302E+00   -0.63305E+00 12854   0.562E+00    0.789E+00
RMM:   3    -0.650428305638E+03    0.41160E+00   -0.35413E-01 10133   0.213E+00    0.266E+00
RMM:   4    -0.650424475275E+03    0.38304E-02   -0.13092E-01 11779   0.860E-01    0.224E+00
RMM:   5    -0.650401367514E+03    0.23108E-01   -0.31646E-02 10921   0.498E-01    0.123E+00
RMM:   6    -0.650397140524E+03    0.42270E-02   -0.19312E-02 11468   0.312E-01    0.800E-01
RMM:   7    -0.650400820602E+03   -0.36801E-02   -0.15684E-02 11829   0.285E-01    0.122E+00
RMM:   8    -0.650393853709E+03    0.69669E-02   -0.67007E-03 10692   0.266E-01    0.396E-01
RMM:   9    -0.650392828572E+03    0.10251E-02   -0.53790E-03 13043   0.122E-01    0.199E-01
RMM:  10    -0.650393075106E+03   -0.24653E-03   -0.16244E-03 11159   0.839E-02    0.275E-01
RMM:  11    -0.650392728639E+03    0.34647E-03   -0.76507E-04 10936   0.586E-02    0.575E-02
RMM:  12    -0.650392803712E+03   -0.75073E-04   -0.41063E-04 10675   0.344E-02    0.110E-01
RMM:  13    -0.650392757470E+03    0.46243E-04   -0.17957E-04  9842   0.320E-02    0.344E-02
RMM:  14    -0.650392761380E+03   -0.39101E-05   -0.12566E-04  9643   0.191E-02    0.168E-02
RMM:  15    -0.650392762958E+03   -0.15780E-05   -0.47780E-05  6418   0.150E-02
  16 F= -.65039276E+03 E0= -.65034389E+03  d E =-.266002E-01
 trial-energy change:   -0.026600  1 .order   -0.026310   -0.046236   -0.006383
 step:   0.9910(harm=  0.9976)  dis= 0.03264  next Energy=  -650.393251 (dE=-0.271E-01)
 bond charge predicted
       N       E                     dE             d eps       ncg     rms          rms(c)
DAV:   1    -0.650380911264E+03    0.11850E-01   -0.57155E-01  8784   0.471E+00    0.312E-01
RMM:   2    -0.650403738215E+03   -0.22827E-01   -0.14777E-01 12723   0.863E-01    0.116E+00
RMM:   3    -0.650393930412E+03    0.98078E-02   -0.86947E-03  9582   0.344E-01    0.357E-01
RMM:   4    -0.650394038762E+03   -0.10835E-03   -0.32639E-03 10300   0.133E-01    0.346E-01
RMM:   5    -0.650393437321E+03    0.60144E-03   -0.66209E-04  9275   0.806E-02    0.148E-01
RMM:   6    -0.650393421208E+03    0.16113E-04   -0.44783E-04  8623   0.528E-02    0.133E-01
RMM:   7    -0.650393481855E+03   -0.60647E-04   -0.35423E-04 10938   0.489E-02    0.185E-01
RMM:   8    -0.650393332700E+03    0.14915E-03   -0.15666E-04  7797   0.480E-02    0.663E-02
RMM:   9    -0.650393315627E+03    0.17074E-04   -0.14433E-04  8786   0.244E-02    0.485E-02
RMM:  10    -0.650393306511E+03    0.91159E-05   -0.36260E-05  5423   0.197E-02
  17 F= -.65039331E+03 E0= -.65034470E+03  d E =-.271438E-01
 curvature:  -1.35 expect dE=-0.366E-01 dE for cont linesearch -0.371E-06
 trial: gam= 0.43380 g(F)=  0.195E-01 g(S)=  0.766E-02 ort = 0.200E-03 (trialstep = 0.886E+00)
 search vector abs. value=  0.548E-01
 bond charge predicted
       N       E                     dE             d eps       ncg     rms          rms(c)
DAV:   1    -0.650217088601E+03    0.17623E+00   -0.93591E+00  8400   0.184E+01    0.777E-01
RMM:   2    -0.650429171974E+03   -0.21208E+00   -0.20153E+00 12109   0.339E+00    0.210E+00
RMM:   3    -0.650414758777E+03    0.14413E-01   -0.11724E-01 11019   0.111E+00    0.115E+00
RMM:   4    -0.650416238347E+03   -0.14796E-02   -0.33169E-02 11124   0.461E-01    0.101E+00
RMM:   5    -0.650409529250E+03    0.67091E-02   -0.88931E-03  9488   0.296E-01    0.273E-01
RMM:   6    -0.650411271375E+03   -0.17421E-02   -0.59415E-03 10939   0.159E-01    0.631E-01
RMM:   7    -0.650409251276E+03    0.20201E-02   -0.31198E-03 11144   0.136E-01    0.183E-01
RMM:   8    -0.650409404283E+03   -0.15301E-03   -0.19950E-03 11059   0.877E-02    0.298E-01
RMM:   9    -0.650408993933E+03    0.41035E-03   -0.59010E-04  8997   0.660E-02    0.918E-02
RMM:  10    -0.650409161160E+03   -0.16723E-03   -0.43572E-04  8461   0.476E-02    0.197E-01
RMM:  11    -0.650408975120E+03    0.18604E-03   -0.18243E-04  7214   0.353E-02    0.240E-02
RMM:  12    -0.650409002579E+03   -0.27459E-04   -0.13757E-04  7028   0.227E-02    0.575E-02
RMM:  13    -0.650408989496E+03    0.13083E-04   -0.45149E-05  5599   0.202E-02    0.166E-02
RMM:  14    -0.650408990945E+03   -0.14497E-05   -0.31193E-05  5433   0.132E-02
  18 F= -.65040899E+03 E0= -.65036127E+03  d E =-.156844E-01
 trial-energy change:   -0.015684  1 .order   -0.015442   -0.024135   -0.006749
 step:   1.1952(harm=  1.2301)  dis= 0.02932  next Energy=  -650.410178 (dE=-0.169E-01)
 bond charge predicted
       N       E                     dE             d eps       ncg     rms          rms(c)
DAV:   1    -0.650386695833E+03    0.22294E-01   -0.11366E+00  8640   0.643E+00    0.270E-01
RMM:   2    -0.650412687127E+03   -0.25991E-01   -0.24932E-01 12150   0.118E+00    0.708E-01
RMM:   3    -0.650411097060E+03    0.15901E-02   -0.13580E-02 10860   0.365E-01    0.397E-01
RMM:   4    -0.650411137652E+03   -0.40592E-04   -0.35834E-03 10212   0.153E-01    0.329E-01
RMM:   5    -0.650410431026E+03    0.70663E-03   -0.95635E-04  8185   0.102E-01    0.101E-01
RMM:   6    -0.650410607988E+03   -0.17696E-03   -0.66271E-04  9468   0.555E-02    0.205E-01
RMM:   7    -0.650410433868E+03    0.17412E-03   -0.37940E-04  9680   0.521E-02    0.114E-01
RMM:   8    -0.650410452381E+03   -0.18513E-04   -0.20926E-04  7730   0.450E-02    0.137E-01
RMM:   9    -0.650410361888E+03    0.90493E-04   -0.11297E-04  6940   0.319E-02    0.349E-02
RMM:  10    -0.650410372548E+03   -0.10660E-04   -0.71572E-05  5735   0.221E-02    0.502E-02
RMM:  11    -0.650410361440E+03    0.11107E-04   -0.27722E-05  5301   0.196E-02    0.883E-03
RMM:  12    -0.650410365138E+03   -0.36982E-05   -0.15464E-05  5089   0.116E-02
  19 F= -.65041037E+03 E0= -.65036292E+03  d E =-.170586E-01
 curvature:  -1.22 expect dE=-0.142E-01 dE for cont linesearch -0.105E-04
 trial: gam= 0.37438 g(F)=  0.983E-02 g(S)=  0.174E-02 ort = 0.687E-03 (trialstep = 0.948E+00)
 search vector abs. value=  0.198E-01
 bond charge predicted
       N       E                     dE             d eps       ncg     rms          rms(c)
DAV:   1    -0.650354715642E+03    0.55646E-01   -0.35315E+00  8400   0.106E+01    0.436E-01
RMM:   2    -0.650420107471E+03   -0.65392E-01   -0.66506E-01 12084   0.199E+00    0.753E-01
RMM:   3    -0.650422244394E+03   -0.21369E-02   -0.45023E-02 11308   0.651E-01    0.837E-01
RMM:   4    -0.650420667856E+03    0.15765E-02   -0.78383E-03 10824   0.242E-01    0.566E-01
RMM:   5    -0.650419026885E+03    0.16410E-02   -0.28471E-03  9194   0.157E-01    0.212E-01
RMM:   6    -0.650419208089E+03   -0.18120E-03   -0.17477E-03 10305   0.851E-02    0.269E-01
RMM:   7    -0.650419193575E+03    0.14514E-04   -0.12035E-03 10643   0.899E-02    0.311E-01
RMM:   8    -0.650418799943E+03    0.39363E-03   -0.56556E-04  9057   0.748E-02    0.138E-01
RMM:   9    -0.650418696556E+03    0.10339E-03   -0.43983E-04  9508   0.447E-02    0.492E-02
RMM:  10    -0.650418734272E+03   -0.37715E-04   -0.15345E-04  6526   0.312E-02    0.971E-02
RMM:  11    -0.650418685735E+03    0.48537E-04   -0.62829E-05  5749   0.267E-02    0.166E-02
RMM:  12    -0.650418696515E+03   -0.10780E-04   -0.45429E-05  5653   0.170E-02    0.441E-02
RMM:  13    -0.650418687827E+03    0.86889E-05   -0.21184E-05  5198   0.192E-02
  20 F= -.65041869E+03 E0= -.65037154E+03  d E =-.832269E-02
 trial-energy change:   -0.008323  1 .order   -0.008110   -0.011207   -0.005013
 step:   1.5243(harm=  1.7151)  dis= 0.01821  next Energy=  -650.420260 (dE=-0.989E-02)
 bond charge predicted
       N       E                     dE             d eps       ncg     rms          rms(c)
DAV:   1    -0.650397165543E+03    0.21531E-01   -0.13075E+00  8448   0.641E+00    0.266E-01
RMM:   2    -0.650421329969E+03   -0.24164E-01   -0.24400E-01 12052   0.122E+00    0.498E-01
RMM:   3    -0.650421965324E+03   -0.63536E-03   -0.17471E-02 11291   0.415E-01    0.491E-01
RMM:   4    -0.650421541850E+03    0.42347E-03   -0.31164E-03 10270   0.156E-01    0.343E-01
RMM:   5    -0.650420918885E+03    0.62296E-03   -0.11188E-03  8638   0.101E-01    0.129E-01
RMM:   6    -0.650420988733E+03   -0.69847E-04   -0.67197E-04  9466   0.534E-02    0.165E-01
RMM:   7    -0.650420993164E+03   -0.44314E-05   -0.44831E-04  9905   0.560E-02    0.193E-01
RMM:   8    -0.650420838176E+03    0.15499E-03   -0.21299E-04  8118   0.500E-02    0.813E-02
RMM:   9    -0.650420800849E+03    0.37327E-04   -0.16505E-04  7829   0.287E-02    0.247E-02
RMM:  10    -0.650420818611E+03   -0.17762E-04   -0.56168E-05  5607   0.240E-02    0.624E-02
RMM:  11    -0.650420799111E+03    0.19500E-04   -0.25038E-05  5247   0.201E-02    0.948E-03
RMM:  12    -0.650420802692E+03   -0.35814E-05   -0.21010E-05  5239   0.119E-02
  21 F= -.65042080E+03 E0= -.65037380E+03  d E =-.104376E-01
 curvature:  -1.34 expect dE=-0.740E-02 dE for cont linesearch -0.156E-03
 ZBRENT: extrapolating
 opt :   1.7559  next Energy=  -650.420978 (dE=-0.106E-01)
 bond charge predicted
       N       E                     dE             d eps       ncg     rms          rms(c)
DAV:   1    -0.650417187840E+03    0.36113E-02   -0.21109E-01  8952   0.258E+00    0.108E-01
RMM:   2    -0.650421149703E+03   -0.39619E-02   -0.39659E-02 12056   0.491E-01    0.218E-01
RMM:   3    -0.650421185488E+03   -0.35786E-04   -0.27894E-03 10824   0.159E-01    0.190E-01
RMM:   4    -0.650421138136E+03    0.47353E-04   -0.50001E-04  9051   0.671E-02    0.138E-01
RMM:   5    -0.650421031729E+03    0.10641E-03   -0.17972E-04  6466   0.418E-02    0.516E-02
RMM:   6    -0.650421043535E+03   -0.11805E-04   -0.10515E-04  6475   0.253E-02    0.676E-02
RMM:   7    -0.650421043749E+03   -0.21405E-06   -0.72238E-05  6735   0.274E-02
  22 F= -.65042104E+03 E0= -.65037412E+03  d E =-.106786E-01
 curvature:  -1.51 expect dE=-0.104E-01 dE for cont linesearch -0.122E-04
 trial: gam= 0.58362 g(F)=  0.600E-02 g(S)=  0.888E-03 ort = 0.399E-03 (trialstep = 0.111E+01)
 search vector abs. value=  0.141E-01
 bond charge predicted
       N       E                     dE             d eps       ncg     rms          rms(c)
DAV:   1    -0.650366600510E+03    0.54443E-01   -0.35670E+00  8424   0.105E+01    0.401E-01
RMM:   2    -0.650431467623E+03   -0.64867E-01   -0.62824E-01 11873   0.199E+00    0.109E+00
RMM:   3    -0.650427925379E+03    0.35422E-02   -0.42660E-02 11300   0.641E-01    0.560E-01
RMM:   4    -0.650428065816E+03   -0.14044E-03   -0.83895E-03 11187   0.222E-01    0.526E-01
RMM:   5    -0.650426752941E+03    0.13129E-02   -0.24872E-03  9232   0.140E-01    0.187E-01
RMM:   6    -0.650426892081E+03   -0.13914E-03   -0.12872E-03  9876   0.814E-02    0.239E-01
RMM:   7    -0.650426780144E+03    0.11194E-03   -0.98989E-04 10325   0.803E-02    0.245E-01
RMM:   8    -0.650426532160E+03    0.24798E-03   -0.48672E-04  8940   0.685E-02    0.122E-01
RMM:   9    -0.650426496256E+03    0.35904E-04   -0.33140E-04  9028   0.445E-02    0.990E-02
RMM:  10    -0.650426462954E+03    0.33302E-04   -0.12314E-04  6336   0.324E-02    0.479E-02
RMM:  11    -0.650426457262E+03    0.56924E-05   -0.78097E-05  6144   0.205E-02
  23 F= -.65042646E+03 E0= -.65037947E+03  d E =-.541351E-02
 trial-energy change:   -0.005414  1 .order   -0.005409   -0.007898   -0.002920
 step:   1.7604(harm=  1.7604)  dis= 0.02223  next Energy=  -650.427310 (dE=-0.627E-02)
 bond charge predicted
       N       E                     dE             d eps       ncg     rms          rms(c)
DAV:   1    -0.650406793022E+03    0.19670E-01   -0.12301E+00  8424   0.614E+00    0.238E-01
RMM:   2    -0.650429460065E+03   -0.22667E-01   -0.21691E-01 11844   0.117E+00    0.689E-01
RMM:   3    -0.650427874038E+03    0.15860E-02   -0.14948E-02 11209   0.378E-01    0.319E-01
RMM:   4    -0.650427983779E+03   -0.10974E-03   -0.28557E-03 10545   0.134E-01    0.319E-01
RMM:   5    -0.650427492543E+03    0.49124E-03   -0.90078E-04  8506   0.858E-02    0.104E-01
RMM:   6    -0.650427561195E+03   -0.68652E-04   -0.47361E-04  9145   0.512E-02    0.150E-01
RMM:   7    -0.650427508346E+03    0.52849E-04   -0.31587E-04  9351   0.489E-02    0.141E-01
RMM:   8    -0.650427438321E+03    0.70025E-04   -0.17475E-04  7697   0.438E-02    0.801E-02
RMM:   9    -0.650427407663E+03    0.30658E-04   -0.12052E-04  7288   0.298E-02    0.438E-02
RMM:  10    -0.650427408529E+03   -0.86585E-06   -0.51661E-05  5668   0.221E-02
  24 F= -.65042741E+03 E0= -.65038043E+03  d E =-.636478E-02
 curvature:  -1.74 expect dE=-0.767E-02 dE for cont linesearch -0.112E-04
 trial: gam= 0.60228 g(F)=  0.351E-02 g(S)=  0.899E-03 ort = 0.301E-03 (trialstep = 0.124E+01)
 search vector abs. value=  0.988E-02
 bond charge predicted
       N       E                     dE             d eps       ncg     rms          rms(c)
DAV:   1    -0.650382491942E+03    0.44916E-01   -0.30120E+00  8424   0.937E+00    0.610E-01
RMM:   2    -0.650470803757E+03   -0.88312E-01   -0.56326E-01 12706   0.183E+00    0.235E+00
RMM:   3    -0.650433603956E+03    0.37200E-01   -0.41350E-02 10207   0.770E-01    0.809E-01
RMM:   4    -0.650432680224E+03    0.92373E-03   -0.15155E-02 11397   0.279E-01    0.566E-01
RMM:   5    -0.650431216732E+03    0.14635E-02   -0.38842E-03 11278   0.161E-01    0.364E-01
RMM:   6    -0.650430742597E+03    0.47414E-03   -0.14083E-03 10000   0.997E-02    0.213E-01
RMM:   7    -0.650431496377E+03   -0.75378E-03   -0.16184E-03 11179   0.104E-01    0.477E-01
RMM:   8    -0.650430395639E+03    0.11007E-02   -0.77600E-04 10302   0.932E-02    0.919E-02
RMM:   9    -0.650430510519E+03   -0.11488E-03   -0.61870E-04 10691   0.507E-02    0.166E-01
RMM:  10    -0.650430380074E+03    0.13044E-03   -0.19564E-04  8308   0.369E-02    0.260E-02
RMM:  11    -0.650430391603E+03   -0.11529E-04   -0.12584E-04  7272   0.180E-02    0.336E-02
RMM:  12    -0.650430390161E+03    0.14420E-05   -0.29872E-05  5339   0.194E-02
  25 F= -.65043039E+03 E0= -.65038350E+03  d E =-.298163E-02
 trial-energy change:   -0.002982  1 .order   -0.002959   -0.005687   -0.000231
 step:   1.2922(harm=  1.2922)  dis= 0.01440  next Energy=  -650.430373 (dE=-0.296E-02)
 bond charge predicted
       N       E                     dE             d eps       ncg     rms          rms(c)
DAV:   1    -0.650430319761E+03    0.71842E-04   -0.56102E-03 10224   0.399E-01    0.284E-02
RMM:   2    -0.650430501213E+03   -0.18145E-03   -0.10063E-03 10924   0.780E-02    0.116E-01
RMM:   3    -0.650430412207E+03    0.89007E-04   -0.79017E-05  5917   0.410E-02    0.401E-02
RMM:   4    -0.650430408636E+03    0.35703E-05   -0.27448E-05  5312   0.209E-02
  26 F= -.65043041E+03 E0= -.65038353E+03  d E =-.300011E-02
 curvature:  -1.39 expect dE=-0.400E-02 dE for cont linesearch -0.209E-06
 trial: gam= 0.62846 g(F)=  0.152E-02 g(S)=  0.136E-02 ort =-0.385E-04 (trialstep = 0.125E+01)
 search vector abs. value=  0.673E-02
 bond charge predicted
       N       E                     dE             d eps       ncg     rms          rms(c)
DAV:   1    -0.650412303486E+03    0.18109E-01   -0.20594E+00  9888   0.768E+00    0.984E-01
RMM:   2    -0.650574647674E+03   -0.16234E+00   -0.45507E-01 11403   0.191E+00    0.410E+00
RMM:   3    -0.650435524522E+03    0.13912E+00   -0.74203E-02 10177   0.107E+00    0.789E-01
RMM:   4    -0.650434526206E+03    0.99832E-03   -0.18570E-02 12044   0.293E-01    0.590E-01
RMM:   5    -0.650433257182E+03    0.12690E-02   -0.42877E-03 11299   0.174E-01    0.481E-01
RMM:   6    -0.650432259639E+03    0.99754E-03   -0.17158E-03 10560   0.130E-01    0.255E-01
RMM:   7    -0.650432291578E+03   -0.31939E-04   -0.19457E-03 11988   0.106E-01    0.291E-01
RMM:   8    -0.650431935485E+03    0.35609E-03   -0.60306E-04 10092   0.744E-02    0.137E-01
RMM:   9    -0.650431865258E+03    0.70228E-04   -0.44571E-04 11081   0.422E-02    0.885E-02
WARNING in EDDRMM: call to ZHEGV failed, returncode =   8  4      5
RMM:  10    -0.650431844523E+03    0.20735E-04   -0.14653E-04  8657   0.268E-02    0.497E-02
RMM:  11    -0.650431835877E+03    0.86460E-05   -0.70573E-05  7371   0.197E-02
  27 F= -.65043184E+03 E0= -.65038493E+03  d E =-.142724E-02
 trial-energy change:   -0.001427  1 .order   -0.001059   -0.003567    0.001449
 step:   0.9819(harm=  0.8891)  dis= 0.00908  next Energy=  -650.431988 (dE=-0.158E-02)
 bond charge predicted
       N       E                     dE             d eps       ncg     rms          rms(c)
DAV:   1    -0.650431100004E+03    0.74452E-03   -0.94450E-02 10272   0.165E+00    0.210E-01
RMM:   2    -0.650438496625E+03   -0.73966E-02   -0.21116E-02 11617   0.420E-01    0.880E-01
RMM:   3    -0.650432188679E+03    0.63079E-02   -0.33804E-03  9746   0.228E-01    0.179E-01
RMM:   4    -0.650432120885E+03    0.67794E-04   -0.81153E-04 10713   0.716E-02    0.124E-01
RMM:   5    -0.650432094897E+03    0.25988E-04   -0.18030E-04  9072   0.431E-02    0.126E-01
RMM:   6    -0.650432010944E+03    0.83953E-04   -0.81486E-05  6655   0.375E-02    0.461E-02
RMM:   7    -0.650432029467E+03   -0.18523E-04   -0.99934E-05  7357   0.296E-02    0.797E-02
RMM:   8    -0.650432000195E+03    0.29271E-04   -0.33295E-05  5215   0.266E-02    0.305E-02
RMM:   9    -0.650431996783E+03    0.34120E-05   -0.17784E-05  4971   0.185E-02
  28 F= -.65043200E+03 E0= -.65038509E+03  d E =-.158815E-02
 curvature:  -0.98 expect dE=-0.274E-02 dE for cont linesearch -0.104E-04
 trial: gam= 1.13616 g(F)=  0.114E-02 g(S)=  0.166E-02 ort =-0.268E-03 (trialstep = 0.741E+00)
 search vector abs. value=  0.109E-01
 bond charge predicted
       N       E                     dE             d eps       ncg     rms          rms(c)
DAV:   1    -0.650413987888E+03    0.18012E-01   -0.12247E+00  8400   0.602E+00    0.252E-01
RMM:   2    -0.650437352959E+03   -0.23365E-01   -0.20745E-01 12349   0.108E+00    0.749E-01
RMM:   3    -0.650434046642E+03    0.33063E-02   -0.10119E-02 10556   0.310E-01    0.373E-01
RMM:   4    -0.650434124140E+03   -0.77497E-04   -0.29477E-03 10005   0.132E-01    0.357E-01
RMM:   5    -0.650433409528E+03    0.71461E-03   -0.71257E-04  8264   0.856E-02    0.134E-01
RMM:   6    -0.650433395875E+03    0.13653E-04   -0.51325E-04  8873   0.475E-02    0.116E-01
RMM:   7    -0.650433532603E+03   -0.13673E-03   -0.51989E-04 10067   0.586E-02    0.226E-01
RMM:   8    -0.650433282772E+03    0.24983E-03   -0.24283E-04  8770   0.515E-02    0.419E-02
RMM:   9    -0.650433288761E+03   -0.59888E-05   -0.11500E-04  6673   0.238E-02    0.537E-02
RMM:  10    -0.650433277583E+03    0.11178E-04   -0.35667E-05  5382   0.237E-02    0.194E-02
RMM:  11    -0.650433278475E+03   -0.89189E-06   -0.25132E-05  5360   0.126E-02
  29 F= -.65043328E+03 E0= -.65038651E+03  d E =-.128169E-02
 trial-energy change:   -0.001282  1 .order   -0.001207   -0.001843   -0.000570
 step:   0.9676(harm=  1.0722)  dis= 0.01199  next Energy=  -650.433368 (dE=-0.137E-02)
 bond charge predicted
       N       E                     dE             d eps       ncg     rms          rms(c)
DAV:   1    -0.650431590941E+03    0.16866E-02   -0.11523E-01  8496   0.185E+00    0.783E-02
RMM:   2    -0.650433762673E+03   -0.21717E-02   -0.19208E-02 12246   0.332E-01    0.229E-01
RMM:   3    -0.650433478225E+03    0.28445E-03   -0.11462E-03  9294   0.110E-01    0.107E-01
RMM:   4    -0.650433502661E+03   -0.24436E-04   -0.32497E-04  8391   0.496E-02    0.111E-01
RMM:   5    -0.650433439651E+03    0.63011E-04   -0.81156E-05  5779   0.304E-02    0.470E-02
RMM:   6    -0.650433435090E+03    0.45606E-05   -0.51314E-05  5746   0.184E-02
  30 F= -.65043344E+03 E0= -.65038670E+03  d E =-.143831E-02
 curvature:  -2.11 expect dE=-0.344E-02 dE for cont linesearch -0.400E-04
 ZBRENT: increasing intervall
 opt :   1.4215  next Energy=  -650.433498 (dE=-0.150E-02)
 bond charge predicted
       N       E                     dE             d eps       ncg     rms          rms(c)
DAV:   1    -0.650426206017E+03    0.72336E-02   -0.45801E-01  8400   0.369E+00    0.167E-01
RMM:   2    -0.650436729712E+03   -0.10524E-01   -0.78667E-02 12276   0.670E-01    0.779E-01
RMM:   3    -0.650433692475E+03    0.30372E-02   -0.41087E-03  9986   0.204E-01    0.242E-01
RMM:   4    -0.650433654528E+03    0.37947E-04   -0.14609E-03  9504   0.922E-02    0.202E-01
RMM:   5    -0.650433465752E+03    0.18878E-03   -0.41327E-04  8444   0.542E-02    0.120E-01
RMM:   6    -0.650433397791E+03    0.67962E-04   -0.19004E-04  7108   0.357E-02    0.520E-02
RMM:   7    -0.650433475678E+03   -0.77887E-04   -0.24378E-04  9319   0.380E-02    0.146E-01
RMM:   8    -0.650433368101E+03    0.10758E-03   -0.76960E-05  6518   0.351E-02    0.225E-02
RMM:   9    -0.650433377426E+03   -0.93248E-05   -0.55738E-05  5810   0.184E-02
  31 F= -.65043338E+03 E0= -.65038671E+03  d E =-.138064E-02
 curvature:  -3.32 expect dE=-0.753E-02 dE for cont linesearch -0.776E-04
 ZBRENT: bracketing found
 ZBRENT: interpolating
 opt :   1.1827  next Energy=  -650.433484 (dE=-0.149E-02)
 bond charge predicted
       N       E                     dE             d eps       ncg     rms          rms(c)
DAV:   1    -0.650431463255E+03    0.19048E-02   -0.12770E-01  8448   0.195E+00    0.809E-02
RMM:   2    -0.650433856899E+03   -0.23936E-02   -0.21398E-02 12482   0.346E-01    0.239E-01
RMM:   3    -0.650433548902E+03    0.30800E-03   -0.10219E-03  9580   0.101E-01    0.115E-01
RMM:   4    -0.650433555145E+03   -0.62426E-05   -0.27776E-04  8203   0.483E-02    0.111E-01
RMM:   5    -0.650433481889E+03    0.73256E-04   -0.63525E-05  5688   0.298E-02    0.447E-02
RMM:   6    -0.650433478279E+03    0.36103E-05   -0.36441E-05  5404   0.192E-02
  32 F= -.65043348E+03 E0= -.65038682E+03  d E =-.148150E-02
 curvature:  -2.09 expect dE=-0.386E-02 dE for cont linesearch -0.118E-04
 trial: gam= 0.54478 g(F)=  0.150E-02 g(S)=  0.354E-03 ort =-0.248E-03 (trialstep = 0.829E+00)
 search vector abs. value=  0.480E-02
 bond charge predicted
       N       E                     dE             d eps       ncg     rms          rms(c)
DAV:   1    -0.650423039120E+03    0.10443E-01   -0.70106E-01  8424   0.475E+00    0.201E-01
RMM:   2    -0.650436890743E+03   -0.13852E-01   -0.12490E-01 11935   0.872E-01    0.671E-01
RMM:   3    -0.650434739320E+03    0.21514E-02   -0.69481E-03 10657   0.258E-01    0.235E-01
RMM:   4    -0.650434838405E+03   -0.99086E-04   -0.17474E-03  9679   0.103E-01    0.231E-01
RMM:   5    -0.650434496166E+03    0.34224E-03   -0.45839E-04  8123   0.652E-02    0.100E-01
RMM:   6    -0.650434529132E+03   -0.32966E-04   -0.25625E-04  7884   0.440E-02    0.130E-01
RMM:   7    -0.650434525390E+03    0.37420E-05   -0.27244E-04  9113   0.390E-02    0.140E-01
RMM:   8    -0.650434433112E+03    0.92278E-04   -0.10219E-04  6825   0.393E-02    0.573E-02
RMM:   9    -0.650434415225E+03    0.17887E-04   -0.69436E-05  6351   0.234E-02    0.280E-02
RMM:  10    -0.650434415668E+03   -0.44330E-06   -0.26464E-05  5228   0.192E-02
  33 F= -.65043442E+03 E0= -.65038781E+03  d E =-.937390E-03
 trial-energy change:   -0.000937  1 .order   -0.000978   -0.001420   -0.000535
 step:   1.3304(harm=  1.3304)  dis= 0.01072  next Energy=  -650.434618 (dE=-0.114E-02)
 bond charge predicted
       N       E                     dE             d eps       ncg     rms          rms(c)
DAV:   1    -0.650430377915E+03    0.40373E-02   -0.25561E-01  8472   0.287E+00    0.116E-01
RMM:   2    -0.650435061638E+03   -0.46837E-02   -0.45501E-02 11937   0.525E-01    0.287E-01
RMM:   3    -0.650434728018E+03    0.33362E-03   -0.24997E-03 10700   0.142E-01    0.179E-01
RMM:   4    -0.650434698999E+03    0.29019E-04   -0.57252E-04  9193   0.620E-02    0.142E-01
RMM:   5    -0.650434581881E+03    0.11712E-03   -0.16013E-04  6458   0.420E-02    0.618E-02
RMM:   6    -0.650434590524E+03   -0.86427E-05   -0.10171E-04  6412   0.268E-02    0.758E-02
RMM:   7    -0.650434582753E+03    0.77708E-05   -0.79640E-05  6918   0.276E-02
  34 F= -.65043458E+03 E0= -.65038799E+03  d E =-.110447E-02
 curvature:  -1.87 expect dE=-0.215E-02 dE for cont linesearch -0.588E-05
 trial: gam= 0.53332 g(F)=  0.969E-03 g(S)=  0.186E-03 ort = 0.123E-03 (trialstep = 0.929E+00)
 search vector abs. value=  0.265E-02
 bond charge predicted
       N       E                     dE             d eps       ncg     rms          rms(c)
DAV:   1    -0.650428173426E+03    0.64171E-02   -0.47530E-01  8400   0.373E+00    0.147E-01
RMM:   2    -0.650436206604E+03   -0.80332E-02   -0.77536E-02 12140   0.683E-01    0.349E-01
RMM:   3    -0.650435647649E+03    0.55896E-03   -0.39106E-03 10804   0.180E-01    0.210E-01
RMM:   4    -0.650435638810E+03    0.88391E-05   -0.87182E-04  9905   0.745E-02    0.200E-01
RMM:   5    -0.650435425629E+03    0.21318E-03   -0.24299E-04  7429   0.527E-02    0.869E-02
RMM:   6    -0.650435422583E+03    0.30462E-05   -0.19668E-04  7622   0.339E-02    0.837E-02
RMM:   7    -0.650435423894E+03   -0.13106E-05   -0.17514E-04  8959   0.338E-02    0.101E-01
RMM:   8    -0.650435398178E+03    0.25716E-04   -0.72029E-05  6305   0.307E-02    0.739E-02
RMM:   9    -0.650435368288E+03    0.29889E-04   -0.61134E-05  6373   0.240E-02    0.172E-02
RMM:  10    -0.650435370947E+03   -0.26584E-05   -0.24030E-05  5227   0.174E-02
  35 F= -.65043537E+03 E0= -.65038874E+03  d E =-.788194E-03
 trial-energy change:   -0.000788  1 .order   -0.000853   -0.001134   -0.000573
 step:   1.8781(harm=  1.8781)  dis= 0.01250  next Energy=  -650.435728 (dE=-0.115E-02)
 bond charge predicted
       N       E                     dE             d eps       ncg     rms          rms(c)
DAV:   1    -0.650428103756E+03    0.72645E-02   -0.49677E-01  8400   0.379E+00    0.152E-01
RMM:   2    -0.650436369258E+03   -0.82655E-02   -0.80227E-02 12192   0.687E-01    0.333E-01
RMM:   3    -0.650436014499E+03    0.35476E-03   -0.41980E-03 10770   0.201E-01    0.268E-01
RMM:   4    -0.650435986698E+03    0.27801E-04   -0.99085E-04  9787   0.880E-02    0.228E-01
RMM:   5    -0.650435684346E+03    0.30235E-03   -0.32462E-04  7664   0.604E-02    0.756E-02
RMM:   6    -0.650435707325E+03   -0.22979E-04   -0.24629E-04  7847   0.343E-02    0.958E-02
RMM:   7    -0.650435666005E+03    0.41319E-04   -0.28004E-04 10256   0.346E-02    0.572E-02
RMM:   8    -0.650435660356E+03    0.56498E-05   -0.47912E-05  5597   0.275E-02
  36 F= -.65043566E+03 E0= -.65038897E+03  d E =-.107760E-02
 curvature:  -2.04 expect dE=-0.181E-02 dE for cont linesearch -0.793E-06
 trial: gam= 0.73971 g(F)=  0.820E-03 g(S)=  0.650E-04 ort = 0.321E-04 (trialstep = 0.112E+01)
 search vector abs. value=  0.238E-02
 bond charge predicted
       N       E                     dE             d eps       ncg     rms          rms(c)
DAV:   1    -0.650425778254E+03    0.98878E-02   -0.63537E-01  8400   0.442E+00    0.160E-01
RMM:   2    -0.650437170335E+03   -0.11392E-01   -0.11097E-01 11936   0.779E-01    0.343E-01
RMM:   3    -0.650436750226E+03    0.42011E-03   -0.63606E-03 10824   0.224E-01    0.284E-01
RMM:   4    -0.650436678558E+03    0.71668E-04   -0.12274E-03  9418   0.962E-02    0.223E-01
RMM:   5    -0.650436416026E+03    0.26253E-03   -0.43792E-04  7861   0.581E-02    0.951E-02
RMM:   6    -0.650436405562E+03    0.10464E-04   -0.24232E-04  7557   0.313E-02    0.699E-02
RMM:   7    -0.650436412675E+03   -0.71138E-05   -0.16503E-04  8826   0.289E-02    0.991E-02
RMM:   8    -0.650436378729E+03    0.33946E-04   -0.71406E-05  6271   0.302E-02    0.612E-02
RMM:   9    -0.650436368476E+03    0.10253E-04   -0.73897E-05  7050   0.246E-02    0.422E-02
RMM:  10    -0.650436362747E+03    0.57289E-05   -0.23729E-05  5203   0.190E-02
  37 F= -.65043636E+03 E0= -.65038969E+03  d E =-.702392E-03
 trial-energy change:   -0.000702  1 .order   -0.000766   -0.001017   -0.000514
 step:   2.2634(harm=  2.2634)  dis= 0.01480  next Energy=  -650.436689 (dE=-0.103E-02)
 bond charge predicted
       N       E                     dE             d eps       ncg     rms          rms(c)
DAV:   1    -0.650425435609E+03    0.10933E-01   -0.66450E-01  8400   0.452E+00    0.164E-01
RMM:   2    -0.650437618245E+03   -0.12183E-01   -0.11775E-01 11962   0.799E-01    0.379E-01
RMM:   3    -0.650436948066E+03    0.67018E-03   -0.59982E-03 10885   0.212E-01    0.292E-01
RMM:   4    -0.650436852011E+03    0.96055E-04   -0.12505E-03  9383   0.925E-02    0.219E-01
RMM:   5    -0.650436564607E+03    0.28740E-03   -0.39716E-04  7717   0.584E-02    0.815E-02
RMM:   6    -0.650436579245E+03   -0.14637E-04   -0.26389E-04  7796   0.316E-02    0.856E-02
RMM:   7    -0.650436570295E+03    0.89502E-05   -0.19349E-04  9277   0.288E-02    0.931E-02
RMM:   8    -0.650436543953E+03    0.26341E-04   -0.62762E-05  5885   0.303E-02    0.629E-02
RMM:   9    -0.650436530681E+03    0.13272E-04   -0.61442E-05  6527   0.246E-02    0.357E-02
RMM:  10    -0.650436527539E+03    0.31419E-05   -0.23287E-05  5199   0.186E-02
  38 F= -.65043653E+03 E0= -.65038986E+03  d E =-.867183E-03
 curvature:  -2.97 expect dE=-0.310E-02 dE for cont linesearch -0.243E-05
 trial: gam= 1.29250 g(F)=  0.844E-03 g(S)=  0.200E-03 ort =-0.442E-04 (trialstep = 0.654E+00)
 search vector abs. value=  0.491E-02
 bond charge predicted
       N       E                     dE             d eps       ncg     rms          rms(c)
DAV:   1    -0.650428589083E+03    0.79416E-02   -0.45015E-01  8448   0.379E+00    0.227E-01
RMM:   2    -0.650442188490E+03   -0.13599E-01   -0.95384E-02 12728   0.683E-01    0.797E-01
RMM:   3    -0.650437068697E+03    0.51198E-02   -0.53191E-03  9773   0.252E-01    0.176E-01
RMM:   4    -0.650437444704E+03   -0.37601E-03   -0.18900E-03 10483   0.941E-02    0.305E-01
RMM:   5    -0.650436995850E+03    0.44885E-03   -0.37481E-04  9054   0.587E-02    0.102E-01
RMM:   6    -0.650436977873E+03    0.17976E-04   -0.22356E-04  7498   0.374E-02    0.830E-02
RMM:   7    -0.650436931193E+03    0.46680E-04   -0.25435E-04 10560   0.369E-02    0.323E-02
RMM:   8    -0.650436944869E+03   -0.13675E-04   -0.59511E-05  5840   0.280E-02    0.714E-02
RMM:   9    -0.650436922858E+03    0.22011E-04   -0.28986E-05  5183   0.251E-02    0.185E-02
RMM:  10    -0.650436924027E+03   -0.11692E-05   -0.18508E-05  5123   0.141E-02
  39 F= -.65043692E+03 E0= -.65039017E+03  d E =-.396488E-03
 trial-energy change:   -0.000396  1 .order   -0.000417   -0.000646   -0.000188
 step:   0.9230(harm=  0.9230)  dis= 0.00870  next Energy=  -650.436983 (dE=-0.456E-03)
 bond charge predicted
       N       E                     dE             d eps       ncg     rms          rms(c)
DAV:   1    -0.650435548281E+03    0.13746E-02   -0.76036E-02  8664   0.155E+00    0.950E-02
RMM:   2    -0.650437900823E+03   -0.23525E-02   -0.16198E-02 12538   0.280E-01    0.336E-01
RMM:   3    -0.650436985310E+03    0.91551E-03   -0.96161E-04  8466   0.112E-01    0.707E-02
RMM:   4    -0.650437053394E+03   -0.68084E-04   -0.34772E-04  8808   0.443E-02    0.125E-01
RMM:   5    -0.650436974779E+03    0.78615E-04   -0.58735E-05  5590   0.265E-02    0.362E-02
RMM:   6    -0.650436976320E+03   -0.15411E-05   -0.42353E-05  5590   0.185E-02
  40 F= -.65043698E+03 E0= -.65039023E+03  d E =-.448781E-03
 curvature:  -2.30 expect dE=-0.107E-02 dE for cont linesearch -0.133E-05
 trial: gam= 0.07841 g(F)=  0.434E-03 g(S)=  0.327E-04 ort = 0.533E-04 (trialstep = 0.708E+00)
 search vector abs. value=  0.505E-03
 bond charge predicted
       N       E                     dE             d eps       ncg     rms          rms(c)
DAV:   1    -0.650436759041E+03    0.21574E-03   -0.43818E-02  8952   0.955E-01    0.714E-02
RMM:   2    -0.650437904398E+03   -0.11454E-02   -0.58487E-03 12798   0.207E-01    0.317E-01
RMM:   3    -0.650437277983E+03    0.62642E-03   -0.57716E-04  9297   0.947E-02    0.936E-02
RMM:   4    -0.650437257762E+03    0.20221E-04   -0.21343E-04  8439   0.440E-02    0.629E-02
RMM:   5    -0.650437245995E+03    0.11767E-04   -0.66159E-05  5991   0.238E-02    0.534E-02
RMM:   6    -0.650437234890E+03    0.11105E-04   -0.22989E-05  5166   0.214E-02    0.287E-02
RMM:   7    -0.650437235220E+03   -0.32995E-06   -0.21804E-05  5087   0.166E-02
  41 F= -.65043724E+03 E0= -.65039050E+03  d E =-.258900E-03
 trial-energy change:   -0.000259  1 .order   -0.000263   -0.000333   -0.000192
 step:   1.6725(harm=  1.6725)  dis= 0.00198  next Energy=  -650.437370 (dE=-0.394E-03)
 bond charge predicted
       N       E                     dE             d eps       ncg     rms          rms(c)
DAV:   1    -0.650436416121E+03    0.81877E-03   -0.80839E-02  8568   0.130E+00    0.101E-01
RMM:   2    -0.650438473161E+03   -0.20570E-02   -0.10779E-02 12657   0.279E-01    0.411E-01
RMM:   3    -0.650437372212E+03    0.11009E-02   -0.11556E-03  9427   0.139E-01    0.140E-01
RMM:   4    -0.650437333823E+03    0.38388E-04   -0.45631E-04  9450   0.576E-02    0.802E-02
RMM:   5    -0.650437322759E+03    0.11064E-04   -0.13462E-04  7261   0.313E-02    0.802E-02
RMM:   6    -0.650437293174E+03    0.29585E-04   -0.43802E-05  5542   0.250E-02    0.351E-02
RMM:   7    -0.650437321024E+03   -0.27849E-04   -0.63734E-05  6392   0.243E-02    0.854E-02
RMM:   8    -0.650437288006E+03    0.33018E-04   -0.32724E-05  5285   0.230E-02    0.175E-02
RMM:   9    -0.650437288482E+03   -0.47574E-06   -0.23924E-05  5326   0.161E-02
  42 F= -.65043729E+03 E0= -.65039049E+03  d E =-.312162E-03
 curvature:  -0.90 expect dE=-0.289E-03 dE for cont linesearch -0.173E-04
 ZBRENT: interpolating
 opt :   1.4152  next Energy=  -650.437301 (dE=-0.325E-03)
 bond charge predicted
       N       E                     dE             d eps       ncg     rms          rms(c)
DAV:   1    -0.650437253232E+03    0.34775E-04   -0.59006E-03  9096   0.348E-01    0.262E-02
RMM:   2    -0.650437389074E+03   -0.13584E-03   -0.72169E-04 11985   0.745E-02    0.109E-01
RMM:   3    -0.650437315374E+03    0.73700E-04   -0.75493E-05  5614   0.428E-02    0.315E-02
RMM:   4    -0.650437313309E+03    0.20645E-05   -0.18442E-05  5058   0.211E-02
  43 F= -.65043731E+03 E0= -.65039053E+03  d E =-.336989E-03
 curvature:  -0.66 expect dE=-0.218E-03 dE for cont linesearch -0.674E-07
 trial: gam= 0.74312 g(F)=  0.236E-03 g(S)=  0.948E-04 ort = 0.720E-05 (trialstep = 0.692E+00)
 search vector abs. value=  0.621E-03
 bond charge predicted
       N       E                     dE             d eps       ncg     rms          rms(c)
DAV:   1    -0.650436434442E+03    0.88093E-03   -0.60741E-02 10224   0.147E+00    0.133E-01
RMM:   2    -0.650439695643E+03   -0.32612E-02   -0.13618E-02 12167   0.307E-01    0.529E-01
RMM:   3    -0.650437415767E+03    0.22799E-02   -0.16057E-03  8968   0.150E-01    0.958E-02
RMM:   4    -0.650437445070E+03   -0.29303E-04   -0.51039E-04  9791   0.540E-02    0.103E-01
RMM:   5    -0.650437383772E+03    0.61298E-04   -0.76700E-05  6164   0.292E-02    0.541E-02
RMM:   6    -0.650437377214E+03    0.65574E-05   -0.34513E-05  5326   0.232E-02
  44 F= -.65043738E+03 E0= -.65039056E+03  d E =-.639051E-04
 trial-energy change:   -0.000064  1 .order   -0.000124   -0.000232   -0.000015
 step:   0.7390(harm=  0.7390)  dis= 0.00091  next Energy=  -650.437438 (dE=-0.124E-03)
 bond charge predicted
       N       E                     dE             d eps       ncg     rms          rms(c)
DAV:   1    -0.650437377502E+03    0.62696E-05   -0.41033E-04 12720   0.113E-01    0.550E-02
RMM:   2    -0.650438373360E+03   -0.99586E-03   -0.58204E-04  7744   0.799E-02    0.444E-01
RMM:   3    -0.650437386264E+03    0.98710E-03   -0.27444E-04  7302   0.719E-02    0.566E-02
RMM:   4    -0.650437366458E+03    0.19806E-04   -0.21819E-05  5287   0.178E-02    0.275E-02
RMM:   5    -0.650437364195E+03    0.22636E-05   -0.63760E-06  4327   0.129E-02
  45 F= -.65043736E+03 E0= -.65039057E+03  d E =-.508853E-04
 curvature:  -0.68 expect dE=-0.163E-03 dE for cont linesearch -0.154E-06
 trial: gam= 0.52370 g(F)=  0.169E-03 g(S)=  0.694E-04 ort =-0.118E-04 (trialstep = 0.701E+00)
 search vector abs. value=  0.397E-03
 bond charge predicted
       N       E                     dE             d eps       ncg     rms          rms(c)
DAV:   1    -0.650436983706E+03    0.38275E-03   -0.37695E-02 10224   0.107E+00    0.981E-02
RMM:   2    -0.650438895850E+03   -0.19121E-02   -0.74201E-03 12137   0.233E-01    0.425E-01
RMM:   3    -0.650437567996E+03    0.13279E-02   -0.87763E-04  8800   0.112E-01    0.130E-01
RMM:   4    -0.650437511742E+03    0.56254E-04   -0.28118E-04  9091   0.446E-02    0.555E-02
RMM:   5    -0.650437507524E+03    0.42181E-05   -0.55864E-05  5769   0.238E-02
  46 F= -.65043751E+03 E0= -.65039071E+03  d E =-.143330E-03
 trial-energy change:   -0.000143  1 .order   -0.000128   -0.000163   -0.000092
 step:   1.6060(harm=  1.6060)  dis= 0.00153  next Energy=  -650.437551 (dE=-0.187E-03)
 reached required accuracy - stopping structural energy minimisation
