<?xml version="1.0" encoding="ISO-8859-1"?>
<modeling>
 <generator>
  <i name="program" type="string">vasp </i>
  <i name="version" type="string">5.4.4.18Apr17-6-g9f103f2a35  </i>
  <i name="subversion" type="string">(build Oct 18 2021 20:38:43) complex            parallel </i>
  <i name="platform" type="string">LinuxIFC </i>
  <i name="date" type="string">2024 06 11 </i>
  <i name="time" type="string">16:56:21 </i>
 </generator>
 <incar>
  <i type="string" name="SYSTEM">HECN</i>
  <i type="int" name="ISTART">     0</i>
  <i type="string" name="PREC">normal</i>
  <i type="string" name="ALGO">Fast</i>
  <i type="int" name="ICHARG">     2</i>
  <i type="int" name="NELM">    60</i>
  <i type="int" name="IBRION">     2</i>
  <i name="EDIFF">      0.00001000</i>
  <i name="EDIFFG">     -0.01000000</i>
  <i type="int" name="NSW">   100</i>
  <i type="int" name="ISIF">     3</i>
  <i name="ENCUT">    400.00000000</i>
  <i name="POTIM">      0.50000000</i>
  <i type="logical" name="LREAL"> F  </i>
  <i type="int" name="ISMEAR">     0</i>
  <i name="SIGMA">      0.10000000</i>
  <i type="logical" name="LWAVE"> F  </i>
  <i type="logical" name="LCHARG"> F  </i>
  <v type="int" name="KPOINT_BSE">    -1     0     0     0</v>
  <i type="int" name="NELM">    60</i>
 </incar>
 <structure name="primitive_cell" >
  <crystal>
   <varray name="basis" >
    <v>       8.93249989       0.00000000       0.00000000 </v>
    <v>       0.00575300       9.05559834       0.00000000 </v>
    <v>       0.03210180      -0.01574346       8.93712807 </v>
   </varray>
   <i name="volume">    722.91652451 </i>
   <varray name="rec_basis" >
    <v>       0.11195074      -0.00007112      -0.00040225 </v>
    <v>       0.00000000       0.11042893       0.00019453 </v>
    <v>       0.00000000       0.00000000       0.11189277 </v>
   </varray>
  </crystal>
  <varray name="positions" >
   <v>      -0.00311999      -0.00795003      -0.00075998 </v>
   <v>      -0.25232999      -0.00252000       0.01202000 </v>
   <v>      -0.00162995      -0.25686004       0.00460000 </v>
   <v>      -0.00280000      -0.00228008       0.25899999 </v>
   <v>       0.00281000       0.25024000       0.00130000 </v>
   <v>      -0.01103011       0.00202000      -0.26291001 </v>
   <v>       0.26146999      -0.00015998      -0.00704004 </v>
   <v>      -0.00135002      -0.22426001       0.26102000 </v>
   <v>      -0.25720997      -0.02130006      -0.23549005 </v>
   <v>       0.23780002       0.01082000      -0.25392002 </v>
   <v>      -0.24282000      -0.25897003       0.01100000 </v>
   <v>       0.24762001      -0.25026001      -0.00025994 </v>
   <v>      -0.00485996      -0.25507996      -0.25488003 </v>
   <v>      -0.24281000       0.25603001      -0.00408003 </v>
   <v>       0.25398003      -0.00285005       0.24912000 </v>
   <v>       0.24788999       0.24839000      -0.00342003 </v>
   <v>      -0.00562996       0.23617001       0.26379999 </v>
   <v>      -0.25120996      -0.01212001       0.26967001 </v>
   <v>       0.00201000       0.25541000      -0.26105999 </v>
   <v>       0.24177002      -0.24659003      -0.24981998 </v>
   <v>      -0.24963995      -0.25112000      -0.25243996 </v>
   <v>      -0.24255004       0.24437997      -0.25103001 </v>
   <v>       0.25133999      -0.25041998       0.24910999 </v>
   <v>      -0.24367000      -0.26108997       0.25767000 </v>
   <v>      -0.24686002       0.24616999       0.25492002 </v>
   <v>       0.24982001       0.24942998       0.24825000 </v>
   <v>       0.24900999       0.25315000      -0.25146000 </v>
   <v>      -0.48411003       0.01358000      -0.01924992 </v>
   <v>      -0.00158006      -0.49023002      -0.01386996 </v>
   <v>       0.02362000      -0.00216999       0.49557002 </v>
   <v>      -0.49480995      -0.23869001       0.00855000 </v>
   <v>      -0.49285006      -0.00023001       0.24673000 </v>
   <v>      -0.24160996      -0.49684002       0.00288000 </v>
   <v>      -0.00999997      -0.23784997       0.49746000 </v>
   <v>      -0.00948001       0.48088003       0.24100999 </v>
   <v>       0.24446000      -0.00176004      -0.49712002 </v>
   <v>      -0.26367999       0.00417000      -0.48937000 </v>
   <v>       0.24328000      -0.49927003      -0.00489006 </v>
   <v>      -0.49572003       0.24673000       0.00262000 </v>
   <v>      -0.00796004      -0.49944001      -0.24861998 </v>
   <v>      -0.00195991       0.24229999      -0.49871997 </v>
   <v>      -0.49991002       0.00061000      -0.26528002 </v>
   <v>      -0.26123997      -0.47171998      -0.26185001 </v>
   <v>       0.49950005      -0.24518001      -0.25182996 </v>
   <v>       0.24457999      -0.24951001       0.49983999 </v>
   <v>      -0.24599997      -0.27062001       0.49116997 </v>
   <v>      -0.49520997       0.24631001      -0.25289998 </v>
   <v>       0.24803003      -0.49835000       0.24955001 </v>
   <v>      -0.26448999      -0.48531996       0.26666001 </v>
   <v>      -0.49167000       0.25676999       0.25376001 </v>
   <v>      -0.49620997      -0.26073003       0.25905001 </v>
   <v>      -0.24692999       0.26163001      -0.49466998 </v>
   <v>       0.25272001       0.24823001      -0.49984997 </v>
   <v>       0.25679999       0.49462002      -0.25454998 </v>
   <v>       0.47957999      -0.01691999       0.49717999 </v>
   <v>      -0.49498994       0.49745998      -0.00165997 </v>
   <v>      -0.00572008      -0.49550001       0.49779000 </v>
   <v>      -0.49436004       0.23264998       0.49544997 </v>
   <v>      -0.49424994      -0.25041998       0.49720000 </v>
   <v>      -0.49299998      -0.49666998       0.25878999 </v>
   <v>      -0.49498997      -0.49782002      -0.26087997 </v>
   <v>      -0.25963999      -0.49803000      -0.49932997 </v>
   <v>       0.25841001      -0.49937998      -0.49870999 </v>
   <v>      -0.49461000      -0.47166995       0.49917999 </v>
  </varray>
 </structure>
 <varray name="primitive_index" >
  <v type="int" >        1 </v>
  <v type="int" >       25 </v>
  <v type="int" >       38 </v>
  <v type="int" >       34 </v>
  <v type="int" >       23 </v>
  <v type="int" >       29 </v>
  <v type="int" >       22 </v>
  <v type="int" >       59 </v>
  <v type="int" >       58 </v>
  <v type="int" >       56 </v>
  <v type="int" >        9 </v>
  <v type="int" >       18 </v>
  <v type="int" >       12 </v>
  <v type="int" >       17 </v>
  <v type="int" >        2 </v>
  <v type="int" >       14 </v>
  <v type="int" >        8 </v>
  <v type="int" >       16 </v>
  <v type="int" >       10 </v>
  <v type="int" >       45 </v>
  <v type="int" >       49 </v>
  <v type="int" >       30 </v>
  <v type="int" >       36 </v>
  <v type="int" >       39 </v>
  <v type="int" >       24 </v>
  <v type="int" >       21 </v>
  <v type="int" >       42 </v>
  <v type="int" >       53 </v>
  <v type="int" >       54 </v>
  <v type="int" >       61 </v>
  <v type="int" >       28 </v>
  <v type="int" >       26 </v>
  <v type="int" >       40 </v>
  <v type="int" >       47 </v>
  <v type="int" >       27 </v>
  <v type="int" >       43 </v>
  <v type="int" >       31 </v>
  <v type="int" >       37 </v>
  <v type="int" >       35 </v>
  <v type="int" >       48 </v>
  <v type="int" >       44 </v>
  <v type="int" >       33 </v>
  <v type="int" >       63 </v>
  <v type="int" >        7 </v>
  <v type="int" >       20 </v>
  <v type="int" >       64 </v>
  <v type="int" >        5 </v>
  <v type="int" >        3 </v>
  <v type="int" >       60 </v>
  <v type="int" >       15 </v>
  <v type="int" >       55 </v>
  <v type="int" >       11 </v>
  <v type="int" >       19 </v>
  <v type="int" >       13 </v>
  <v type="int" >       57 </v>
  <v type="int" >        4 </v>
  <v type="int" >        6 </v>
  <v type="int" >       32 </v>
  <v type="int" >       51 </v>
  <v type="int" >       41 </v>
  <v type="int" >       52 </v>
  <v type="int" >       50 </v>
  <v type="int" >       46 </v>
  <v type="int" >       62 </v>
 </varray>
 <kpoints>
  <generation param="Gamma">
   <v type="int" name="divisions">       3        3        3 </v>
   <v name="usershift">      0.00000000       0.00000000       0.00000000 </v>
   <v name="genvec1">      0.33333333      -0.00000000      -0.00000000 </v>
   <v name="genvec2">      0.00000000       0.33333333       0.00000000 </v>
   <v name="genvec3">      0.00000000       0.00000000       0.33333333 </v>
   <v name="shift">      0.00000000       0.00000000       0.00000000 </v>
  </generation>
  <varray name="kpointlist" >
   <v>       0.00000000       0.00000000       0.00000000 </v>
   <v>       0.33333333       0.00000000       0.00000000 </v>
   <v>       0.00000000       0.33333333       0.00000000 </v>
   <v>       0.33333333       0.33333333       0.00000000 </v>
   <v>      -0.33333333       0.33333333       0.00000000 </v>
   <v>       0.00000000       0.00000000       0.33333333 </v>
   <v>       0.33333333       0.00000000       0.33333333 </v>
   <v>      -0.33333333       0.00000000       0.33333333 </v>
   <v>       0.00000000       0.33333333       0.33333333 </v>
   <v>       0.33333333       0.33333333       0.33333333 </v>
   <v>      -0.33333333       0.33333333       0.33333333 </v>
   <v>       0.00000000      -0.33333333       0.33333333 </v>
   <v>       0.33333333      -0.33333333       0.33333333 </v>
   <v>      -0.33333333      -0.33333333       0.33333333 </v>
  </varray>
  <varray name="weights" >
   <v>       0.03703704 </v>
   <v>       0.07407407 </v>
   <v>       0.07407407 </v>
   <v>       0.07407407 </v>
   <v>       0.07407407 </v>
   <v>       0.07407407 </v>
   <v>       0.07407407 </v>
   <v>       0.07407407 </v>
   <v>       0.07407407 </v>
   <v>       0.07407407 </v>
   <v>       0.07407407 </v>
   <v>       0.07407407 </v>
   <v>       0.07407407 </v>
   <v>       0.07407407 </v>
  </varray>
 </kpoints>
 <parameters>
  <separator name="general" >
   <i type="string" name="SYSTEM">HECN</i>
   <i type="logical" name="LCOMPAT"> F  </i>
  </separator>
  <separator name="electronic" >
   <i type="string" name="PREC">normal</i>
   <i name="ENMAX">    400.00000000</i>
   <i name="ENAUG">    644.87300000</i>
   <i name="EDIFF">      0.00001000</i>
   <i type="int" name="IALGO">    68</i>
   <i type="int" name="IWAVPR">    11</i>
   <i type="int" name="NBANDS">   288</i>
   <i name="NELECT">    469.00000000</i>
   <i type="int" name="TURBO">     0</i>
   <i type="int" name="IRESTART">     0</i>
   <i type="int" name="NREBOOT">     0</i>
   <i type="int" name="NMIN">     0</i>
   <i name="EREF">      0.00000000</i>
   <separator name="electronic smearing" >
    <i type="int" name="ISMEAR">     0</i>
    <i name="SIGMA">      0.10000000</i>
    <i name="KSPACING">      0.50000000</i>
    <i type="logical" name="KGAMMA"> T  </i>
   </separator>
   <separator name="electronic projectors" >
    <i type="logical" name="LREAL"> F  </i>
    <v name="ROPT">      0.00000000      0.00000000      0.00000000      0.00000000      0.00000000      0.00000000      0.00000000</v>
    <i type="int" name="LMAXPAW">  -100</i>
    <i type="int" name="LMAXMIX">     2</i>
    <i type="logical" name="NLSPLINE"> F  </i>
   </separator>
   <separator name="electronic startup" >
    <i type="int" name="ISTART">     0</i>
    <i type="int" name="ICHARG">     2</i>
    <i type="int" name="INIWAV">     1</i>
   </separator>
   <separator name="electronic spin" >
    <i type="int" name="ISPIN">     1</i>
    <i type="logical" name="LNONCOLLINEAR"> F  </i>
    <v name="MAGMOM">      1.00000000      1.00000000      1.00000000      1.00000000      1.00000000      1.00000000      1.00000000      1.00000000      1.00000000      1.00000000      1.00000000      1.00000000      1.00000000      1.00000000      1.00000000      1.00000000      1.00000000      1.00000000      1.00000000      1.00000000
      1.00000000      1.00000000      1.00000000      1.00000000      1.00000000      1.00000000      1.00000000      1.00000000      1.00000000      1.00000000      1.00000000      1.00000000      1.00000000      1.00000000      1.00000000      1.00000000      1.00000000      1.00000000      1.00000000      1.00000000
      1.00000000      1.00000000      1.00000000      1.00000000      1.00000000      1.00000000      1.00000000      1.00000000      1.00000000      1.00000000      1.00000000      1.00000000      1.00000000      1.00000000      1.00000000      1.00000000      1.00000000      1.00000000      1.00000000      1.00000000
      1.00000000      1.00000000      1.00000000      1.00000000</v>
    <i name="NUPDOWN">     -1.00000000</i>
    <i type="logical" name="LSORBIT"> F  </i>
    <v name="SAXIS">      0.00000000      0.00000000      1.00000000</v>
    <i type="logical" name="LSPIRAL"> F  </i>
    <v name="QSPIRAL">      0.00000000      0.00000000      0.00000000</v>
    <i type="logical" name="LZEROZ"> F  </i>
   </separator>
   <separator name="electronic exchange-correlation" >
    <i type="logical" name="LASPH"> F  </i>
    <i type="logical" name="LMETAGGA"> F  </i>
   </separator>
   <separator name="electronic convergence" >
    <i type="int" name="NELM">    60</i>
    <i type="int" name="NELMDL">    -5</i>
    <i type="int" name="NELMIN">     2</i>
    <i name="ENINI">    400.00000000</i>
    <separator name="electronic convergence detail" >
     <i type="logical" name="LDIAG"> T  </i>
     <i type="logical" name="LSUBROT"> F  </i>
     <i name="WEIMIN">      0.00100000</i>
     <i name="EBREAK">      0.00000001</i>
     <i name="DEPER">      0.30000000</i>
     <i type="int" name="NRMM">     4</i>
     <i name="TIME">      0.40000000</i>
    </separator>
   </separator>
   <separator name="electronic mixer" >
    <i name="AMIX">      0.40000000</i>
    <i name="BMIX">      1.00000000</i>
    <i name="AMIN">      0.10000000</i>
    <i name="AMIX_MAG">      1.60000000</i>
    <i name="BMIX_MAG">      1.00000000</i>
    <separator name="electronic mixer details" >
     <i type="int" name="IMIX">     4</i>
     <i type="logical" name="MIXFIRST"> F  </i>
     <i type="int" name="MAXMIX">   -45</i>
     <i name="WC">    100.00000000</i>
     <i type="int" name="INIMIX">     1</i>
     <i type="int" name="MIXPRE">     1</i>
     <i type="int" name="MREMOVE">     5</i>
    </separator>
   </separator>
   <separator name="electronic dipolcorrection" >
    <i type="logical" name="LDIPOL"> F  </i>
    <i type="logical" name="LMONO"> F  </i>
    <i type="int" name="IDIPOL">     0</i>
    <i name="EPSILON">      1.00000000</i>
    <v name="DIPOL">   -100.00000000   -100.00000000   -100.00000000</v>
    <i name="EFIELD">      0.00000000</i>
   </separator>
  </separator>
  <separator name="grids" >
   <i type="int" name="NGX">    48</i>
   <i type="int" name="NGY">    48</i>
   <i type="int" name="NGZ">    48</i>
   <i type="int" name="NGXF">    96</i>
   <i type="int" name="NGYF">    96</i>
   <i type="int" name="NGZF">    96</i>
   <i type="logical" name="ADDGRID"> F  </i>
  </separator>
  <separator name="ionic" >
   <i type="int" name="NSW">   100</i>
   <i type="int" name="IBRION">     2</i>
   <i type="int" name="MDALGO">     0</i>
   <i type="int" name="ISIF">     3</i>
   <i name="PSTRESS">      0.00000000</i>
   <i name="EDIFFG">     -0.01000000</i>
   <i type="int" name="NFREE">     1</i>
   <i name="POTIM">      0.50000000</i>
   <i name="SMASS">     -3.00000000</i>
   <i name="SCALEE">      1.00000000</i>
  </separator>
  <separator name="ionic md" >
   <i name="TEBEG">      0.00010000</i>
   <i name="TEEND">      0.00010000</i>
   <i type="int" name="NBLOCK">     1</i>
   <i type="int" name="KBLOCK">   100</i>
   <i type="int" name="NPACO">   256</i>
   <i name="APACO">     16.00000000</i>
  </separator>
  <separator name="symmetry" >
   <i type="int" name="ISYM">     2</i>
   <i name="SYMPREC">      0.00001000</i>
  </separator>
  <separator name="dos" >
   <i type="int" name="LORBIT">     0</i>
   <v name="RWIGS">     -1.00000000     -1.00000000     -1.00000000     -1.00000000     -1.00000000     -1.00000000     -1.00000000</v>
   <i type="int" name="NEDOS">   301</i>
   <i name="EMIN">     10.00000000</i>
   <i name="EMAX">    -10.00000000</i>
   <i name="EFERMI">      0.00000000</i>
  </separator>
  <separator name="writing" >
   <i type="int" name="NWRITE">     2</i>
   <i type="logical" name="LWAVE"> F  </i>
   <i type="logical" name="LDOWNSAMPLE"> F  </i>
   <i type="logical" name="LCHARG"> F  </i>
   <i type="logical" name="LPARD"> F  </i>
   <i type="logical" name="LVTOT"> F  </i>
   <i type="logical" name="LVHAR"> F  </i>
   <i type="logical" name="LELF"> F  </i>
   <i type="logical" name="LOPTICS"> F  </i>
   <v name="STM">      0.00000000      0.00000000      0.00000000      0.00000000      0.00000000      0.00000000      0.00000000</v>
  </separator>
  <separator name="performance" >
   <i type="int" name="NPAR">    24</i>
   <i type="int" name="NSIM">     4</i>
   <i type="int" name="NBLK">    -1</i>
   <i type="logical" name="LPLANE"> T  </i>
   <i type="logical" name="LSCALAPACK"> T  </i>
   <i type="logical" name="LSCAAWARE"> F  </i>
   <i type="logical" name="LSCALU"> F  </i>
   <i type="logical" name="LASYNC"> F  </i>
   <i type="logical" name="LORBITALREAL"> F  </i>
  </separator>
  <separator name="miscellaneous" >
   <i type="int" name="IDIOT">     3</i>
   <i type="int" name="ISPECIAL">     0</i>
   <i type="logical" name="LMUSIC"> F  </i>
   <v name="POMASS">    178.49000000    180.94800000     91.22400000     14.00100000     12.01100000     51.99600000     95.94000000</v>
   <v name="DARWINR">      0.00000000      0.00000000      0.00000000      0.00000000      0.00000000      0.00000000      0.00000000</v>
   <v name="DARWINV">      1.00000000      1.00000000      1.00000000      1.00000000      1.00000000      1.00000000      1.00000000</v>
   <i type="logical" name="LCORR"> T  </i>
  </separator>
  <i type="logical" name="GGA_COMPAT"> T  </i>
  <i type="logical" name="LBERRY"> F  </i>
  <i type="int" name="ICORELEVEL">     0</i>
  <i type="logical" name="LDAU"> F  </i>
  <i type="int" name="I_CONSTRAINED_M">     0</i>
  <separator name="electronic exchange-correlation" >
   <i type="string" name="GGA">--</i>
   <i type="int" name="VOSKOWN">     0</i>
   <i type="logical" name="LHFCALC"> F  </i>
   <i type="string" name="PRECFOCK"></i>
   <i type="logical" name="LSYMGRAD"> F  </i>
   <i type="logical" name="LHFONE"> F  </i>
   <i type="logical" name="LRHFCALC"> F  </i>
   <i type="logical" name="LTHOMAS"> F  </i>
   <i type="logical" name="LMODELHF"> F  </i>
   <i name="ENCUT4O">     -1.00000000</i>
   <i type="int" name="EXXOEP">     0</i>
   <i type="int" name="FOURORBIT">     0</i>
   <i name="AEXX">      0.00000000</i>
   <i name="HFALPHA">      0.00000000</i>
   <i name="MCALPHA">      0.00000000</i>
   <i name="ALDAX">      1.00000000</i>
   <i name="AGGAX">      1.00000000</i>
   <i name="ALDAC">      1.00000000</i>
   <i name="AGGAC">      1.00000000</i>
   <i type="int" name="NKREDX">     1</i>
   <i type="int" name="NKREDY">     1</i>
   <i type="int" name="NKREDZ">     1</i>
   <i type="logical" name="SHIFTRED"> F  </i>
   <i type="logical" name="ODDONLY"> F  </i>
   <i type="logical" name="EVENONLY"> F  </i>
   <i type="int" name="LMAXFOCK">     0</i>
   <i type="int" name="NMAXFOCKAE">     0</i>
   <i type="logical" name="LFOCKAEDFT"> F  </i>
   <i name="HFSCREEN">      0.00000000</i>
   <i name="HFSCREENC">      0.00000000</i>
   <i type="int" name="NBANDSGWLOW">     0</i>
  </separator>
  <separator name="vdW DFT" >
   <i type="logical" name="LUSE_VDW"> F  </i>
   <i name="Zab_VDW">     -0.84910000</i>
   <i name="PARAM1">      0.12340000</i>
   <i name="PARAM2">      1.00000000</i>
   <i name="PARAM3">      0.00000000</i>
  </separator>
  <separator name="model GW" >
   <i type="int" name="MODEL_GW">     0</i>
   <i name="MODEL_EPS0">      6.77734242</i>
   <i name="MODEL_ALPHA">      1.00000000</i>
  </separator>
  <separator name="linear response parameters" >
   <i type="logical" name="LEPSILON"> F  </i>
   <i type="logical" name="LRPA"> F  </i>
   <i type="logical" name="LNABLA"> F  </i>
   <i type="logical" name="LVEL"> F  </i>
   <i type="int" name="KINTER">     0</i>
   <i name="CSHIFT">      0.10000000</i>
   <i name="OMEGAMAX">     -1.00000000</i>
   <i name="DEG_THRESHOLD">      0.00200000</i>
   <i name="RTIME">     -0.10000000</i>
   <i name="WPLASMAI">      0.00000000</i>
   <v name="DFIELD">      0.00000000      0.00000000      0.00000000</v>
   <v name="WPLASMA">      0.00000000      0.00000000      0.00000000      0.00000000      0.00000000      0.00000000      0.00000000      0.00000000      0.00000000</v>
  </separator>
  <separator name="orbital magnetization" >
   <i type="logical" name="NUCIND"> F  </i>
   <v name="MAGPOS">      0.00000000      0.00000000      0.00000000</v>
   <i type="logical" name="LNICSALL"> T  </i>
   <i type="logical" name="ORBITALMAG"> F  </i>
   <i type="logical" name="LMAGBLOCH"> F  </i>
   <i type="logical" name="LCHIMAG"> F  </i>
   <i type="logical" name="LGAUGE"> T  </i>
   <i type="int" name="MAGATOM">     0</i>
   <v name="MAGDIPOL">      0.00000000      0.00000000      0.00000000</v>
   <v name="AVECCONST">      0.00000000      0.00000000      0.00000000</v>
  </separator>
  <separator name="response functions" >
   <i type="logical" name="LADDER"> F  </i>
   <i type="logical" name="LRPAFORCE"> F  </i>
   <i type="logical" name="LFXC"> F  </i>
   <i type="logical" name="LHARTREE"> T  </i>
   <i type="int" name="IBSE">     0</i>
   <v type="int" name="KPOINT">    -1     0     0     0</v>
   <i type="logical" name="LTCTE"> F  </i>
   <i type="logical" name="LTETE"> F  </i>
   <i type="logical" name="LTRIPLET"> F  </i>
   <i type="logical" name="LFXCEPS"> F  </i>
   <i type="logical" name="LFXHEG"> F  </i>
   <i type="int" name="NATURALO">     2</i>
   <i type="logical" name="L2ORDER"> F  </i>
   <i type="logical" name="LMP2LT"> F  </i>
   <i type="logical" name="LUSEW"> F  </i>
   <i name="ENCUTGW">     -2.00000000</i>
   <i name="ENCUTGWSOFT">     -2.00000000</i>
   <i name="ENCUTLF">     -1.00000000</i>
   <i type="int" name="LMAXMP2">    -1</i>
   <i name="SCISSOR">      0.00000000</i>
   <i type="int" name="NOMEGA">     0</i>
   <i type="int" name="NOMEGAR">     0</i>
   <i type="int" name="NBANDSGW">    -1</i>
   <i type="int" name="NBANDSO">    -1</i>
   <i type="int" name="NBANDSV">    -1</i>
   <i type="int" name="NELM">    60</i>
   <i type="int" name="NELMHF">     1</i>
   <i type="int" name="DIM">     3</i>
   <i type="int" name="ANTIRES">     0</i>
   <i name="OMEGAMAX">    -30.00000000</i>
   <i name="OMEGAMIN">    -30.00000000</i>
   <i name="OMEGATL">   -200.00000000</i>
   <i type="int" name="OMEGAGRID">   140</i>
   <i name="CSHIFT">     -0.10000000</i>
   <i type="logical" name="SELFENERGY"> F  </i>
   <i type="logical" name="LSPECTRAL"> F  </i>
   <i type="logical" name="LSPECTRALGW"> F  </i>
   <i type="logical" name="LSINGLES"> F  </i>
   <i type="logical" name="LFERMIGW"> F  </i>
   <i type="logical" name="ODDONLYGW"> F  </i>
   <i type="logical" name="EVENONLYGW"> F  </i>
   <i type="int" name="NKREDLFX">     1</i>
   <i type="int" name="NKREDLFY">     1</i>
   <i type="int" name="NKREDLFZ">     1</i>
   <i type="int" name="MAXMEM">  2800</i>
   <i type="int" name="TELESCOPE">     0</i>
   <i type="int" name="TAUPAR">     1</i>
   <i type="int" name="OMEGAPAR">    -1</i>
   <i name="LAMBDA">      1.00000000</i>
  </separator>
  <separator name="External order field" >
   <i name="OFIELD_KAPPA">      0.00000000</i>
   <v name="OFIELD_K">      0.00000000      0.00000000      0.00000000</v>
   <i name="OFIELD_Q6_NEAR">      0.00000000</i>
   <i name="OFIELD_Q6_FAR">      0.00000000</i>
   <i name="OFIELD_A">      0.00000000</i>
  </separator>
 </parameters>
 <atominfo>
  <atoms>      64 </atoms>
  <types>       7 </types>
  <array name="atoms" >
   <dimension dim="1">ion</dimension>
   <field type="string">element</field>
   <field type="int">atomtype</field>
   <set>
    <rc><c>Hf</c><c>   1</c></rc>
    <rc><c>Hf</c><c>   1</c></rc>
    <rc><c>Hf</c><c>   1</c></rc>
    <rc><c>Hf</c><c>   1</c></rc>
    <rc><c>Hf</c><c>   1</c></rc>
    <rc><c>Hf</c><c>   1</c></rc>
    <rc><c>Hf</c><c>   1</c></rc>
    <rc><c>Ta</c><c>   2</c></rc>
    <rc><c>Ta</c><c>   2</c></rc>
    <rc><c>Ta</c><c>   2</c></rc>
    <rc><c>Ta</c><c>   2</c></rc>
    <rc><c>Ta</c><c>   2</c></rc>
    <rc><c>Ta</c><c>   2</c></rc>
    <rc><c>Zr</c><c>   3</c></rc>
    <rc><c>Zr</c><c>   3</c></rc>
    <rc><c>Zr</c><c>   3</c></rc>
    <rc><c>Zr</c><c>   3</c></rc>
    <rc><c>Zr</c><c>   3</c></rc>
    <rc><c>Zr</c><c>   3</c></rc>
    <rc><c>Zr</c><c>   3</c></rc>
    <rc><c>N </c><c>   4</c></rc>
    <rc><c>N </c><c>   4</c></rc>
    <rc><c>N </c><c>   4</c></rc>
    <rc><c>N </c><c>   4</c></rc>
    <rc><c>N </c><c>   4</c></rc>
    <rc><c>N </c><c>   4</c></rc>
    <rc><c>N </c><c>   4</c></rc>
    <rc><c>N </c><c>   4</c></rc>
    <rc><c>N </c><c>   4</c></rc>
    <rc><c>N </c><c>   4</c></rc>
    <rc><c>N </c><c>   4</c></rc>
    <rc><c>N </c><c>   4</c></rc>
    <rc><c>N </c><c>   4</c></rc>
    <rc><c>C </c><c>   5</c></rc>
    <rc><c>C </c><c>   5</c></rc>
    <rc><c>C </c><c>   5</c></rc>
    <rc><c>C </c><c>   5</c></rc>
    <rc><c>C </c><c>   5</c></rc>
    <rc><c>C </c><c>   5</c></rc>
    <rc><c>C </c><c>   5</c></rc>
    <rc><c>C </c><c>   5</c></rc>
    <rc><c>C </c><c>   5</c></rc>
    <rc><c>C </c><c>   5</c></rc>
    <rc><c>C </c><c>   5</c></rc>
    <rc><c>C </c><c>   5</c></rc>
    <rc><c>C </c><c>   5</c></rc>
    <rc><c>C </c><c>   5</c></rc>
    <rc><c>C </c><c>   5</c></rc>
    <rc><c>C </c><c>   5</c></rc>
    <rc><c>C </c><c>   5</c></rc>
    <rc><c>C </c><c>   5</c></rc>
    <rc><c>C </c><c>   5</c></rc>
    <rc><c>Cr</c><c>   6</c></rc>
    <rc><c>Cr</c><c>   6</c></rc>
    <rc><c>Cr</c><c>   6</c></rc>
    <rc><c>Cr</c><c>   6</c></rc>
    <rc><c>Cr</c><c>   6</c></rc>
    <rc><c>Cr</c><c>   6</c></rc>
    <rc><c>Mo</c><c>   7</c></rc>
    <rc><c>Mo</c><c>   7</c></rc>
    <rc><c>Mo</c><c>   7</c></rc>
    <rc><c>Mo</c><c>   7</c></rc>
    <rc><c>Mo</c><c>   7</c></rc>
    <rc><c>Mo</c><c>   7</c></rc>
   </set>
  </array>
  <array name="atomtypes" >
   <dimension dim="1">type</dimension>
   <field type="int">atomspertype</field>
   <field type="string">element</field>
   <field>mass</field>
   <field>valence</field>
   <field type="string">pseudopotential</field>
   <set>
    <rc><c>   7</c><c>Hf</c><c>    178.49000000</c><c>     10.00000000</c><c> PAW_PBE Hf_pv 06Sep2000                </c></rc>
    <rc><c>   6</c><c>Ta</c><c>    180.94800000</c><c>     11.00000000</c><c> PAW_PBE Ta_pv 07Sep2000                </c></rc>
    <rc><c>   7</c><c>Zr</c><c>     91.22400000</c><c>     12.00000000</c><c> PAW_PBE Zr_sv 07Sep2000                </c></rc>
    <rc><c>  13</c><c>N </c><c>     14.00100000</c><c>      5.00000000</c><c> PAW_PBE N 08Apr2002                    </c></rc>
    <rc><c>  19</c><c>C </c><c>     12.01100000</c><c>      4.00000000</c><c> PAW_PBE C 08Apr2002                    </c></rc>
    <rc><c>   6</c><c>Cr</c><c>     51.99600000</c><c>     12.00000000</c><c> PAW_PBE Cr_pv 07Sep2000                </c></rc>
    <rc><c>   6</c><c>Mo</c><c>     95.94000000</c><c>      6.00000000</c><c> PAW_PBE Mo 08Apr2002                   </c></rc>
   </set>
  </array>
 </atominfo>
 <structure name="initialpos" >
  <crystal>
   <varray name="basis" >
    <v>       8.93249989       0.00000000       0.00000000 </v>
    <v>       0.00575300       9.05559834       0.00000000 </v>
    <v>       0.03210180      -0.01574346       8.93712807 </v>
   </varray>
   <i name="volume">    722.91652451 </i>
   <varray name="rec_basis" >
    <v>       0.11195074      -0.00007112      -0.00040225 </v>
    <v>       0.00000000       0.11042893       0.00019453 </v>
    <v>       0.00000000       0.00000000       0.11189277 </v>
   </varray>
  </crystal>
  <varray name="positions" >
   <v>       0.99688001       0.99204997       0.99924002 </v>
   <v>       0.25398003       0.99714995       0.24912000 </v>
   <v>       0.24803003       0.50165000       0.24955001 </v>
   <v>       0.50501006       0.49745998       0.99834003 </v>
   <v>       0.50479003       0.24631001       0.74710002 </v>
   <v>       0.99427992       0.50449999       0.49779000 </v>
   <v>       0.49950005       0.75481999       0.74817004 </v>
   <v>       0.99437004       0.23617001       0.26379999 </v>
   <v>       0.75718000       0.74102998       0.01100000 </v>
   <v>       0.00201000       0.25541000       0.73894001 </v>
   <v>       0.75307001       0.26163001       0.50533002 </v>
   <v>       0.99514004       0.74492004       0.74511997 </v>
   <v>       0.25679999       0.49462002       0.74545002 </v>
   <v>       0.24788999       0.24839000       0.99657997 </v>
   <v>       0.50833000       0.25676999       0.25376001 </v>
   <v>       0.74879004       0.98787999       0.26967001 </v>
   <v>       0.75719000       0.25603001       0.99591997 </v>
   <v>       0.24762001       0.74973999       0.99974006 </v>
   <v>       0.25272001       0.24823001       0.50015003 </v>
   <v>       0.24457999       0.75048999       0.49983999 </v>
   <v>       0.24982001       0.24942998       0.24825000 </v>
   <v>       0.26146999       0.99984002       0.99295996 </v>
   <v>       0.00281000       0.25024000       0.00130000 </v>
   <v>       0.75313998       0.24617000       0.25492002 </v>
   <v>       0.74767001       0.99748000       0.01202000 </v>
   <v>       0.50714994       0.99977000       0.24673000 </v>
   <v>       0.99051999       0.48088002       0.24100998 </v>
   <v>       0.50519005       0.76130999       0.00855000 </v>
   <v>       0.98896989       0.00202000       0.73708999 </v>
   <v>       0.75744996       0.24437997       0.74896999 </v>
   <v>       0.73632001       0.00417000       0.51063000 </v>
   <v>       0.50563996       0.23264999       0.49544997 </v>
   <v>       0.50008998       0.00061000       0.73471998 </v>
   <v>       0.99720000       0.99771992       0.25899999 </v>
   <v>       0.50427997       0.24673000       0.00262000 </v>
   <v>       0.25133999       0.74958002       0.24910999 </v>
   <v>       0.24328000       0.50072997       0.99510994 </v>
   <v>       0.99837005       0.74313996       0.00460000 </v>
   <v>       0.75633000       0.73891003       0.25767000 </v>
   <v>       0.75839004       0.50315998       0.00288000 </v>
   <v>       0.50700002       0.50333002       0.25878999 </v>
   <v>       0.24900999       0.25315000       0.74854000 </v>
   <v>       0.24446000       0.99823996       0.50287998 </v>
   <v>       0.99804009       0.24229999       0.50128003 </v>
   <v>       0.24177002       0.75340997       0.75018002 </v>
   <v>       0.25841001       0.50062002       0.50129001 </v>
   <v>       0.99000004       0.76215003       0.49746000 </v>
   <v>       0.99203996       0.50055999       0.75138002 </v>
   <v>       0.75036005       0.74888000       0.74756004 </v>
   <v>       0.74036002       0.50197000       0.50067003 </v>
   <v>       0.50575006       0.74958002       0.49720000 </v>
   <v>       0.50501003       0.50217998       0.73912003 </v>
   <v>       0.51588997       0.01358000       0.98075008 </v>
   <v>       0.99841994       0.50976998       0.98613004 </v>
   <v>       0.50379003       0.73926997       0.25905001 </v>
   <v>       0.23780002       0.01082000       0.74607998 </v>
   <v>       0.47957999       0.98308000       0.49717999 </v>
   <v>       0.74279003       0.97869994       0.76450995 </v>
   <v>       0.99864998       0.77573999       0.26102000 </v>
   <v>       0.73551001       0.51468004       0.26666001 </v>
   <v>       0.02362000       0.99783001       0.49557002 </v>
   <v>       0.50539000       0.52833005       0.49917999 </v>
   <v>       0.73876003       0.52828003       0.73814999 </v>
   <v>       0.75400003       0.72937999       0.49116997 </v>
  </varray>
 </structure>
 <calculation>
  <scstep>
   <time name="dav">   19.55   19.61</time>
   <time name="total">   19.59   19.65</time>
   <energy>
    <i name="alphaZ">   4056.67548266 </i>
    <i name="ewald"> -34587.36991689 </i>
    <i name="hartreedc">  -6405.11823063 </i>
    <i name="XCdc">   1133.50338788 </i>
    <i name="pawpsdc">  23887.77887214 </i>
    <i name="pawaedc"> -23474.23693509 </i>
    <i name="eentropy">     -0.07538170 </i>
    <i name="bandstr">   1466.58248392 </i>
    <i name="atom">  38699.75100597 </i>
    <i name="e_fr_energy">   4777.49076827 </i>
    <i name="e_wo_entrp">   4777.56614997 </i>
    <i name="e_0_energy">   4777.52845912 </i>
   </energy>
  </scstep>
  <scstep>
   <time name="dav">   21.26   21.31</time>
   <time name="total">   21.26   21.31</time>
   <energy>
    <i name="e_fr_energy">     14.38337077 </i>
    <i name="e_wo_entrp">     14.51245103 </i>
    <i name="e_0_energy">     14.44791090 </i>
   </energy>
  </scstep>
  <scstep>
   <time name="dav">   29.79   29.92</time>
   <time name="total">   29.79   29.92</time>
   <energy>
    <i name="e_fr_energy">   -723.66027241 </i>
    <i name="e_wo_entrp">   -723.57212668 </i>
    <i name="e_0_energy">   -723.61619954 </i>
   </energy>
  </scstep>
  <scstep>
   <time name="dav">   33.09   33.29</time>
   <time name="total">   33.09   33.30</time>
   <energy>
    <i name="e_fr_energy">   -785.68568565 </i>
    <i name="e_wo_entrp">   -785.59526680 </i>
    <i name="e_0_energy">   -785.64047623 </i>
   </energy>
  </scstep>
  <scstep>
   <time name="dav">   33.61   33.74</time>
   <time name="total">   33.85   33.98</time>
   <energy>
    <i name="e_fr_energy">   -788.95991858 </i>
    <i name="e_wo_entrp">   -788.86624420 </i>
    <i name="e_0_energy">   -788.91308139 </i>
   </energy>
  </scstep>
  <scstep>
   <time name="diag">    1.64    1.64</time>
   <time name="diis">   18.32   18.42</time>
   <time name="orth">    0.38    0.38</time>
   <time name="total">   20.61   20.72</time>
   <energy>
    <i name="e_fr_energy">   -980.09644056 </i>
    <i name="e_wo_entrp">   -979.87177232 </i>
    <i name="e_0_energy">   -979.98410644 </i>
   </energy>
  </scstep>
  <scstep>
   <time name="diag">    1.63    1.66</time>
   <time name="diis">   19.41   19.58</time>
   <time name="orth">    0.38    0.38</time>
   <time name="total">   21.68   21.89</time>
   <energy>
    <i name="e_fr_energy">   -649.95276666 </i>
    <i name="e_wo_entrp">   -649.83898038 </i>
    <i name="e_0_energy">   -649.89587352 </i>
   </energy>
  </scstep>
  <scstep>
   <time name="diag">    1.68    1.68</time>
   <time name="diis">   21.83   21.93</time>
   <time name="orth">    0.37    0.38</time>
   <time name="total">   24.14   24.26</time>
   <energy>
    <i name="e_fr_energy">   -663.18800779 </i>
    <i name="e_wo_entrp">   -663.07568474 </i>
    <i name="e_0_energy">   -663.13184627 </i>
   </energy>
  </scstep>
  <scstep>
   <time name="diag">    1.64    1.65</time>
   <time name="diis">   18.20   18.85</time>
   <time name="orth">    0.91    0.97</time>
   <time name="total">   21.03   21.77</time>
   <energy>
    <i name="e_fr_energy">   -655.52846379 </i>
    <i name="e_wo_entrp">   -655.38709503 </i>
    <i name="e_0_energy">   -655.45777941 </i>
   </energy>
  </scstep>
  <scstep>
   <time name="diag">    1.65    1.65</time>
   <time name="diis">   21.32   21.59</time>
   <time name="orth">    0.38    0.38</time>
   <time name="total">   23.63   23.92</time>
   <energy>
    <i name="e_fr_energy">   -649.00536131 </i>
    <i name="e_wo_entrp">   -648.84845198 </i>
    <i name="e_0_energy">   -648.92690664 </i>
   </energy>
  </scstep>
  <scstep>
   <time name="diag">    1.60    1.64</time>
   <time name="diis">   20.78   21.27</time>
   <time name="orth">    0.40    0.41</time>
   <time name="total">   23.08   23.61</time>
   <energy>
    <i name="e_fr_energy">   -650.02285351 </i>
    <i name="e_wo_entrp">   -649.86965473 </i>
    <i name="e_0_energy">   -649.94625412 </i>
   </energy>
  </scstep>
  <scstep>
   <time name="diag">    1.61    1.64</time>
   <time name="diis">   19.88   20.28</time>
   <time name="orth">    0.37    0.37</time>
   <time name="total">   22.14   22.58</time>
   <energy>
    <i name="e_fr_energy">   -647.82954572 </i>
    <i name="e_wo_entrp">   -647.65206152 </i>
    <i name="e_0_energy">   -647.74080362 </i>
   </energy>
  </scstep>
  <scstep>
   <time name="diag">    1.64    1.64</time>
   <time name="diis">   20.88   20.99</time>
   <time name="orth">    0.37    0.37</time>
   <time name="total">   23.17   23.28</time>
   <energy>
    <i name="e_fr_energy">   -647.93017753 </i>
    <i name="e_wo_entrp">   -647.77339428 </i>
    <i name="e_0_energy">   -647.85178590 </i>
   </energy>
  </scstep>
  <scstep>
   <time name="diag">    1.61    1.64</time>
   <time name="diis">   20.56   21.36</time>
   <time name="orth">    0.37    0.37</time>
   <time name="total">   22.81   23.66</time>
   <energy>
    <i name="e_fr_energy">   -647.68954935 </i>
    <i name="e_wo_entrp">   -647.50421130 </i>
    <i name="e_0_energy">   -647.59688033 </i>
   </energy>
  </scstep>
  <scstep>
   <time name="diag">    1.65    1.67</time>
   <time name="diis">   19.94   20.01</time>
   <time name="orth">    0.37    0.38</time>
   <time name="total">   22.24   22.33</time>
   <energy>
    <i name="e_fr_energy">   -647.86762129 </i>
    <i name="e_wo_entrp">   -647.72017700 </i>
    <i name="e_0_energy">   -647.79389915 </i>
   </energy>
  </scstep>
  <scstep>
   <time name="diag">    1.64    1.64</time>
   <time name="diis">   21.20   21.29</time>
   <time name="orth">    0.38    0.39</time>
   <time name="total">   23.51   23.62</time>
   <energy>
    <i name="e_fr_energy">   -647.23692412 </i>
    <i name="e_wo_entrp">   -647.06673603 </i>
    <i name="e_0_energy">   -647.15183008 </i>
   </energy>
  </scstep>
  <scstep>
   <time name="diag">    1.61    1.65</time>
   <time name="diis">   21.37   22.17</time>
   <time name="orth">    0.37    0.38</time>
   <time name="total">   23.62   24.48</time>
   <energy>
    <i name="e_fr_energy">   -647.29683877 </i>
    <i name="e_wo_entrp">   -647.13289236 </i>
    <i name="e_0_energy">   -647.21486556 </i>
   </energy>
  </scstep>
  <scstep>
   <time name="diag">    1.60    1.63</time>
   <time name="diis">   21.16   21.49</time>
   <time name="orth">    0.37    0.37</time>
   <time name="total">   23.41   23.78</time>
   <energy>
    <i name="e_fr_energy">   -647.20920223 </i>
    <i name="e_wo_entrp">   -647.03886549 </i>
    <i name="e_0_energy">   -647.12403386 </i>
   </energy>
  </scstep>
  <scstep>
   <time name="diag">    1.61    1.64</time>
   <time name="diis">   21.21   22.05</time>
   <time name="orth">    0.40    0.41</time>
   <time name="total">   23.49   24.37</time>
   <energy>
    <i name="e_fr_energy">   -647.20773040 </i>
    <i name="e_wo_entrp">   -647.03779278 </i>
    <i name="e_0_energy">   -647.12276159 </i>
   </energy>
  </scstep>
  <scstep>
   <time name="diag">    1.60    1.63</time>
   <time name="diis">   20.78   21.55</time>
   <time name="orth">    0.37    0.37</time>
   <time name="total">   23.02   23.84</time>
   <energy>
    <i name="e_fr_energy">   -647.18856439 </i>
    <i name="e_wo_entrp">   -647.01867925 </i>
    <i name="e_0_energy">   -647.10362182 </i>
   </energy>
  </scstep>
  <scstep>
   <time name="diag">    1.62    1.66</time>
   <time name="diis">   21.30   22.07</time>
   <time name="orth">    0.37    0.38</time>
   <time name="total">   23.57   24.38</time>
   <energy>
    <i name="e_fr_energy">   -647.19012176 </i>
    <i name="e_wo_entrp">   -647.01968735 </i>
    <i name="e_0_energy">   -647.10490455 </i>
   </energy>
  </scstep>
  <scstep>
   <time name="diag">    1.64    1.64</time>
   <time name="diis">   20.38   20.43</time>
   <time name="orth">    0.39    0.40</time>
   <time name="total">   22.68   22.76</time>
   <energy>
    <i name="e_fr_energy">   -647.18882708 </i>
    <i name="e_wo_entrp">   -647.01856018 </i>
    <i name="e_0_energy">   -647.10369363 </i>
   </energy>
  </scstep>
  <scstep>
   <time name="diag">    1.64    1.64</time>
   <time name="diis">   19.38   19.43</time>
   <time name="orth">    0.38    0.38</time>
   <time name="total">   21.67   21.73</time>
   <energy>
    <i name="e_fr_energy">   -647.18876008 </i>
    <i name="e_wo_entrp">   -647.01849760 </i>
    <i name="e_0_energy">   -647.10362884 </i>
   </energy>
  </scstep>
  <scstep>
   <time name="diag">    1.63    1.64</time>
   <time name="diis">   18.29   18.33</time>
   <time name="orth">    0.38    0.38</time>
   <time name="total">   20.58   20.63</time>
   <energy>
    <i name="e_fr_energy">   -647.18875718 </i>
    <i name="e_wo_entrp">   -647.01852609 </i>
    <i name="e_0_energy">   -647.10364163 </i>
   </energy>
  </scstep>
  <scstep>
   <time name="diag">    1.64    1.71</time>
   <time name="diis">   13.23   13.61</time>
   <time name="orth">    0.37    0.38</time>
   <time name="total">   15.53   15.98</time>
   <energy>
    <i name="e_fr_energy">   -647.18875885 </i>
    <i name="e_wo_entrp">   -647.01854090 </i>
    <i name="e_0_energy">   -647.10364988 </i>
   </energy>
  </scstep>
  <scstep>
   <time name="diag">    1.66    1.67</time>
   <time name="diis">   11.19   11.60</time>
   <time name="orth">    0.37    0.38</time>
   <time name="total">   13.26   13.68</time>
   <energy>
    <i name="alphaZ">   4056.67548266 </i>
    <i name="ewald"> -34587.36991689 </i>
    <i name="hartreedc">  -6098.66218459 </i>
    <i name="XCdc">   1135.43708803 </i>
    <i name="pawpsdc">  25742.69260077 </i>
    <i name="pawaedc"> -25369.97386393 </i>
    <i name="eentropy">     -0.17023015 </i>
    <i name="bandstr">  -4225.56873521 </i>
    <i name="atom">  38699.75100597 </i>
    <i name="e_fr_energy">   -647.18875335 </i>
    <i name="e_wo_entrp">   -647.01852320 </i>
    <i name="e_0_energy">   -647.10363828 </i>
   </energy>
  </scstep>
  <structure>
   <crystal>
    <varray name="basis" >
     <v>       8.93249989       0.00000000       0.00000000 </v>
     <v>       0.00575300       9.05559834       0.00000000 </v>
     <v>       0.03210180      -0.01574346       8.93712807 </v>
    </varray>
    <i name="volume">    722.91652451 </i>
    <varray name="rec_basis" >
     <v>       0.11195074      -0.00007112      -0.00040225 </v>
     <v>       0.00000000       0.11042893       0.00019453 </v>
     <v>       0.00000000       0.00000000       0.11189277 </v>
    </varray>
   </crystal>
   <varray name="positions" >
    <v>       0.99688001       0.99204997       0.99924002 </v>
    <v>       0.25398003       0.99714995       0.24912000 </v>
    <v>       0.24803003       0.50165000       0.24955001 </v>
    <v>       0.50501006       0.49745998       0.99834003 </v>
    <v>       0.50479003       0.24631001       0.74710002 </v>
    <v>       0.99427992       0.50449999       0.49779000 </v>
    <v>       0.49950005       0.75481999       0.74817004 </v>
    <v>       0.99437004       0.23617001       0.26379999 </v>
    <v>       0.75718000       0.74102998       0.01100000 </v>
    <v>       0.00201000       0.25541000       0.73894001 </v>
    <v>       0.75307001       0.26163001       0.50533002 </v>
    <v>       0.99514004       0.74492004       0.74511997 </v>
    <v>       0.25679999       0.49462002       0.74545002 </v>
    <v>       0.24788999       0.24839000       0.99657997 </v>
    <v>       0.50833000       0.25676999       0.25376001 </v>
    <v>       0.74879004       0.98787999       0.26967001 </v>
    <v>       0.75719000       0.25603001       0.99591997 </v>
    <v>       0.24762001       0.74973999       0.99974006 </v>
    <v>       0.25272001       0.24823001       0.50015003 </v>
    <v>       0.24457999       0.75048999       0.49983999 </v>
    <v>       0.24982001       0.24942998       0.24825000 </v>
    <v>       0.26146999       0.99984002       0.99295996 </v>
    <v>       0.00281000       0.25024000       0.00130000 </v>
    <v>       0.75313998       0.24617000       0.25492002 </v>
    <v>       0.74767001       0.99748000       0.01202000 </v>
    <v>       0.50714994       0.99977000       0.24673000 </v>
    <v>       0.99051999       0.48088002       0.24100998 </v>
    <v>       0.50519005       0.76130999       0.00855000 </v>
    <v>       0.98896989       0.00202000       0.73708999 </v>
    <v>       0.75744996       0.24437997       0.74896999 </v>
    <v>       0.73632001       0.00417000       0.51063000 </v>
    <v>       0.50563996       0.23264999       0.49544997 </v>
    <v>       0.50008998       0.00061000       0.73471998 </v>
    <v>       0.99720000       0.99771992       0.25899999 </v>
    <v>       0.50427997       0.24673000       0.00262000 </v>
    <v>       0.25133999       0.74958002       0.24910999 </v>
    <v>       0.24328000       0.50072997       0.99510994 </v>
    <v>       0.99837005       0.74313996       0.00460000 </v>
    <v>       0.75633000       0.73891003       0.25767000 </v>
    <v>       0.75839004       0.50315998       0.00288000 </v>
    <v>       0.50700002       0.50333002       0.25878999 </v>
    <v>       0.24900999       0.25315000       0.74854000 </v>
    <v>       0.24446000       0.99823996       0.50287998 </v>
    <v>       0.99804009       0.24229999       0.50128003 </v>
    <v>       0.24177002       0.75340997       0.75018002 </v>
    <v>       0.25841001       0.50062002       0.50129001 </v>
    <v>       0.99000004       0.76215003       0.49746000 </v>
    <v>       0.99203996       0.50055999       0.75138002 </v>
    <v>       0.75036005       0.74888000       0.74756004 </v>
    <v>       0.74036002       0.50197000       0.50067003 </v>
    <v>       0.50575006       0.74958002       0.49720000 </v>
    <v>       0.50501003       0.50217998       0.73912003 </v>
    <v>       0.51588997       0.01358000       0.98075008 </v>
    <v>       0.99841994       0.50976998       0.98613004 </v>
    <v>       0.50379003       0.73926997       0.25905001 </v>
    <v>       0.23780002       0.01082000       0.74607998 </v>
    <v>       0.47957999       0.98308000       0.49717999 </v>
    <v>       0.74279003       0.97869994       0.76450995 </v>
    <v>       0.99864998       0.77573999       0.26102000 </v>
    <v>       0.73551001       0.51468004       0.26666001 </v>
    <v>       0.02362000       0.99783001       0.49557002 </v>
    <v>       0.50539000       0.52833005       0.49917999 </v>
    <v>       0.73876003       0.52828003       0.73814999 </v>
    <v>       0.75400003       0.72937999       0.49116997 </v>
   </varray>
  </structure>
  <varray name="forces" >
   <v>      -0.17785073       0.39122423      -0.89091131 </v>
   <v>       1.32755801      -0.17280603      -0.63953057 </v>
   <v>      -0.24575802       0.08551230      -0.61907868 </v>
   <v>      -0.40172986       0.47169709       0.18311114 </v>
   <v>       0.12600187      -1.50193498      -0.30197130 </v>
   <v>       0.25676827      -0.27512351       0.09621973 </v>
   <v>      -0.16411144       1.88131674       0.64509833 </v>
   <v>       0.05485328      -0.01477336      -0.56965702 </v>
   <v>      -0.56833734       0.35542848      -0.06341232 </v>
   <v>       0.10584692      -0.35501662       0.55809084 </v>
   <v>      -0.49225206      -0.99511768       0.20535427 </v>
   <v>       0.31724589       0.22642647       0.66286772 </v>
   <v>      -0.50536681       0.31138855       0.77545698 </v>
   <v>       0.15277244      -0.28031156      -0.24230065 </v>
   <v>      -0.16383324      -1.25308067      -0.14688958 </v>
   <v>      -1.58029307       0.43007878      -0.12492088 </v>
   <v>      -0.12636920      -0.41884241      -0.15775931 </v>
   <v>       0.60383746       0.24505145      -0.02923023 </v>
   <v>       0.47128884      -0.24585528       0.20689724 </v>
   <v>       0.67952636       0.24017418       0.02880438 </v>
   <v>      -0.28949827       0.05695546       0.10769345 </v>
   <v>      -0.61159076       0.05882734       0.36145228 </v>
   <v>      -0.11565297      -0.46839091      -0.11259195 </v>
   <v>       0.54502716       0.14351944       0.39430128 </v>
   <v>      -0.03720924      -0.47777136      -1.23158853 </v>
   <v>      -1.13807399      -0.35884140       0.27781205 </v>
   <v>       0.66402910       0.02394295       0.65144067 </v>
   <v>       0.61527111      -0.38196859      -0.66945631 </v>
   <v>      -0.04503692       0.08542388       1.10309790 </v>
   <v>      -0.53019315      -0.09885958      -0.57848777 </v>
   <v>       0.16671270       0.21706554       0.26862682 </v>
   <v>       0.46589309       0.04168001       1.14576451 </v>
   <v>       0.52116285      -0.07708646       0.64039354 </v>
   <v>       0.83991226       1.19610374      -1.22894305 </v>
   <v>       0.09000903      -0.04385590      -0.94247516 </v>
   <v>       0.35824371      -0.15331711       0.10371246 </v>
   <v>       0.19298670       0.00152978       0.25925262 </v>
   <v>      -0.53083671      -0.06029378      -0.41149062 </v>
   <v>      -0.83937765       0.21891327      -1.02939544 </v>
   <v>       0.24072735       0.54359066      -0.02818137 </v>
   <v>      -1.34273974       1.01867619      -0.98183669 </v>
   <v>       0.11922267      -0.37853102      -0.05084003 </v>
   <v>       1.97683154      -0.08802527       0.57002516 </v>
   <v>      -0.31038313       0.85943408       0.11354866 </v>
   <v>       0.22000237      -0.09411929      -0.03335980 </v>
   <v>      -0.77697304       0.01028252      -0.38190937 </v>
   <v>       0.34451779      -0.82299003       0.92476981 </v>
   <v>       0.42025490      -0.00753221       0.18638191 </v>
   <v>      -0.28577472       1.80445965       0.44987933 </v>
   <v>       1.22391424      -1.13707064       0.31850054 </v>
   <v>      -0.21370576       1.59345750      -0.63755807 </v>
   <v>      -0.94001888      -0.19273272       1.08877598 </v>
   <v>       0.39433533       0.19056517      -0.20197693 </v>
   <v>       0.02030241       0.33502393      -0.62628011 </v>
   <v>       0.10954748      -0.56514252       0.07902035 </v>
   <v>      -0.13126027       0.29741570       0.01242452 </v>
   <v>      -0.62196081       0.02938104       0.36745843 </v>
   <v>      -0.60224913      -0.86060748       0.40618607 </v>
   <v>       0.53095711      -0.49953796      -0.63983352 </v>
   <v>       0.02114925      -0.47336969      -1.18799698 </v>
   <v>      -0.83141466       0.32344981       0.62522574 </v>
   <v>      -0.09013673      -0.68806127      -0.47375577 </v>
   <v>       0.61692040      -1.27083278       1.04542900 </v>
   <v>      -0.08364159       1.02380415       0.37054564 </v>
  </varray>
  <varray name="stress" >
   <v>     -20.89504633       3.03297815      -3.74550266 </v>
   <v>       3.03297671     -32.93148546      -0.41524458 </v>
   <v>      -3.74550319      -0.41524510     -17.67165764 </v>
  </varray>
  <energy>
   <i name="e_fr_energy">   -647.18875335 </i>
   <i name="e_wo_entrp">   -647.10363828 </i>
   <i name="e_0_energy">     -0.17023015 </i>
  </energy>
  <time name="totalsc">  638.32  647.54</time>
 </calculation>
 <calculation>
  <scstep>
   <time name="dav">   22.54   23.25</time>
   <time name="total">   22.83   23.54</time>
   <energy>
    <i name="alphaZ">   4156.98903270 </i>
    <i name="ewald"> -34674.47176481 </i>
    <i name="hartreedc">  -6342.11888644 </i>
    <i name="XCdc">   1149.24961219 </i>
    <i name="pawpsdc">  25742.59920594 </i>
    <i name="pawaedc"> -25369.86013152 </i>
    <i name="eentropy">     -0.14860370 </i>
    <i name="bandstr">  -4008.56548110 </i>
    <i name="atom">  38699.75100597 </i>
    <i name="e_fr_energy">   -646.57601076 </i>
    <i name="e_wo_entrp">   -646.42740706 </i>
    <i name="e_0_energy">   -646.50170891 </i>
   </energy>
  </scstep>
  <scstep>
   <time name="diag">    1.64    1.65</time>
   <time name="diis">   17.37   17.44</time>
   <time name="orth">    0.38    0.38</time>
   <time name="total">   19.66   19.74</time>
   <energy>
    <i name="e_fr_energy">   -674.21517448 </i>
    <i name="e_wo_entrp">   -674.10003119 </i>
    <i name="e_0_energy">   -674.15760284 </i>
   </energy>
  </scstep>
  <scstep>
   <time name="diag">    1.64    1.64</time>
   <time name="diis">   17.84   17.94</time>
   <time name="orth">    0.38    0.38</time>
   <time name="total">   20.15   20.25</time>
   <energy>
    <i name="e_fr_energy">   -649.70398022 </i>
    <i name="e_wo_entrp">   -649.54902228 </i>
    <i name="e_0_energy">   -649.62650125 </i>
   </energy>
  </scstep>
  <scstep>
   <time name="diag">    1.66    1.67</time>
   <time name="diis">   21.51   21.58</time>
   <time name="orth">    0.40    0.40</time>
   <time name="total">   23.86   23.94</time>
   <energy>
    <i name="e_fr_energy">   -650.03169032 </i>
    <i name="e_wo_entrp">   -649.86237220 </i>
    <i name="e_0_energy">   -649.94703126 </i>
   </energy>
  </scstep>
  <scstep>
   <time name="diag">    1.64    1.64</time>
   <time name="diis">   18.73   18.80</time>
   <time name="orth">    0.37    0.38</time>
   <time name="total">   21.04   21.11</time>
   <energy>
    <i name="e_fr_energy">   -649.33866568 </i>
    <i name="e_wo_entrp">   -649.17998330 </i>
    <i name="e_0_energy">   -649.25932449 </i>
   </energy>
  </scstep>
  <scstep>
   <time name="diag">    1.68    1.68</time>
   <time name="diis">   18.97   19.04</time>
   <time name="orth">    0.37    0.37</time>
   <time name="total">   21.30   21.38</time>
   <energy>
    <i name="e_fr_energy">   -649.49271190 </i>
    <i name="e_wo_entrp">   -649.33623022 </i>
    <i name="e_0_energy">   -649.41447106 </i>
   </energy>
  </scstep>
  <scstep>
   <time name="diag">    1.64    1.64</time>
   <time name="diis">   19.68   19.77</time>
   <time name="orth">    0.38    0.38</time>
   <time name="total">   21.97   22.08</time>
   <energy>
    <i name="e_fr_energy">   -649.31584191 </i>
    <i name="e_wo_entrp">   -649.16538946 </i>
    <i name="e_0_energy">   -649.24061569 </i>
   </energy>
  </scstep>
  <scstep>
   <time name="diag">    1.65    1.66</time>
   <time name="diis">   18.86   19.04</time>
   <time name="orth">    0.39    0.39</time>
   <time name="total">   21.17   21.37</time>
   <energy>
    <i name="e_fr_energy">   -649.27728452 </i>
    <i name="e_wo_entrp">   -649.11692394 </i>
    <i name="e_0_energy">   -649.19710423 </i>
   </energy>
  </scstep>
  <scstep>
   <time name="diag">    1.67    1.70</time>
   <time name="diis">   20.54   21.31</time>
   <time name="orth">    0.37    0.37</time>
   <time name="total">   22.85   23.67</time>
   <energy>
    <i name="e_fr_energy">   -649.18631366 </i>
    <i name="e_wo_entrp">   -649.02997531 </i>
    <i name="e_0_energy">   -649.10814449 </i>
   </energy>
  </scstep>
  <scstep>
   <time name="diag">    1.61    1.64</time>
   <time name="diis">   21.89   22.69</time>
   <time name="orth">    0.37    0.37</time>
   <time name="total">   24.15   24.99</time>
   <energy>
    <i name="e_fr_energy">   -649.16346393 </i>
    <i name="e_wo_entrp">   -649.00669864 </i>
    <i name="e_0_energy">   -649.08508129 </i>
   </energy>
  </scstep>
  <scstep>
   <time name="diag">    1.62    1.67</time>
   <time name="diis">   22.70   22.84</time>
   <time name="orth">    0.37    0.37</time>
   <time name="total">   24.98   25.18</time>
   <energy>
    <i name="e_fr_energy">   -649.16454739 </i>
    <i name="e_wo_entrp">   -649.00558782 </i>
    <i name="e_0_energy">   -649.08506761 </i>
   </energy>
  </scstep>
  <scstep>
   <time name="diag">    1.64    1.65</time>
   <time name="diis">   21.07   21.18</time>
   <time name="orth">    0.37    0.37</time>
   <time name="total">   23.37   23.48</time>
   <energy>
    <i name="e_fr_energy">   -649.16142423 </i>
    <i name="e_wo_entrp">   -649.00498384 </i>
    <i name="e_0_energy">   -649.08320404 </i>
   </energy>
  </scstep>
  <scstep>
   <time name="diag">    1.64    1.64</time>
   <time name="diis">   21.13   21.27</time>
   <time name="orth">    0.37    0.37</time>
   <time name="total">   23.42   23.57</time>
   <energy>
    <i name="e_fr_energy">   -649.16122188 </i>
    <i name="e_wo_entrp">   -649.00344435 </i>
    <i name="e_0_energy">   -649.08233311 </i>
   </energy>
  </scstep>
  <scstep>
   <time name="diag">    1.71    1.71</time>
   <time name="diis">   21.59   21.76</time>
   <time name="orth">    0.37    0.37</time>
   <time name="total">   23.95   24.14</time>
   <energy>
    <i name="e_fr_energy">   -649.16174646 </i>
    <i name="e_wo_entrp">   -649.00423611 </i>
    <i name="e_0_energy">   -649.08299129 </i>
   </energy>
  </scstep>
  <scstep>
   <time name="diag">    1.64    1.64</time>
   <time name="diis">   21.05   21.18</time>
   <time name="orth">    0.37    0.38</time>
   <time name="total">   23.34   23.47</time>
   <energy>
    <i name="e_fr_energy">   -649.16210624 </i>
    <i name="e_wo_entrp">   -649.00451980 </i>
    <i name="e_0_energy">   -649.08331302 </i>
   </energy>
  </scstep>
  <scstep>
   <time name="diag">    1.64    1.67</time>
   <time name="diis">   20.25   20.34</time>
   <time name="orth">    0.37    0.37</time>
   <time name="total">   22.53   22.66</time>
   <energy>
    <i name="e_fr_energy">   -649.16217106 </i>
    <i name="e_wo_entrp">   -649.00462965 </i>
    <i name="e_0_energy">   -649.08340035 </i>
   </energy>
  </scstep>
  <scstep>
   <time name="diag">    1.67    1.67</time>
   <time name="diis">   18.48   18.57</time>
   <time name="orth">    0.37    0.37</time>
   <time name="total">   20.80   20.90</time>
   <energy>
    <i name="e_fr_energy">   -649.16218309 </i>
    <i name="e_wo_entrp">   -649.00459773 </i>
    <i name="e_0_energy">   -649.08339041 </i>
   </energy>
  </scstep>
  <scstep>
   <time name="diag">    1.65    1.67</time>
   <time name="diis">   16.64   16.70</time>
   <time name="orth">    0.37    0.37</time>
   <time name="total">   18.94   19.02</time>
   <energy>
    <i name="e_fr_energy">   -649.16218616 </i>
    <i name="e_wo_entrp">   -649.00463507 </i>
    <i name="e_0_energy">   -649.08341062 </i>
   </energy>
  </scstep>
  <scstep>
   <time name="diag">    1.68    1.72</time>
   <time name="diis">   13.55   14.08</time>
   <time name="orth">    0.37    0.37</time>
   <time name="total">   15.64   16.22</time>
   <energy>
    <i name="alphaZ">   4156.98903270 </i>
    <i name="ewald"> -34674.47176481 </i>
    <i name="hartreedc">  -6216.63856999 </i>
    <i name="XCdc">   1141.79275089 </i>
    <i name="pawpsdc">  26014.98644279 </i>
    <i name="pawaedc"> -25642.91535783 </i>
    <i name="eentropy">     -0.15756903 </i>
    <i name="bandstr">  -4128.49815839 </i>
    <i name="atom">  38699.75100597 </i>
    <i name="e_fr_energy">   -649.16218770 </i>
    <i name="e_wo_entrp">   -649.00461867 </i>
    <i name="e_0_energy">   -649.08340318 </i>
   </energy>
  </scstep>
  <structure>
   <crystal>
    <varray name="basis" >
     <v>       8.86901868       0.00921449      -0.01137920 </v>
     <v>       0.01505358       8.95417641      -0.00128627 </v>
     <v>       0.02047232      -0.01679622       8.88337335 </v>
    </varray>
    <i name="volume">    705.47160888 </i>
    <varray name="rec_basis" >
     <v>       0.11275191      -0.00018959      -0.00026020 </v>
     <v>      -0.00011576       0.11167995       0.00021143 </v>
     <v>       0.00014441       0.00001593       0.11256955 </v>
    </varray>
   </crystal>
   <varray name="positions" >
    <v>       0.99593542       0.99412581       0.99443087 </v>
    <v>       0.26116291       0.99622335       0.24566781 </v>
    <v>       0.24671446       0.50209975       0.24620822 </v>
    <v>       0.50283523       0.49997461       0.99932846 </v>
    <v>       0.50548156       0.23830579       0.74546997 </v>
    <v>       0.99566575       0.50303521       0.49830939 </v>
    <v>       0.49859475       0.76484854       0.75165229 </v>
    <v>       0.99467739       0.23608596       0.26072498 </v>
    <v>       0.75411053       0.74292288       0.01065770 </v>
    <v>       0.00257205       0.25352393       0.74195259 </v>
    <v>       0.75041089       0.25633056       0.50643852 </v>
    <v>       0.99683979       0.74613252       0.74869813 </v>
    <v>       0.25405449       0.49628619       0.74963594 </v>
    <v>       0.24872075       0.24689439       0.99527203 </v>
    <v>       0.50745232       0.25009297       0.25296710 </v>
    <v>       0.74025614       0.99017002       0.26899569 </v>
    <v>       0.75651200       0.25379719       0.99506839 </v>
    <v>       0.25088094       0.75104520       0.99958227 </v>
    <v>       0.25526217       0.24692218       0.50126687 </v>
    <v>       0.24824859       0.75176976       0.49999548 </v>
    <v>       0.24825421       0.24973442       0.24883132 </v>
    <v>       0.25815969       0.00015681       0.99491108 </v>
    <v>       0.00218917       0.24774365       0.00069223 </v>
    <v>       0.75607542       0.24693828       0.25704846 </v>
    <v>       0.74749459       0.99492317       0.00537188 </v>
    <v>       0.50099927       0.99786092       0.24822963 </v>
    <v>       0.99409356       0.48101369       0.24452646 </v>
    <v>       0.50852731       0.75926881       0.00493627 </v>
    <v>       0.98870495       0.00248544       0.74304452 </v>
    <v>       0.75459806       0.24384788       0.74584731 </v>
    <v>       0.73721444       0.00532891       0.51208005 </v>
    <v>       0.50813378       0.23288278       0.50163481 </v>
    <v>       0.50289251       0.00020534       0.73817683 </v>
    <v>       0.00175594       0.00408049       0.25236615 </v>
    <v>       0.50478453       0.24648751      -0.00246748 </v>
    <v>       0.25327330       0.74876421       0.24966983 </v>
    <v>       0.24431725       0.50074056       0.99650939 </v>
    <v>       0.99551130       0.74281489       0.00237877 </v>
    <v>       0.75181591       0.74006660       0.25211331 </v>
    <v>       0.75968884       0.50605563       0.00272788 </v>
    <v>       0.49976371       0.50874768       0.25349003 </v>
    <v>       0.24965617       0.25113294       0.74826557 </v>
    <v>       0.25512572       0.99777637       0.50595697 </v>
    <v>       0.99635862       0.24687960       0.50189297 </v>
    <v>       0.24295918       0.75290825       0.74999994 </v>
    <v>       0.25422111       0.50067121       0.49922846 </v>
    <v>       0.99184559       0.75777432       0.50245191 </v>
    <v>       0.99430608       0.50052162       0.75238611 </v>
    <v>       0.74880172       0.75849727       0.74998849 </v>
    <v>       0.74696785       0.49591538       0.50238929 </v>
    <v>       0.50460278       0.75806300       0.49375846 </v>
    <v>       0.49991271       0.50116344       0.74499725 </v>
    <v>       0.51802296       0.01459332       0.97965980 </v>
    <v>       0.99854060       0.51154891       0.98274937 </v>
    <v>       0.50438208       0.73625998       0.25947656 </v>
    <v>       0.23708985       0.01240456       0.74614705 </v>
    <v>       0.47621368       0.98323998       0.49916354 </v>
    <v>       0.73953247       0.97411896       0.76670255 </v>
    <v>       0.00153170       0.77307276       0.25756617 </v>
    <v>       0.73564891       0.51214707       0.26024720 </v>
    <v>       0.01911645       0.99955902       0.49894499 </v>
    <v>       0.50491474       0.52466004       0.49662266 </v>
    <v>       0.74207597       0.52151962       0.74379322 </v>
    <v>       0.75353760       0.73483766       0.49317018 </v>
   </varray>
  </structure>
  <varray name="forces" >
   <v>       0.02498389      -0.01492749      -0.25844589 </v>
   <v>      -0.13881334      -0.02324719       0.06287024 </v>
   <v>      -0.45749580      -0.17628794       0.08653698 </v>
   <v>       0.03782844      -0.12477497      -0.06796667 </v>
   <v>      -0.15046098      -0.07600253       0.27509114 </v>
   <v>       0.37534214      -0.07323412       0.08640920 </v>
   <v>      -0.01207043      -0.30920517      -0.17713835 </v>
   <v>       0.28238389       0.34874388      -0.15781801 </v>
   <v>      -0.24758948       0.29183559      -0.18538067 </v>
   <v>       0.07318919      -0.26572881       0.27348826 </v>
   <v>      -0.04823354      -0.66192741       0.15135481 </v>
   <v>      -0.04231549      -0.02358500       0.37203973 </v>
   <v>      -0.16607900       0.02991811       0.00707216 </v>
   <v>       0.16856818      -0.18534681       0.02389003 </v>
   <v>      -0.19103183       0.31173610      -0.21985565 </v>
   <v>       0.31257433      -0.17608174      -0.36870110 </v>
   <v>      -0.35653831      -0.00023585      -0.04518767 </v>
   <v>      -0.03308681       0.28720910       0.01344496 </v>
   <v>      -0.08372860       0.02900805      -0.01441020 </v>
   <v>      -0.12142674      -0.02162483       0.02751384 </v>
   <v>      -0.01437029      -0.08782273      -0.03846577 </v>
   <v>      -0.29038953      -0.01830760       0.15420777 </v>
   <v>       0.00168748      -0.12749000      -0.13058547 </v>
   <v>      -0.07951044      -0.02456362      -0.02767160 </v>
   <v>      -0.16686658      -0.05948075      -0.71659545 </v>
   <v>      -0.22170394      -0.15935895      -0.01026196 </v>
   <v>       0.30476133       0.35754231       0.29565583 </v>
   <v>       0.07500406      -0.02496200      -0.42707362 </v>
   <v>       0.11967060       0.11393676       0.38411022 </v>
   <v>      -0.09378151       0.15827817      -0.13435793 </v>
   <v>       0.59085280       0.01787713       0.05502728 </v>
   <v>       0.14032718       0.40869313       0.02755098 </v>
   <v>       0.42931248       0.05713322       0.63725800 </v>
   <v>      -0.05973651      -0.61588150      -0.18479534 </v>
   <v>      -0.04589518      -0.08117410      -0.07016148 </v>
   <v>       0.34719421       0.05280501      -0.13213730 </v>
   <v>      -0.05791801       0.06041814      -0.06314632 </v>
   <v>       0.22446718       0.00727471      -0.07613554 </v>
   <v>      -0.38674689       0.13575690       0.07063466 </v>
   <v>       0.13822007      -0.20193682       0.04670027 </v>
   <v>      -0.16583371       0.06997391      -0.20839872 </v>
   <v>       0.01378254      -0.20709998      -0.02727949 </v>
   <v>       0.19873727       0.13224209       0.38090413 </v>
   <v>       0.14446053       0.24812597      -0.03345165 </v>
   <v>       0.14461412       0.12472580       0.12865209 </v>
   <v>      -0.13154352       0.00777189       0.02113348 </v>
   <v>       0.26040249      -0.15904829       0.02732020 </v>
   <v>       0.34365330      -0.04334716       0.13147393 </v>
   <v>       0.00302138      -0.05996761      -0.12667303 </v>
   <v>      -0.04771678       0.22832260      -0.12851617 </v>
   <v>       0.21847592       0.45298180      -0.22645914 </v>
   <v>      -0.04092316       0.21288662       0.04249559 </v>
   <v>       0.38700025      -0.22870452      -0.28883398 </v>
   <v>      -0.16748707       0.25458010      -0.38967280 </v>
   <v>      -0.24644219      -0.54672764       0.24602779 </v>
   <v>      -0.61296016      -0.02594718      -0.18496502 </v>
   <v>      -0.08435336       0.19451300       0.23937326 </v>
   <v>      -0.52138223       0.04148706       0.55928827 </v>
   <v>       0.01909655       0.40958928      -0.23425320 </v>
   <v>      -0.43164529      -0.13884175      -0.46180053 </v>
   <v>       0.41525133       0.18962025       0.17574507 </v>
   <v>       0.45056985      -0.10054744      -0.28774663 </v>
   <v>       0.24657435       0.23302760       0.99929576 </v>
   <v>      -0.57593065      -0.42459480       0.10177643 </v>
  </varray>
  <varray name="stress" >
   <v>      36.16456121       2.83736214       1.02582851 </v>
   <v>       2.83736174      31.29099847      -1.23764159 </v>
   <v>       1.02582801      -1.23763956      32.05339048 </v>
  </varray>
  <energy>
   <i name="e_fr_energy">   -649.16218770 </i>
   <i name="e_wo_entrp">   -649.08340318 </i>
   <i name="e_0_energy">     -0.15756903 </i>
  </energy>
  <time name="totalsc">  457.11  462.85</time>
 </calculation>
 <calculation>
  <scstep>
   <time name="dav">   25.14   25.21</time>
   <time name="total">   25.42   25.50</time>
   <energy>
    <i name="alphaZ">   4158.36112366 </i>
    <i name="ewald"> -34675.08652488 </i>
    <i name="hartreedc">  -6220.44458291 </i>
    <i name="XCdc">   1141.98522600 </i>
    <i name="pawpsdc">  26014.86714635 </i>
    <i name="pawaedc"> -25642.76199822 </i>
    <i name="eentropy">     -0.15737019 </i>
    <i name="bandstr">  -4125.67602838 </i>
    <i name="atom">  38699.75100597 </i>
    <i name="e_fr_energy">   -649.16200260 </i>
    <i name="e_wo_entrp">   -649.00463241 </i>
    <i name="e_0_energy">   -649.08331750 </i>
   </energy>
  </scstep>
  <scstep>
   <time name="diag">    1.64    1.64</time>
   <time name="diis">   18.79   18.85</time>
   <time name="orth">    0.37    0.37</time>
   <time name="total">   21.08   21.14</time>
   <energy>
    <i name="e_fr_energy">   -649.16901017 </i>
    <i name="e_wo_entrp">   -649.01267063 </i>
    <i name="e_0_energy">   -649.09084040 </i>
   </energy>
  </scstep>
  <scstep>
   <time name="diag">    1.64    1.65</time>
   <time name="diis">   16.27   16.38</time>
   <time name="orth">    0.37    0.37</time>
   <time name="total">   18.56   18.68</time>
   <energy>
    <i name="e_fr_energy">   -649.16286879 </i>
    <i name="e_wo_entrp">   -649.00514725 </i>
    <i name="e_0_energy">   -649.08400802 </i>
   </energy>
  </scstep>
  <scstep>
   <time name="diag">    1.63    1.64</time>
   <time name="diis">   16.49   16.64</time>
   <time name="orth">    0.37    0.37</time>
   <time name="total">   18.77   18.93</time>
   <energy>
    <i name="e_fr_energy">   -649.16263064 </i>
    <i name="e_wo_entrp">   -649.00531575 </i>
    <i name="e_0_energy">   -649.08397320 </i>
   </energy>
  </scstep>
  <scstep>
   <time name="diag">    1.61    1.64</time>
   <time name="diis">   14.30   14.87</time>
   <time name="orth">    0.37    0.37</time>
   <time name="total">   16.55   17.16</time>
   <energy>
    <i name="e_fr_energy">   -649.16270409 </i>
    <i name="e_wo_entrp">   -649.00562651 </i>
    <i name="e_0_energy">   -649.08416530 </i>
   </energy>
  </scstep>
  <scstep>
   <time name="diag">    1.60    1.64</time>
   <time name="diis">   11.77   12.06</time>
   <time name="orth">    0.37    0.38</time>
   <time name="total">   14.03   14.36</time>
   <energy>
    <i name="e_fr_energy">   -649.16250540 </i>
    <i name="e_wo_entrp">   -649.00512042 </i>
    <i name="e_0_energy">   -649.08381291 </i>
   </energy>
  </scstep>
  <scstep>
   <time name="diag">    1.60    1.64</time>
   <time name="diis">   14.28   14.86</time>
   <time name="orth">    0.37    0.37</time>
   <time name="total">   16.53   17.15</time>
   <energy>
    <i name="e_fr_energy">   -649.16256987 </i>
    <i name="e_wo_entrp">   -649.00522734 </i>
    <i name="e_0_energy">   -649.08389861 </i>
   </energy>
  </scstep>
  <scstep>
   <time name="diag">    1.63    1.67</time>
   <time name="diis">    9.88   10.25</time>
   <time name="orth">    0.37    0.37</time>
   <time name="total">   12.15   12.58</time>
   <energy>
    <i name="e_fr_energy">   -649.16249639 </i>
    <i name="e_wo_entrp">   -649.00511408 </i>
    <i name="e_0_energy">   -649.08380523 </i>
   </energy>
  </scstep>
  <scstep>
   <time name="diag">    1.60    1.64</time>
   <time name="diis">    9.35    9.70</time>
   <time name="orth">    0.37    0.37</time>
   <time name="total">   11.60   11.99</time>
   <energy>
    <i name="e_fr_energy">   -649.16251517 </i>
    <i name="e_wo_entrp">   -649.00518728 </i>
    <i name="e_0_energy">   -649.08385123 </i>
   </energy>
  </scstep>
  <scstep>
   <time name="diag">    1.66    1.67</time>
   <time name="diis">    8.49    8.52</time>
   <time name="orth">    0.37    0.37</time>
   <time name="total">   10.80   10.84</time>
   <energy>
    <i name="e_fr_energy">   -649.16249261 </i>
    <i name="e_wo_entrp">   -649.00513070 </i>
    <i name="e_0_energy">   -649.08381165 </i>
   </energy>
  </scstep>
  <scstep>
   <time name="diag">    1.65    1.65</time>
   <time name="diis">    8.42    8.47</time>
   <time name="orth">    0.38    0.38</time>
   <time name="total">   10.48   10.54</time>
   <energy>
    <i name="alphaZ">   4158.36112366 </i>
    <i name="ewald"> -34675.08652488 </i>
    <i name="hartreedc">  -6218.72333141 </i>
    <i name="XCdc">   1141.88284201 </i>
    <i name="pawpsdc">  26018.66810137 </i>
    <i name="pawaedc"> -25646.57436914 </i>
    <i name="eentropy">     -0.15732524 </i>
    <i name="bandstr">  -4127.28401768 </i>
    <i name="atom">  38699.75100597 </i>
    <i name="e_fr_energy">   -649.16249534 </i>
    <i name="e_wo_entrp">   -649.00517010 </i>
    <i name="e_0_energy">   -649.08383272 </i>
   </energy>
  </scstep>
  <structure>
   <crystal>
    <varray name="basis" >
     <v>       8.86816495       0.00933841      -0.01153224 </v>
     <v>       0.01517866       8.95281243      -0.00130357 </v>
     <v>       0.02031592      -0.01681038       8.88265043 </v>
    </varray>
    <i name="volume">    705.23883178 </i>
    <varray name="rec_basis" >
     <v>       0.11276277      -0.00019122      -0.00025827 </v>
     <v>      -0.00011734       0.11169697       0.00021165 </v>
     <v>       0.00014638       0.00001614       0.11257871 </v>
    </varray>
   </crystal>
   <varray name="positions" >
    <v>       0.99592251       0.99415405       0.99436579 </v>
    <v>       0.26126015       0.99621064       0.24562122 </v>
    <v>       0.24669657       0.50210588       0.24616298 </v>
    <v>       0.50280575       0.50000884       0.99934181 </v>
    <v>       0.50549101       0.23819691       0.74544791 </v>
    <v>       0.99568455       0.50301526       0.49831644 </v>
    <v>       0.49858240       0.76498496       0.75169940 </v>
    <v>       0.99468151       0.23608481       0.26068338 </v>
    <v>       0.75406892       0.74294867       0.01065302 </v>
    <v>       0.00257974       0.25349827       0.74199335 </v>
    <v>       0.75037496       0.25625852       0.50645347 </v>
    <v>       0.99686285       0.74614899       0.74874658 </v>
    <v>       0.25401735       0.49630889       0.74969253 </v>
    <v>       0.24873200       0.24687404       0.99525434 </v>
    <v>       0.50744052       0.25000217       0.25295634 </v>
    <v>       0.74014050       0.99020128       0.26898642 </v>
    <v>       0.75650283       0.25376683       0.99505685 </v>
    <v>       0.25092509       0.75106291       0.99958020 </v>
    <v>       0.25529664       0.24690436       0.50128202 </v>
    <v>       0.24829827       0.75178711       0.49999765 </v>
    <v>       0.24823300       0.24973858       0.24883916 </v>
    <v>       0.25811489       0.00016117       0.99493743 </v>
    <v>       0.00218079       0.24770970       0.00068399 </v>
    <v>       0.75611521       0.24694869       0.25707731 </v>
    <v>       0.74749214       0.99488838       0.00528192 </v>
    <v>       0.50091601       0.99783504       0.24824981 </v>
    <v>       0.99414202       0.48101547       0.24457410 </v>
    <v>       0.50857248       0.75924100       0.00488743 </v>
    <v>       0.98870146       0.00249178       0.74312508 </v>
    <v>       0.75455938       0.24384068       0.74580501 </v>
    <v>       0.73722656       0.00534466       0.51209969 </v>
    <v>       0.50816766       0.23288593       0.50171854 </v>
    <v>       0.50293054       0.00019980       0.73822365 </v>
    <v>       0.00181744       0.00416693       0.25227649 </v>
    <v>       0.50479128       0.24648420      -0.00253631 </v>
    <v>       0.25329951       0.74875309       0.24967744 </v>
    <v>       0.24433132       0.50074069       0.99652834 </v>
    <v>       0.99547254       0.74281051       0.00234867 </v>
    <v>       0.75175466       0.74008239       0.25203806 </v>
    <v>       0.75970639       0.50609499       0.00272585 </v>
    <v>       0.49966552       0.50882146       0.25341821 </v>
    <v>       0.24966495       0.25110550       0.74826186 </v>
    <v>       0.25527024       0.99776992       0.50599879 </v>
    <v>       0.99633579       0.24694191       0.50190124 </v>
    <v>       0.24297529       0.75290141       0.74999752 </v>
    <v>       0.25416433       0.50067196       0.49920049 </v>
    <v>       0.99187073       0.75771479       0.50251947 </v>
    <v>       0.99433680       0.50052106       0.75239976 </v>
    <v>       0.74878052       0.75862810       0.75002134 </v>
    <v>       0.74705747       0.49583294       0.50241266 </v>
    <v>       0.50458706       0.75817838       0.49371189 </v>
    <v>       0.49984378       0.50114970       0.74507668 </v>
    <v>       0.51805182       0.01460707       0.97964509 </v>
    <v>       0.99854214       0.51157309       0.98270364 </v>
    <v>       0.50439015       0.73621903       0.25948234 </v>
    <v>       0.23708021       0.01242613       0.74614795 </v>
    <v>       0.47616811       0.98324220       0.49919032 </v>
    <v>       0.73948845       0.97405671       0.76673215 </v>
    <v>       0.00157071       0.77303643       0.25751949 </v>
    <v>       0.73565072       0.51211260       0.26016043 </v>
    <v>       0.01905549       0.99958260       0.49899058 </v>
    <v>       0.50490831       0.52461013       0.49658804 </v>
    <v>       0.74212108       0.52142764       0.74386962 </v>
    <v>       0.75353129       0.73491190       0.49319724 </v>
   </varray>
  </structure>
  <varray name="forces" >
   <v>       0.02768516      -0.02142970      -0.24687314 </v>
   <v>      -0.16382688      -0.02046284       0.07208062 </v>
   <v>      -0.46143284      -0.18040047       0.09671399 </v>
   <v>       0.04434918      -0.13384245      -0.07265432 </v>
   <v>      -0.15468346      -0.05218032       0.28435522 </v>
   <v>       0.37683449      -0.06997624       0.08573338 </v>
   <v>      -0.01209693      -0.34465218      -0.18861066 </v>
   <v>       0.28533413       0.35549680      -0.15295140 </v>
   <v>      -0.24164898       0.28984645      -0.18743204 </v>
   <v>       0.07196892      -0.26276844       0.26919546 </v>
   <v>      -0.04113836      -0.65595527       0.14906374 </v>
   <v>      -0.04666078      -0.02767904       0.36711670 </v>
   <v>      -0.16105319       0.02623845      -0.00394777 </v>
   <v>       0.16873104      -0.18332506       0.02883843 </v>
   <v>      -0.19188910       0.33345854      -0.22046948 </v>
   <v>       0.33564921      -0.18383017      -0.37261143 </v>
   <v>      -0.35959773       0.00531697      -0.04330343 </v>
   <v>      -0.04201339       0.28720862       0.01387303 </v>
   <v>      -0.09025425       0.03444204      -0.01892112 </v>
   <v>      -0.13263361      -0.02701702       0.02707858 </v>
   <v>      -0.01048484      -0.08995309      -0.04030204 </v>
   <v>      -0.28584054      -0.01920522       0.14991833 </v>
   <v>       0.00295711      -0.12207262      -0.13082187 </v>
   <v>      -0.08791860      -0.02604026      -0.03357804 </v>
   <v>      -0.16851884      -0.05247121      -0.70897284 </v>
   <v>      -0.20590489      -0.15798841      -0.01447815 </v>
   <v>       0.29844672       0.36251431       0.29048248 </v>
   <v>       0.06667752      -0.01899521      -0.42262134 </v>
   <v>       0.12178951       0.11396798       0.37251447 </v>
   <v>      -0.08694155       0.16208083      -0.12732080 </v>
   <v>       0.59679219       0.01446142       0.05195425 </v>
   <v>       0.13466279       0.41326646       0.01064145 </v>
   <v>       0.42701336       0.06075932       0.63640692 </v>
[...]
      </set>
     </set>
    </set>
   </array>
  </eigenvalues>
  <separator name="orbital magnetization" >
   <v name="MAGDIPOLOUT">      0.00000000      0.00000000      0.00000000</v>
  </separator>
  <dos>
   <i name="efermi">      7.42646670 </i>
   <total>
    <array>
     <dimension dim="1">gridpoints</dimension>
     <dimension dim="2">spin</dimension>
     <field>energy</field>
     <field>total</field>
     <field>integrated</field>
     <set>
      <set comment="spin 1">
       <r>   -44.2943     0.0000     0.0000 </r>
       <r>   -44.1035     0.0000     0.0000 </r>
       <r>   -43.9127     0.0000     0.0000 </r>
       <r>   -43.7219     0.0000     0.0000 </r>
       <r>   -43.5311     0.0000     0.0000 </r>
       <r>   -43.3403     0.0000     0.0000 </r>
       <r>   -43.1495     0.0000     0.0000 </r>
       <r>   -42.9587     0.0000     0.0000 </r>
       <r>   -42.7679     0.0000     0.0000 </r>
       <r>   -42.5772     0.0000     0.0000 </r>
       <r>   -42.3864     0.0000     0.0000 </r>
       <r>   -42.1956     0.0000     0.0000 </r>
       <r>   -42.0048     0.0001     0.0000 </r>
       <r>   -41.8140     0.6251     0.1193 </r>
       <r>   -41.6232    20.4244     4.0161 </r>
       <r>   -41.4324    10.3740     5.9955 </r>
       <r>   -41.2416     7.7428     7.4727 </r>
       <r>   -41.0508    22.5058    11.7667 </r>
       <r>   -40.8600     3.2803    12.3926 </r>
       <r>   -40.6692     8.0827    13.9347 </r>
       <r>   -40.4784     0.3421    14.0000 </r>
       <r>   -40.2876     0.0000    14.0000 </r>
       <r>   -40.0968     0.0000    14.0000 </r>
       <r>   -39.9060     0.0000    14.0000 </r>
       <r>   -39.7152     0.0000    14.0000 </r>
       <r>   -39.5244     0.0000    14.0000 </r>
       <r>   -39.3336     0.0000    14.0000 </r>
       <r>   -39.1428     0.0000    14.0000 </r>
       <r>   -38.9521     0.0000    14.0000 </r>
       <r>   -38.7613     0.0000    14.0000 </r>
       <r>   -38.5705     0.0000    14.0000 </r>
       <r>   -38.3797     0.0000    14.0000 </r>
       <r>   -38.1889     0.0000    14.0000 </r>
       <r>   -37.9981     0.0000    14.0000 </r>
       <r>   -37.8073     0.0000    14.0000 </r>
       <r>   -37.6165     0.0000    14.0000 </r>
       <r>   -37.4257     0.0000    14.0000 </r>
       <r>   -37.2349     0.0000    14.0000 </r>
       <r>   -37.0441     0.0000    14.0000 </r>
       <r>   -36.8533     0.0000    14.0000 </r>
       <r>   -36.6625     0.0007    14.0001 </r>
       <r>   -36.4717     1.3581    14.2592 </r>
       <r>   -36.2809    12.9797    16.7357 </r>
       <r>   -36.0901    66.1627    29.3592 </r>
       <r>   -35.8993    89.4368    46.4233 </r>
       <r>   -35.7085    18.4532    49.9440 </r>
       <r>   -35.5177     0.2932    50.0000 </r>
       <r>   -35.3270     0.0000    50.0000 </r>
       <r>   -35.1362     0.0000    50.0000 </r>
       <r>   -34.9454     0.0000    50.0000 </r>
       <r>   -34.7546     0.0000    50.0000 </r>
       <r>   -34.5638     0.0000    50.0000 </r>
       <r>   -34.3730     0.0000    50.0000 </r>
       <r>   -34.1822     0.0000    50.0000 </r>
       <r>   -33.9914     0.0000    50.0000 </r>
       <r>   -33.8006     0.0000    50.0000 </r>
       <r>   -33.6098     0.0000    50.0000 </r>
       <r>   -33.4190     0.0000    50.0000 </r>
       <r>   -33.2282     0.0000    50.0000 </r>
       <r>   -33.0374     0.0000    50.0000 </r>
       <r>   -32.8466     0.0000    50.0000 </r>
       <r>   -32.6558     0.0000    50.0000 </r>
       <r>   -32.4650     0.0000    50.0000 </r>
       <r>   -32.2742     0.0000    50.0000 </r>
       <r>   -32.0834     0.0000    50.0000 </r>
       <r>   -31.8926     0.0000    50.0000 </r>
       <r>   -31.7018     0.0000    50.0000 </r>
       <r>   -31.5111     0.0000    50.0000 </r>
       <r>   -31.3203     0.0000    50.0000 </r>
       <r>   -31.1295     0.0000    50.0000 </r>
       <r>   -30.9387     0.0000    50.0000 </r>
       <r>   -30.7479     0.0000    50.0000 </r>
       <r>   -30.5571     0.0000    50.0000 </r>
       <r>   -30.3663     0.0000    50.0000 </r>
       <r>   -30.1755     0.0000    50.0000 </r>
       <r>   -29.9847     0.0000    50.0000 </r>
       <r>   -29.7939     0.0000    50.0000 </r>
       <r>   -29.6031     0.0000    50.0000 </r>
       <r>   -29.4123     0.0000    50.0000 </r>
       <r>   -29.2215     0.0000    50.0000 </r>
       <r>   -29.0307     0.0000    50.0000 </r>
       <r>   -28.8399     0.0000    50.0000 </r>
       <r>   -28.6491     0.0000    50.0000 </r>
       <r>   -28.4583     0.1152    50.0220 </r>
       <r>   -28.2675    12.1432    52.3388 </r>
       <r>   -28.0767    27.9323    57.6682 </r>
       <r>   -27.8860    48.6791    66.9559 </r>
       <r>   -27.6952    47.0961    75.9416 </r>
       <r>   -27.5044    39.7999    83.5352 </r>
       <r>   -27.3136    12.8423    85.9855 </r>
       <r>   -27.1228     0.0762    86.0000 </r>
       <r>   -26.9320     0.0000    86.0000 </r>
       <r>   -26.7412     0.0000    86.0000 </r>
       <r>   -26.5504     0.0000    86.0000 </r>
       <r>   -26.3596     0.0000    86.0000 </r>
       <r>   -26.1688     0.0000    86.0000 </r>
       <r>   -25.9780     0.0000    86.0000 </r>
       <r>   -25.7872     0.0000    86.0000 </r>
       <r>   -25.5964     0.0000    86.0000 </r>
       <r>   -25.4056     0.0000    86.0000 </r>
       <r>   -25.2148     0.0000    86.0000 </r>
       <r>   -25.0240     0.0000    86.0000 </r>
       <r>   -24.8332     0.0000    86.0000 </r>
       <r>   -24.6424     0.0000    86.0000 </r>
       <r>   -24.4516     0.0000    86.0000 </r>
       <r>   -24.2609     0.0000    86.0000 </r>
       <r>   -24.0701     0.0000    86.0000 </r>
       <r>   -23.8793     0.2547    86.0486 </r>
       <r>   -23.6885    16.7066    89.2361 </r>
       <r>   -23.4977    14.3723    91.9783 </r>
       <r>   -23.3069    20.1239    95.8178 </r>
       <r>   -23.1161    98.7999   114.6684 </r>
       <r>   -22.9253    56.4409   125.4370 </r>
       <r>   -22.7345    12.9312   127.9042 </r>
       <r>   -22.5437     0.5021   128.0000 </r>
       <r>   -22.3529     0.0001   128.0000 </r>
       <r>   -22.1621     0.0000   128.0000 </r>
       <r>   -21.9713     0.0000   128.0000 </r>
       <r>   -21.7805     0.0000   128.0000 </r>
       <r>   -21.5897     0.0000   128.0000 </r>
       <r>   -21.3989     0.0000   128.0000 </r>
       <r>   -21.2081     0.0000   128.0000 </r>
       <r>   -21.0173     0.0000   128.0000 </r>
       <r>   -20.8265     0.0000   128.0000 </r>
       <r>   -20.6357     0.0000   128.0000 </r>
       <r>   -20.4450     0.0248   128.0047 </r>
       <r>   -20.2542     4.8293   128.9262 </r>
       <r>   -20.0634    20.9603   132.9253 </r>
       <r>   -19.8726    42.6127   141.0556 </r>
       <r>   -19.6818    26.9246   146.1926 </r>
       <r>   -19.4910    56.1161   156.8993 </r>
       <r>   -19.3002    38.1241   164.1732 </r>
       <r>   -19.1094    24.4486   168.8378 </r>
       <r>   -18.9186     6.0839   169.9986 </r>
       <r>   -18.7278     0.0073   170.0000 </r>
       <r>   -18.5370     0.0000   170.0000 </r>
       <r>   -18.3462     0.0000   170.0000 </r>
       <r>   -18.1554     0.0000   170.0000 </r>
       <r>   -17.9646     0.0000   170.0000 </r>
       <r>   -17.7738     0.0000   170.0000 </r>
       <r>   -17.5830     0.0000   170.0000 </r>
       <r>   -17.3922     0.0000   170.0000 </r>
       <r>   -17.2014     0.0000   170.0000 </r>
       <r>   -17.0106     0.0000   170.0000 </r>
       <r>   -16.8199     0.0000   170.0000 </r>
       <r>   -16.6291     0.0000   170.0000 </r>
       <r>   -16.4383     0.0000   170.0000 </r>
       <r>   -16.2475     0.0000   170.0000 </r>
       <r>   -16.0567     0.0000   170.0000 </r>
       <r>   -15.8659     0.0000   170.0000 </r>
       <r>   -15.6751     0.0000   170.0000 </r>
       <r>   -15.4843     0.0000   170.0000 </r>
       <r>   -15.2935     0.0000   170.0000 </r>
       <r>   -15.1027     0.0000   170.0000 </r>
       <r>   -14.9119     0.0000   170.0000 </r>
       <r>   -14.7211     0.0000   170.0000 </r>
       <r>   -14.5303     0.0000   170.0000 </r>
       <r>   -14.3395     0.0000   170.0000 </r>
       <r>   -14.1487     0.0000   170.0000 </r>
       <r>   -13.9579     0.0000   170.0000 </r>
       <r>   -13.7671     0.0000   170.0000 </r>
       <r>   -13.5763     0.0000   170.0000 </r>
       <r>   -13.3855     0.0000   170.0000 </r>
       <r>   -13.1948     0.0000   170.0000 </r>
       <r>   -13.0040     0.0000   170.0000 </r>
       <r>   -12.8132     0.0000   170.0000 </r>
       <r>   -12.6224     0.0000   170.0000 </r>
       <r>   -12.4316     0.0000   170.0000 </r>
       <r>   -12.2408     0.0000   170.0000 </r>
       <r>   -12.0500     0.0000   170.0000 </r>
       <r>   -11.8592     0.0000   170.0000 </r>
       <r>   -11.6684     0.0000   170.0000 </r>
       <r>   -11.4776     0.0000   170.0000 </r>
       <r>   -11.2868     0.0000   170.0000 </r>
       <r>   -11.0960     0.0000   170.0000 </r>
       <r>   -10.9052     0.0000   170.0000 </r>
       <r>   -10.7144     0.0000   170.0000 </r>
       <r>   -10.5236     0.0000   170.0000 </r>
       <r>   -10.3328     0.0000   170.0000 </r>
       <r>   -10.1420     0.0000   170.0000 </r>
       <r>    -9.9512     0.0000   170.0000 </r>
       <r>    -9.7604     0.0000   170.0000 </r>
       <r>    -9.5697     0.0000   170.0000 </r>
       <r>    -9.3789     0.0000   170.0000 </r>
       <r>    -9.1881     0.0000   170.0000 </r>
       <r>    -8.9973     0.0000   170.0000 </r>
       <r>    -8.8065     0.0678   170.0129 </r>
       <r>    -8.6157     3.2254   170.6283 </r>
       <r>    -8.4249     6.9935   171.9627 </r>
       <r>    -8.2341     7.6475   173.4218 </r>
       <r>    -8.0433    18.4182   176.9358 </r>
       <r>    -7.8525     7.2042   178.3104 </r>
       <r>    -7.6617    17.1391   181.5804 </r>
       <r>    -7.4709    17.8603   184.9881 </r>
       <r>    -7.2801    13.9552   187.6506 </r>
       <r>    -7.0893    10.7680   189.7051 </r>
       <r>    -6.8985    19.6054   193.4457 </r>
       <r>    -6.7077    12.0679   195.7482 </r>
       <r>    -6.5169     1.3191   195.9999 </r>
       <r>    -6.3261     0.0006   196.0000 </r>
       <r>    -6.1353     0.0000   196.0000 </r>
       <r>    -5.9445     0.0000   196.0000 </r>
       <r>    -5.7538     0.0000   196.0000 </r>
       <r>    -5.5630     0.0000   196.0000 </r>
       <r>    -5.3722     0.0307   196.0059 </r>
       <r>    -5.1814     2.0403   196.3951 </r>
       <r>    -4.9906     6.8270   197.6977 </r>
       <r>    -4.7998     2.0174   198.0826 </r>
       <r>    -4.6090     8.2862   199.6636 </r>
       <r>    -4.4182    13.1972   202.1815 </r>
       <r>    -4.2274    15.9798   205.2304 </r>
       <r>    -4.0366    23.3485   209.6852 </r>
       <r>    -3.8458    24.9696   214.4493 </r>
       <r>    -3.6550    18.9944   218.0733 </r>
       <r>    -3.4642    18.1480   221.5358 </r>
       <r>    -3.2734    19.0297   225.1666 </r>
       <r>    -3.0826    16.7172   228.3561 </r>
       <r>    -2.8918    13.5658   230.9444 </r>
       <r>    -2.7010     8.9587   232.6537 </r>
       <r>    -2.5102     5.9972   233.7979 </r>
       <r>    -2.3194     1.0247   233.9934 </r>
       <r>    -2.1287     0.0344   234.0000 </r>
       <r>    -1.9379     0.0000   234.0000 </r>
       <r>    -1.7471     0.0000   234.0000 </r>
       <r>    -1.5563     0.0000   234.0000 </r>
       <r>    -1.3655     0.0000   234.0000 </r>
       <r>    -1.1747     0.0000   234.0000 </r>
       <r>    -0.9839     0.0000   234.0000 </r>
       <r>    -0.7931     0.0000   234.0000 </r>
       <r>    -0.6023     0.0165   234.0032 </r>
       <r>    -0.4115     0.4181   234.0829 </r>
       <r>    -0.2207     1.2968   234.3304 </r>
       <r>    -0.0299     4.9879   235.2820 </r>
       <r>     0.1609    10.2215   237.2322 </r>
       <r>     0.3517    11.0283   239.3364 </r>
       <r>     0.5425    15.5092   242.2955 </r>
       <r>     0.7333    19.6499   246.0446 </r>
       <r>     0.9241    26.4676   251.0945 </r>
       <r>     1.1149    27.2357   256.2909 </r>
       <r>     1.3057    24.5656   260.9779 </r>
       <r>     1.4964    26.8587   266.1024 </r>
       <r>     1.6872    33.0906   272.4159 </r>
       <r>     1.8780    33.2088   278.7519 </r>
       <r>     2.0688    37.5602   285.9182 </r>
       <r>     2.2596    44.2610   294.3630 </r>
       <r>     2.4504    50.6486   304.0265 </r>
       <r>     2.6412    56.4927   314.8050 </r>
       <r>     2.8320    62.7152   326.7707 </r>
       <r>     3.0228    65.0996   339.1914 </r>
       <r>     3.2136    64.1530   351.4314 </r>
       <r>     3.4044    59.3011   362.7458 </r>
       <r>     3.5952    54.0501   373.0583 </r>
       <r>     3.7860    47.3746   382.0971 </r>
       <r>     3.9768    46.1315   390.8988 </r>
       <r>     4.1676    38.5894   398.2614 </r>
       <r>     4.3584    32.6558   404.4920 </r>
       <r>     4.5492    29.0862   410.0415 </r>
       <r>     4.7400    26.7662   415.1483 </r>
       <r>     4.9308    20.8986   419.1357 </r>
       <r>     5.1216    15.6661   422.1247 </r>
       <r>     5.3123    15.1084   425.0073 </r>
       <r>     5.5031    10.1404   426.9420 </r>
       <r>     5.6939    12.6993   429.3650 </r>
       <r>     5.8847    17.9955   432.7985 </r>
       <r>     6.0755    17.7443   436.1840 </r>
       <r>     6.2663    21.1716   440.2234 </r>
       <r>     6.4571    23.3560   444.6796 </r>
       <r>     6.6479    19.8713   448.4709 </r>
       <r>     6.8387    22.0947   452.6865 </r>
       <r>     7.0295    26.8712   457.8134 </r>
       <r>     7.2203    31.5679   463.8364 </r>
       <r>     7.4111    25.5383   468.7090 </r>
       <r>     7.6019    20.1398   472.5515 </r>
       <r>     7.7927    29.0253   478.0894 </r>
       <r>     7.9835    33.2238   484.4283 </r>
       <r>     8.1743    38.5981   491.7926 </r>
       <r>     8.3651    40.2020   499.4630 </r>
       <r>     8.5559    43.0731   507.6811 </r>
       <r>     8.7467    43.4254   515.9664 </r>
       <r>     8.9374    41.0328   523.7953 </r>
       <r>     9.1282    41.8741   531.7847 </r>
       <r>     9.3190    39.6366   539.3471 </r>
       <r>     9.5098    38.9177   546.7724 </r>
       <r>     9.7006    37.7824   553.9811 </r>
       <r>     9.8914    36.3850   560.9232 </r>
       <r>    10.0822    35.0898   567.6181 </r>
       <r>    10.2730    34.0751   574.1195 </r>
       <r>    10.4638     9.7322   575.9763 </r>
       <r>    10.6546     0.1240   576.0000 </r>
       <r>    10.8454     0.0000   576.0000 </r>
       <r>    11.0362     0.0000   576.0000 </r>
       <r>    11.2270     0.0000   576.0000 </r>
       <r>    11.4178     0.0000   576.0000 </r>
       <r>    11.6086     0.0000   576.0000 </r>
       <r>    11.7994     0.0000   576.0000 </r>
       <r>    11.9902     0.0000   576.0000 </r>
       <r>    12.1810     0.0000   576.0000 </r>
       <r>    12.3718     0.0000   576.0000 </r>
       <r>    12.5625     0.0000   576.0000 </r>
       <r>    12.7533     0.0000   576.0000 </r>
       <r>    12.9441     0.0000   576.0000 </r>
      </set>
     </set>
    </array>
   </total>
  </dos>
 </calculation>
 <structure name="finalpos" >
  <crystal>
   <varray name="basis" >
    <v>       8.93480737       0.01615512      -0.01513471 </v>
    <v>       0.02223830       8.95923194      -0.00606784 </v>
    <v>       0.01696007      -0.02153185       8.95591532 </v>
   </varray>
   <i name="volume">    716.91008965 </i>
   <varray name="rec_basis" >
    <v>       0.11192197      -0.00027795      -0.00021262 </v>
    <v>      -0.00020136       0.11161739       0.00026873 </v>
    <v>       0.00018900       0.00007515       0.11165787 </v>
   </varray>
  </crystal>
  <varray name="positions" >
   <v>       0.99667288       0.99236653       0.99612154 </v>
   <v>       0.26143944       0.99596377       0.25338266 </v>
   <v>       0.24007974       0.50227909       0.24396332 </v>
   <v>       0.50314474       0.50188404       0.99726758 </v>
   <v>       0.50503662       0.24603726       0.74448601 </v>
   <v>       0.99542364       0.50321506       0.49886761 </v>
   <v>       0.50165661       0.75600156       0.74246076 </v>
   <v>       0.99574816       0.23699581       0.25800291 </v>
   <v>       0.75295587       0.74497830       0.00812897 </v>
   <v>       0.00256721       0.24958860       0.74357679 </v>
   <v>       0.75162691       0.25116721       0.50754817 </v>
   <v>       0.99887656       0.74678698       0.75066577 </v>
   <v>       0.25107441       0.49731621       0.74916764 </v>
   <v>       0.24875766       0.24286188       0.99396123 </v>
   <v>       0.50407145       0.25218406       0.25175489 </v>
   <v>       0.73953650       0.98888175       0.26692857 </v>
   <v>       0.75302331       0.25063086       0.99457843 </v>
   <v>       0.25497501       0.75607687       0.99881389 </v>
   <v>       0.25359283       0.25041645       0.50181014 </v>
   <v>       0.24883706       0.75105120       0.50016208 </v>
   <v>       0.24617424       0.24955355       0.24783989 </v>
   <v>       0.24646584       0.00006042       0.00502801 </v>
   <v>       0.00033433       0.24532840      -0.00094928 </v>
   <v>       0.75523445       0.24750774       0.25659362 </v>
   <v>       0.74658630       0.99258008      -0.00124375 </v>
   <v>       0.49857051      -0.00097483       0.27096086 </v>
   <v>       0.99540274       0.48620966       0.25106892 </v>
   <v>       0.50985995       0.76039188      -0.00961729 </v>
   <v>       0.98535024       0.00418417       0.74647667 </v>
   <v>       0.75402415       0.25236823       0.74511020 </v>
   <v>       0.75839422       0.01333918       0.50681026 </v>
   <v>       0.50995521       0.24865191       0.50151402 </v>
   <v>       0.53089278      -0.00027752       0.73920808 </v>
   <v>       0.00077120       0.00180915       0.25110383 </v>
   <v>       0.50324785       0.23960231      -0.00471269 </v>
   <v>       0.25823646       0.74975153       0.24902207 </v>
   <v>       0.24299264       0.50185608       0.99346797 </v>
   <v>       0.99717974       0.74228891       0.00223743 </v>
   <v>       0.74404685       0.73942593       0.24982448 </v>
   <v>       0.76257599       0.50361184       0.00859608 </v>
   <v>       0.49249954       0.50706169       0.24752490 </v>
   <v>       0.24915649       0.24688494       0.74773863 </v>
   <v>       0.25629004       0.00041952       0.51429915 </v>
   <v>       0.99742752       0.25008830       0.50125122 </v>
   <v>       0.24435453       0.75700192       0.74930401 </v>
   <v>       0.25099062       0.50157415       0.49912100 </v>
   <v>       0.99024159       0.75669559       0.50226019 </v>
   <v>       0.00166857       0.50072475       0.75256177 </v>
   <v>       0.75197700       0.75530974       0.74771381 </v>
   <v>       0.74651714       0.49588867       0.50634725 </v>
   <v>       0.50612647       0.76499696       0.48934050 </v>
   <v>       0.50246758       0.50219320       0.74408250 </v>
   <v>       0.52699421       0.00607220       0.95761113 </v>
   <v>       0.99044259       0.51907111       0.97502222 </v>
   <v>       0.50365798       0.72895757       0.27312394 </v>
   <v>       0.21695209       0.01020838       0.73161080 </v>
   <v>       0.47390277       0.99276356       0.52161988 </v>
   <v>       0.74220296       0.96655352       0.77502071 </v>
   <v>      -0.00052642       0.77218969       0.25824520 </v>
   <v>       0.72830992       0.50862105       0.25697458 </v>
   <v>       0.01528929       0.00219242       0.49906574 </v>
   <v>       0.50766399       0.51448177       0.48696069 </v>
   <v>       0.75663960       0.51880149       0.76219958 </v>
   <v>       0.74336204       0.72729543       0.49101240 </v>
  </varray>
 </structure>
</modeling>
