HECN                                    
           1
     8.932500    0.000000    0.000000
     0.005753    9.055598    0.000000
     0.032102   -0.015743    8.937128
   Hf   Ta   Zr   N    C    Cr   Mo
   7   6   7  13  19   6   6
Direct configuration=     1
   0.99688001  0.99204997  0.99924002
   0.25398003  0.99714995  0.24912000
   0.24803003  0.50165000  0.24955001
   0.50501006  0.49745998  0.99834003
   0.50479003  0.24631001  0.74710002
   0.99427992  0.50449999  0.49779000
   0.49950005  0.75481999  0.74817004
   0.99437004  0.23617001  0.26379999
   0.75718000  0.74102998  0.01100000
   0.00201000  0.25541000  0.73894001
   0.75307001  0.26163001  0.50533002
   0.99514004  0.74492004  0.74511997
   0.25679999  0.49462002  0.74545002
   0.24788999  0.24839000  0.99657997
   0.50833000  0.25676999  0.25376001
   0.74879004  0.98787999  0.26967001
   0.75719000  0.25603001  0.99591997
   0.24762001  0.74973999  0.99974006
   0.25272001  0.24823001  0.50015003
   0.24457999  0.75048999  0.49983999
   0.24982001  0.24942998  0.24825000
   0.26146999  0.99984002  0.99295996
   0.00281000  0.25024000  0.00130000
   0.75313998  0.24617000  0.25492002
   0.74767001  0.99748000  0.01202000
   0.50714994  0.99977000  0.24673000
   0.99051999  0.48088002  0.24100998
   0.50519005  0.76130999  0.00855000
   0.98896989  0.00202000  0.73708999
   0.75744996  0.24437997  0.74896999
   0.73632001  0.00417000  0.51063000
   0.50563996  0.23264999  0.49544997
   0.50008998  0.00061000  0.73471998
   0.99720000  0.99771992  0.25899999
   0.50427997  0.24673000  0.00262000
   0.25133999  0.74958002  0.24910999
   0.24328000  0.50072997  0.99510994
   0.99837005  0.74313996  0.00460000
   0.75633000  0.73891003  0.25767000
   0.75839004  0.50315998  0.00288000
   0.50700002  0.50333002  0.25878999
   0.24900999  0.25315000  0.74854000
   0.24446000  0.99823996  0.50287998
   0.99804009  0.24229999  0.50128003
   0.24177002  0.75340997  0.75018002
   0.25841001  0.50062002  0.50129001
   0.99000004  0.76215003  0.49746000
   0.99203996  0.50055999  0.75138002
   0.75036005  0.74888000  0.74756004
   0.74036002  0.50197000  0.50067003
   0.50575006  0.74958002  0.49720000
   0.50501003  0.50217998  0.73912003
   0.51588997  0.01358000  0.98075008
   0.99841994  0.50976998  0.98613004
   0.50379003  0.73926997  0.25905001
   0.23780002  0.01082000  0.74607998
   0.47957999  0.98308000  0.49717999
   0.74279003  0.97869994  0.76450995
   0.99864998  0.77573999  0.26102000
   0.73551001  0.51468004  0.26666001
   0.02362000  0.99783001  0.49557002
   0.50539000  0.52833005  0.49917999
   0.73876003  0.52828003  0.73814999
   0.75400003  0.72937999  0.49116997
HECN                                    
           1
     8.869019    0.009214   -0.011379
     0.015054    8.954176   -0.001286
     0.020472   -0.016796    8.883373
   Hf   Ta   Zr   N    C    Cr   Mo
   7   6   7  13  19   6   6
Direct configuration=     2
   0.99593542  0.99412581  0.99443087
   0.26116291  0.99622335  0.24566781
   0.24671446  0.50209975  0.24620822
   0.50283523  0.49997461  0.99932846
   0.50548156  0.23830579  0.74546997
   0.99566575  0.50303521  0.49830939
   0.49859475  0.76484854  0.75165229
   0.99467739  0.23608596  0.26072498
   0.75411053  0.74292288  0.01065770
   0.00257205  0.25352393  0.74195259
   0.75041089  0.25633056  0.50643852
   0.99683979  0.74613252  0.74869813
   0.25405449  0.49628619  0.74963594
   0.24872075  0.24689439  0.99527203
   0.50745232  0.25009297  0.25296710
   0.74025614  0.99017002  0.26899569
   0.75651200  0.25379719  0.99506839
   0.25088094  0.75104520  0.99958227
   0.25526217  0.24692218  0.50126687
   0.24824859  0.75176976  0.49999548
   0.24825421  0.24973442  0.24883132
   0.25815969  0.00015681  0.99491108
   0.00218917  0.24774365  0.00069223
   0.75607542  0.24693828  0.25704846
   0.74749459  0.99492317  0.00537188
   0.50099927  0.99786092  0.24822963
   0.99409356  0.48101369  0.24452646
   0.50852731  0.75926881  0.00493627
   0.98870495  0.00248544  0.74304452
   0.75459806  0.24384788  0.74584731
   0.73721444  0.00532891  0.51208005
   0.50813378  0.23288278  0.50163481
   0.50289251  0.00020534  0.73817683
   0.00175594  0.00408049  0.25236615
   0.50478453  0.24648751 -0.00246748
   0.25327330  0.74876421  0.24966983
   0.24431725  0.50074056  0.99650939
   0.99551130  0.74281489  0.00237877
   0.75181591  0.74006660  0.25211331
   0.75968884  0.50605563  0.00272788
   0.49976371  0.50874768  0.25349003
   0.24965617  0.25113294  0.74826557
   0.25512572  0.99777637  0.50595697
   0.99635862  0.24687960  0.50189297
   0.24295918  0.75290825  0.74999994
   0.25422111  0.50067121  0.49922846
   0.99184559  0.75777432  0.50245191
   0.99430608  0.50052162  0.75238611
   0.74880172  0.75849727  0.74998849
   0.74696785  0.49591538  0.50238929
   0.50460278  0.75806300  0.49375846
   0.49991271  0.50116344  0.74499725
   0.51802296  0.01459332  0.97965980
   0.99854060  0.51154891  0.98274937
   0.50438208  0.73625998  0.25947656
   0.23708985  0.01240456  0.74614705
   0.47621368  0.98323998  0.49916354
   0.73953247  0.97411896  0.76670255
   0.00153170  0.77307276  0.25756617
   0.73564891  0.51214707  0.26024720
   0.01911645  0.99955902  0.49894499
   0.50491474  0.52466004  0.49662266
   0.74207597  0.52151962  0.74379322
   0.75353760  0.73483766  0.49317018
HECN                                    
           1
     8.868165    0.009338   -0.011532
     0.015179    8.952812   -0.001304
     0.020316   -0.016810    8.882650
   Hf   Ta   Zr   N    C    Cr   Mo
   7   6   7  13  19   6   6
Direct configuration=     3
   0.99592251  0.99415405  0.99436579
   0.26126015  0.99621064  0.24562122
   0.24669657  0.50210588  0.24616298
   0.50280575  0.50000884  0.99934181
   0.50549101  0.23819691  0.74544791
   0.99568455  0.50301526  0.49831644
   0.49858240  0.76498496  0.75169940
   0.99468151  0.23608481  0.26068338
   0.75406892  0.74294867  0.01065302
   0.00257974  0.25349827  0.74199335
   0.75037496  0.25625852  0.50645347
   0.99686285  0.74614899  0.74874658
   0.25401735  0.49630889  0.74969253
   0.24873200  0.24687404  0.99525434
   0.50744052  0.25000217  0.25295634
   0.74014050  0.99020128  0.26898642
   0.75650283  0.25376683  0.99505685
   0.25092509  0.75106291  0.99958020
   0.25529664  0.24690436  0.50128202
   0.24829827  0.75178711  0.49999765
   0.24823300  0.24973858  0.24883916
   0.25811489  0.00016117  0.99493743
   0.00218079  0.24770970  0.00068399
   0.75611521  0.24694869  0.25707731
   0.74749214  0.99488838  0.00528192
   0.50091601  0.99783504  0.24824981
   0.99414202  0.48101547  0.24457410
   0.50857248  0.75924100  0.00488743
   0.98870146  0.00249178  0.74312508
   0.75455938  0.24384068  0.74580501
   0.73722656  0.00534466  0.51209969
   0.50816766  0.23288593  0.50171854
   0.50293054  0.00019980  0.73822365
   0.00181744  0.00416693  0.25227649
   0.50479128  0.24648420 -0.00253631
   0.25329951  0.74875309  0.24967744
   0.24433132  0.50074069  0.99652834
   0.99547254  0.74281051  0.00234867
   0.75175466  0.74008239  0.25203806
   0.75970639  0.50609499  0.00272585
   0.49966552  0.50882146  0.25341821
   0.24966495  0.25110550  0.74826186
   0.25527024  0.99776992  0.50599879
   0.99633579  0.24694191  0.50190124
   0.24297529  0.75290141  0.74999752
   0.25416433  0.50067196  0.49920049
   0.99187073  0.75771479  0.50251947
   0.99433680  0.50052106  0.75239976
   0.74878052  0.75862810  0.75002134
   0.74705747  0.49583294  0.50241266
   0.50458706  0.75817838  0.49371189
   0.49984378  0.50114970  0.74507668
   0.51805182  0.01460707  0.97964509
   0.99854214  0.51157309  0.98270364
   0.50439015  0.73621903  0.25948234
   0.23708021  0.01242613  0.74614795
   0.47616811  0.98324220  0.49919032
   0.73948845  0.97405671  0.76673215
   0.00157071  0.77303643  0.25751949
   0.73565072  0.51211260  0.26016043
   0.01905549  0.99958260  0.49899058
   0.50490831  0.52461013  0.49658804
   0.74212108  0.52142764  0.74386962
   0.75353129  0.73491190  0.49319724
HECN                                    
           1
     8.959163    0.020448   -0.011705
     0.026474    9.020035   -0.005365
     0.020441   -0.020929    8.964125
   Hf   Ta   Zr   N    C    Cr   Mo
   7   6   7  13  19   6   6
Direct configuration=     4
   0.99579940  0.99464241  0.99162312
   0.26245545  0.99582861  0.24501157
   0.24379578  0.50126650  0.24571419
   0.50241639  0.50002036  0.99923302
   0.50484736  0.23557902  0.74652130
   0.99814363  0.50220739  0.49893740
   0.49825665  0.76605248  0.75168443
   0.99632483  0.23797762  0.25895884
   0.75185636  0.74506836  0.00953024
   0.00313669  0.25152955  0.74433561
   0.74938289  0.25116804  0.50758547
   0.99709971  0.74635747  0.75178643
   0.25234064  0.49693951  0.75088595
   0.24989547  0.24544543  0.99503243
   0.50613984  0.24985136  0.25152349
   0.73949285  0.98987421  0.26676034
   0.75434490  0.25314472  0.99457055
   0.25164175  0.75299559  0.99961108
   0.25554501  0.24670779  0.50150397
   0.24864216  0.75201511  0.50019079
   0.24772153  0.24934168  0.24878798
   0.25559119  0.00015422  0.99631782
   0.00201954  0.24631931 -0.00020554
   0.75649126  0.24703189  0.25751376
   0.74652949  0.99385107 -0.00051319
   0.49800548  0.99642637  0.24860298
   0.99680436  0.48301355  0.24718211
   0.50991224  0.75853592  0.00153695
   0.98928507  0.00324702  0.74688575
   0.75325415  0.24456083  0.74420219
   0.74074156  0.00575846  0.51280882
   0.50962636  0.23518569  0.50357687
   0.50606836  0.00041319  0.74269847
   0.00276184  0.00256067  0.24941527
   0.50467695  0.24596982 -0.00433171
   0.25575402  0.74881303  0.24910774
   0.24429630  0.50107452  0.99656503
   0.99592050  0.74275497  0.00131789
   0.74836182  0.74115795  0.25088828
   0.76083423  0.50579194  0.00294368
   0.49674408  0.51070618  0.25079905
   0.24992403  0.24940868  0.74803300
   0.25932305  0.99836871  0.50896173
   0.99666558  0.24956779  0.50188929
   0.24409956  0.75344832  0.75065831
   0.25227656  0.50073093  0.49874207
   0.99382514  0.75562355  0.50405965
   0.99685992  0.50027245  0.75341117
   0.74836727  0.76097024  0.74999484
   0.74862298  0.49538916  0.50218692
   0.50547763  0.76302085  0.49150929
   0.49820209  0.50202901  0.74693664
   0.52078366  0.01362881  0.97776139
   0.99765114  0.51345278  0.97963435
   0.50319419  0.73239625  0.26095772
   0.23351091  0.01271119  0.74515457
   0.47480020  0.98436978  0.50105556
   0.73571132  0.97305879  0.77041251
   0.00247626  0.77451891  0.25526535
   0.73331922  0.51063320  0.25582565
   0.02006386  0.00110472  0.50090041
   0.50726602  0.52301483  0.49429823
   0.74439779  0.52080074  0.75094339
   0.75022388  0.73414024  0.49430762
HECN                                    
           1
     8.934297    0.017412   -0.011657
     0.023388    9.001666   -0.004255
     0.020407   -0.019803    8.941862
   Hf   Ta   Zr   N    C    Cr   Mo
   7   6   7  13  19   6   6
Direct configuration=     5
   0.99583287  0.99451024  0.99236569
   0.26213202  0.99593269  0.24517669
   0.24458010  0.50149325  0.24583582
   0.50252171  0.50001712  0.99926247
   0.50502057  0.23628870  0.74623098
   0.99747822  0.50242724  0.49876936
   0.49834512  0.76576284  0.75168835
   0.99588099  0.23746500  0.25942556
   0.75245554  0.74449286  0.00983400
   0.00298538  0.25206341  0.74370164
   0.74964950  0.25254822  0.50727958
   0.99703571  0.74630064  0.75096330
   0.25279437  0.49676778  0.75056273
   0.24958029  0.24583330  0.99509269
   0.50649160  0.24989201  0.25191148
   0.73966792  0.98996297  0.26736314
   0.75492837  0.25331280  0.99470230
   0.25144856  0.75247164  0.99960248
   0.25547777  0.24676116  0.50144390
   0.24854922  0.75195337  0.50013847
   0.24785974  0.24944916  0.24880189
   0.25627380  0.00015511  0.99594405
   0.00206268  0.24669646  0.00003549
   0.75638957  0.24700940  0.25739557
   0.74678952  0.99413278  0.00105609
   0.49879224  0.99680743  0.24850753
   0.99608493  0.48247220  0.24647569
   0.50954963  0.75872799  0.00244425
   0.98912747  0.00304193  0.74586738
   0.75360743  0.24436527  0.74463610
   0.73979096  0.00564730  0.51261675
   0.50923259  0.23456221  0.50307340
   0.50521971  0.00035582  0.74148679
   0.00250586  0.00299697  0.25019020
   0.50470770  0.24610951 -0.00384550
   0.25509015  0.74879765  0.24926198
   0.24430589  0.50098397  0.99655506
   0.99579932  0.74277030  0.00159700
   0.74927988  0.74086525  0.25119948
   0.76052907  0.50587448  0.00288474
   0.49753491  0.51019436  0.25150802
   0.24985338  0.24986901  0.74809517
   0.25822705  0.99820729  0.50815937
   0.99657727  0.24885571  0.50189221
   0.24379565  0.75330028  0.75047932
   0.25278719  0.50071437  0.49886619
   0.99329580  0.75619120  0.50364287
   0.99617738  0.50034059  0.75313733
   0.74847984  0.76033487  0.75000173
   0.74819939  0.49551006  0.50224810
   0.50523839  0.76170804  0.49210510
   0.49864643  0.50178976  0.74643291
   0.52004442  0.01389526  0.97827156
   0.99789278  0.51294305  0.98046520
   0.50351638  0.73343249  0.26055870
   0.23447643  0.01263282  0.74542352
   0.47517058  0.98406328  0.50055037
   0.73673261  0.97332775  0.76941610
   0.00223183  0.77411740  0.25587553
   0.73394935  0.51103418  0.25699957
   0.01979163  0.00069200  0.50038310
   0.50662777  0.52344855  0.49491844
   0.74378177  0.52097068  0.74902809
   0.75111820  0.73434831  0.49400706
HECN                                    
           1
     8.916994    0.025316   -0.010671
     0.031352    8.977134   -0.005267
     0.021301   -0.020753    8.912554
   Hf   Ta   Zr   N    C    Cr   Mo
   7   6   7  13  19   6   6
Direct configuration=     6
   0.99590211  0.99430022  0.99108406
   0.26118630  0.99566605  0.24609477
   0.24175137  0.50091931  0.24603413
   0.50265006  0.49945629  0.99854306
   0.50381326  0.23649221  0.74745304
   0.99847096  0.50203852  0.49980325
   0.49846232  0.76322261  0.74979225
   0.99708932  0.23795610  0.25852311
   0.75127389  0.74562869  0.00878593
   0.00392614  0.25016248  0.74468960
   0.74979815  0.24830067  0.50822868
   0.99703937  0.74577232  0.75284273
   0.25236261  0.49673640  0.75058615
   0.25025835  0.24454596  0.99483993
   0.50556904  0.25184484  0.25091697
   0.74067742  0.98902533  0.26551041
   0.75311539  0.25303162  0.99438270
   0.25149884  0.75396720  0.99964340
   0.25507995  0.24730152  0.50174560
   0.24836122  0.75177521  0.50026088
   0.24775164  0.24890302  0.24855553
   0.25336036  0.00016270  0.99756198
   0.00174516  0.24552032 -0.00105002
   0.75609236  0.24680451  0.25728157
   0.74609005  0.99376007 -0.00386365
   0.49828465  0.99637883  0.24880842
   0.99844140  0.48420715  0.24937830
   0.51004569  0.75827054 -0.00117317
   0.99065928  0.00400818  0.74802324
   0.75291149  0.24574880  0.74384287
   0.74506827  0.00685135  0.51167670
   0.51040952  0.23834517  0.50308378
   0.50912340  0.00036537  0.74647319
   0.00216668  0.00110123  0.24930217
   0.50425048  0.24545443 -0.00406939
   0.25732613  0.74905957  0.24863109
   0.24384208  0.50137035  0.99584909
   0.99654789  0.74309088  0.00123142
   0.74655490  0.74100410  0.25138579
   0.76143382  0.50510604  0.00340175
   0.49600744  0.51019440  0.25025416
   0.24976844  0.24864197  0.74805760
   0.25982503  0.99896698  0.51109095
   0.99735498  0.25022910  0.50184899
   0.24433832  0.75400771  0.75118642
   0.25202317  0.50086646  0.49926900
   0.99421341  0.75548999  0.50362920
   0.99865901  0.50009034  0.75397905
   0.74855917  0.76002079  0.74912973
   0.74839256  0.49616505  0.50191967
   0.50671124  0.76464408  0.49013102
   0.49862410  0.50341358  0.74634931
   0.52372487  0.01203591  0.97545702
   0.99594255  0.51584937  0.97686651
   0.50210087  0.72925492  0.26339399
   0.22881591  0.01258839  0.74347035
   0.47433111  0.98570211  0.50288351
   0.73198914  0.97287797  0.77402643
   0.00232677  0.77597957  0.25474512
   0.73031272  0.51104133  0.25388270
   0.02202317  0.00194013  0.50176269
   0.50981587  0.52266768  0.49217912
   0.74640454  0.52252957  0.75637002
   0.74734467  0.73114616  0.49402629
HECN                                    
           1
     8.915710    0.025903   -0.010598
     0.031943    8.975312   -0.005342
     0.021367   -0.020823    8.910379
   Hf   Ta   Zr   N    C    Cr   Mo
   7   6   7  13  19   6   6
Direct configuration=     7
   0.99590728  0.99428457  0.99098859
   0.26111596  0.99564627  0.24616316
   0.24154098  0.50087677  0.24604892
   0.50265965  0.49941453  0.99848947
   0.50372343  0.23650745  0.74754408
   0.99854482  0.50200953  0.49988025
   0.49847123  0.76303347  0.74965099
   0.99717918  0.23799257  0.25845588
   0.75118593  0.74571332  0.00870788
   0.00399624  0.25002090  0.74476317
   0.74980949  0.24798446  0.50829934
   0.99703966  0.74573300  0.75298271
   0.25233050  0.49673410  0.75058790
   0.25030888  0.24445008  0.99482108
   0.50550029  0.25199028  0.25084292
   0.74075260  0.98895544  0.26537239
   0.75298055  0.25301080  0.99435890
   0.25150248  0.75407854  0.99964646
   0.25505032  0.24734178  0.50176808
   0.24834725  0.75176196  0.50027000
   0.24774364  0.24886236  0.24853717
   0.25314363  0.00016347  0.99768251
   0.00172163  0.24543278 -0.00113088
   0.75607027  0.24678928  0.25727308
   0.74603808  0.99373232 -0.00423011
   0.49824692  0.99634696  0.24883084
   0.99861655  0.48433618  0.24959450
   0.51008265  0.75823642 -0.00144263
   0.99077314  0.00408003  0.74818381
   0.75285963  0.24585183  0.74378380
   0.74546076  0.00694063  0.51160664
   0.51049681  0.23862672  0.50308458
   0.50941375  0.00036587  0.74684458
   0.00214158  0.00096012  0.24923601
   0.50421651  0.24540569 -0.00408607
   0.25749245  0.74907892  0.24858408
   0.24380755  0.50139914  0.99579651
   0.99660355  0.74311470  0.00120419
   0.74635218  0.74101462  0.25139969
   0.76150117  0.50504877  0.00344025
   0.49589383  0.51019449  0.25016078
   0.24976220  0.24855063  0.74805479
   0.25994383  0.99902346  0.51130931
   0.99741274  0.25033130  0.50184577
   0.24437864  0.75406034  0.75123909
   0.25196632  0.50087784  0.49929901
   0.99428172  0.75543773  0.50362817
   0.99884362  0.50007156  0.75404172
   0.74856510  0.75999740  0.74906477
   0.74840689  0.49621380  0.50189521
   0.50682062  0.76486254  0.48998399
   0.49862233  0.50353447  0.74634310
   0.52399880  0.01189722  0.97524732
   0.99579731  0.51606584  0.97659849
   0.50199583  0.72894404  0.26360516
   0.22839486  0.01258544  0.74332491
   0.47426853  0.98582419  0.50305732
   0.73163628  0.97284484  0.77436987
   0.00233372  0.77611819  0.25466093
   0.73004223  0.51104208  0.25365056
   0.02218907  0.00203291  0.50186544
   0.51005310  0.52260931  0.49197505
   0.74659948  0.52264551  0.75691689
   0.74706418  0.73090803  0.49402772
HECN                                    
           1
     8.927599    0.023256   -0.012015
     0.029296    8.985702   -0.001573
     0.019985   -0.017102    8.919138
   Hf   Ta   Zr   N    C    Cr   Mo
   7   6   7  13  19   6   6
Direct configuration=     8
   0.99635898  0.99394055  0.99217792
   0.26047259  0.99613734  0.24827913
   0.24060453  0.50104462  0.24585477
   0.50220169  0.49986326  0.99765909
   0.50291530  0.23956825  0.74677272
   0.99653108  0.50225500  0.50057471
   0.49885932  0.75926435  0.74681111
   0.99719175  0.23645190  0.25790871
   0.75127918  0.74553860  0.00814781
   0.00462848  0.24871620  0.74447164
   0.75086239  0.24609013  0.50832285
   0.99740316  0.74554845  0.75219804
   0.25328087  0.49652388  0.74974336
   0.24953898  0.24389789  0.99490711
   0.50515664  0.25326515  0.25149407
   0.74093526  0.98897083  0.26513864
   0.75335455  0.25239535  0.99448983
   0.25220092  0.75407618  0.99949695
   0.25520398  0.24857808  0.50168622
   0.24902108  0.75126891  0.50031021
   0.24778097  0.24877031  0.24829666
   0.25075105  0.00016906  0.99880399
   0.00109499  0.24531287 -0.00171709
   0.75573784  0.24684993  0.25663734
   0.74677051  0.99398821 -0.00462542
   0.49965231  0.99718054  0.24924701
   0.99896367  0.48484514  0.25133780
   0.50947006  0.75825731 -0.00354084
   0.99251643  0.00454085  0.74710408
   0.75280837  0.24703768  0.74459475
   0.75054116  0.00901102  0.50959923
   0.51095745  0.24264767  0.50201931
   0.51250487 -0.00027711  0.74915948
   0.00135054  0.00275559  0.25005098
   0.50361369  0.24447653 -0.00313404
   0.25859797  0.74895090  0.24878445
   0.24290970  0.50150720  0.99490472
   0.99663019  0.74346966  0.00194932
   0.74515409  0.74024450  0.25141783
   0.76218116  0.50464614  0.00471193
   0.49393999  0.50782864  0.24983179
   0.24977507  0.24807929  0.74833371
   0.25983118  0.99920205  0.51327249
   0.99801270  0.24985560  0.50179087
   0.24387186  0.75477219  0.75101769
   0.25250637  0.50112606  0.50006578
   0.99325507  0.75643152  0.50249830
   0.99978475  0.49993813  0.75414119
   0.74885126  0.75923269  0.74830161
   0.74851066  0.49539563  0.50251393
   0.50715795  0.76563609  0.48860840
   0.50026743  0.50448700  0.74480998
   0.52610263  0.00997257  0.97316731
   0.99366694  0.51884516  0.97499079
   0.50146636  0.72819843  0.26642254
   0.22327125  0.01236786  0.74142782
   0.47503774  0.98824783  0.50574667
   0.72818193  0.97243896  0.77635592
   0.00196461  0.77361747  0.25533694
   0.72945431  0.51096687  0.25275617
   0.02141135  0.00241230  0.50254994
   0.51051802  0.52050777  0.49023915
   0.74977064  0.52292733  0.76076106
   0.74540255  0.72973341  0.49301372
HECN                                    
           1
     8.931664    0.022352   -0.012499
     0.028392    8.989253   -0.000285
     0.019513   -0.015830    8.922133
   Hf   Ta   Zr   N    C    Cr   Mo
   7   6   7  13  19   6   6
Direct configuration=     9
   0.99651322  0.99382296  0.99258416
   0.26025312  0.99630465  0.24900166
   0.24028484  0.50110186  0.24578839
   0.50204535  0.50001655  0.99737541
   0.50263969  0.24061341  0.74650881
   0.99584366  0.50233851  0.50081173
   0.49899127  0.75797781  0.74584181
   0.99719585  0.23592591  0.25772206
   0.75131097  0.74547903  0.00795657
   0.00484417  0.24827081  0.74437231
   0.75122165  0.24544340  0.50833121
   0.99752719  0.74548558  0.75193011
   0.25360525  0.49645232  0.74945502
   0.24927609  0.24370925  0.99493652
   0.50503948  0.25370033  0.25171624
   0.74099761  0.98897613  0.26505881
   0.75348217  0.25218522  0.99453466
   0.25243935  0.75407546  0.99944593
   0.25525657  0.24900024  0.50165809
   0.24925107  0.75110062  0.50032405
   0.24779369  0.24873891  0.24821454
   0.24993430  0.00017056  0.99918687
   0.00088101  0.24527194 -0.00191731
   0.75562432  0.24687070  0.25642019
   0.74702056  0.99407571 -0.00476042
   0.50013221  0.99746526  0.24938909
   0.99908233  0.48501872  0.25193311
   0.50926082  0.75826468 -0.00425744
   0.99311157  0.00469853  0.74673536
   0.75279104  0.24744247  0.74487153
   0.75227569  0.00971877  0.50891365
   0.51111507  0.24402084  0.50165495
   0.51356022 -0.00049668  0.74995031
   0.00108071  0.00336847  0.25032900
   0.50340784  0.24415907 -0.00280880
   0.25897539  0.74890728  0.24885296
   0.24260315  0.50154413  0.99460010
   0.99663937  0.74359076  0.00220374
   0.74474499  0.73998141  0.25142408
   0.76241334  0.50450855  0.00514632
   0.49327270  0.50702066  0.24971967
   0.24977943  0.24791831  0.74842903
   0.25979284  0.99926274  0.51394292
   0.99821747  0.24969324  0.50177222
   0.24369890  0.75501523  0.75094196
   0.25269081  0.50121076  0.50032764
   0.99290462  0.75677091  0.50211223
   0.00010604  0.49989266  0.75417523
   0.74894883  0.75897172  0.74804110
   0.74854604  0.49511618  0.50272535
   0.50727312  0.76590045  0.48813852
   0.50082908  0.50481264  0.74428635
   0.52682055  0.00931590  0.97245734
   0.99293984  0.51979418  0.97444122
   0.50128568  0.72794339  0.26738479
   0.22152195  0.01229331  0.74077969
   0.47530074  0.98907509  0.50666482
   0.72700270  0.97229974  0.77703406
   0.00183837  0.77276346  0.25556815
   0.72925354  0.51094126  0.25245070
   0.02114592  0.00254166  0.50278361
   0.51067644  0.51979048  0.48964665
   0.75085349  0.52302333  0.76207403
   0.74483511  0.72933231  0.49266751
HECN                                    
           1
     8.933790    0.016100   -0.014055
     0.022161    8.967412   -0.000330
     0.017987   -0.015845    8.930978
   Hf   Ta   Zr   N    C    Cr   Mo
   7   6   7  13  19   6   6
Direct configuration=    10
   0.99699110  0.99276156  0.99391383
   0.26119875  0.99589950  0.25059518
   0.24029474  0.50166683  0.24559545
   0.50196113  0.50082636  0.99781585
   0.50361900  0.24242105  0.74579023
   0.99475958  0.50258594  0.50033432
   0.49966459  0.75736337  0.74422674
   0.99648956  0.23664042  0.25822577
   0.75150802  0.74538287  0.00807434
   0.00443072  0.24819234  0.74374275
   0.75227169  0.24587011  0.50851762
   0.99771176  0.74622295  0.75030356
   0.25333644  0.49656217  0.74880204
   0.24847849  0.24378033  0.99500210
   0.50527014  0.25287100  0.25214157
   0.74054725  0.98845827  0.26538030
   0.75354998  0.25192078  0.99446629
   0.25322697  0.75419833  0.99923562
   0.25502609  0.24925323  0.50162026
   0.24951635  0.75115448  0.50007217
   0.24749787  0.24891536  0.24828540
   0.24854580  0.00000055  0.00007870
   0.00059773  0.24541041 -0.00165005
   0.75592728  0.24688385  0.25629736
   0.74828779  0.99383126 -0.00225241
   0.50008820  0.99871220  0.25012041
   0.99770443  0.48508964  0.25217249
   0.50887883  0.75817075 -0.00495577
   0.99301446  0.00411173  0.74594438
   0.75308564  0.24779643  0.74536774
   0.75458746  0.01127917  0.50771362
   0.51121472  0.24631449  0.50170467
   0.51450412 -0.00044159  0.74823853
   0.00117761  0.00199219  0.25101413
   0.50356786  0.24329118 -0.00309999
   0.25894678  0.74908550  0.24939719
   0.24221904  0.50148931  0.99417078
   0.99634920  0.74356588  0.00240946
   0.74470613  0.73981374  0.25042943
   0.76261968  0.50467177  0.00659577
   0.49309492  0.50651493  0.24927788
   0.24990430  0.24793753  0.74829891
   0.25962636  0.99955165  0.51467064
   0.99829512  0.24908724  0.50140701
   0.24325312  0.75523705  0.75012880
   0.25268850  0.50130340  0.50035367
   0.99174535  0.75702823  0.50195721
   0.00016353  0.50008813  0.75392750
   0.74936578  0.75948401  0.74802522
   0.74767595  0.49432337  0.50371619
   0.50660800  0.76566087  0.48769740
   0.50215549  0.50353873  0.74380579
   0.52617114  0.00895349  0.97196125
   0.99186462  0.52100576  0.97499266
   0.50156713  0.72768320  0.26862693
   0.22043576  0.01250595  0.73926818
   0.47579591  0.99056247  0.50959430
   0.72764502  0.97123262  0.77631902
   0.00138769  0.77290624  0.25687877
   0.72979548  0.51031759  0.25354905
   0.01931771  0.00221634  0.50177776
   0.50998000  0.51779517  0.48860111
   0.75294254  0.52173409  0.76144181
   0.74514799  0.72931598  0.49188524
HECN                                    
           1
     8.934651    0.013568   -0.014684
     0.019638    8.958568   -0.000349
     0.017369   -0.015851    8.934559
   Hf   Ta   Zr   N    C    Cr   Mo
   7   6   7  13  19   6   6
Direct configuration=    11
   0.99718436  0.99233086  0.99445174
   0.26158157  0.99573531  0.25123986
   0.24029889  0.50189616  0.24551741
   0.50192730  0.50115505  0.99799401
   0.50401591  0.24315506  0.74549962
   0.99432075  0.50268607  0.50014112
   0.49993689  0.75711416  0.74357345
   0.99620386  0.23693025  0.25842949
   0.75158777  0.74534389  0.00812200
   0.00426328  0.24816037  0.74348805
   0.75269691  0.24604361  0.50859311
   0.99778657  0.74652231  0.74964559
   0.25322760  0.49660669  0.74853787
   0.24815562  0.24380896  0.99502857
   0.50536331  0.25253443  0.25231364
   0.74036481  0.98824794  0.26551032
   0.75357735  0.25181346  0.99443863
   0.25354583  0.75424842  0.99915060
   0.25493285  0.24935585  0.50160494
   0.24962374  0.75117642  0.49997031
   0.24737817  0.24898690  0.24831404
   0.24798371 -0.00006885  0.00043936
   0.00048311  0.24546654 -0.00154195
   0.75604992  0.24688927  0.25624769
   0.74880091  0.99373240 -0.00123777
   0.50007078  0.99921833  0.25041624
   0.99714666  0.48511804  0.25226923
   0.50872411  0.75813252 -0.00523828
   0.99297493  0.00387351  0.74562440
   0.75320503  0.24794019  0.74556849
   0.75552368  0.01191320  0.50722835
   0.51125571  0.24724553  0.50172479
   0.51488613 -0.00041896  0.74754614
   0.00121650  0.00143357  0.25129128
   0.50363238  0.24293894 -0.00321777
   0.25893529  0.74915783  0.24961734
   0.24206350  0.50146695  0.99399708
   0.99623174  0.74355570  0.00249265
   0.74469029  0.73974567  0.25002708
   0.76270335  0.50473808  0.00718213
   0.49302278  0.50630960  0.24909915
   0.24995485  0.24794537  0.74824628
   0.25955909  0.99966888  0.51496501
   0.99832636  0.24884128  0.50125927
   0.24307266  0.75532696  0.74979983
   0.25268759  0.50134099  0.50036421
   0.99127610  0.75713235  0.50189442
   0.00018684  0.50016748  0.75382729
   0.74953471  0.75969207  0.74801883
   0.74732356  0.49400131  0.50411695
   0.50633865  0.76556343  0.48751891
   0.50269207  0.50302201  0.74361149
   0.52590810  0.00880620  0.97176052
   0.99142973  0.52149725  0.97521566
   0.50168108  0.72757767  0.26912942
   0.21999600  0.01259195  0.73865666
   0.47599698  0.99116636  0.51077938
   0.72790470  0.97079965  0.77602982
   0.00120537  0.77296407  0.25740892
   0.73001478  0.51006459  0.25399339
   0.01857744  0.00208378  0.50137075
   0.50969743  0.51698506  0.48817811
   0.75378784  0.52121136  0.76118621
   0.74527460  0.72930943  0.49156881
HECN                                    
           1
     8.934482    0.016248   -0.015370
     0.022289    8.980051   -0.002297
     0.016690   -0.017825    8.939078
   Hf   Ta   Zr   N    C    Cr   Mo
   7   6   7  13  19   6   6
Direct configuration=    12
   0.99745688  0.99200503  0.99516231
   0.26195558  0.99598943  0.25223159
   0.24027763  0.50170119  0.24537428