  64  64   0   0
  0.2218804E+02  0.1124000E-08  0.1124000E-08  0.1124000E-08  0.5000000E-15
  1.000000000000000E-004
  CAR 
 HECN                                    
     15.90071682    -59.30565239  301      8.98378092      1.00000000
    -59.306  0.0000E+00  0.0000E+00
    -59.055  0.0000E+00  0.0000E+00
    -58.804  0.0000E+00  0.0000E+00
    -58.554  0.0000E+00  0.0000E+00
    -58.303  0.0000E+00  0.0000E+00
    -58.052  0.0000E+00  0.0000E+00
    -57.802  0.0000E+00  0.0000E+00
    -57.551  0.0000E+00  0.0000E+00
    -57.300  0.0000E+00  0.0000E+00
    -57.049  0.0000E+00  0.0000E+00
    -56.799  0.0000E+00  0.0000E+00
    -56.548  0.0000E+00  0.0000E+00
    -56.297  0.4013E-09  0.1006E-09
    -56.047  0.2025E-02  0.5077E-03
    -55.796  0.3405E+00  0.8587E-01
    -55.545  0.1361E+00  0.1200E+00
    -55.295  0.3359E-04  0.1200E+00
    -55.044  0.1384E-12  0.1200E+00
    -54.793  0.0000E+00  0.1200E+00
    -54.543  0.0000E+00  0.1200E+00
    -54.292  0.0000E+00  0.1200E+00
    -54.041  0.0000E+00  0.1200E+00
    -53.791  0.0000E+00  0.1200E+00
    -53.540  0.0000E+00  0.1200E+00
    -53.289  0.0000E+00  0.1200E+00
    -53.038  0.0000E+00  0.1200E+00
    -52.788  0.0000E+00  0.1200E+00
    -52.537  0.0000E+00  0.1200E+00
    -52.286  0.0000E+00  0.1200E+00
    -52.036  0.0000E+00  0.1200E+00
    -51.785  0.0000E+00  0.1200E+00
    -51.534  0.0000E+00  0.1200E+00
    -51.284  0.0000E+00  0.1200E+00
    -51.033  0.0000E+00  0.1200E+00
    -50.782  0.0000E+00  0.1200E+00
    -50.532  0.0000E+00  0.1200E+00
    -50.281  0.0000E+00  0.1200E+00
    -50.030  0.0000E+00  0.1200E+00
    -49.780  0.0000E+00  0.1200E+00
    -49.529  0.0000E+00  0.1200E+00
    -49.278  0.2347E-15  0.1200E+00
    -49.027  0.8103E-06  0.1200E+00
    -48.777  0.1890E-01  0.1247E+00
    -48.526  0.1023E+00  0.1504E+00
    -48.275  0.3123E+00  0.2287E+00
    -48.025  0.1244E+00  0.2599E+00
    -47.774  0.5228E-03  0.2600E+00
    -47.523  0.3985E-09  0.2600E+00
    -47.273  0.1117E-02  0.2603E+00
    -47.022  0.1251E+00  0.2916E+00
    -46.771  0.2448E+00  0.3530E+00
    -46.521  0.1008E+00  0.3783E+00
    -46.270  0.6886E-02  0.3800E+00
    -46.019  0.3649E-07  0.3800E+00
    -45.769  0.0000E+00  0.3800E+00
    -45.518  0.0000E+00  0.3800E+00
    -45.267  0.0000E+00  0.3800E+00
    -45.016  0.0000E+00  0.3800E+00
    -44.766  0.0000E+00  0.3800E+00
    -44.515  0.0000E+00  0.3800E+00
    -44.264  0.0000E+00  0.3800E+00
    -44.014  0.0000E+00  0.3800E+00
    -43.763  0.0000E+00  0.3800E+00
    -43.512  0.0000E+00  0.3800E+00
    -43.262  0.0000E+00  0.3800E+00
    -43.011  0.0000E+00  0.3800E+00
    -42.760  0.0000E+00  0.3800E+00
    -42.510  0.0000E+00  0.3800E+00
    -42.259  0.0000E+00  0.3800E+00
    -42.008  0.0000E+00  0.3800E+00
    -41.757  0.0000E+00  0.3800E+00
    -41.507  0.0000E+00  0.3800E+00
    -41.256  0.0000E+00  0.3800E+00
    -41.005  0.0000E+00  0.3800E+00
    -40.755  0.0000E+00  0.3800E+00
    -40.504  0.0000E+00  0.3800E+00
    -40.253  0.0000E+00  0.3800E+00
    -40.003  0.0000E+00  0.3800E+00
    -39.752  0.0000E+00  0.3800E+00
    -39.501  0.0000E+00  0.3800E+00
    -39.251  0.0000E+00  0.3800E+00
    -39.000  0.0000E+00  0.3800E+00
    -38.749  0.0000E+00  0.3800E+00
    -38.499  0.0000E+00  0.3800E+00
    -38.248  0.0000E+00  0.3800E+00
    -37.997  0.0000E+00  0.3800E+00
    -37.746  0.0000E+00  0.3800E+00
    -37.496  0.0000E+00  0.3800E+00
    -37.245  0.0000E+00  0.3800E+00
    -36.994  0.0000E+00  0.3800E+00
    -36.744  0.0000E+00  0.3800E+00
    -36.493  0.0000E+00  0.3800E+00
    -36.242  0.0000E+00  0.3800E+00
    -35.992  0.0000E+00  0.3800E+00
    -35.741  0.0000E+00  0.3800E+00
    -35.490  0.0000E+00  0.3800E+00
    -35.240  0.0000E+00  0.3800E+00
    -34.989  0.0000E+00  0.3800E+00
    -34.738  0.0000E+00  0.3800E+00
    -34.488  0.0000E+00  0.3800E+00
    -34.237  0.0000E+00  0.3800E+00
    -33.986  0.0000E+00  0.3800E+00
    -33.735  0.0000E+00  0.3800E+00
    -33.485  0.0000E+00  0.3800E+00
    -33.234  0.0000E+00  0.3800E+00
    -32.983  0.0000E+00  0.3800E+00
    -32.733  0.0000E+00  0.3800E+00
    -32.482  0.0000E+00  0.3800E+00
    -32.231  0.0000E+00  0.3800E+00
    -31.981  0.0000E+00  0.3800E+00
    -31.730  0.0000E+00  0.3800E+00
    -31.479  0.0000E+00  0.3800E+00
    -31.229  0.2404E-13  0.3800E+00
    -30.978  0.1029E-04  0.3800E+00
    -30.727  0.4184E-01  0.3905E+00
    -30.477  0.3209E+00  0.4709E+00
    -30.226  0.6912E+00  0.6442E+00
    -29.975  0.4213E+00  0.7498E+00
    -29.724  0.1010E+01  0.1003E+01
    -29.474  0.3864E+00  0.1100E+01
    -29.223  0.6181E-03  0.1100E+01
    -28.972  0.5271E-10  0.1100E+01
    -28.722  0.0000E+00  0.1100E+01
    -28.471  0.0000E+00  0.1100E+01
    -28.220  0.0000E+00  0.1100E+01
    -27.970  0.0000E+00  0.1100E+01
    -27.719  0.0000E+00  0.1100E+01
    -27.468  0.0000E+00  0.1100E+01
    -27.218  0.0000E+00  0.1100E+01
    -26.967  0.0000E+00  0.1100E+01
    -26.716  0.0000E+00  0.1100E+01
    -26.466  0.0000E+00  0.1100E+01
    -26.215  0.0000E+00  0.1100E+01
    -25.964  0.0000E+00  0.1100E+01
    -25.713  0.8857E-17  0.1100E+01
    -25.463  0.1285E-06  0.1100E+01
    -25.212  0.1844E-01  0.1105E+01
    -24.961  0.2782E+00  0.1174E+01
    -24.711  0.8517E+00  0.1388E+01
    -24.460  0.4913E+00  0.1511E+01
    -24.209  0.3582E-01  0.1520E+01
    -23.959  0.3071E-05  0.1520E+01
    -23.708  0.1414E-05  0.1520E+01
    -23.457  0.2776E-01  0.1527E+01
    -23.207  0.3540E+00  0.1616E+01
    -22.956  0.6181E+00  0.1771E+01
    -22.705  0.3734E+00  0.1864E+01
    -22.455  0.6275E-01  0.1880E+01
    -22.204  0.4772E-01  0.1892E+01
    -21.953  0.3669E+00  0.1984E+01
    -21.702  0.3072E+00  0.2061E+01
    -21.452  0.4689E+00  0.2179E+01
    -21.201  0.2446E+00  0.2240E+01
    -20.950  0.1485E+00  0.2277E+01
    -20.700  0.9158E-01  0.2300E+01
    -20.449  0.2841E-04  0.2300E+01
    -20.198  0.1284E-12  0.2300E+01
    -19.948  0.0000E+00  0.2300E+01
    -19.697  0.0000E+00  0.2300E+01
    -19.446  0.0000E+00  0.2300E+01
    -19.196  0.0000E+00  0.2300E+01
    -18.945  0.0000E+00  0.2300E+01
    -18.694  0.0000E+00  0.2300E+01
    -18.444  0.0000E+00  0.2300E+01
    -18.193  0.0000E+00  0.2300E+01
    -17.942  0.0000E+00  0.2300E+01
    -17.691  0.0000E+00  0.2300E+01
    -17.441  0.0000E+00  0.2300E+01
    -17.190  0.0000E+00  0.2300E+01
    -16.939  0.0000E+00  0.2300E+01
    -16.689  0.0000E+00  0.2300E+01
    -16.438  0.0000E+00  0.2300E+01
    -16.187  0.0000E+00  0.2300E+01
    -15.937  0.0000E+00  0.2300E+01
    -15.686  0.0000E+00  0.2300E+01
    -15.435  0.0000E+00  0.2300E+01
    -15.185  0.0000E+00  0.2300E+01
    -14.934  0.0000E+00  0.2300E+01
    -14.683  0.0000E+00  0.2300E+01
    -14.433  0.0000E+00  0.2300E+01
    -14.182  0.0000E+00  0.2300E+01
    -13.931  0.0000E+00  0.2300E+01
    -13.680  0.0000E+00  0.2300E+01
    -13.430  0.0000E+00  0.2300E+01
    -13.179  0.0000E+00  0.2300E+01
    -12.928  0.0000E+00  0.2300E+01
    -12.678  0.0000E+00  0.2300E+01
    -12.427  0.0000E+00  0.2300E+01
    -12.176  0.0000E+00  0.2300E+01
    -11.926  0.0000E+00  0.2300E+01
    -11.675  0.0000E+00  0.2300E+01
    -11.424  0.0000E+00  0.2300E+01
    -11.174  0.0000E+00  0.2300E+01
    -10.923  0.0000E+00  0.2300E+01
    -10.672  0.0000E+00  0.2300E+01
    -10.422  0.0000E+00  0.2300E+01
    -10.171  0.0000E+00  0.2300E+01
     -9.920  0.0000E+00  0.2300E+01
     -9.669  0.0000E+00  0.2300E+01
     -9.419  0.0000E+00  0.2300E+01
     -9.168  0.0000E+00  0.2300E+01
     -8.917  0.0000E+00  0.2300E+01
     -8.667  0.0000E+00  0.2300E+01
     -8.416  0.0000E+00  0.2300E+01
     -8.165  0.0000E+00  0.2300E+01
     -7.915  0.3453E-10  0.2300E+01
     -7.664  0.9481E-04  0.2300E+01
     -7.413  0.1693E-01  0.2304E+01
     -7.163  0.5621E-01  0.2318E+01
     -6.912  0.5908E-01  0.2333E+01
     -6.661  0.1422E+00  0.2369E+01
     -6.411  0.1363E+00  0.2403E+01
     -6.160  0.2392E+00  0.2463E+01
     -5.909  0.2282E+00  0.2520E+01
     -5.658  0.1475E+00  0.2557E+01
     -5.408  0.1140E-01  0.2560E+01
     -5.157  0.8518E-06  0.2560E+01
     -4.906  0.6915E-15  0.2560E+01
     -4.656  0.0000E+00  0.2560E+01
     -4.405  0.8000E-12  0.2560E+01
     -4.154  0.2341E-04  0.2560E+01
     -3.904  0.2404E-01  0.2566E+01
     -3.653  0.5535E-01  0.2580E+01
     -3.402  0.3455E-01  0.2589E+01
     -3.152  0.1045E+00  0.2615E+01
     -2.901  0.1094E+00  0.2642E+01
     -2.650  0.1555E+00  0.2681E+01
     -2.399  0.2255E+00  0.2738E+01
     -2.149  0.2266E+00  0.2795E+01
     -1.898  0.2137E+00  0.2848E+01
     -1.647  0.2108E+00  0.2901E+01
     -1.397  0.1047E+00  0.2927E+01
     -1.146  0.4971E-01  0.2940E+01
     -0.895  0.1364E-02  0.2940E+01
     -0.645  0.7057E-07  0.2940E+01
     -0.394  0.3937E-16  0.2940E+01
     -0.143  0.0000E+00  0.2940E+01
      0.107  0.0000E+00  0.2940E+01
      0.358  0.1015E-09  0.2940E+01
      0.609  0.1028E-03  0.2940E+01
      0.859  0.5453E-02  0.2941E+01
      1.110  0.2509E-01  0.2948E+01
      1.361  0.7894E-01  0.2967E+01
      1.612  0.9645E-01  0.2992E+01
      1.862  0.1422E+00  0.3027E+01
      2.113  0.1972E+00  0.3077E+01
      2.364  0.2890E+00  0.3149E+01
      2.614  0.2766E+00  0.3219E+01
      2.865  0.2749E+00  0.3287E+01
      3.116  0.3270E+00  0.3369E+01
      3.366  0.3278E+00  0.3452E+01
      3.617  0.4303E+00  0.3559E+01
      3.868  0.4822E+00  0.3680E+01
      4.118  0.5339E+00  0.3814E+01
      4.369  0.6047E+00  0.3966E+01
      4.620  0.5936E+00  0.4115E+01
      4.870  0.5516E+00  0.4253E+01
      5.121  0.5241E+00  0.4384E+01
      5.372  0.4609E+00  0.4500E+01
      5.623  0.4248E+00  0.4606E+01
      5.873  0.3105E+00  0.4684E+01
      6.124  0.2726E+00  0.4752E+01
      6.375  0.1715E+00  0.4795E+01
      6.625  0.1731E+00  0.4839E+01
      6.876  0.9577E-01  0.4863E+01
      7.127  0.6452E-01  0.4879E+01
      7.377  0.1898E+00  0.4927E+01
      7.628  0.1456E+00  0.4963E+01
      7.879  0.1454E+00  0.5000E+01
      8.129  0.1793E+00  0.5044E+01
      8.380  0.1628E+00  0.5085E+01
      8.631  0.2115E+00  0.5138E+01
      8.881  0.2646E+00  0.5205E+01
      9.132  0.2449E+00  0.5266E+01
      9.383  0.2772E+00  0.5336E+01
      9.634  0.3893E+00  0.5433E+01
      9.884  0.4440E+00  0.5544E+01
     10.135  0.4797E+00  0.5665E+01
     10.386  0.5069E+00  0.5792E+01
     10.636  0.5622E+00  0.5933E+01
     10.887  0.5909E+00  0.6081E+01
     11.138  0.5749E+00  0.6225E+01
     11.388  0.5223E+00  0.6356E+01
     11.639  0.4991E+00  0.6481E+01
     11.890  0.4056E+00  0.6583E+01
     12.140  0.3231E+00  0.6664E+01
     12.391  0.1792E+00  0.6709E+01
     12.642  0.4533E-01  0.6720E+01
     12.892  0.1773E-03  0.6720E+01
     13.143  0.2660E-10  0.6720E+01
     13.394  0.0000E+00  0.6720E+01
     13.645  0.0000E+00  0.6720E+01
     13.895  0.0000E+00  0.6720E+01
     14.146  0.0000E+00  0.6720E+01
     14.397  0.0000E+00  0.6720E+01
     14.647  0.0000E+00  0.6720E+01
     14.898  0.0000E+00  0.6720E+01
     15.149  0.0000E+00  0.6720E+01
     15.399  0.0000E+00  0.6720E+01
     15.650  0.0000E+00  0.6720E+01
     15.901  0.0000E+00  0.6720E+01
