 running on   24 total cores
 distrk:  each k-point on   24 cores,    1 groups
 distr:  one band on    1 cores,   24 groups
 using from now: INCAR     
 vasp.5.4.4.18Apr17-6-g9f103f2a35 (build Oct 18 2021 20:38:43) complex          
  
 POSCAR found type information on POSCAR  Ti W  Hf N  C  Nb V 
 POSCAR found :  7 types and      64 ions
 scaLAPACK will be used

 ----------------------------------------------------------------------------- 
|                                                                             |
|           W    W    AA    RRRRR   N    N  II  N    N   GGGG   !!!           |
|           W    W   A  A   R    R  NN   N  II  NN   N  G    G  !!!           |
|           W    W  A    A  R    R  N N  N  II  N N  N  G       !!!           |
|           W WW W  AAAAAA  RRRRR   N  N N  II  N  N N  G  GGG   !            |
|           WW  WW  A    A  R   R   N   NN  II  N   NN  G    G                |
|           W    W  A    A  R    R  N    N  II  N    N   GGGG   !!!           |
|                                                                             |
|      For optimal performance we recommend to set                            |
|        NCORE= 4 - approx SQRT( number of cores)                             |
|      NCORE specifies how many cores store one orbital (NPAR=cpu/NCORE).     |
|      This setting can  greatly improve the performance of VASP for DFT.     |
|      The default,   NCORE=1            might be grossly inefficient         |
|      on modern multi-core architectures or massively parallel machines.     |
|      Do your own testing !!!!                                               |
|      Unfortunately you need to use the default for GW and RPA calculations. |
|      (for HF NCORE is supported but not extensively tested yet)             |
|                                                                             |
 ----------------------------------------------------------------------------- 


 ----------------------------------------------------------------------------- 
|                                                                             |
|  ADVICE TO THIS USER RUNNING 'VASP/VAMP'   (HEAR YOUR MASTER'S VOICE ...):  |
|                                                                             |
|      You have a (more or less) 'large supercell' and for larger cells       |
|      it might be more efficient to use real space projection operators      |
|      So try LREAL= Auto  in the INCAR   file.                               |
|      Mind: If you want to do a very accurate calculations keep the          |
|      reciprocal projection scheme          (i.e. LREAL=.FALSE.)             |
|                                                                             |
 ----------------------------------------------------------------------------- 

 LDA part: xc-table for Pade appr. of Perdew
 POSCAR, INCAR and KPOINTS ok, starting setup
 FFT: planning ...
 WAVECAR not read
 entering main loop
       N       E                     dE             d eps       ncg     rms          rms(c)
DAV:   1     0.509244463605E+04    0.50924E+04   -0.22977E+05 10056   0.125E+03
DAV:   2     0.243475083982E+03   -0.48490E+04   -0.47007E+04  9768   0.510E+02
DAV:   3    -0.537015988340E+03   -0.78049E+03   -0.74086E+03 15984   0.157E+02
DAV:   4    -0.622259766710E+03   -0.85244E+02   -0.82288E+02 15120   0.533E+01
DAV:   5    -0.637758590733E+03   -0.15499E+02   -0.15049E+02 18744   0.207E+01    0.761E+01
RMM:   6    -0.819339293706E+03   -0.18158E+03   -0.30169E+03 12635   0.773E+01    0.137E+02
RMM:   7    -0.502793197698E+03    0.31655E+03   -0.28935E+02 13916   0.340E+01    0.516E+01
RMM:   8    -0.469591480640E+03    0.33202E+02   -0.65369E+01 13281   0.149E+01    0.251E+01
RMM:   9    -0.464979267842E+03    0.46122E+01   -0.26302E+01 13909   0.778E+00    0.272E+01
RMM:  10    -0.463871435368E+03    0.11078E+01   -0.12782E+01 14072   0.446E+00    0.210E+01
RMM:  11    -0.467430127595E+03   -0.35587E+01   -0.12748E+01 13632   0.483E+00    0.345E+01
RMM:  12    -0.465315863404E+03    0.21143E+01   -0.10357E+01 14030   0.440E+00    0.320E+01
RMM:  13    -0.464503294758E+03    0.81257E+00   -0.67688E+00 13898   0.331E+00    0.322E+01
RMM:  14    -0.461923463262E+03    0.25798E+01   -0.47484E+00 13769   0.260E+00    0.142E+01
RMM:  15    -0.464529902507E+03   -0.26064E+01   -0.41702E+00 13810   0.299E+00    0.311E+01
RMM:  16    -0.461795047064E+03    0.27349E+01   -0.29315E+00 13682   0.226E+00    0.130E+01
RMM:  17    -0.461702872110E+03    0.92175E-01   -0.12589E+00 13797   0.176E+00    0.143E+01
RMM:  18    -0.461412005291E+03    0.29087E+00   -0.99324E-01 13813   0.141E+00    0.115E+01
RMM:  19    -0.461175520378E+03    0.23648E+00   -0.77740E-01 13880   0.120E+00    0.509E+00
RMM:  20    -0.461217536603E+03   -0.42016E-01   -0.81816E-01 13892   0.102E+00    0.471E+00
RMM:  21    -0.461138868827E+03    0.78668E-01   -0.41267E-01 13666   0.840E-01    0.343E+00
RMM:  22    -0.461134454161E+03    0.44147E-02   -0.29149E-01 14016   0.548E-01    0.217E+00
RMM:  23    -0.461138128252E+03   -0.36741E-02   -0.17567E-01 13920   0.479E-01    0.168E+00
RMM:  24    -0.461145286762E+03   -0.71585E-02   -0.13426E-01 14097   0.329E-01    0.169E+00
RMM:  25    -0.461139942909E+03    0.53439E-02   -0.12410E-01 13995   0.278E-01    0.103E+00
RMM:  26    -0.461143845917E+03   -0.39030E-02   -0.10344E-01 14149   0.282E-01    0.666E-01
RMM:  27    -0.461149644659E+03   -0.57987E-02   -0.70960E-02 13941   0.242E-01    0.536E-01
RMM:  28    -0.461152554976E+03   -0.29103E-02   -0.58275E-02 13442   0.139E-01    0.265E-01
RMM:  29    -0.461156385278E+03   -0.38303E-02   -0.40043E-02 12936   0.118E-01    0.235E-01
RMM:  30    -0.461159685825E+03   -0.33005E-02   -0.37048E-02 12605   0.854E-02    0.216E-01
RMM:  31    -0.461162264372E+03   -0.25785E-02   -0.28537E-02 12767   0.804E-02    0.211E-01
RMM:  32    -0.461164480088E+03   -0.22157E-02   -0.24598E-02 12612   0.727E-02    0.110E-01
RMM:  33    -0.461166335868E+03   -0.18558E-02   -0.19157E-02 11978   0.664E-02    0.138E-01
RMM:  34    -0.461167881189E+03   -0.15453E-02   -0.16157E-02 11354   0.503E-02    0.116E-01
RMM:  35    -0.461169158657E+03   -0.12775E-02   -0.13624E-02 11383   0.449E-02    0.507E-02
WARNING in EDDRMM: call to ZHEGV failed, returncode =   8  4     10
RMM:  36    -0.461170267052E+03   -0.11084E-02   -0.11353E-02 10737   0.391E-02    0.535E-02
RMM:  37    -0.461171210977E+03   -0.94392E-03   -0.96798E-03 11161   0.350E-02    0.468E-02
RMM:  38    -0.461172012003E+03   -0.80103E-03   -0.82126E-03 10525   0.325E-02    0.265E-02
RMM:  39    -0.461172684501E+03   -0.67250E-03   -0.68582E-03 10492   0.286E-02    0.144E-02
RMM:  40    -0.461173254347E+03   -0.56985E-03   -0.57870E-03  9455   0.264E-02    0.275E-02
RMM:  41    -0.461173727615E+03   -0.47327E-03   -0.48680E-03  9334   0.231E-02    0.166E-02
RMM:  42    -0.461174134336E+03   -0.40672E-03   -0.41627E-03  9638   0.225E-02    0.140E-02
RMM:  43    -0.461174479484E+03   -0.34515E-03   -0.35070E-03  9141   0.204E-02    0.139E-02
RMM:  44    -0.461174772152E+03   -0.29267E-03   -0.29842E-03  8116   0.193E-02    0.665E-03
RMM:  45    -0.461175018191E+03   -0.24604E-03   -0.25156E-03  8056   0.181E-02    0.530E-03
RMM:  46    -0.461175231811E+03   -0.21362E-03   -0.21775E-03  7585   0.166E-02    0.565E-03
RMM:  47    -0.461175413581E+03   -0.18177E-03   -0.18566E-03  7866   0.157E-02    0.381E-03
RMM:  48    -0.461175569981E+03   -0.15640E-03   -0.15952E-03  8081   0.155E-02    0.326E-03
RMM:  49    -0.461175700556E+03   -0.13057E-03   -0.13355E-03  7311   0.144E-02    0.416E-03
RMM:  50    -0.461175813086E+03   -0.11253E-03   -0.11508E-03  6628   0.129E-02    0.408E-03
RMM:  51    -0.461175910466E+03   -0.97380E-04   -0.99798E-04  6629   0.123E-02    0.192E-03
RMM:  52    -0.461175993069E+03   -0.82603E-04   -0.84783E-04  6491   0.116E-02    0.202E-03
RMM:  53    -0.461176063308E+03   -0.70239E-04   -0.72213E-04  6695   0.111E-02    0.419E-04
RMM:  54    -0.461176124645E+03   -0.61337E-04   -0.63009E-04  6330   0.105E-02    0.766E-04
WARNING in EDDRMM: call to ZHEGV failed, returncode =   6  3     11
RMM:  55    -0.461176175994E+03   -0.51349E-04   -0.52922E-04  6094   0.993E-03    0.499E-04
RMM:  56    -0.461176220597E+03   -0.44603E-04   -0.45895E-04  5980   0.940E-03    0.720E-04
RMM:  57    -0.461176258257E+03   -0.37660E-04   -0.38897E-04  5841   0.914E-03    0.173E-03
WARNING in EDDRMM: call to ZHEGV failed, returncode =   8  4     12
RMM:  58    -0.461176290799E+03   -0.32542E-04   -0.33464E-04  5680   0.843E-03    0.393E-03
RMM:  59    -0.461176318345E+03   -0.27545E-04   -0.28556E-04  5623   0.809E-03    0.444E-03
RMM:  60    -0.461176343062E+03   -0.24717E-04   -0.25620E-04  5607   0.769E-03
   1 F= -.46117634E+03 E0= -.46088166E+03  d E =-.461176E+03
 curvature:   0.00 expect dE= 0.000E+00 dE for cont linesearch  0.000E+00
 trial: gam= 0.00000 g(F)=  0.922E+00 g(S)=  0.314E+03 ort = 0.000E+00 (trialstep = 0.100E+01)
 search vector abs. value=  0.315E+03
 bond charge predicted
       N       E                     dE             d eps       ncg     rms          rms(c)
DAV:   1    -0.424208502932E+04   -0.37809E+04   -0.10961E+05 10200   0.107E+03    0.395E+02
RMM:   2    -0.137625643664E+04    0.28658E+04   -0.83298E+03 13905   0.293E+02    0.190E+02
RMM:   3    -0.574730893922E+03    0.80153E+03   -0.29969E+03 10357   0.214E+02    0.508E+01
RMM:   4    -0.643674251963E+03   -0.68943E+02   -0.81824E+02 13000   0.744E+01    0.445E+01
RMM:   5    -0.595336530710E+03    0.48338E+02   -0.15484E+02 13871   0.309E+01    0.206E+01
RMM:   6    -0.597371845681E+03   -0.20353E+01   -0.71176E+01 15698   0.182E+01    0.203E+01
RMM:   7    -0.599581840109E+03   -0.22100E+01   -0.34448E+01 15425   0.122E+01    0.157E+01
RMM:   8    -0.601687701851E+03   -0.21059E+01   -0.25364E+01 15236   0.112E+01    0.149E+01
RMM:   9    -0.602285088753E+03   -0.59739E+00   -0.11249E+01 15904   0.696E+00    0.114E+01
RMM:  10    -0.602341813213E+03   -0.56724E-01   -0.10088E+01 15271   0.632E+00    0.769E+00
RMM:  11    -0.602951490067E+03   -0.60968E+00   -0.52820E+00 16020   0.430E+00    0.539E+00
RMM:  12    -0.603473353382E+03   -0.52186E+00   -0.34163E+00 16229   0.322E+00    0.282E+00
RMM:  13    -0.603872439886E+03   -0.39909E+00   -0.24582E+00 16260   0.290E+00    0.328E+00
RMM:  14    -0.603852315808E+03    0.20124E-01   -0.14591E+00 15924   0.225E+00    0.121E+00
RMM:  15    -0.603888656356E+03   -0.36341E-01   -0.80470E-01 16088   0.172E+00    0.789E-01
RMM:  16    -0.603918882133E+03   -0.30226E-01   -0.42431E-01 16532   0.116E+00    0.710E-01
RMM:  17    -0.603935699516E+03   -0.16817E-01   -0.23735E-01 16343   0.901E-01    0.492E-01
RMM:  18    -0.603944639697E+03   -0.89402E-02   -0.13274E-01 16261   0.673E-01    0.204E-01
RMM:  19    -0.603950687795E+03   -0.60481E-02   -0.75096E-02 16335   0.518E-01    0.236E-01
RMM:  20    -0.603954096634E+03   -0.34088E-02   -0.44125E-02 16347   0.387E-01    0.213E-01
RMM:  21    -0.603955927220E+03   -0.18306E-02   -0.25295E-02 16258   0.318E-01    0.512E-02
RMM:  22    -0.603957169593E+03   -0.12424E-02   -0.15114E-02 15983   0.235E-01    0.350E-02
RMM:  23    -0.603957933429E+03   -0.76384E-03   -0.88893E-03 15999   0.190E-01    0.514E-02
RMM:  24    -0.603958447068E+03   -0.51364E-03   -0.58912E-03 15818   0.143E-01    0.208E-02
RMM:  25    -0.603958743388E+03   -0.29632E-03   -0.33970E-03 15761   0.120E-01    0.198E-02
WARNING in EDDRMM: call to ZHEGV failed, returncode =   8  4      4
RMM:  26    -0.603958957763E+03   -0.21438E-03   -0.24035E-03 15597   0.892E-02    0.760E-03
RMM:  27    -0.603959078147E+03   -0.12038E-03   -0.13681E-03 15418   0.766E-02    0.107E-02
RMM:  28    -0.603959170105E+03   -0.91958E-04   -0.10239E-03 14997   0.565E-02    0.259E-03
RMM:  29    -0.603959220865E+03   -0.50760E-04   -0.57860E-04 14395   0.506E-02    0.656E-03
RMM:  30    -0.603959261479E+03   -0.40614E-04   -0.45070E-04 13784   0.376E-02    0.824E-04
RMM:  31    -0.603959283923E+03   -0.22444E-04   -0.25355E-04 12734   0.338E-02    0.428E-03
RMM:  32    -0.603959302145E+03   -0.18222E-04   -0.20319E-04 12088   0.266E-02    0.575E-04
RMM:  33    -0.603959312044E+03   -0.98990E-05   -0.11537E-04 10831   0.248E-02    0.264E-03
WARNING in EDDRMM: call to ZHEGV failed, returncode =   6  3     11
RMM:  34    -0.603959320243E+03   -0.81996E-05   -0.97278E-05 10228   0.207E-02
   2 F= -.60395932E+03 E0= -.60389654E+03  d E =-.142783E+03
 trial-energy change: -142.782977  1 .order   17.326309 -314.880097  349.532715
 step:   0.7471(harm=  0.4739)  dis= 0.02567  next Energy=  -645.567306 (dE=-0.184E+03)
 bond charge predicted
       N       E                     dE             d eps       ncg     rms          rms(c)
DAV:   1    -0.103783490116E+04   -0.43388E+03   -0.83215E+03 10488   0.322E+02    0.189E+02
RMM:   2    -0.139353074768E+04   -0.35570E+03   -0.23465E+03 11706   0.116E+02    0.115E+02
RMM:   3    -0.875484742895E+03    0.51805E+03   -0.70887E+02 13817   0.568E+01    0.719E+01
RMM:   4    -0.707036938180E+03    0.16845E+03   -0.15764E+02 12874   0.342E+01    0.490E+01
RMM:   5    -0.678313701731E+03    0.28723E+02   -0.47646E+02 13597   0.365E+01    0.394E+01
RMM:   6    -0.657044738504E+03    0.21269E+02   -0.48299E+01 12748   0.228E+01    0.212E+01
RMM:   7    -0.657258486208E+03   -0.21375E+00   -0.27570E+01 13948   0.924E+00    0.272E+01
RMM:   8    -0.653529550456E+03    0.37289E+01   -0.78815E+00 13017   0.782E+00    0.186E+01
RMM:   9    -0.651479365306E+03    0.20502E+01   -0.61425E+00 13707   0.472E+00    0.741E+00
RMM:  10    -0.651068018377E+03    0.41135E+00   -0.18787E+00 14088   0.344E+00    0.399E+00
RMM:  11    -0.651231633389E+03   -0.16362E+00   -0.13004E+00 15392   0.179E+00    0.495E+00
RMM:  12    -0.651291912970E+03   -0.60280E-01   -0.60157E-01 15021   0.150E+00    0.476E+00
RMM:  13    -0.651114354573E+03    0.17756E+00   -0.78779E-01 14218   0.162E+00    0.237E+00
RMM:  14    -0.651173490518E+03   -0.59136E-01   -0.39563E-01 15023   0.119E+00    0.295E+00
RMM:  15    -0.651157176971E+03    0.16314E-01   -0.18529E-01 15190   0.690E-01    0.123E+00
RMM:  16    -0.651298254688E+03   -0.14108E+00   -0.28511E-01 14768   0.939E-01    0.369E+00
RMM:  17    -0.651236030716E+03    0.62224E-01   -0.85420E-02 14934   0.594E-01    0.269E+00
RMM:  18    -0.651171334819E+03    0.64696E-01   -0.14851E-01 14498   0.650E-01    0.388E-01
RMM:  19    -0.651174412215E+03   -0.30774E-02   -0.69062E-02 14808   0.467E-01    0.454E-01
RMM:  20    -0.651177391816E+03   -0.29796E-02   -0.30065E-02 15368   0.274E-01    0.569E-01
RMM:  21    -0.651177182873E+03    0.20894E-03   -0.11899E-02 15530   0.188E-01    0.488E-01
RMM:  22    -0.651176043019E+03    0.11399E-02   -0.63019E-03 15092   0.117E-01    0.391E-01
RMM:  23    -0.651174616506E+03    0.14265E-02   -0.63062E-03 14680   0.131E-01    0.102E-01
RMM:  24    -0.651174676726E+03   -0.60219E-04   -0.27671E-03 14497   0.992E-02    0.430E-02
RMM:  25    -0.651174786850E+03   -0.11012E-03   -0.15067E-03 13917   0.566E-02    0.242E-02
RMM:  26    -0.651174844392E+03   -0.57542E-04   -0.75448E-04 13195   0.478E-02    0.318E-02
RMM:  27    -0.651174864334E+03   -0.19942E-04   -0.41907E-04 12594   0.321E-02    0.859E-03
RMM:  28    -0.651174886053E+03   -0.21720E-04   -0.28024E-04 11962   0.272E-02    0.104E-02
RMM:  29    -0.651174897197E+03   -0.11144E-04   -0.16768E-04 10986   0.217E-02    0.704E-03
RMM:  30    -0.651174905044E+03   -0.78472E-05   -0.11413E-04 10170   0.188E-02    0.176E-03
RMM:  31    -0.651174909729E+03   -0.46841E-05   -0.71421E-05  9338   0.168E-02
   3 F= -.65117491E+03 E0= -.65108450E+03  d E =-.189999E+03
 curvature:  -0.17 expect dE=-0.902E+00 dE for cont linesearch -0.515E+00
 ZBRENT: interpolating
 opt :   0.7675  next Energy=  -651.486340 (dE=-0.190E+03)
 bond charge predicted
       N       E                     dE             d eps       ncg     rms          rms(c)
DAV:   1    -0.653638508159E+03   -0.24636E+01   -0.49681E+01 10200   0.242E+01    0.115E+01
RMM:   2    -0.662950782316E+03   -0.93123E+01   -0.26372E+01 11631   0.127E+01    0.370E+01
RMM:   3    -0.652404132281E+03    0.10547E+02   -0.54806E+00 11623   0.641E+00    0.692E+00
RMM:   4    -0.652222440559E+03    0.18169E+00   -0.13176E+00 12862   0.288E+00    0.711E+00
RMM:   5    -0.651918452484E+03    0.30399E+00   -0.59787E-01 12452   0.170E+00    0.457E+00
RMM:   6    -0.651708366606E+03    0.21009E+00   -0.33120E-01 11440   0.154E+00    0.158E+00
RMM:   7    -0.651700316880E+03    0.80497E-02   -0.13180E-01 13597   0.906E-01    0.158E+00
RMM:   8    -0.651689880736E+03    0.10436E-01   -0.46302E-02 13841   0.477E-01    0.107E+00
RMM:   9    -0.651682068673E+03    0.78121E-02   -0.13903E-02 14207   0.285E-01    0.389E-01
RMM:  10    -0.651683013878E+03   -0.94521E-03   -0.66452E-03 14243   0.151E-01    0.462E-01
RMM:  11    -0.651682864805E+03    0.14907E-03   -0.35873E-03 14261   0.109E-01    0.279E-01
RMM:  12    -0.651683714462E+03   -0.84966E-03   -0.25817E-03 14235   0.890E-02    0.225E-01
RMM:  13    -0.651685079785E+03   -0.13653E-02   -0.31875E-03 14143   0.976E-02    0.207E-01
RMM:  14    -0.651685526896E+03   -0.44711E-03   -0.29766E-03 14191   0.851E-02    0.186E-01
RMM:  15    -0.651685512984E+03    0.13912E-04   -0.19558E-03 13367   0.719E-02    0.488E-02
RMM:  16    -0.651685559456E+03   -0.46472E-04   -0.99795E-04 12447   0.455E-02    0.416E-02
RMM:  17    -0.651685599291E+03   -0.39835E-04   -0.55457E-04 11927   0.356E-02    0.456E-02
WARNING in EDDRMM: call to ZHEGV failed, returncode =   8  4      6
RMM:  18    -0.651685617266E+03   -0.17976E-04   -0.33954E-04 11694   0.278E-02    0.313E-02
RMM:  19    -0.651685632767E+03   -0.15501E-04   -0.20853E-04 11186   0.230E-02    0.187E-02
RMM:  20    -0.651685642490E+03   -0.97223E-05   -0.12859E-04 10581   0.196E-02    0.842E-03
RMM:  21    -0.651685646946E+03   -0.44563E-05   -0.77066E-05  9842   0.167E-02
   4 F= -.65168565E+03 E0= -.65159787E+03  d E =-.190509E+03
 curvature:  -0.10 expect dE=-0.287E+00 dE for cont linesearch -0.263E-01
 ZBRENT: interpolating
 opt :   0.7756  next Energy=  -651.722665 (dE=-0.191E+03)
 bond charge predicted
       N       E                     dE             d eps       ncg     rms          rms(c)
DAV:   1    -0.652045122077E+03   -0.35948E+00   -0.79634E+00 10704   0.975E+00    0.476E+00
RMM:   2    -0.653690608394E+03   -0.16455E+01   -0.39223E+00 11734   0.492E+00    0.149E+01
RMM:   3    -0.651830688130E+03    0.18599E+01   -0.95015E-01 11614   0.259E+00    0.251E+00
RMM:   4    -0.651821028363E+03    0.96598E-02   -0.21595E-01 12691   0.120E+00    0.311E+00
RMM:   5    -0.651762090162E+03    0.58938E-01   -0.96802E-02 12392   0.666E-01    0.171E+00
RMM:   6    -0.651734004447E+03    0.28086E-01   -0.52764E-02 11578   0.618E-01    0.676E-01
RMM:   7    -0.651734689037E+03   -0.68459E-03   -0.22084E-02 13541   0.359E-01    0.883E-01
RMM:   8    -0.651730285376E+03    0.44037E-02   -0.83031E-03 13780   0.203E-01    0.371E-01
RMM:   9    -0.651729363254E+03    0.92212E-03   -0.23545E-03 13955   0.122E-01    0.184E-01
RMM:  10    -0.651729406359E+03   -0.43105E-04   -0.11076E-03 13505   0.603E-02    0.162E-01
RMM:  11    -0.651729458380E+03   -0.52021E-04   -0.61974E-04 13109   0.453E-02    0.105E-01
RMM:  12    -0.651729623855E+03   -0.16547E-03   -0.44851E-04 12693   0.374E-02    0.881E-02
RMM:  13    -0.651729887969E+03   -0.26411E-03   -0.51024E-04 12736   0.411E-02    0.994E-02
WARNING in EDDRMM: call to ZHEGV failed, returncode =   8  4      6
RMM:  14    -0.651729963739E+03   -0.75770E-04   -0.50654E-04 12467   0.387E-02    0.546E-02
RMM:  15    -0.651729998680E+03   -0.34941E-04   -0.33597E-04 11813   0.337E-02    0.200E-02
RMM:  16    -0.651730014908E+03   -0.16227E-04   -0.18880E-04 11086   0.241E-02    0.298E-02
WARNING in EDDRMM: call to ZHEGV failed, returncode =   6  3      9
RMM:  17    -0.651730018846E+03   -0.39386E-05   -0.11566E-04 10953   0.211E-02    0.164E-02
WARNING in EDDRMM: call to ZHEGV failed, returncode =   8  4      6
WARNING in EDDRMM: call to ZHEGV failed, returncode =   6  3      6
RMM:  18    -0.651730022223E+03   -0.33765E-05   -0.53571E-05  9008   0.156E-02
   5 F= -.65173002E+03 E0= -.65164327E+03  d E =-.190554E+03
 curvature:  -0.15 expect dE=-0.384E+00 dE for cont linesearch -0.994E-05
 trial: gam= 0.00872 g(F)=  0.258E+01 g(S)=  0.239E-01 ort =-0.146E+00 (trialstep = 0.955E+00)
 search vector abs. value=  0.262E+01
 bond charge predicted
       N       E                     dE             d eps       ncg     rms          rms(c)
DAV:   1    -0.648332352691E+03    0.33977E+01   -0.38300E+02  9744   0.686E+01    0.411E+00
RMM:   2    -0.653672062348E+03   -0.53397E+01   -0.56913E+01 14394   0.202E+01    0.402E+00
RMM:   3    -0.653725628797E+03   -0.53566E-01   -0.40153E+00 13794   0.671E+00    0.559E+00
RMM:   4    -0.653520091614E+03    0.20554E+00   -0.10222E+00 14863   0.276E+00    0.180E+00
RMM:   5    -0.653514514577E+03    0.55770E-02   -0.39334E-01 14137   0.119E+00    0.212E+00
RMM:   6    -0.653502789505E+03    0.11725E-01   -0.22400E-01 14180   0.102E+00    0.196E+00
RMM:   7    -0.653475788190E+03    0.27001E-01   -0.11488E-01 14241   0.687E-01    0.634E-01
RMM:   8    -0.653480374883E+03   -0.45867E-02   -0.46798E-02 14950   0.474E-01    0.894E-01
RMM:   9    -0.653476351689E+03    0.40232E-02   -0.27810E-02 14611   0.269E-01    0.314E-01
RMM:  10    -0.653477612890E+03   -0.12612E-02   -0.15144E-02 14790   0.219E-01    0.343E-01
RMM:  11    -0.653477668776E+03   -0.55887E-04   -0.83986E-03 14921   0.147E-01    0.213E-01
RMM:  12    -0.653477771164E+03   -0.10239E-03   -0.47070E-03 14602   0.120E-01    0.107E-01
RMM:  13    -0.653478053013E+03   -0.28185E-03   -0.26969E-03 14265   0.814E-02    0.119E-01
RMM:  14    -0.653478192361E+03   -0.13935E-03   -0.17388E-03 14003   0.689E-02    0.990E-02
RMM:  15    -0.653478218845E+03   -0.26484E-04   -0.10170E-03 13370   0.525E-02    0.319E-02
WARNING in EDDRMM: call to ZHEGV failed, returncode =   6  3      6
RMM:  16    -0.653478282661E+03   -0.63816E-04   -0.63671E-04 12926   0.419E-02    0.437E-02
RMM:  17    -0.653478300098E+03   -0.17438E-04   -0.37059E-04 12079   0.321E-02    0.203E-02
RMM:  18    -0.653478318942E+03   -0.18843E-04   -0.25787E-04 11725   0.275E-02    0.910E-03
RMM:  19    -0.653478329470E+03   -0.10529E-04   -0.14474E-04 10915   0.211E-02    0.431E-03
RMM:  20    -0.653478336862E+03   -0.73918E-05   -0.92405E-05 10434   0.182E-02
   6 F= -.65347834E+03 E0= -.65339725E+03  d E =-.174831E+01
 trial-energy change:   -1.748315  1 .order   -1.719616   -2.483203   -0.956029
 step:   1.4649(harm=  1.5530)  dis= 0.09625  next Energy=  -653.737825 (dE=-0.201E+01)
 bond charge predicted
       N       E                     dE             d eps       ncg     rms          rms(c)
DAV:   1    -0.652268230278E+03    0.12101E+01   -0.10934E+02  9744   0.368E+01    0.222E+00
RMM:   2    -0.653793333628E+03   -0.15251E+01   -0.16289E+01 14365   0.108E+01    0.220E+00
RMM:   3    -0.653798026918E+03   -0.46933E-02   -0.11241E+00 13816   0.355E+00    0.277E+00
RMM:   4    -0.653741669501E+03    0.56357E-01   -0.28241E-01 14861   0.145E+00    0.910E-01
RMM:   5    -0.653738487471E+03    0.31820E-02   -0.10985E-01 14184   0.607E-01    0.959E-01
RMM:   6    -0.653739778428E+03   -0.12910E-02   -0.63272E-02 14171   0.541E-01    0.110E+00
RMM:   7    -0.653730825140E+03    0.89533E-02   -0.32100E-02 14234   0.363E-01    0.323E-01
RMM:   8    -0.653732250642E+03   -0.14255E-02   -0.13646E-02 14960   0.245E-01    0.454E-01
RMM:   9    -0.653731248155E+03    0.10025E-02   -0.78323E-03 14747   0.141E-01    0.153E-01
RMM:  10    -0.653731616533E+03   -0.36838E-03   -0.42332E-03 14561   0.114E-01    0.170E-01
RMM:  11    -0.653731657799E+03   -0.41266E-04   -0.23820E-03 13855   0.790E-02    0.105E-01
RMM:  12    -0.653731719915E+03   -0.62115E-04   -0.13634E-03 13439   0.644E-02    0.638E-02
WARNING in EDDRMM: call to ZHEGV failed, returncode =   8  4      6
RMM:  13    -0.653731799361E+03   -0.79446E-04   -0.78292E-04 13043   0.463E-02    0.682E-02
RMM:  14    -0.653731828662E+03   -0.29301E-04   -0.50531E-04 12642   0.391E-02    0.399E-02
RMM:  15    -0.653731846669E+03   -0.18007E-04   -0.28605E-04 11870   0.307E-02    0.138E-02
WARNING in EDDRMM: call to ZHEGV failed, returncode =   8  4      4
RMM:  16    -0.653731862657E+03   -0.15987E-04   -0.18607E-04 11467   0.248E-02    0.162E-02
RMM:  17    -0.653731869520E+03   -0.68634E-05   -0.10156E-04 10359   0.199E-02    0.117E-02
RMM:  18    -0.653731873899E+03   -0.43783E-05   -0.69309E-05 10208   0.171E-02
   7 F= -.65373187E+03 E0= -.65365308E+03  d E =-.200185E+01
 curvature:  -0.77 expect dE=-0.722E+00 dE for cont linesearch -0.226E-03
 trial: gam= 0.33990 g(F)=  0.599E+00 g(S)=  0.343E+00 ort =-0.278E-01 (trialstep = 0.106E+01)
 search vector abs. value=  0.123E+01
 bond charge predicted
       N       E                     dE             d eps       ncg     rms          rms(c)
DAV:   1    -0.651830654799E+03    0.19012E+01   -0.26055E+02  9552   0.683E+01    0.156E+01
RMM:   2    -0.668618080243E+03   -0.16787E+02   -0.76057E+01 12676   0.248E+01    0.275E+01
RMM:   3    -0.654649421710E+03    0.13969E+02   -0.12560E+01 12715   0.110E+01    0.488E+00
RMM:   4    -0.654373356812E+03    0.27606E+00   -0.29145E+00 14241   0.411E+00    0.409E+00
RMM:   5    -0.654351752822E+03    0.21604E-01   -0.78378E-01 14199   0.223E+00    0.471E+00
RMM:   6    -0.654195938030E+03    0.15581E+00   -0.40807E-01 14064   0.142E+00    0.251E+00
RMM:   7    -0.654162493908E+03    0.33444E-01   -0.22780E-01 13951   0.117E+00    0.206E+00
RMM:   8    -0.654138924814E+03    0.23569E-01   -0.83854E-02 14498   0.677E-01    0.129E+00
RMM:   9    -0.654127487316E+03    0.11437E-01   -0.38213E-02 14874   0.407E-01    0.498E-01
RMM:  10    -0.654128456366E+03   -0.96905E-03   -0.18177E-02 14633   0.265E-01    0.544E-01
RMM:  11    -0.654127548849E+03    0.90752E-03   -0.96000E-03 15284   0.173E-01    0.301E-01
WARNING in EDDRMM: call to ZHEGV failed, returncode =   8  4      6
RMM:  12    -0.654128119497E+03   -0.57065E-03   -0.52619E-03 14861   0.137E-01    0.203E-01
RMM:  13    -0.654129023729E+03   -0.90423E-03   -0.46107E-03 14970   0.111E-01    0.242E-01
WARNING in EDDRMM: call to ZHEGV failed, returncode =   6  3      9
RMM:  14    -0.654129195033E+03   -0.17130E-03   -0.34999E-03 14353   0.107E-01    0.145E-01
RMM:  15    -0.654129200926E+03   -0.58927E-05   -0.23421E-03 14275   0.811E-02    0.640E-02
RMM:  16    -0.654129239589E+03   -0.38664E-04   -0.11220E-03 13626   0.605E-02    0.605E-02
RMM:  17    -0.654129262827E+03   -0.23238E-04   -0.65507E-04 13199   0.421E-02    0.468E-02
RMM:  18    -0.654129271432E+03   -0.86043E-05   -0.38992E-04 12589   0.365E-02    0.192E-02
RMM:  19    -0.654129283782E+03   -0.12350E-04   -0.20456E-04 12114   0.271E-02    0.998E-03
WARNING in EDDRMM: call to ZHEGV failed, returncode =   8  4     10
RMM:  20    -0.654129291020E+03   -0.72387E-05   -0.12754E-04 11247   0.228E-02    0.662E-03
RMM:  21    -0.654129296101E+03   -0.50806E-05   -0.79343E-05 10201   0.192E-02
   8 F= -.65412930E+03 E0= -.65405436E+03  d E =-.397422E+00
 trial-energy change:   -0.397422  1 .order   -0.394894   -0.985856    0.196067
 step:   0.8836(harm=  0.8817)  dis= 0.04720  next Energy=  -654.145375 (dE=-0.414E+00)
 bond charge predicted
       N       E                     dE             d eps       ncg     rms          rms(c)
DAV:   1    -0.654086037227E+03    0.43254E-01   -0.69430E+00 10512   0.113E+01    0.234E+00
RMM:   2    -0.654594640032E+03   -0.50860E+00   -0.23930E+00 12051   0.435E+00    0.670E+00
RMM:   3    -0.654166048845E+03    0.42859E+00   -0.36156E-01 12158   0.195E+00    0.110E+00
RMM:   4    -0.654161712317E+03    0.43365E-02   -0.75850E-02 14112   0.658E-01    0.118E+00
RMM:   5    -0.654150924144E+03    0.10788E-01   -0.20590E-02 13634   0.361E-01    0.703E-01
RMM:   6    -0.654146812056E+03    0.41121E-02   -0.12134E-02 13479   0.263E-01    0.425E-01
RMM:   7    -0.654148075724E+03   -0.12637E-02   -0.89154E-03 13501   0.226E-01    0.617E-01
RMM:   8    -0.654145042860E+03    0.30329E-02   -0.35872E-03 13208   0.146E-01    0.138E-01
RMM:   9    -0.654144921671E+03    0.12119E-03   -0.10310E-03 13764   0.792E-02    0.100E-01
RMM:  10    -0.654144941293E+03   -0.19622E-04   -0.52472E-04 12904   0.436E-02    0.941E-02
RMM:  11    -0.654144915628E+03    0.25665E-04   -0.25516E-04 12453   0.313E-02    0.450E-02
RMM:  12    -0.654144949967E+03   -0.34339E-04   -0.13850E-04 11468   0.224E-02    0.420E-02
WARNING in EDDRMM: call to ZHEGV failed, returncode =   6  3      8
RMM:  13    -0.654144974003E+03   -0.24036E-04   -0.10585E-04 11154   0.212E-02    0.393E-02
RMM:  14    -0.654144998205E+03   -0.24203E-04   -0.10153E-04 11100   0.201E-02    0.183E-02
WARNING in EDDRMM: call to ZHEGV failed, returncode =   6  3     11
RMM:  15    -0.654145009938E+03   -0.11733E-04   -0.67418E-05 10003   0.178E-02    0.117E-02
RMM:  16    -0.654145011938E+03   -0.19992E-05   -0.30520E-05  8027   0.157E-02
   9 F= -.65414501E+03 E0= -.65406912E+03  d E =-.413138E+00
 curvature:  -0.58 expect dE=-0.440E+00 dE for cont linesearch -0.955E-05
 trial: gam= 0.78032 g(F)=  0.381E+00 g(S)=  0.377E+00 ort =-0.450E-02 (trialstep = 0.837E+00)
 search vector abs. value=  0.150E+01
 bond charge predicted
       N       E                     dE             d eps       ncg     rms          rms(c)
DAV:   1    -0.650302930314E+03    0.38421E+01   -0.19459E+02  9744   0.604E+01    0.450E+00
RMM:   2    -0.655190406715E+03   -0.48875E+01   -0.47969E+01 14266   0.184E+01    0.808E+00
RMM:   3    -0.654606740959E+03    0.58367E+00   -0.38815E+00 14165   0.599E+00    0.346E+00
RMM:   4    -0.654548504251E+03    0.58237E-01   -0.75411E-01 14880   0.212E+00    0.228E+00
RMM:   5    -0.654521303777E+03    0.27200E-01   -0.18957E-01 14372   0.104E+00    0.163E+00
RMM:   6    -0.654500793611E+03    0.20510E-01   -0.99998E-02 14143   0.699E-01    0.966E-01
RMM:   7    -0.654496995680E+03    0.37979E-02   -0.66152E-02 14057   0.582E-01    0.995E-01
RMM:   8    -0.654491384418E+03    0.56113E-02   -0.31279E-02 14730   0.379E-01    0.520E-01
RMM:   9    -0.654490522837E+03    0.86158E-03   -0.15184E-02 14932   0.240E-01    0.263E-01
WARNING in EDDRMM: call to ZHEGV failed, returncode =   8  4      9
RMM:  10    -0.654491005215E+03   -0.48238E-03   -0.77867E-03 14923   0.153E-01    0.270E-01
RMM:  11    -0.654490845105E+03    0.16011E-03   -0.42105E-03 14491   0.111E-01    0.116E-01
RMM:  12    -0.654491111541E+03   -0.26644E-03   -0.24058E-03 14378   0.778E-02    0.885E-02
RMM:  13    -0.654491326931E+03   -0.21539E-03   -0.15062E-03 14167   0.633E-02    0.862E-02
RMM:  14    -0.654491422300E+03   -0.95369E-04   -0.10040E-03 13595   0.515E-02    0.589E-02
RMM:  15    -0.654491464840E+03   -0.42539E-04   -0.62308E-04 13095   0.431E-02    0.192E-02
RMM:  16    -0.654491490611E+03   -0.25771E-04   -0.35352E-04 12235   0.317E-02    0.204E-02
RMM:  17    -0.654491507412E+03   -0.16801E-04   -0.23372E-04 11979   0.273E-02    0.134E-02
RMM:  18    -0.654491516544E+03   -0.91320E-05   -0.13369E-04 10990   0.208E-02    0.704E-03
RMM:  19    -0.654491522800E+03   -0.62561E-05   -0.80385E-05 10205   0.179E-02
  10 F= -.65449152E+03 E0= -.65442391E+03  d E =-.346511E+00
 trial-energy change:   -0.346511  1 .order   -0.321094   -0.631735   -0.010453
 step:   0.8481(harm=  0.8509)  dis= 0.06333  next Energy=  -654.491593 (dE=-0.347E+00)
 bond charge predicted
       N       E                     dE             d eps       ncg     rms          rms(c)
DAV:   1    -0.654490805150E+03    0.71139E-03   -0.35439E-02 11088   0.821E-01    0.606E-02
RMM:   2    -0.654491689535E+03   -0.88439E-03   -0.89687E-03 14344   0.241E-01    0.891E-02
RMM:   3    -0.654491619284E+03    0.70251E-04   -0.75613E-04 13532   0.816E-02    0.522E-02
RMM:   4    -0.654491606145E+03    0.13139E-04   -0.16236E-04 12686   0.333E-02    0.278E-02
WARNING in EDDRMM: call to ZHEGV failed, returncode =   8  4      7
WARNING in EDDRMM: call to ZHEGV failed, returncode =   8  4     10
RMM:   5    -0.654491606506E+03   -0.36136E-06   -0.66160E-05 10516   0.210E-02
  11 F= -.65449161E+03 E0= -.65442408E+03  d E =-.346595E+00
 curvature:  -0.81 expect dE=-0.261E+00 dE for cont linesearch -0.536E-06
 trial: gam= 0.26765 g(F)=  0.278E+00 g(S)=  0.442E-01 ort =-0.995E-03 (trialstep = 0.839E+00)
 search vector abs. value=  0.429E+00
 bond charge predicted
       N       E                     dE             d eps       ncg     rms          rms(c)
DAV:   1    -0.653992578146E+03    0.49903E+00   -0.51356E+01  9744   0.276E+01    0.222E+00
RMM:   2    -0.654707244803E+03   -0.71467E+00   -0.82800E+00 14289   0.783E+00    0.167E+00
RMM:   3    -0.654735843119E+03   -0.28598E-01   -0.71848E-01 13916   0.268E+00    0.265E+00
RMM:   4    -0.654675480313E+03    0.60363E-01   -0.17143E-01 14894   0.122E+00    0.815E-01
RMM:   5    -0.654678024868E+03   -0.25446E-02   -0.75631E-02 14286   0.517E-01    0.997E-01
RMM:   6    -0.654673594689E+03    0.44302E-02   -0.37527E-02 14330   0.438E-01    0.674E-01
RMM:   7    -0.654670131694E+03    0.34630E-02   -0.20566E-02 14263   0.263E-01    0.292E-01
RMM:   8    -0.654670226027E+03   -0.94333E-04   -0.94998E-03 14567   0.191E-01    0.234E-01
RMM:   9    -0.654670189622E+03    0.36405E-04   -0.51671E-03 14233   0.113E-01    0.108E-01
RMM:  10    -0.654670351013E+03   -0.16139E-03   -0.28991E-03 13573   0.872E-02    0.872E-02
RMM:  11    -0.654670433992E+03   -0.82979E-04   -0.15891E-03 12941   0.606E-02    0.555E-02
RMM:  12    -0.654670501585E+03   -0.67593E-04   -0.10039E-03 12709   0.500E-02    0.284E-02
RMM:  13    -0.654670548189E+03   -0.46605E-04   -0.55435E-04 12091   0.380E-02    0.282E-02
RMM:  14    -0.654670574871E+03   -0.26682E-04   -0.37608E-04 11964   0.309E-02    0.149E-02
RMM:  15    -0.654670590896E+03   -0.16025E-04   -0.21473E-04 11064   0.247E-02    0.668E-03
RMM:  16    -0.654670603636E+03   -0.12740E-04   -0.15332E-04 10999   0.203E-02    0.568E-03
RMM:  17    -0.654670609853E+03   -0.62170E-05   -0.82990E-05 10090   0.175E-02
  12 F= -.65467061E+03 E0= -.65460432E+03  d E =-.179003E+00
 trial-energy change:   -0.179003  1 .order   -0.178291   -0.269758   -0.086824
 step:   1.2242(harm=  1.2374)  dis= 0.04073  next Energy=  -654.690604 (dE=-0.199E+00)
 bond charge predicted
       N       E                     dE             d eps       ncg     rms          rms(c)
DAV:   1    -0.654548393937E+03    0.12221E+00   -0.10805E+01  9744   0.127E+01    0.102E+00
RMM:   2    -0.654698541551E+03   -0.15015E+00   -0.17423E+00 14264   0.358E+00    0.749E-01
RMM:   3    -0.654705150020E+03   -0.66085E-02   -0.15212E-01 13866   0.123E+00    0.126E+00
RMM:   4    -0.654692070397E+03    0.13080E-01   -0.36780E-02 14887   0.567E-01    0.375E-01
RMM:   5    -0.654692617045E+03   -0.54665E-03   -0.16378E-02 14219   0.239E-01    0.456E-01
RMM:   6    -0.654691735933E+03    0.88111E-03   -0.80963E-03 14208   0.201E-01    0.314E-01
RMM:   7    -0.654690969364E+03    0.76657E-03   -0.44161E-03 14163   0.121E-01    0.123E-01
RMM:   8    -0.654691025643E+03   -0.56279E-04   -0.20473E-03 13693   0.882E-02    0.112E-01
RMM:   9    -0.654691014445E+03    0.11197E-04   -0.11116E-03 12622   0.535E-02    0.510E-02
RMM:  10    -0.654691047878E+03   -0.33433E-04   -0.64468E-04 12290   0.429E-02    0.368E-02
RMM:  11    -0.654691065863E+03   -0.17985E-04   -0.33045E-04 11462   0.303E-02    0.254E-02
RMM:  12    -0.654691082842E+03   -0.16979E-04   -0.23857E-04 11514   0.261E-02    0.133E-02
RMM:  13    -0.654691092072E+03   -0.92297E-05   -0.12294E-04 10625   0.204E-02    0.122E-02
RMM:  14    -0.654691098059E+03   -0.59871E-05   -0.82348E-05 10371   0.168E-02
  13 F= -.65469110E+03 E0= -.65462537E+03  d E =-.199492E+00
 curvature:  -0.82 expect dE=-0.104E+00 dE for cont linesearch -0.780E-05
 trial: gam= 0.31383 g(F)=  0.959E-01 g(S)=  0.304E-01 ort = 0.201E-02 (trialstep = 0.916E+00)
 search vector abs. value=  0.170E+00
 bond charge predicted
       N       E                     dE             d eps       ncg     rms          rms(c)
DAV:   1    -0.654427117317E+03    0.26397E+00   -0.24124E+01  9744   0.204E+01    0.253E+00
RMM:   2    -0.655060001448E+03   -0.63288E+00   -0.51445E+00 14239   0.626E+00    0.502E+00
RMM:   3    -0.654783461447E+03    0.27654E+00   -0.53177E-01 14006   0.240E+00    0.134E+00
RMM:   4    -0.654782492781E+03    0.96867E-03   -0.14664E-01 14756   0.887E-01    0.146E+00
RMM:   5    -0.654766865796E+03    0.15627E-01   -0.46649E-02 14201   0.540E-01    0.775E-01
RMM:   6    -0.654762524288E+03    0.43415E-02   -0.26892E-02 13999   0.374E-01    0.467E-01
RMM:   7    -0.654764223759E+03   -0.16995E-02   -0.15983E-02 14062   0.295E-01    0.689E-01
RMM:   8    -0.654760534640E+03    0.36891E-02   -0.77272E-03 14437   0.176E-01    0.142E-01
RMM:   9    -0.654760643475E+03   -0.10884E-03   -0.34751E-03 14385   0.119E-01    0.129E-01
RMM:  10    -0.654760676332E+03   -0.32857E-04   -0.18286E-03 13662   0.702E-02    0.880E-02
RMM:  11    -0.654760707963E+03   -0.31631E-04   -0.10334E-03 13044   0.523E-02    0.506E-02
RMM:  12    -0.654760759258E+03   -0.51296E-04   -0.57907E-04 12210   0.398E-02    0.449E-02
RMM:  13    -0.654760795460E+03   -0.36202E-04   -0.41047E-04 12219   0.348E-02    0.418E-02
RMM:  14    -0.654760802697E+03   -0.72372E-05   -0.25748E-04 11812   0.288E-02    0.146E-02
RMM:  15    -0.654760812710E+03   -0.10012E-04   -0.16682E-04 11564   0.238E-02    0.127E-02
WARNING in EDDRMM: call to ZHEGV failed, returncode =   8  4      6
RMM:  16    -0.654760818583E+03   -0.58727E-05   -0.92593E-05 10670   0.188E-02
  14 F= -.65476082E+03 E0= -.65469639E+03  d E =-.697205E-01
 trial-energy change:   -0.069721  1 .order   -0.069635   -0.116294   -0.022975
 step:   1.1417(harm=  1.1417)  dis= 0.02233  next Energy=  -654.763561 (dE=-0.725E-01)
 bond charge predicted
       N       E                     dE             d eps       ncg     rms          rms(c)
DAV:   1    -0.654743576073E+03    0.17237E-01   -0.14611E+00 10032   0.504E+00    0.617E-01
RMM:   2    -0.654781638319E+03   -0.38062E-01   -0.31223E-01 14265   0.154E+00    0.126E+00
RMM:   3    -0.654765188000E+03    0.16450E-01   -0.32191E-02 14017   0.588E-01    0.351E-01
RMM:   4    -0.654765175646E+03    0.12354E-04   -0.91948E-03 14644   0.221E-01    0.380E-01
RMM:   5    -0.654764076284E+03    0.10994E-02   -0.30370E-03 13997   0.135E-01    0.185E-01
RMM:   6    -0.654763832845E+03    0.24344E-03   -0.17403E-03 13900   0.960E-02    0.116E-01
RMM:   7    -0.654763944461E+03   -0.11162E-03   -0.10458E-03 13938   0.744E-02    0.172E-01
RMM:   8    -0.654763715651E+03    0.22881E-03   -0.51198E-04 13231   0.449E-02    0.353E-02
WARNING in EDDRMM: call to ZHEGV failed, returncode =   6  3     11
RMM:   9    -0.654763723599E+03   -0.79482E-05   -0.23873E-04 12292   0.324E-02    0.373E-02
WARNING in EDDRMM: call to ZHEGV failed, returncode =   8  4     12
RMM:  10    -0.654763720101E+03    0.34977E-05   -0.11834E-04 11118   0.218E-02    0.209E-02
RMM:  11    -0.654763720928E+03   -0.82704E-06   -0.67957E-05 10499   0.175E-02
  15 F= -.65476372E+03 E0= -.65469958E+03  d E =-.726229E-01
 curvature:  -0.76 expect dE=-0.632E-01 dE for cont linesearch -0.160E-06
 trial: gam= 0.65003 g(F)=  0.313E-01 g(S)=  0.515E-01 ort = 0.188E-03 (trialstep = 0.961E+00)
 search vector abs. value=  0.155E+00
 bond charge predicted
       N       E                     dE             d eps       ncg     rms          rms(c)
DAV:   1    -0.654510343636E+03    0.25338E+00   -0.25303E+01  9816   0.219E+01    0.340E+00
RMM:   2    -0.655519422366E+03   -0.10091E+01   -0.66995E+00 12526   0.747E+00    0.818E+00
RMM:   3    -0.654835100115E+03    0.68432E+00   -0.86155E-01 12704   0.316E+00    0.184E+00
RMM:   4    -0.654830763915E+03    0.43362E-02   -0.21335E-01 14347   0.107E+00    0.195E+00
RMM:   5    -0.654800717616E+03    0.30046E-01   -0.58414E-02 13970   0.621E-01    0.107E+00
RMM:   6    -0.654790792135E+03    0.99255E-02   -0.34185E-02 13862   0.446E-01    0.578E-01
RMM:   7    -0.654793552333E+03   -0.27602E-02   -0.21444E-02 13922   0.367E-01    0.854E-01
RMM:   8    -0.654787837281E+03    0.57151E-02   -0.10304E-02 14240   0.224E-01    0.217E-01
RMM:   9    -0.654787674075E+03    0.16321E-03   -0.35864E-03 14218   0.130E-01    0.141E-01
RMM:  10    -0.654787797938E+03   -0.12386E-03   -0.19034E-03 13787   0.767E-02    0.128E-01
RMM:  11    -0.654787815494E+03   -0.17556E-04   -0.10177E-03 13310   0.555E-02    0.700E-02
RMM:  12    -0.654787930028E+03   -0.11453E-03   -0.59976E-04 12528   0.411E-02    0.528E-02
RMM:  13    -0.654788041166E+03   -0.11114E-03   -0.48740E-04 12561   0.388E-02    0.376E-02
RMM:  14    -0.654788084024E+03   -0.42858E-04   -0.33491E-04 12319   0.327E-02    0.391E-02
RMM:  15    -0.654788089797E+03   -0.57736E-05   -0.18977E-04 11646   0.264E-02    0.176E-02
RMM:  16    -0.654788095748E+03   -0.59503E-05   -0.10529E-04 10978   0.204E-02    0.124E-02
RMM:  17    -0.654788100093E+03   -0.43450E-05   -0.57197E-05  9958   0.160E-02
  16 F= -.65478810E+03 E0= -.65472580E+03  d E =-.243792E-01
 trial-energy change:   -0.024379  1 .order   -0.023901   -0.079730    0.031929
 step:   0.6914(harm=  0.6864)  dis= 0.01323  next Energy=  -654.792572 (dE=-0.289E-01)
 bond charge predicted
       N       E                     dE             d eps       ncg     rms          rms(c)
DAV:   1    -0.654770603640E+03    0.17492E-01   -0.19969E+00  9912   0.612E+00    0.978E-01
RMM:   2    -0.654852243088E+03   -0.81639E-01   -0.51632E-01 12755   0.203E+00    0.223E+00
RMM:   3    -0.654795994692E+03    0.56248E-01   -0.67192E-02 12615   0.874E-01    0.466E-01
RMM:   4    -0.654796122763E+03   -0.12807E-03   -0.16741E-02 14387   0.307E-01    0.554E-01
RMM:   5    -0.654793613175E+03    0.25096E-02   -0.45327E-03 13862   0.172E-01    0.275E-01
RMM:   6    -0.654793020990E+03    0.59219E-03   -0.27205E-03 13862   0.126E-01    0.174E-01
RMM:   7    -0.654793162714E+03   -0.14172E-03   -0.16296E-03 13821   0.103E-01    0.234E-01
WARNING in EDDRMM: call to ZHEGV failed, returncode =   6  3      6
RMM:   8    -0.654792713906E+03    0.44881E-03   -0.78083E-04 13606   0.612E-02    0.585E-02
RMM:   9    -0.654792697814E+03    0.16092E-04   -0.27703E-04 12709   0.383E-02    0.435E-02
RMM:  10    -0.654792695976E+03    0.18379E-05   -0.14178E-04 11795   0.232E-02    0.346E-02
RMM:  11    -0.654792691614E+03    0.43618E-05   -0.77324E-05 10748   0.179E-02
  17 F= -.65479269E+03 E0= -.65472990E+03  d E =-.289707E-01
 curvature:  -0.64 expect dE=-0.187E-01 dE for cont linesearch -0.459E-06
 trial: gam= 0.35275 g(F)=  0.165E-01 g(S)=  0.127E-01 ort =-0.333E-03 (trialstep = 0.907E+00)
 search vector abs. value=  0.482E-01
 bond charge predicted
       N       E                     dE             d eps       ncg     rms          rms(c)
DAV:   1    -0.654704296046E+03    0.88400E-01   -0.68156E+00  9744   0.112E+01    0.114E+00
RMM:   2    -0.654849681713E+03   -0.14539E+00   -0.13906E+00 14198   0.319E+00    0.194E+00
RMM:   3    -0.654812785521E+03    0.36896E-01   -0.13605E-01 14043   0.117E+00    0.724E-01
RMM:   4    -0.654811274622E+03    0.15109E-02   -0.32530E-02 14867   0.443E-01    0.725E-01
RMM:   5    -0.654807536877E+03    0.37377E-02   -0.11780E-02 14217   0.248E-01    0.383E-01
RMM:   6    -0.654806644921E+03    0.89196E-03   -0.68228E-03 14043   0.193E-01    0.268E-01
RMM:   7    -0.654806615258E+03    0.29663E-04   -0.37264E-03 13953   0.135E-01    0.290E-01
WARNING in EDDRMM: call to ZHEGV failed, returncode =   6  3     10
RMM:   8    -0.654805961219E+03    0.65404E-03   -0.18542E-03 14019   0.795E-02    0.652E-02
RMM:   9    -0.654805996271E+03   -0.35052E-04   -0.84216E-04 13032   0.569E-02    0.631E-02
RMM:  10    -0.654806001029E+03   -0.47580E-05   -0.45401E-04 12234   0.360E-02    0.406E-02
WARNING in EDDRMM: call to ZHEGV failed, returncode =   8  4     12
RMM:  11    -0.654806007804E+03   -0.67754E-05   -0.25850E-04 11667   0.289E-02    0.222E-02
RMM:  12    -0.654806017216E+03   -0.94124E-05   -0.14372E-04 10678   0.222E-02    0.196E-02
WARNING in EDDRMM: call to ZHEGV failed, returncode =   6  3     11
RMM:  13    -0.654806024520E+03   -0.73035E-05   -0.11426E-04 10957   0.207E-02    0.173E-02
RMM:  14    -0.654806023997E+03    0.52331E-06   -0.53901E-05  9485   0.163E-02
  18 F= -.65480602E+03 E0= -.65474335E+03  d E =-.133324E-01
 trial-energy change:   -0.013332  1 .order   -0.013511   -0.026335   -0.000688
 step:   0.9327(harm=  0.9316)  dis= 0.01068  next Energy=  -654.806034 (dE=-0.133E-01)
 bond charge predicted
       N       E                     dE             d eps       ncg     rms          rms(c)
DAV:   1    -0.654805955630E+03    0.68890E-04   -0.53441E-03 11040   0.313E-01    0.325E-02
RMM:   2    -0.654806083473E+03   -0.12784E-03   -0.11782E-03 14072   0.909E-02    0.610E-02
RMM:   3    -0.654806047630E+03    0.35843E-04   -0.15133E-04 12151   0.357E-02    0.199E-02
WARNING in EDDRMM: call to ZHEGV failed, returncode =   6  3      7
WARNING in EDDRMM: call to ZHEGV failed, returncode =   6  3     10
WARNING in EDDRMM: call to ZHEGV failed, returncode =   6  3     10
RMM:   4    -0.654806048646E+03   -0.10161E-05   -0.52768E-05 10269   0.179E-02
  19 F= -.65480605E+03 E0= -.65474339E+03  d E =-.133570E-01
 curvature:  -0.77 expect dE=-0.756E-02 dE for cont linesearch -0.252E-06
 trial: gam= 0.29487 g(F)=  0.797E-02 g(S)=  0.182E-02 ort = 0.125E-03 (trialstep = 0.912E+00)
 search vector abs. value=  0.141E-01
 bond charge predicted
       N       E                     dE             d eps       ncg     rms          rms(c)
DAV:   1    -0.654778911242E+03    0.27136E-01   -0.20101E+00  9792   0.568E+00    0.440E-01
RMM:   2    -0.654816386104E+03   -0.37475E-01   -0.38576E-01 14293   0.163E+00    0.627E-01
RMM:   3    -0.654812950316E+03    0.34358E-02   -0.31066E-02 14019   0.549E-01    0.320E-01
RMM:   4    -0.654812287857E+03    0.66246E-03   -0.67575E-03 14833   0.231E-01    0.195E-01
RMM:   5    -0.654812272933E+03    0.14924E-04   -0.24227E-03 13745   0.970E-02    0.174E-01
RMM:   6    -0.654812070474E+03    0.20246E-03   -0.13743E-03 13895   0.808E-02    0.951E-02
RMM:   7    -0.654812050185E+03    0.20289E-04   -0.70432E-04 13562   0.541E-02    0.932E-02
WARNING in EDDRMM: call to ZHEGV failed, returncode =   8  4      9
RMM:   8    -0.654812000703E+03    0.49482E-04   -0.34952E-04 12479   0.384E-02    0.336E-02
WARNING in EDDRMM: call to ZHEGV failed, returncode =   6  3      8
RMM:   9    -0.654812007854E+03   -0.71506E-05   -0.17322E-04 11607   0.262E-02    0.296E-02
RMM:  10    -0.654812008838E+03   -0.98487E-06   -0.10325E-04 11190   0.204E-02    0.167E-02
RMM:  11    -0.654812009816E+03   -0.97736E-06   -0.51652E-05 10106   0.158E-02
  20 F= -.65481201E+03 E0= -.65474962E+03  d E =-.596117E-02
 trial-energy change:   -0.005961  1 .order   -0.005843   -0.008972   -0.002715
 step:   1.2550(harm=  1.3082)  dis= 0.00822  next Energy=  -654.812526 (dE=-0.648E-02)
 bond charge predicted
       N       E                     dE             d eps       ncg     rms          rms(c)
DAV:   1    -0.654807922956E+03    0.40859E-02   -0.28351E-01  9888   0.213E+00    0.166E-01
RMM:   2    -0.654813290385E+03   -0.53674E-02   -0.55022E-02 14310   0.614E-01    0.241E-01
RMM:   3    -0.654812740590E+03    0.54979E-03   -0.44740E-03 13990   0.206E-01    0.119E-01
RMM:   4    -0.654812649133E+03    0.91458E-04   -0.99621E-04 14120   0.891E-02    0.708E-02
RMM:   5    -0.654812655990E+03   -0.68571E-05   -0.38912E-04 12384   0.421E-02    0.668E-02
RMM:   6    -0.654812628999E+03    0.26991E-04   -0.23411E-04 12552   0.326E-02    0.338E-02
RMM:   7    -0.654812625190E+03    0.38091E-05   -0.11745E-04 11543   0.225E-02    0.292E-02
RMM:   8    -0.654812622751E+03    0.24389E-05   -0.67609E-05 10522   0.184E-02
  21 F= -.65481262E+03 E0= -.65475034E+03  d E =-.657411E-02
 curvature:  -0.92 expect dE=-0.326E-02 dE for cont linesearch -0.121E-04
 trial: gam= 0.32361 g(F)=  0.231E-02 g(S)=  0.124E-02 ort = 0.430E-03 (trialstep = 0.981E+00)
 search vector abs. value=  0.530E-02
 bond charge predicted
       N       E                     dE             d eps       ncg     rms          rms(c)
DAV:   1    -0.654806486873E+03    0.61383E-02   -0.91037E-01  9960   0.364E+00    0.616E-01
RMM:   2    -0.654835572888E+03   -0.29086E-01   -0.20199E-01 12744   0.125E+00    0.136E+00
RMM:   3    -0.654816145919E+03    0.19427E-01   -0.25449E-02 12691   0.532E-01    0.348E-01
RMM:   4    -0.654816076477E+03    0.69442E-04   -0.70223E-03 14325   0.192E-01    0.379E-01
RMM:   5    -0.654814886656E+03    0.11898E-02   -0.20535E-03 13874   0.118E-01    0.189E-01
RMM:   6    -0.654814595651E+03    0.29100E-03   -0.11360E-03 13824   0.799E-02    0.121E-01
RMM:   7    -0.654814679716E+03   -0.84065E-04   -0.71055E-04 13730   0.668E-02    0.161E-01
RMM:   8    -0.654814470632E+03    0.20908E-03   -0.34566E-04 13253   0.412E-02    0.379E-02
WARNING in EDDRMM: call to ZHEGV failed, returncode =   8  4      7
RMM:   9    -0.654814469918E+03    0.71370E-06   -0.11803E-04 12030   0.267E-02    0.322E-02
RMM:  10    -0.654814469915E+03    0.32815E-08   -0.58265E-05 10549   0.163E-02
  22 F= -.65481447E+03 E0= -.65475250E+03  d E =-.184716E-02
 trial-energy change:   -0.001847  1 .order   -0.001896   -0.003618   -0.000173
 step:   1.0351(harm=  1.0303)  dis= 0.00381  next Energy=  -654.814475 (dE=-0.185E-02)
 bond charge predicted
       N       E                     dE             d eps       ncg     rms          rms(c)
DAV:   1    -0.654814444852E+03    0.25067E-04   -0.28380E-03 11616   0.204E-01    0.371E-02
RMM:   2    -0.654814562811E+03   -0.11796E-03   -0.65914E-04 12727   0.705E-02    0.858E-02
RMM:   3    -0.654814484700E+03    0.78112E-04   -0.95364E-05 10498   0.315E-02    0.207E-02
RMM:   4    -0.654814487730E+03   -0.30307E-05   -0.31365E-05  7666   0.144E-02
  23 F= -.65481449E+03 E0= -.65475252E+03  d E =-.186498E-02
 curvature:  -0.73 expect dE=-0.229E-02 dE for cont linesearch -0.343E-05
 trial: gam= 0.84241 g(F)=  0.127E-02 g(S)=  0.185E-02 ort = 0.158E-03 (trialstep = 0.735E+00)
 search vector abs. value=  0.715E-02
 bond charge predicted
       N       E                     dE             d eps       ncg     rms          rms(c)
DAV:   1    -0.654808370388E+03    0.61143E-02   -0.68073E-01  9456   0.294E+00    0.400E-01
RMM:   2    -0.654824793325E+03   -0.16423E-01   -0.12580E-01 14008   0.956E-01    0.870E-01
RMM:   3    -0.654816885857E+03    0.79075E-02   -0.13241E-02 14055   0.357E-01    0.207E-01
RMM:   4    -0.654816941202E+03   -0.55345E-04   -0.33199E-03 14526   0.130E-01    0.250E-01
RMM:   5    -0.654816418477E+03    0.52272E-03   -0.96254E-04 13576   0.767E-02    0.112E-01
RMM:   6    -0.654816333437E+03    0.85040E-04   -0.56932E-04 13811   0.551E-02    0.863E-02
RMM:   7    -0.654816348328E+03   -0.14891E-04   -0.33414E-04 13169   0.458E-02    0.104E-01
RMM:   8    -0.654816256234E+03    0.92094E-04   -0.17126E-04 12426   0.276E-02    0.218E-02
WARNING in EDDRMM: call to ZHEGV failed, returncode =   6  3      7
RMM:   9    -0.654816255331E+03    0.90308E-06   -0.71342E-05 11053   0.209E-02
  24 F= -.65481626E+03 E0= -.65475435E+03  d E =-.176760E-02
 trial-energy change:   -0.001768  1 .order   -0.001613   -0.002392   -0.000833
 step:   0.9567(harm=  1.1282)  dis= 0.00491  next Energy=  -654.816385 (dE=-0.190E-02)
 bond charge predicted
       N       E                     dE             d eps       ncg     rms          rms(c)
DAV:   1    -0.654815726849E+03    0.52938E-03   -0.61568E-02  9696   0.884E-01    0.122E-01
RMM:   2    -0.654817262820E+03   -0.15360E-02   -0.11516E-02 14000   0.288E-01    0.271E-01
RMM:   3    -0.654816501051E+03    0.76177E-03   -0.12521E-03 13770   0.109E-01    0.650E-02
RMM:   4    -0.654816509343E+03   -0.82915E-05   -0.32777E-04 13255   0.411E-02    0.775E-02
RMM:   5    -0.654816458992E+03    0.50350E-04   -0.10791E-04 11777   0.274E-02    0.317E-02
RMM:   6    -0.654816451385E+03    0.76072E-05   -0.62851E-05 11194   0.189E-02
  25 F= -.65481645E+03 E0= -.65475455E+03  d E =-.196366E-02
 curvature:  -1.00 expect dE=-0.116E-02 dE for cont linesearch -0.417E-04
 ZBRENT: increasing intervall
 opt :   1.3991  next Energy=  -654.816433 (dE=-0.194E-02)
 bond charge predicted
       N       E                     dE             d eps       ncg     rms          rms(c)
DAV:   1    -0.654813564427E+03    0.28946E-02   -0.24552E-01  9408   0.177E+00    0.246E-01
RMM:   2    -0.654819815256E+03   -0.62508E-02   -0.45492E-02 13981   0.574E-01    0.562E-01
RMM:   3    -0.654816605167E+03    0.32101E-02   -0.49668E-03 13995   0.218E-01    0.138E-01
RMM:   4    -0.654816695390E+03   -0.90223E-04   -0.13429E-03 14324   0.819E-02    0.179E-01
RMM:   5    -0.654816410814E+03    0.28458E-03   -0.38588E-04 12894   0.493E-02    0.585E-02
RMM:   6    -0.654816389110E+03    0.21704E-04   -0.23214E-04 13134   0.350E-02    0.513E-02
RMM:   7    -0.654816388469E+03    0.64154E-06   -0.13068E-04 12134   0.312E-02    0.569E-02
RMM:   8    -0.654816361113E+03    0.27355E-04   -0.72944E-05 10953   0.185E-02    0.134E-02
RMM:   9    -0.654816360200E+03    0.91326E-06   -0.32170E-05  8518   0.160E-02
  26 F= -.65481636E+03 E0= -.65475448E+03  d E =-.187247E-02
 curvature:   0.45 expect dE= 0.141E-02 dE for cont linesearch  0.559E-04
 ZBRENT: bracketing found
 ZBRENT: interpolating
 opt :   1.1192  next Energy=  -654.816496 (dE=-0.201E-02)
 bond charge predicted
       N       E                     dE             d eps       ncg     rms          rms(c)
DAV:   1    -0.654815360584E+03    0.10005E-02   -0.98612E-02  9456   0.112E+00    0.153E-01
RMM:   2    -0.654817714725E+03   -0.23541E-02   -0.18128E-02 13958   0.363E-01    0.334E-01
RMM:   3    -0.654816578711E+03    0.11360E-02   -0.19390E-03 13621   0.138E-01    0.826E-02
RMM:   4    -0.654816584467E+03   -0.57552E-05   -0.47635E-04 13460   0.502E-02    0.993E-02
RMM:   5    -0.654816501595E+03    0.82871E-04   -0.13264E-04 11646   0.317E-02    0.442E-02
RMM:   6    -0.654816488713E+03    0.12883E-04   -0.76432E-05 11110   0.218E-02    0.342E-02
RMM:   7    -0.654816490295E+03   -0.15826E-05   -0.44266E-05  8588   0.190E-02
  27 F= -.65481649E+03 E0= -.65475462E+03  d E =-.200256E-02
 curvature:  -0.36 expect dE=-0.688E-03 dE for cont linesearch -0.367E-06
 trial: gam= 0.71114 g(F)=  0.120E-02 g(S)=  0.716E-03 ort =-0.854E-04 (trialstep = 0.812E+00)
 search vector abs. value=  0.541E-02
 bond charge predicted
       N       E                     dE             d eps       ncg     rms          rms(c)
DAV:   1    -0.654808473893E+03    0.80148E-02   -0.62850E-01  9408   0.282E+00    0.194E-01
RMM:   2    -0.654817678408E+03   -0.92045E-02   -0.10002E-01 14397   0.808E-01    0.165E-01
RMM:   3    -0.654817935619E+03   -0.25721E-03   -0.69293E-03 13838   0.253E-01    0.234E-01
RMM:   4    -0.654817509900E+03    0.42572E-03   -0.15349E-03 13980   0.114E-01    0.769E-02
WARNING in EDDRMM: call to ZHEGV failed, returncode =   6  3      7
RMM:   5    -0.654817518278E+03   -0.83784E-05   -0.55485E-04 12586   0.486E-02    0.778E-02
RMM:   6    -0.654817476804E+03    0.41474E-04   -0.28099E-04 12572   0.360E-02    0.490E-02
RMM:   7    -0.654817476374E+03    0.42947E-06   -0.17757E-04 12112   0.262E-02    0.505E-02
RMM:   8    -0.654817456970E+03    0.19404E-04   -0.73751E-05 11284   0.219E-02    0.136E-02
RMM:   9    -0.654817457758E+03   -0.78820E-06   -0.29910E-05  8891   0.137E-02
  28 F= -.65481746E+03 E0= -.65475571E+03  d E =-.967463E-03
 trial-energy change:   -0.000967  1 .order   -0.000978   -0.001506   -0.000451
 step:   1.1590(harm=  1.1590)  dis= 0.00636  next Energy=  -654.817565 (dE=-0.107E-02)
 bond charge predicted
       N       E                     dE             d eps       ncg     rms          rms(c)
DAV:   1    -0.654815916242E+03    0.15407E-02   -0.11460E-01  9456   0.121E+00    0.839E-02
RMM:   2    -0.654817641700E+03   -0.17255E-02   -0.18524E-02 14399   0.345E-01    0.886E-02
RMM:   3    -0.654817646616E+03   -0.49158E-05   -0.13838E-03 13458   0.112E-01    0.941E-02
RMM:   4    -0.654817579672E+03    0.66945E-04   -0.30509E-04 13091   0.510E-02    0.325E-02
RMM:   5    -0.654817582887E+03   -0.32150E-05   -0.12245E-04 11126   0.256E-02    0.322E-02
RMM:   6    -0.654817575776E+03    0.71109E-05   -0.74325E-05 11017   0.198E-02
  29 F= -.65481758E+03 E0= -.65475587E+03  d E =-.108548E-02
 curvature:  -1.69 expect dE=-0.163E-02 dE for cont linesearch -0.401E-06
 trial: gam= 0.31167 g(F)=  0.766E-03 g(S)=  0.197E-03 ort = 0.358E-04 (trialstep = 0.882E+00)
 search vector abs. value=  0.151E-02
 bond charge predicted
       N       E                     dE             d eps       ncg     rms          rms(c)
DAV:   1    -0.654815682812E+03    0.19001E-02   -0.20409E-01  9408   0.168E+00    0.246E-01
RMM:   2    -0.654821312112E+03   -0.56293E-02   -0.41991E-02 13741   0.574E-01    0.542E-01
RMM:   3    -0.654818303538E+03    0.30086E-02   -0.48595E-03 13866   0.227E-01    0.131E-01
RMM:   4    -0.654818293487E+03    0.10051E-04   -0.12455E-03 14517   0.804E-02    0.140E-01
RMM:   5    -0.654818126761E+03    0.16673E-03   -0.34936E-04 12883   0.493E-02    0.665E-02
RMM:   6    -0.654818093250E+03    0.33511E-04   -0.20240E-04 13090   0.347E-02    0.398E-02
RMM:   7    -0.654818098822E+03   -0.55722E-05   -0.11905E-04 12341   0.285E-02    0.485E-02
RMM:   8    -0.654818082443E+03    0.16379E-04   -0.57727E-05 10747   0.181E-02    0.155E-02
WARNING in EDDRMM: call to ZHEGV failed, returncode =   8  4      9
RMM:   9    -0.654818083688E+03   -0.12444E-05   -0.26235E-05  7634   0.151E-02
  30 F= -.65481808E+03 E0= -.65475644E+03  d E =-.507912E-03
 trial-energy change:   -0.000508  1 .order   -0.000516   -0.000859   -0.000174
 step:   1.1058(harm=  1.1058)  dis= 0.00320  next Energy=  -654.818114 (dE=-0.539E-03)
 bond charge predicted
       N       E                     dE             d eps       ncg     rms          rms(c)
DAV:   1    -0.654817935696E+03    0.14675E-03   -0.13226E-02 10080   0.427E-01    0.634E-02
RMM:   2    -0.654818325750E+03   -0.39005E-03   -0.27815E-03 13677   0.147E-01    0.142E-01
RMM:   3    -0.654818111276E+03    0.21447E-03   -0.32548E-04 12873   0.588E-02    0.325E-02
RMM:   4    -0.654818113903E+03   -0.26276E-05   -0.89030E-05 11503   0.222E-02
  31 F= -.65481811E+03 E0= -.65475650E+03  d E =-.538128E-03
 curvature:  -0.86 expect dE=-0.376E-03 dE for cont linesearch -0.234E-05
 trial: gam= 0.37638 g(F)=  0.247E-03 g(S)=  0.191E-03 ort = 0.642E-04 (trialstep = 0.926E+00)
 search vector abs. value=  0.701E-03
 bond charge predicted
       N       E                     dE             d eps       ncg     rms          rms(c)
DAV:   1    -0.654817412318E+03    0.69896E-03   -0.10528E-01  9768   0.124E+00    0.190E-01
RMM:   2    -0.654820459301E+03   -0.30470E-02   -0.22042E-02 13935   0.416E-01    0.416E-01
RMM:   3    -0.654818642426E+03    0.18169E-02   -0.26047E-03 13619   0.161E-01    0.104E-01
RMM:   4    -0.654818647865E+03   -0.54382E-05   -0.68816E-04 13788   0.587E-02    0.125E-01
RMM:   5    -0.654818515348E+03    0.13252E-03   -0.22585E-04 12311   0.396E-02    0.567E-02
RMM:   6    -0.654818490268E+03    0.25080E-04   -0.13675E-04 12363   0.278E-02    0.410E-02
RMM:   7    -0.654818492236E+03   -0.19677E-05   -0.76558E-05 11256   0.246E-02
  32 F= -.65481849E+03 E0= -.65475679E+03  d E =-.378332E-03
 trial-energy change:   -0.000378  1 .order   -0.000281   -0.000428   -0.000134
 step:   1.0556(harm=  1.3471)  dis= 0.00184  next Energy=  -654.818502 (dE=-0.388E-03)
 bond charge predicted
       N       E                     dE             d eps       ncg     rms          rms(c)
DAV:   1    -0.654818465330E+03    0.24938E-04   -0.20121E-03 11016   0.175E-01    0.301E-02
RMM:   2    -0.654818544854E+03   -0.79524E-04   -0.48324E-04 12975   0.616E-02    0.752E-02
RMM:   3    -0.654818489723E+03    0.55131E-04   -0.72148E-05 10251   0.264E-02    0.196E-02
RMM:   4    -0.654818487335E+03    0.23878E-05   -0.23603E-05  7029   0.137E-02
  33 F= -.65481849E+03 E0= -.65475680E+03  d E =-.373432E-03
 curvature:  -0.53 expect dE=-0.122E-03 dE for cont linesearch -0.858E-05
 ZBRENT: increasing intervall
 opt :   1.3139  next Energy=  -654.818505 (dE=-0.391E-03)
 bond charge predicted
       N       E                     dE             d eps       ncg     rms          rms(c)
DAV:   1    -0.654818418999E+03    0.70724E-04   -0.81347E-03 10224   0.345E-01    0.548E-02
RMM:   2    -0.654818627177E+03   -0.20818E-03   -0.16839E-03 13797   0.115E-01    0.109E-01
RMM:   3    -0.654818511010E+03    0.11617E-03   -0.20429E-04 12108   0.454E-02    0.361E-02
RMM:   4    -0.654818505381E+03    0.56284E-05   -0.61946E-05 10845   0.191E-02
  34 F= -.65481851E+03 E0= -.65475681E+03  d E =-.391478E-03
 curvature:  -1.09 expect dE=-0.315E-03 dE for cont linesearch -0.207E-05
 trial: gam= 0.54880 g(F)=  0.192E-03 g(S)=  0.952E-04 ort = 0.364E-04 (trialstep = 0.100E+01)
 search vector abs. value=  0.539E-03
 bond charge predicted
       N       E                     dE             d eps       ncg     rms          rms(c)
DAV:   1    -0.654818204902E+03    0.30611E-03   -0.98213E-02 10296   0.122E+00    0.279E-01
RMM:   2    -0.654823429835E+03   -0.52249E-02   -0.28062E-02 12334   0.472E-01    0.654E-01
RMM:   3    -0.654818843592E+03    0.45862E-02   -0.41113E-03 12119   0.213E-01    0.147E-01
RMM:   4    -0.654818832827E+03    0.10765E-04   -0.11019E-03 13954   0.803E-02    0.170E-01
RMM:   5    -0.654818579850E+03    0.25298E-03   -0.34824E-04 12366   0.474E-02    0.763E-02
RMM:   6    -0.654818530490E+03    0.49360E-04   -0.21659E-04 12581   0.368E-02    0.563E-02
RMM:   7    -0.654818534807E+03   -0.43165E-05   -0.12708E-04 11559   0.293E-02    0.642E-02
RMM:   8    -0.654818497907E+03    0.36899E-04   -0.60906E-05  9730   0.201E-02    0.155E-02
RMM:   9    -0.654818495216E+03    0.26911E-05   -0.16179E-05  6284   0.152E-02
  35 F= -.65481850E+03 E0= -.65475682E+03  d E =0.101651E-04
 trial-energy change:    0.000010  1 .order   -0.000024   -0.000309    0.000262
 step:   0.5435(harm=  0.5435)  dis= 0.00087  next Energy=  -654.818589 (dE=-0.836E-04)
 bond charge predicted
       N       E                     dE             d eps       ncg     rms          rms(c)
DAV:   1    -0.654818481351E+03    0.16557E-04   -0.20745E-02 10248   0.561E-01    0.127E-01
RMM:   2    -0.654819585830E+03   -0.11045E-02   -0.60429E-03 12209   0.219E-01    0.300E-01
RMM:   3    -0.654818610898E+03    0.97493E-03   -0.88254E-04 11746   0.986E-02    0.634E-02
RMM:   4    -0.654818610293E+03    0.60465E-06   -0.22869E-04 12617   0.374E-02    0.775E-02
RMM:   5    -0.654818558249E+03    0.52044E-04   -0.73754E-05 10234   0.244E-02    0.366E-02
RMM:   6    -0.654818547383E+03    0.10866E-04   -0.38556E-05  7528   0.186E-02    0.261E-02
RMM:   7    -0.654818548492E+03   -0.11093E-05   -0.21780E-05  6127   0.166E-02
  36 F= -.65481855E+03 E0= -.65475688E+03  d E =-.431108E-04
 curvature:  -0.48 expect dE=-0.334E-03 dE for cont linesearch -0.493E-05
 ZBRENT: interpolating
 opt :   0.4373  next Energy=  -654.818552 (dE=-0.471E-04)
 bond charge predicted
       N       E                     dE             d eps       ncg     rms          rms(c)
DAV:   1    -0.654818533980E+03    0.13403E-04   -0.10594E-03 10584   0.130E-01    0.299E-02
RMM:   2    -0.654818603361E+03   -0.69381E-04   -0.32122E-04 10951   0.499E-02    0.748E-02
RMM:   3    -0.654818543244E+03    0.60117E-04   -0.47539E-05  7041   0.256E-02    0.162E-02
RMM:   4    -0.654818542651E+03    0.59302E-06   -0.10605E-05  5609   0.133E-02
  37 F= -.65481854E+03 E0= -.65475686E+03  d E =-.372694E-04
 curvature:  -0.38 expect dE=-0.314E-03 dE for cont linesearch -0.623E-06
 trial: gam= 2.66210 g(F)=  0.167E-03 g(S)=  0.654E-03 ort =-0.296E-04 (trialstep = 0.107E+00)
 search vector abs. value=  0.448E-02
 bond charge predicted
       N       E                     dE             d eps       ncg     rms          rms(c)
DAV:   1    -0.654818465251E+03    0.77993E-04   -0.89315E-03  9792   0.370E-01    0.317E-02
RMM:   2    -0.654818634937E+03   -0.16969E-03   -0.17149E-03 14040   0.109E-01    0.505E-02
RMM:   3    -0.654818609372E+03    0.25565E-04   -0.13348E-04 11492   0.380E-02    0.200E-02
RMM:   4    -0.654818606724E+03    0.26485E-05   -0.21553E-05  6286   0.163E-02
  38 F= -.65481861E+03 E0= -.65475692E+03  d E =-.640728E-04
 trial-energy change:   -0.000064  1 .order   -0.000062   -0.000079   -0.000044
 step:   0.2373(harm=  0.2373)  dis= 0.00116  next Energy=  -654.818631 (dE=-0.881E-04)
 bond charge predicted
       N       E                     dE             d eps       ncg     rms          rms(c)
DAV:   1    -0.654818438906E+03    0.17047E-03   -0.13276E-02  9744   0.449E-01    0.413E-02
RMM:   2    -0.654818691456E+03   -0.25255E-03   -0.25831E-03 14318   0.134E-01    0.663E-02
RMM:   3    -0.654818655548E+03    0.35908E-04   -0.21534E-04 12560   0.450E-02    0.346E-02
RMM:   4    -0.654818650091E+03    0.54572E-05   -0.49853E-05 10536   0.215E-02
  39 F= -.65481865E+03 E0= -.65475699E+03  d E =-.107440E-03
 curvature:  -0.72 expect dE=-0.152E-03 dE for cont linesearch -0.495E-05
 ZBRENT: increasing intervall
 opt :   0.4979  next Energy=  -654.818636 (dE=-0.929E-04)
 bond charge predicted
       N       E                     dE             d eps       ncg     rms          rms(c)
DAV:   1    -0.654817781383E+03    0.87417E-03   -0.52977E-02  9744   0.897E-01    0.783E-02
RMM:   2    -0.654818711522E+03   -0.93014E-03   -0.10102E-02 14413   0.265E-01    0.958E-02
RMM:   3    -0.654818653829E+03    0.57693E-04   -0.83907E-04 13496   0.891E-02    0.741E-02
RMM:   4    -0.654818618562E+03    0.35267E-04   -0.19572E-04 13135   0.397E-02    0.465E-02
WARNING in EDDRMM: call to ZHEGV failed, returncode =   8  4      9
WARNING in EDDRMM: call to ZHEGV failed, returncode =   8  4      7
WARNING in EDDRMM: call to ZHEGV failed, returncode =   8  4     11
RMM:   5    -0.654818605230E+03    0.13332E-04   -0.84068E-05 10983   0.224E-02    0.291E-02
RMM:   6    -0.654818600082E+03    0.51477E-05   -0.51778E-05 10852   0.189E-02
  40 F= -.65481860E+03 E0= -.65475698E+03  d E =-.574315E-04
 curvature:   2.10 expect dE= 0.141E-02 dE for cont linesearch  0.102E-03
 ZBRENT: bracketing found
 ZBRENT: interpolating
 opt :   0.3088  next Energy=  -654.818656 (dE=-0.114E-03)
 bond charge predicted
       N       E                     dE             d eps       ncg     rms          rms(c)
DAV:   1    -0.654818220313E+03    0.38492E-03   -0.28362E-02  9744   0.655E-01    0.607E-02
RMM:   2    -0.654818835803E+03   -0.61549E-03   -0.53611E-03 14220   0.196E-01    0.141E-01
RMM:   3    -0.654818669341E+03    0.16646E-03   -0.46434E-04 12817   0.681E-02    0.360E-02
RMM:   4    -0.654818658185E+03    0.11156E-04   -0.81414E-05 10945   0.262E-02    0.288E-02
RMM:   5    -0.654818653076E+03    0.51088E-05   -0.30003E-05  7986   0.169E-02
  41 F= -.65481865E+03 E0= -.65475700E+03  d E =-.110425E-03
 curvature:  -0.13 expect dE=-0.702E-04 dE for cont linesearch -0.169E-06
 trial: gam= 0.13903 g(F)=  0.954E-04 g(S)=  0.445E-03 ort =-0.764E-04 (trialstep = 0.147E+00)
 search vector abs. value=  0.606E-03
 bond charge predicted
       N       E                     dE             d eps       ncg     rms          rms(c)
DAV:   1    -0.654818742669E+03   -0.84484E-04   -0.25638E-03 11016   0.198E-01    0.663E-02
RMM:   2    -0.654819025928E+03   -0.28326E-03   -0.90645E-04 11973   0.821E-02    0.179E-01
RMM:   3    -0.654818714723E+03    0.31120E-03   -0.19623E-04 10019   0.421E-02    0.365E-02
RMM:   4    -0.654818717043E+03   -0.23191E-05   -0.50713E-05  8097   0.217E-02
  42 F= -.65481872E+03 E0= -.65475710E+03  d E =-.639663E-04
 ZBRENT: can't locate minimum, use default step
 trial-energy change:   -0.000064  1 .order   -0.000087   -0.000078   -0.000096
 step:   0.5896(harm=  0.5896)  dis= 0.00060  next Energy=  -654.819112 (dE=-0.459E-03)
 bond charge predicted
       N       E                     dE             d eps       ncg     rms          rms(c)
DAV:   1    -0.654819120226E+03   -0.40550E-03   -0.22803E-02 11016   0.585E-01    0.190E-01
RMM:   2    -0.654820827747E+03   -0.17075E-02   -0.72597E-03 12416   0.236E-01    0.427E-01
RMM:   3    -0.654818876491E+03    0.19513E-02   -0.15083E-03 12354   0.115E-01    0.103E-01
RMM:   4    -0.654818872704E+03    0.37866E-05   -0.40089E-04 12839   0.525E-02    0.125E-01
RMM:   5    -0.654818745748E+03    0.12696E-03   -0.17657E-04 11366   0.322E-02    0.559E-02
RMM:   6    -0.654818720584E+03    0.25164E-04   -0.10077E-04 10045   0.286E-02    0.358E-02
RMM:   7    -0.654818724092E+03   -0.35082E-05   -0.54683E-05  8784   0.201E-02
  43 F= -.65481872E+03 E0= -.65475715E+03  d E =-.710162E-04
 curvature:  -0.53 expect dE=-0.743E-04 dE for cont linesearch -0.146E-04
 trial: gam= 0.00000 g(F)=  0.584E-04 g(S)=  0.827E-04 ort =-0.130E-03 (trialstep = 0.236E+00)
 search vector abs. value=  0.141E-03
 reached required accuracy - stopping structural energy minimisation
