HECN                                    
           1
    11.240000    0.000000    0.000000
     0.000000   11.240000    0.000000
     0.000000    0.000000   11.240000
   Ti   W    Hf   N    C    Nb   V 
   7   6   7  13  19   6   6
Direct configuration=     1
   0.00000000  0.00000000  0.00000000
   0.25000000  0.00000000  0.25000000
   0.25000000  0.50000000  0.25000000
   0.50000000  0.50000000  0.00000000
   0.50000000  0.25000000  0.75000004
   0.00000000  0.50000000  0.50000000
   0.50000000  0.75000004  0.75000004
   0.00000000  0.25000000  0.25000000
   0.75000004  0.75000004  0.00000000
   0.00000000  0.25000000  0.75000004
   0.75000004  0.25000000  0.50000000
   0.00000000  0.75000004  0.75000004
   0.25000000  0.50000000  0.75000004
   0.25000000  0.25000000  0.00000000
   0.50000000  0.25000000  0.25000000
   0.75000004  0.00000000  0.25000000
   0.75000004  0.25000000  0.00000000
   0.25000000  0.75000004  0.00000000
   0.25000000  0.25000000  0.50000000
   0.25000000  0.75000004  0.50000000
   0.25000000  0.25000000  0.25000000
   0.25000000  0.00000000  0.00000000
   0.00000000  0.25000000  0.00000000
   0.75000004  0.25000000  0.25000000
   0.75000004  0.00000000  0.00000000
   0.50000000  0.00000000  0.25000000
   0.00000000  0.50000000  0.25000000
   0.50000000  0.75000004  0.00000000
   0.00000000  0.00000000  0.75000004
   0.75000004  0.25000000  0.75000004
   0.75000004  0.00000000  0.50000000
   0.50000000  0.25000000  0.50000000
   0.50000000  0.00000000  0.75000004
   0.00000000  0.00000000  0.25000000
   0.50000000  0.25000000  0.00000000
   0.25000000  0.75000004  0.25000000
   0.25000000  0.50000000  0.00000000
   0.00000000  0.75000004  0.00000000
   0.75000004  0.75000004  0.25000000
   0.75000004  0.50000000  0.00000000
   0.50000000  0.50000000  0.25000000
   0.25000000  0.25000000  0.75000004
   0.25000000  0.00000000  0.50000000
   0.00000000  0.25000000  0.50000000
   0.25000000  0.75000004  0.75000004
   0.25000000  0.50000000  0.50000000
   0.00000000  0.75000004  0.50000000
   0.00000000  0.50000000  0.75000004
   0.75000004  0.75000004  0.75000004
   0.75000004  0.50000000  0.50000000
   0.50000000  0.75000004  0.50000000
   0.50000000  0.50000000  0.75000004
   0.50000000  0.00000000  0.00000000
   0.00000000  0.50000000  0.00000000
   0.50000000  0.75000004  0.25000000
   0.25000000  0.00000000  0.75000004
   0.50000000  0.00000000  0.50000000
   0.75000004  0.00000000  0.75000004
   0.00000000  0.75000004  0.25000000
   0.75000004  0.50000000  0.25000000
   0.00000000  0.00000000  0.50000000
   0.50000000  0.50000000  0.50000000
   0.75000004  0.50000000  0.75000004
   0.75000004  0.75000004  0.50000000
HECN                                    
           1
     8.078789    0.000313    0.001961
     0.000313    8.083528    0.002035
     0.001961    0.002035    8.086860
   Ti   W    Hf   N    C    Nb   V 
   7   6   7  13  19   6   6
Direct configuration=     2
  -0.00029775 -0.00153590  0.00087750
   0.24819061 -0.00166226  0.25165808
   0.25068538  0.50171098  0.25018571
   0.50034046  0.49934524 -0.00013352
   0.49897014  0.25119683  0.75068787
  -0.00030838  0.50013865  0.50088267
   0.50033267  0.74881235  0.74857380
  -0.00060934  0.24749276  0.25249922
   0.75289848  0.74709186 -0.00018333
   0.00208776  0.25231124  0.74727302
   0.75305693  0.25250732  0.50103532
  -0.00073573  0.74771201  0.74949461
   0.25040570  0.50016758  0.74984410
   0.24999030  0.25126549 -0.00182314
   0.50040967  0.25177267  0.24957464
   0.75183572 -0.00162069  0.25077978
   0.74972220  0.25181791 -0.00082595
   0.24877373  0.74870766 -0.00020651
   0.24862542  0.25015760  0.50181513
   0.24979139  0.74985081  0.50030034
   0.25135140  0.24977381  0.24982794
   0.25091081  0.00024077 -0.00064592
   0.00009882  0.25078758  0.00008698
   0.74886482  0.24721891  0.24911362
   0.74904192  0.00145783  0.00118362
   0.50250822  0.00158219  0.24997194
   0.00025979  0.49768066  0.24871305
   0.49880095  0.75114184  0.00084011
  -0.00050350  0.00011394  0.75072076
   0.75094168  0.24807024  0.75086897
   0.74847005  0.00204637  0.49889324
   0.49902120  0.24822976  0.49777865
   0.50040618  0.00012034  0.74995950
  -0.00202329  0.00289763  0.24954864
   0.50019877  0.24814252  0.00196420
   0.25202619  0.75022217  0.24959004
   0.24837291  0.49977315 -0.00145441
  -0.00063320  0.74875610 -0.00222495
   0.74813660  0.75206522  0.24761379
   0.75155366  0.50029033  0.00012319
   0.50003623  0.49958297  0.24985548
   0.24807379  0.25022761  0.75021226
   0.25180776  0.00039779  0.50122908
  -0.00103319  0.25015960  0.50004857
   0.24837862  0.74976677  0.75031237
   0.24953716  0.49963014  0.50167581
   0.00157843  0.74979710  0.50263447
   0.00177157  0.49990691  0.75139964
   0.75193165  0.75191428  0.75229249
   0.75031886  0.49708079  0.49991068
   0.49840023  0.75190263  0.49865673
   0.49786522  0.49991158  0.75009339
   0.50072290  0.00125409 -0.00068718
  -0.00053769  0.50198795 -0.00150129
   0.50058180  0.74778963  0.25185185
   0.24976195 -0.00022598  0.74773542
   0.49856823 -0.00227483  0.50063035
   0.75044995 -0.00200929  0.74932828
  -0.00036039  0.75155073  0.25027482
   0.74891480  0.50204893  0.25016826
   0.00107185  0.00004981  0.49902635
   0.50033233  0.50168715  0.50013621
   0.74965345  0.50170305  0.74984610
   0.75020581  0.74830979  0.50008827
HECN                                    
           1
     8.878245    0.000234    0.001465
     0.000234    8.881785    0.001520
     0.001465    0.001520    8.884275
   Ti   W    Hf   N    C    Nb   V 
   7   6   7  13  19   6   6
Direct configuration=     3
  -0.00019293 -0.00099573  0.00056890
   0.24882736 -0.00107761  0.25107496
   0.25044426  0.50110934  0.25012064
   0.50022065  0.49957547 -0.00008662
   0.49933257  0.25077601  0.75044612
  -0.00019980  0.50008997  0.50057240
   0.50021548  0.74922987  0.74907505
  -0.00039476  0.24837464  0.25162046
   0.75187860  0.74811453 -0.00011890
   0.00135298  0.25149829  0.74823196
   0.75198148  0.25162576  0.50067188
  -0.00047693  0.74851654  0.74967201
   0.25026294  0.50010864  0.74989896
   0.24999357  0.25082032 -0.00118219
   0.50026551  0.25114928  0.24972435
   0.75118988 -0.00105068  0.25050570
   0.74981992  0.25117857 -0.00053549
   0.24920516  0.74916209 -0.00013414
   0.24910923  0.25010232  0.50117700
   0.24986481  0.74990331  0.50019474
   0.25087589  0.24985335  0.24988852
   0.25059029  0.00015606 -0.00041878
   0.00006407  0.25051064  0.00005649
   0.74926414  0.24819678  0.24942484
   0.74937916  0.00094528  0.00076762
   0.50162572  0.00102585  0.24998216
   0.00016824  0.49849614  0.24916523
   0.49922293  0.75074039  0.00054481
  -0.00032628  0.00007393  0.75046739
   0.75061041  0.24874892  0.75056345
   0.74900831  0.00132665  0.49928232
   0.49936538  0.24885205  0.49855922
   0.50026326  0.00007803  0.74997380
  -0.00131139  0.00187862  0.24970738
   0.50012897  0.24879587  0.00127363
   0.25131324  0.75014405  0.24973433
   0.24894528  0.49985277 -0.00094334
  -0.00041061  0.74919332 -0.00144304
   0.74879208  0.75133877  0.24845257
   0.75100703  0.50018827  0.00008005
   0.50002347  0.49972961  0.24990625
   0.24875156  0.25014756  0.75013752
   0.25117180  0.00025804  0.50079725
  -0.00066965  0.25010347  0.50003143
   0.24894913  0.74984881  0.75020243
   0.24970015  0.49976034  0.50108669
   0.00102327  0.74986872  0.50170857
   0.00114836  0.49993979  0.75090782
   0.75125223  0.75124137  0.75148702
   0.75020664  0.49810732  0.49994184
   0.49896302  0.75123345  0.49912892
   0.49861636  0.49994265  0.75006039
   0.50046851  0.00081304 -0.00044547
  -0.00034861  0.50128876 -0.00097345
   0.50037722  0.74856709  0.25120077
   0.24984551 -0.00014672  0.74853140
   0.49907202 -0.00147485  0.50040846
   0.75029156 -0.00130279  0.74956427
  -0.00023354  0.75100545  0.25017833
   0.74929668  0.50132843  0.25010920
   0.00069464  0.00003223  0.49936868
   0.50021543  0.50109388  0.50008851
   0.74977541  0.50110416  0.74990033
   0.75013339  0.74890417  0.50005711
HECN                                    
           1
     8.813894    0.000240    0.001505
     0.000240    8.817531    0.001562
     0.001505    0.001562    8.820089
   Ti   W    Hf   N    C    Nb   V 
   7   6   7  13  19   6   6
Direct configuration=     4
  -0.00020061 -0.00103530  0.00059151
   0.24878073 -0.00112044  0.25111768
   0.25046193  0.50115342  0.25012541
   0.50022943  0.49955861 -0.00009006
   0.49930603  0.25080684  0.75046383
  -0.00020775  0.50009353  0.50059513
   0.50022406  0.74919928  0.74903832
  -0.00041048  0.24831004  0.25168484
   0.75195330  0.74803961 -0.00012362
   0.00140679  0.25155784  0.74816171
   0.75206025  0.25169035  0.50069852
  -0.00049589  0.74845760  0.74965900
   0.25027340  0.50011296  0.74989495
   0.24999333  0.25085293 -0.00122915
   0.50027607  0.25119495  0.24971339
   0.75123718 -0.00109244  0.25052578
   0.74981276  0.25122541 -0.00055677
   0.24917356  0.74912880 -0.00013945
   0.24907380  0.25010637  0.50122375
   0.24985944  0.74989947  0.50020247
   0.25091072  0.24984753  0.24988408
   0.25061376  0.00016226 -0.00043542
   0.00006661  0.25053093  0.00005872
   0.74923488  0.24812514  0.24940203
   0.74935446  0.00098283  0.00079810
   0.50169036  0.00106661  0.24998142
   0.00017494  0.49843640  0.24913210
   0.49919202  0.75076980  0.00056644
  -0.00033926  0.00007687  0.75048596
   0.75063467  0.24869920  0.75058583
   0.74896889  0.00137937  0.49925381
   0.49934017  0.24880646  0.49850202
   0.50027373  0.00008113  0.74997275
  -0.00136353  0.00195327  0.24969575
   0.50013409  0.24874801  0.00132422
   0.25136546  0.75014977  0.24972376
   0.24890335  0.49984693 -0.00098079
  -0.00042692  0.74916129 -0.00150034
   0.74874407  0.75139199  0.24839112
   0.75104707  0.50019575  0.00008321
   0.50002440  0.49971886  0.24990253
   0.24870191  0.25015343  0.75014299
   0.25121839  0.00026829  0.50082889
  -0.00069628  0.25010758  0.50003268
   0.24890734  0.74984280  0.75021048
   0.24968822  0.49975081  0.50112985
   0.00106394  0.74986348  0.50177641
   0.00119401  0.49993739  0.75094386
   0.75130200  0.75129067  0.75154604
   0.75021486  0.49803211  0.49993956
   0.49892180  0.75128247  0.49909433
   0.49856134  0.49994038  0.75006280
   0.50048714  0.00084535 -0.00046317
  -0.00036246  0.50133998 -0.00101212
   0.50039221  0.74851013  0.25124847
   0.24983939 -0.00015253  0.74847308
   0.49903512 -0.00153346  0.50042471
   0.75030316 -0.00135454  0.74954697
  -0.00024283  0.75104540  0.25018540
   0.74926871  0.50138122  0.25011353
   0.00072226  0.00003351  0.49934360
   0.50022400  0.50113735  0.50009201
   0.74976647  0.50114803  0.74989636
   0.75013870  0.74886063  0.50005939
HECN                                    
           1
     8.788200    0.000243    0.001521
     0.000243    8.791876    0.001578
     0.001521    0.001578    8.794460
   Ti   W    Hf   N    C    Nb   V 
   7   6   7  13  19   6   6
Direct configuration=     5
  -0.00020370 -0.00105121  0.00060060
   0.24876197 -0.00113766  0.25113486
   0.25046903  0.50117115  0.25012733
   0.50023296  0.49955182 -0.00009144
   0.49929535  0.25081924  0.75047095
  -0.00021095  0.50009497  0.50060427
   0.50022751  0.74918698  0.74902355
  -0.00041680  0.24828405  0.25171073
   0.75198335  0.74800948 -0.00012552
   0.00142844  0.25158179  0.74813345
   0.75209193  0.25171632  0.50070924
  -0.00050352  0.74843389  0.74965377
   0.25027761  0.50011469  0.74989333
   0.24999323  0.25086605 -0.00124804
   0.50028032  0.25121332  0.24970898
   0.75125621 -0.00110923  0.25053386
   0.74980988  0.25124424 -0.00056533
   0.24916085  0.74911541 -0.00014159
   0.24905955  0.25010800  0.50124256
   0.24985727  0.74989792  0.50020559
   0.25092473  0.24984518  0.24988230
   0.25062321  0.00016476 -0.00044211
   0.00006764  0.25053909  0.00005962
   0.74922312  0.24809633  0.24939286
   0.74934453  0.00099793  0.00081036
   0.50171635  0.00108300  0.24998112
   0.00017764  0.49841237  0.24911877
   0.49917959  0.75078163  0.00057515
  -0.00034448  0.00007804  0.75049342
   0.75064443  0.24867921  0.75059484
   0.74895303  0.00140058  0.49924235
   0.49933003  0.24878812  0.49847902
   0.50027794  0.00008237  0.74997233
  -0.00138450  0.00198329  0.24969107
   0.50013614  0.24872876  0.00134457
   0.25138646  0.75015207  0.24971951
   0.24888649  0.49984458 -0.00099585
  -0.00043348  0.74914841 -0.00152338
   0.74872476  0.75141339  0.24836640
   0.75106317  0.50019876  0.00008449
   0.50002478  0.49971454  0.24990103
   0.24868195  0.25015579  0.75014519
   0.25123712  0.00027240  0.50084162
  -0.00070699  0.25010923  0.50003318
   0.24889054  0.74984038  0.75021372
   0.24968342  0.49974697  0.50114721
   0.00108030  0.74986137  0.50180369
   0.00121237  0.49993642  0.75095835
   0.75132202  0.75131050  0.75156978
   0.75021816  0.49800187  0.49993864
   0.49890522  0.75130219  0.49908041
   0.49853921  0.49993946  0.75006377
   0.50049463  0.00085834 -0.00047029
  -0.00036803  0.50136058 -0.00102768
   0.50039823  0.74848723  0.25126766
   0.24983693 -0.00015487  0.74844962
   0.49902028 -0.00155703  0.50043124
   0.75030783 -0.00137536  0.74954002
  -0.00024657  0.75106147  0.25018824
   0.74925746  0.50140244  0.25011527
   0.00073337  0.00003403  0.49933352
   0.50022744  0.50115483  0.50009341
   0.74976288  0.50116568  0.74989476
   0.75014083  0.74884312  0.50006031
HECN                                    
           1
     8.764631    0.009862   -0.002186
     0.009864    8.797214    0.004564
    -0.002185    0.004574    8.754913
   Ti   W    Hf   N    C    Nb   V 
   7   6   7  13  19   6   6
Direct configuration=     6
  -0.00095784 -0.00357895  0.00296852
   0.24432437 -0.00272280  0.25288711
   0.25173236  0.50398311  0.25072053
   0.50199384  0.49829499 -0.00082706
   0.49827516  0.25300117  0.75098689
  -0.00216222  0.50094975  0.50002252
   0.50282301  0.74640145  0.74610020
  -0.00125173  0.24221212  0.25681975
   0.75687617  0.74213040 -0.00041194
   0.00387340  0.25537720  0.74345770
   0.75668573  0.25787645  0.50301960
  -0.00381892  0.74477526  0.74772362
   0.25459515  0.49984844  0.74923430
   0.24716388  0.24860850 -0.00074493
   0.49988175  0.25488709  0.25104541
   0.75574433 -0.00443256  0.25320528
   0.75123228  0.25420072 -0.00331072
   0.24842814  0.75080442  0.00088450
   0.24834876  0.25108899  0.50071638
   0.24826792  0.74892952  0.49907079
   0.24920800  0.24967678  0.25026231
   0.24755306 -0.00003702  0.00315811
   0.00059317  0.24761767  0.00055996
   0.75058792  0.25249017  0.25158668
   0.75274198 -0.00029316  0.00042507
   0.49889185  0.00069435  0.25020109
  -0.00106461  0.49962832  0.25216105
   0.50098764  0.74747189 -0.00299159
  -0.00097349 -0.00011137  0.75011012
   0.74770853  0.25228912  0.74806557
   0.75274056 -0.00093670  0.50006990
   0.50185047  0.25214499  0.50289628
   0.50066437 -0.00003593  0.74940204
   0.00403657 -0.00020615  0.25103639
   0.50064971  0.25100026 -0.00382473
   0.24803906  0.75024029  0.24994319
   0.25048789  0.50004328  0.00100996
  -0.00444883  0.75236575  0.00120280
   0.75272824  0.74389855  0.25085932
   0.74837030  0.50522982  0.00032111
   0.50238474  0.50276239  0.25189244
   0.25043519  0.25119591  0.74963570
   0.24729440  0.00012950  0.49746601
  -0.00486131  0.24927899  0.50015742
   0.25039554  0.74869137  0.74982560
   0.24985852  0.49961399  0.49977038
  -0.00612194  0.75146380  0.50004094
  -0.00295361  0.50011065  0.74709812
   0.74892405  0.74663170  0.74860080
   0.74916069  0.50017918  0.49987145
   0.50604600  0.74689954  0.50284812
   0.50212442  0.50004697  0.74796303
   0.50195472  0.00390457 -0.00281261
  -0.00302924  0.50416178 -0.00082364
   0.50227731  0.74367053  0.25450166
   0.24866807  0.00004744  0.74650966
   0.49741062 -0.00639364  0.50248611
   0.75088154 -0.00465839  0.74738016
  -0.00149210  0.75616781  0.25080942
   0.74579506  0.50587430  0.25052345
   0.00253008  0.00053895  0.49646709
   0.50219836  0.50489532  0.50027190
   0.74618570  0.50499692  0.74947839
   0.75052596  0.74398495  0.50001602
HECN                                    
           1
     8.752051    0.014995   -0.004165
     0.014999    8.800063    0.006157
    -0.004162    0.006173    8.733805
   Ti   W    Hf   N    C    Nb   V 
   7   6   7  13  19   6   6
Direct configuration=     7
  -0.00135940 -0.00492722  0.00423832
   0.24195090 -0.00356602  0.25382583
   0.25240692  0.50548215  0.25103833
   0.50293675  0.49762371 -0.00122082
   0.49772803  0.25416550  0.75126286
  -0.00320708  0.50140693  0.49971003
   0.50421297  0.74491467  0.74453400
  -0.00169384  0.23897293  0.25955976
   0.75949796  0.73899172 -0.00056332
   0.00517855  0.25740108  0.74095076
   0.75914103  0.26115911  0.50425817
  -0.00559147  0.74282607  0.74668873
   0.25690571  0.49970401  0.74888201
   0.24565118  0.24740590 -0.00047542
   0.49966661  0.25684664  0.25176116
   0.75814871 -0.00620833  0.25463913
   0.75199113  0.25577736 -0.00478282
   0.24803527  0.75170557  0.00143413
   0.24796768  0.25161275  0.50043394
   0.24741768  0.74841411  0.49846221
   0.24828948  0.24958789  0.25046569
   0.24591099 -0.00014351  0.00508764
   0.00087623  0.24605900  0.00082885
   0.75131622  0.25483261  0.25276235
   0.75456080 -0.00098374  0.00021951
   0.49738059  0.00048866  0.25031844
  -0.00172942  0.50027707  0.25379159
   0.50195635  0.74570610 -0.00490281
  -0.00131009 -0.00021196  0.74990452
   0.74613468  0.25421681  0.74670823
   0.75476902 -0.00218576  0.50051486
   0.50319834  0.25393324  0.50526446
   0.50087111 -0.00009915  0.74909640
   0.00693926 -0.00137741  0.25175928
   0.50092205  0.25221252 -0.00659643
   0.24624769  0.75028927  0.25006233
   0.25134522  0.50014795  0.00208566
  -0.00659892  0.75408371  0.00266288
   0.75487568  0.73988737  0.25219812
   0.74692631  0.50791490  0.00044644
   0.50364635  0.50438634  0.25296007
   0.25137272  0.25174978  0.74936276
   0.24518376  0.00005621  0.49565538
  -0.00708400  0.24883855  0.50022324
   0.25120152  0.74807768  0.74961807
   0.24995199  0.49954321  0.49903229
  -0.00997758  0.75232306  0.49909396
  -0.00518403  0.50020673  0.74502756
   0.74764284  0.74413800  0.74700935
   0.74859350  0.50134117  0.49983479
   0.50987084  0.74454632  0.50487051
   0.50404251  0.50010260  0.74683756
   0.50273377  0.00552898 -0.00406862
  -0.00445499  0.50565745 -0.00071536
   0.50328646  0.74109964  0.25623681
   0.24804200  0.00015638  0.74546929
   0.49655250 -0.00897289  0.50358831
   0.75118999 -0.00640947  0.74622293
  -0.00216149  0.75889212  0.25114123
   0.74393962  0.50826152  0.25074068
   0.00349065  0.00080775  0.49493064
   0.50325095  0.50688929  0.50036735
   0.74426902  0.50704265  0.74925365
   0.75073490  0.74139341  0.49999324
HECN                                    
           1
     8.828924    0.003175   -0.001443
     0.003140    8.862431    0.005799
    -0.001448    0.005801    8.822029
   Ti   W    Hf   N    C    Nb   V 
   7   6   7  13  19   6   6
Direct configuration=     8
  -0.00257306 -0.00703170  0.00629769
   0.24136901 -0.00467619  0.25557101
   0.25388967  0.50776973  0.25078501
   0.50194379  0.49721860 -0.00216459
   0.49480465  0.25585100  0.75093372
  -0.00454058  0.50218092  0.49739496
   0.50621294  0.74275607  0.74400092
  -0.00329263  0.23417544  0.26319005
   0.75940119  0.73811638 -0.00005766
   0.00741256  0.26338477  0.73830321
   0.75752646  0.26757766  0.50585293
  -0.00883818  0.73796491  0.74664044
   0.26105440  0.49942391  0.74922712
   0.24541420  0.24793608  0.00033056
   0.50179207  0.25681773  0.25196439
   0.75667862 -0.00760711  0.25583089
   0.75362102  0.25786004 -0.00633610
   0.24733571  0.75171125 -0.00005926
   0.24740128  0.25131301  0.49978649
   0.24622770  0.74861788  0.50036656
   0.24724666  0.24980982  0.25085218
   0.24539789 -0.00058402  0.00688014
  -0.00054294  0.24459475  0.00131907
   0.75252019  0.25555399  0.25387796
   0.75528388 -0.00099201  0.00079288
   0.49785201  0.00071809  0.24970284
  -0.00257723  0.49858934  0.25424510
   0.50328896  0.74610442 -0.00562103
  -0.00175909  0.00050422  0.74981870
   0.74564232  0.25528014  0.74502875
   0.75563341 -0.00263115  0.50113646
   0.50527729  0.25410246  0.50653691
   0.50073222 -0.00055928  0.74890468
   0.00691395 -0.00468919  0.25252058
   0.50118550  0.25298512 -0.00633736
   0.24522791  0.74962898  0.25033574
   0.25125637  0.50021799  0.00266749
  -0.00375664  0.75523374  0.00343967
   0.75685987  0.73783658  0.25318379
   0.74562090  0.50532500  0.00056561
   0.50418185  0.50324325  0.25366151
   0.25262085  0.25212244  0.74925515
   0.24404021 -0.00066450  0.49469020
  -0.00320437  0.24855242  0.50069136
   0.25109210  0.74743096  0.74925824
   0.25026449  0.50018555  0.49837396
  -0.01192021  0.75368041  0.49794170
  -0.00634634  0.49961019  0.74416733
   0.74614064  0.74239312  0.74584489
   0.74821275  0.50268091  0.49957107
   0.50978177  0.74230676  0.50530216
   0.50518846  0.50009989  0.74604492
   0.50462759  0.00813488 -0.00613311
  -0.00387978  0.50788230  0.00015912
   0.50566104  0.74223219  0.25722882
   0.24649363 -0.00007350  0.74389311
   0.49472796 -0.01248833  0.50428934
   0.75207582 -0.00997532  0.74532408
  -0.00248289  0.76464888  0.25188972
   0.74035976  0.51178775  0.25094769
   0.00678501  0.00079070  0.49125671
   0.50523918  0.51104010  0.50050117
   0.73874381  0.51175906  0.74848291
   0.75145307  0.73423122  0.49965017
HECN                                    
           1
     8.816307    0.005115   -0.001889
     0.005086    8.852194    0.005858
    -0.001893    0.005862    8.807549
   Ti   W    Hf   N    C    Nb   V 
   7   6   7  13  19   6   6
Direct configuration=     9
  -0.00237503 -0.00668848  0.00596302
   0.24146401 -0.00449515  0.25528742
   0.25364791  0.50739659  0.25082623
   0.50210539  0.49728485 -0.00201129
   0.49527989  0.25557696  0.75098704
  -0.00432391  0.50205510  0.49777105
   0.50588799  0.74310743  0.74408766
  -0.00303127  0.23495762  0.26260013
   0.75941716  0.73825906 -0.00013982
   0.00704763  0.26240912  0.73873347
   0.75778782  0.26653195  0.50559368
  -0.00830887  0.73875786  0.74664815
   0.26037949  0.49946864  0.74917126
   0.24545268  0.24784972  0.00019958
   0.50144628  0.25682197  0.25193148
   0.75691817 -0.00737884  0.25563718
   0.75335530  0.25752028 -0.00608365
   0.24744945  0.75171049  0.00018336
   0.24749346  0.25136199  0.49989167
   0.24642136  0.74858492  0.50005706
   0.24741629  0.24977387  0.25078932
   0.24548156 -0.00051213  0.00658886
  -0.00031169  0.24483369  0.00123936
   0.75232421  0.25543615  0.25369674
   0.75516627 -0.00099083  0.00069975
   0.49777522  0.00068060  0.24980289
  -0.00243890  0.49886457  0.25417138
   0.50307202  0.74603921 -0.00550427
  -0.00168620  0.00038760  0.74983261
   0.74572211  0.25510696  0.74530161
   0.75549291 -0.00255876  0.50103550
   0.50493908  0.25407441  0.50633026
   0.50075491 -0.00048426  0.74893582
   0.00691883 -0.00414946  0.25239690
   0.50114248  0.25285914 -0.00637945
   0.24539399  0.74973681  0.25029127
   0.25127084  0.50020659  0.00257295
  -0.00421929  0.75504568  0.00331359
   0.75653754  0.73817036  0.25302375
   0.74583387  0.50574737  0.00054620
   0.50409501  0.50342942  0.25354757
   0.25241769  0.25206143  0.74927270
   0.24422638 -0.00054678  0.49484698
  -0.00383549  0.24859820  0.50061549
   0.25111003  0.74753639  0.74931671
   0.25021348  0.50008080  0.49848094
  -0.01160451  0.75345964  0.49812882
  -0.00615715  0.49970767  0.74430705
   0.74638538  0.74267783  0.74603403
   0.74827438  0.50246266  0.49961389
   0.50979678  0.74267177  0.50523204
   0.50500198  0.50010009  0.74617377
   0.50431879  0.00770979 -0.00579758
  -0.00397381  0.50751958  0.00001704
   0.50527450  0.74204708  0.25706774
   0.24674552 -0.00003569  0.74414914
   0.49502562 -0.01191501  0.50417537
   0.75193244 -0.00939437  0.74547020
  -0.00243183  0.76371075  0.25176804
   0.74094143  0.51121386  0.25091384
   0.00624884  0.00079279  0.49185384
   0.50491479  0.51036319  0.50047949
   0.73964167  0.51099163  0.74860783
   0.75133779  0.73539830  0.49970601
HECN                                    
           1
     8.785112   -0.009131    0.002932
    -0.009222    8.833350    0.003399
     0.002917    0.003417    8.786311
   Ti   W    Hf   N    C    Nb   V 
   7   6   7  13  19   6   6
Direct configuration=    10
  -0.00392575 -0.00831903  0.00753630
   0.24269539 -0.00569525  0.25650921
   0.25538887  0.50939993  0.25068082
   0.50042680  0.49725143 -0.00240074
   0.49182475  0.25644917  0.75050676
  -0.00500665  0.50286388  0.49434343
   0.50733741  0.74216864  0.74424992
  -0.00460896  0.23139228  0.26562218
   0.75927092  0.73831999  0.00056921
   0.00999313  0.26946717  0.73691082
   0.75618207  0.27325517  0.50649228
  -0.01148774  0.73354493  0.74701598
   0.26400125  0.49888380  0.74924671
   0.24515219  0.24865549  0.00096032
   0.50376987  0.25548493  0.25213952
   0.75394158 -0.00785556  0.25657771
   0.75427663  0.25828291 -0.00769195
   0.24788386  0.75160349 -0.00120987
   0.24891903  0.25120822  0.49950897
   0.24488546  0.74856525  0.50165827
   0.24668810  0.24974730  0.25105495
   0.24629954 -0.00052832  0.00724428
  -0.00135547  0.24400157  0.00173357
   0.75361595  0.25451140  0.25433857
   0.75468451 -0.00061616  0.00132593
   0.49917678  0.00103247  0.24915465
  -0.00294878  0.49571774  0.25333895
   0.50412285  0.74779807 -0.00509078
  -0.00218932  0.00140308  0.74994545
   0.74677944  0.25462689  0.74419076
   0.75487747 -0.00186117  0.50190564
   0.50689137  0.25293079  0.50600513
   0.50055113 -0.00096962  0.74860536
   0.00450547 -0.00673732  0.25270244
   0.50143755  0.25277272 -0.00444114
   0.24556922  0.74912316  0.25053162
   0.25065066  0.50026181  0.00242916
  -0.00145853  0.75488373  0.00307486
   0.75745254  0.73875215  0.25301229
   0.74577256  0.50314590  0.00050185
   0.50384244  0.50228330  0.25357631
   0.25270842  0.25220519  0.74934925
   0.24451732 -0.00115849  0.49519497
  -0.00110821  0.24844761  0.50133374
   0.25017387  0.74720290  0.74943808
   0.25074205  0.50064650  0.49847937
  -0.01148393  0.75437963  0.49793686
  -0.00616559  0.49921348  0.74464074
   0.74563605  0.74267119  0.74590152
   0.74831703  0.50325322  0.49937790
   0.50748117  0.74207478  0.50431866
   0.50457419  0.50009155  0.74609701
   0.50640277  0.00978730 -0.00775626
  -0.00291181  0.50918739  0.00176066
   0.50659262  0.74424703  0.25717862
   0.24510617 -0.00026630  0.74308912
   0.49311571 -0.01458003  0.50465678
   0.75269564 -0.01367594  0.74557537
  -0.00210293  0.76872817  0.25281407
   0.73746834  0.51341723  0.25080769
   0.00985195 -0.00023520  0.48840857
   0.50620186  0.51398544  0.50031549
   0.73380695  0.51570938  0.74782518
   0.75249549  0.72746232  0.49889162
HECN                                    
           1
     8.784692   -0.009323    0.002997
    -0.009415    8.833096    0.003366
     0.002982    0.003385    8.786025
   Ti   W    Hf   N    C    Nb   V 
   7   6   7  13  19   6   6
Direct configuration=    11
  -0.00394676 -0.00834107  0.00755756
   0.24271201 -0.00571142  0.25652570
   0.25541246  0.50942701  0.25067885
   0.50040410  0.49725094 -0.00240599
   0.49177806  0.25646087  0.75050031
  -0.00501584  0.50287477  0.49429714
   0.50735698  0.74215600  0.74425209
  -0.00463039  0.23134412  0.26566300
   0.75926894  0.73832081  0.00057878
   0.01003312  0.26956253  0.73688621
   0.75616049  0.27334592  0.50650445
  -0.01153084  0.73347448  0.74702095
   0.26405020  0.49887598  0.74924770
   0.24514814  0.24866636  0.00097060
   0.50380126  0.25546693  0.25214230
   0.75390132 -0.00786206  0.25659044
   0.75428911  0.25829323 -0.00771368
   0.24788974  0.75160205 -0.00122869
   0.24893831  0.25120617  0.49950379
   0.24486468  0.74856496  0.50167991
   0.24667825  0.24974693  0.25105854
   0.24631060 -0.00052852  0.00725312
  -0.00136961  0.24399031  0.00174025
   0.75363339  0.25449894  0.25434723
   0.75467800 -0.00061111  0.00133439
   0.49919574  0.00103725  0.24914589
  -0.00295574  0.49567524  0.25332770
   0.50413710  0.74782184 -0.00508519
  -0.00219610  0.00141678  0.74994698
   0.74679373  0.25462043  0.74417574
   0.75486915 -0.00185176  0.50191740
   0.50691774  0.25291539  0.50600072
   0.50054837 -0.00097618  0.74860089
   0.00447278 -0.00677232  0.25270657
   0.50144152  0.25277157 -0.00441497
   0.24557157  0.74911488  0.25053486
   0.25064228  0.50026254  0.00242722
  -0.00142121  0.75488160  0.00307162
   0.75746492  0.73876002  0.25301213
   0.74577167  0.50311077  0.00050124
   0.50383899  0.50226782  0.25357670
   0.25271235  0.25220714  0.74935028
   0.24452124 -0.00116674  0.49519967
  -0.00107134  0.24844564  0.50134342
   0.25016121  0.74719838  0.74943972
   0.25074921  0.50065415  0.49847935
  -0.01148227  0.75439206  0.49793427
  -0.00616572  0.49920680  0.74464524
   0.74562592  0.74267108  0.74589973
   0.74831762  0.50326389  0.49937471
   0.50744985  0.74206666  0.50430634
   0.50456840  0.50009143  0.74609598
   0.50643101  0.00981539 -0.00778272
  -0.00289743  0.50920994  0.00178421
   0.50661049  0.74427677  0.25718012
   0.24508400 -0.00026946  0.74307481
   0.49308982 -0.01461605  0.50466329
   0.75270586 -0.01373373  0.74557677
  -0.00209838  0.76879593  0.25282822
   0.73742143  0.51344690  0.25080629
   0.00990067 -0.00024902  0.48836200
   0.50621934  0.51403438  0.50031328
   0.73372817  0.51577295  0.74781467
   0.75251098  0.72735519  0.49888058
HECN                                    
           1
     8.776217   -0.009176    0.003955
    -0.009220    8.867242   -0.000076
     0.003942   -0.000017    8.764679
   Ti   W    Hf   N    C    Nb   V 
   7   6   7  13  19   6   6
Direct configuration=    12
  -0.00489523 -0.00819791  0.00711902
   0.24459787 -0.00616007  0.25599261
   0.25655838  0.50950871  0.25101169