  64  64   0   0
  0.2218804E+02  0.1124000E-08  0.1124000E-08  0.1124000E-08  0.5000000E-15
  1.000000000000000E-004
  CAR 
 HECN                                    
     12.77417928    -30.47782604  301      7.76418747      1.00000000
    -30.478  0.0000E+00  0.0000E+00
    -30.334  0.0000E+00  0.0000E+00
    -30.189  0.0000E+00  0.0000E+00
    -30.045  0.0000E+00  0.0000E+00
    -29.901  0.0000E+00  0.0000E+00
    -29.757  0.0000E+00  0.0000E+00
    -29.613  0.0000E+00  0.0000E+00
    -29.469  0.0000E+00  0.0000E+00
    -29.324  0.0000E+00  0.0000E+00
    -29.180  0.0000E+00  0.0000E+00
    -29.036  0.7858E-14  0.1133E-14
    -28.892  0.5024E-08  0.7243E-09
    -28.748  0.5788E-04  0.8345E-05
    -28.604  0.1525E-01  0.2207E-02
    -28.459  0.2120E+00  0.3278E-01
    -28.315  0.6148E+00  0.1214E+00
    -28.171  0.9530E+00  0.2588E+00
    -28.027  0.6332E+00  0.3501E+00
    -27.883  0.6837E-01  0.3599E+00
    -27.739  0.3772E-03  0.3600E+00
    -27.594  0.5222E-07  0.3600E+00
    -27.450  0.1408E-12  0.3600E+00
    -27.306  0.0000E+00  0.3600E+00
    -27.162  0.0000E+00  0.3600E+00
    -27.018  0.1540E-16  0.3600E+00
    -26.873  0.5128E-10  0.3600E+00
    -26.729  0.2646E-05  0.3600E+00
    -26.585  0.2621E-02  0.3604E+00
    -26.441  0.7476E-01  0.3712E+00
    -26.297  0.3093E+00  0.4158E+00
    -26.153  0.6762E+00  0.5132E+00
    -26.008  0.1065E+01  0.6669E+00
    -25.864  0.6737E+00  0.7640E+00
    -25.720  0.1084E+00  0.7796E+00
    -25.576  0.2546E-02  0.7800E+00
    -25.432  0.2268E-05  0.7800E+00
    -25.288  0.4061E-10  0.7800E+00
    -25.143  0.4349E-15  0.7800E+00
    -24.999  0.5709E-09  0.7800E+00
    -24.855  0.1362E-04  0.7800E+00
    -24.711  0.6724E-02  0.7810E+00
    -24.567  0.1375E+00  0.8008E+00
    -24.423  0.4255E+00  0.8621E+00
    -24.278  0.4088E+00  0.9211E+00
    -24.134  0.5752E+00  0.1004E+01
    -23.990  0.5228E+00  0.1079E+01
    -23.846  0.3127E+00  0.1124E+01
    -23.702  0.1041E+00  0.1139E+01
    -23.558  0.2294E-01  0.1143E+01
    -23.413  0.1702E+00  0.1167E+01
    -23.269  0.5013E+00  0.1240E+01
    -23.125  0.4578E+00  0.1306E+01
    -22.981  0.1270E+00  0.1324E+01
    -22.837  0.2918E+00  0.1366E+01
    -22.692  0.4128E+00  0.1426E+01
    -22.548  0.4018E+00  0.1483E+01
    -22.404  0.1128E+00  0.1500E+01
    -22.260  0.2095E-02  0.1500E+01
    -22.116  0.1043E-05  0.1500E+01
    -21.972  0.1014E-10  0.1500E+01
    -21.827  0.0000E+00  0.1500E+01
    -21.683  0.0000E+00  0.1500E+01
    -21.539  0.0000E+00  0.1500E+01
    -21.395  0.0000E+00  0.1500E+01
    -21.251  0.0000E+00  0.1500E+01
    -21.107  0.0000E+00  0.1500E+01
    -20.962  0.0000E+00  0.1500E+01
    -20.818  0.0000E+00  0.1500E+01
    -20.674  0.0000E+00  0.1500E+01
    -20.530  0.0000E+00  0.1500E+01
    -20.386  0.0000E+00  0.1500E+01
    -20.242  0.0000E+00  0.1500E+01
    -20.097  0.0000E+00  0.1500E+01
    -19.953  0.0000E+00  0.1500E+01
    -19.809  0.0000E+00  0.1500E+01
    -19.665  0.0000E+00  0.1500E+01
    -19.521  0.0000E+00  0.1500E+01
    -19.376  0.0000E+00  0.1500E+01
    -19.232  0.0000E+00  0.1500E+01
    -19.088  0.0000E+00  0.1500E+01
    -18.944  0.0000E+00  0.1500E+01
    -18.800  0.0000E+00  0.1500E+01
    -18.656  0.0000E+00  0.1500E+01
    -18.511  0.0000E+00  0.1500E+01
    -18.367  0.0000E+00  0.1500E+01
    -18.223  0.0000E+00  0.1500E+01
    -18.079  0.0000E+00  0.1500E+01
    -17.935  0.0000E+00  0.1500E+01
    -17.791  0.0000E+00  0.1500E+01
    -17.646  0.0000E+00  0.1500E+01
    -17.502  0.0000E+00  0.1500E+01
    -17.358  0.0000E+00  0.1500E+01
    -17.214  0.0000E+00  0.1500E+01
    -17.070  0.0000E+00  0.1500E+01
    -16.926  0.0000E+00  0.1500E+01
    -16.781  0.0000E+00  0.1500E+01
    -16.637  0.0000E+00  0.1500E+01
    -16.493  0.0000E+00  0.1500E+01
    -16.349  0.0000E+00  0.1500E+01
    -16.205  0.0000E+00  0.1500E+01
    -16.060  0.0000E+00  0.1500E+01
    -15.916  0.0000E+00  0.1500E+01
    -15.772  0.0000E+00  0.1500E+01
    -15.628  0.0000E+00  0.1500E+01
    -15.484  0.0000E+00  0.1500E+01
    -15.340  0.0000E+00  0.1500E+01
    -15.195  0.0000E+00  0.1500E+01
    -15.051  0.0000E+00  0.1500E+01
    -14.907  0.0000E+00  0.1500E+01
    -14.763  0.0000E+00  0.1500E+01
    -14.619  0.0000E+00  0.1500E+01
    -14.475  0.0000E+00  0.1500E+01
    -14.330  0.0000E+00  0.1500E+01
    -14.186  0.0000E+00  0.1500E+01
    -14.042  0.0000E+00  0.1500E+01
    -13.898  0.0000E+00  0.1500E+01
    -13.754  0.0000E+00  0.1500E+01
    -13.610  0.0000E+00  0.1500E+01
    -13.465  0.0000E+00  0.1500E+01
    -13.321  0.0000E+00  0.1500E+01
    -13.177  0.0000E+00  0.1500E+01
    -13.033  0.0000E+00  0.1500E+01
    -12.889  0.0000E+00  0.1500E+01
    -12.745  0.0000E+00  0.1500E+01
    -12.600  0.0000E+00  0.1500E+01
    -12.456  0.0000E+00  0.1500E+01
    -12.312  0.0000E+00  0.1500E+01
    -12.168  0.0000E+00  0.1500E+01
    -12.024  0.0000E+00  0.1500E+01
    -11.879  0.0000E+00  0.1500E+01
    -11.735  0.0000E+00  0.1500E+01
    -11.591  0.0000E+00  0.1500E+01
    -11.447  0.0000E+00  0.1500E+01
    -11.303  0.0000E+00  0.1500E+01
    -11.159  0.0000E+00  0.1500E+01
    -11.014  0.0000E+00  0.1500E+01
    -10.870  0.0000E+00  0.1500E+01
    -10.726  0.0000E+00  0.1500E+01
    -10.582  0.0000E+00  0.1500E+01
    -10.438  0.0000E+00  0.1500E+01
    -10.294  0.0000E+00  0.1500E+01
    -10.149  0.0000E+00  0.1500E+01
    -10.005  0.0000E+00  0.1500E+01
     -9.861  0.0000E+00  0.1500E+01
     -9.717  0.0000E+00  0.1500E+01
     -9.573  0.0000E+00  0.1500E+01
     -9.429  0.0000E+00  0.1500E+01
     -9.284  0.0000E+00  0.1500E+01
     -9.140  0.0000E+00  0.1500E+01
     -8.996  0.0000E+00  0.1500E+01
     -8.852  0.0000E+00  0.1500E+01
     -8.708  0.7587E-16  0.1500E+01
     -8.563  0.7718E-10  0.1500E+01
     -8.419  0.1510E-05  0.1500E+01
     -8.275  0.7057E-03  0.1500E+01
     -8.131  0.1629E-01  0.1502E+01
     -7.987  0.5927E-01  0.1511E+01
     -7.843  0.5550E-01  0.1519E+01
     -7.698  0.2543E-01  0.1523E+01
     -7.554  0.1175E+00  0.1540E+01
     -7.410  0.1756E+00  0.1565E+01
     -7.266  0.2416E+00  0.1600E+01
     -7.122  0.2917E+00  0.1642E+01
     -6.978  0.3415E+00  0.1691E+01
     -6.833  0.2058E+00  0.1721E+01
     -6.689  0.1809E+00  0.1747E+01
     -6.545  0.8025E-01  0.1758E+01
     -6.401  0.1110E-01  0.1760E+01
     -6.257  0.1995E-03  0.1760E+01
     -6.113  0.1322E-06  0.1760E+01
     -5.968  0.1772E-11  0.1760E+01
     -5.824  0.0000E+00  0.1760E+01
     -5.680  0.0000E+00  0.1760E+01
     -5.536  0.0000E+00  0.1760E+01
     -5.392  0.0000E+00  0.1760E+01
     -5.247  0.5704E-18  0.1760E+01
     -5.103  0.1297E-11  0.1760E+01
     -4.959  0.9392E-07  0.1760E+01
     -4.815  0.1348E-03  0.1760E+01
     -4.671  0.6777E-02  0.1761E+01
     -4.527  0.4236E-01  0.1767E+01
     -4.382  0.6525E-01  0.1777E+01
     -4.238  0.3686E-01  0.1782E+01
     -4.094  0.9100E-01  0.1795E+01
     -3.950  0.1123E+00  0.1811E+01
     -3.806  0.1705E+00  0.1836E+01
     -3.662  0.1836E+00  0.1862E+01
     -3.517  0.2151E+00  0.1893E+01
     -3.373  0.2668E+00  0.1932E+01
     -3.229  0.2246E+00  0.1964E+01
     -3.085  0.2501E+00  0.2000E+01
     -2.941  0.2364E+00  0.2034E+01
     -2.797  0.2214E+00  0.2066E+01
     -2.652  0.2038E+00  0.2095E+01
     -2.508  0.1318E+00  0.2114E+01
     -2.364  0.1069E+00  0.2130E+01
     -2.220  0.5279E-01  0.2138E+01
     -2.076  0.1481E-01  0.2140E+01
     -1.932  0.2379E-02  0.2140E+01
     -1.787  0.5682E-04  0.2140E+01
     -1.643  0.3841E-07  0.2140E+01
     -1.499  0.4909E-12  0.2140E+01
     -1.355  0.0000E+00  0.2140E+01
     -1.211  0.0000E+00  0.2140E+01
     -1.066  0.0000E+00  0.2140E+01
     -0.922  0.0000E+00  0.2140E+01
     -0.778  0.0000E+00  0.2140E+01
     -0.634  0.0000E+00  0.2140E+01
     -0.490  0.0000E+00  0.2140E+01
     -0.346  0.1198E-15  0.2140E+01
     -0.201  0.9882E-10  0.2140E+01
     -0.057  0.1504E-05  0.2140E+01
      0.087  0.5175E-03  0.2140E+01
      0.231  0.6870E-02  0.2141E+01
      0.375  0.1409E-01  0.2143E+01
      0.519  0.4373E-01  0.2149E+01
      0.664  0.9417E-01  0.2163E+01
      0.808  0.1031E+00  0.2178E+01
      0.952  0.1125E+00  0.2194E+01
      1.096  0.1380E+00  0.2214E+01
      1.240  0.1498E+00  0.2236E+01
      1.384  0.2261E+00  0.2268E+01
      1.529  0.3001E+00  0.2311E+01
      1.673  0.3820E+00  0.2367E+01
      1.817  0.2858E+00  0.2408E+01
      1.961  0.2324E+00  0.2441E+01
      2.105  0.2978E+00  0.2484E+01
      2.250  0.3833E+00  0.2539E+01
      2.394  0.3630E+00  0.2592E+01
      2.538  0.3715E+00  0.2645E+01
      2.682  0.4373E+00  0.2708E+01
      2.826  0.5334E+00  0.2785E+01
      2.970  0.6169E+00  0.2874E+01
      3.115  0.6619E+00  0.2970E+01
      3.259  0.6732E+00  0.3067E+01
      3.403  0.6930E+00  0.3167E+01
      3.547  0.6758E+00  0.3264E+01
      3.691  0.6473E+00  0.3357E+01
      3.835  0.6348E+00  0.3449E+01
      3.980  0.6078E+00  0.3537E+01
      4.124  0.5381E+00  0.3614E+01
      4.268  0.5077E+00  0.3687E+01
      4.412  0.4023E+00  0.3745E+01
      4.556  0.3748E+00  0.3799E+01
      4.700  0.3063E+00  0.3843E+01
      4.845  0.2604E+00  0.3881E+01
      4.989  0.2912E+00  0.3923E+01
      5.133  0.2604E+00  0.3961E+01
      5.277  0.2156E+00  0.3992E+01
      5.421  0.1644E+00  0.4015E+01
      5.566  0.1537E+00  0.4037E+01
      5.710  0.1232E+00  0.4055E+01
      5.854  0.5622E-01  0.4063E+01
      5.998  0.9264E-01  0.4077E+01
      6.142  0.1339E+00  0.4096E+01
      6.286  0.1569E+00  0.4119E+01
      6.431  0.2017E+00  0.4148E+01
      6.575  0.1906E+00  0.4175E+01
      6.719  0.1346E+00  0.4195E+01
      6.863  0.1272E+00  0.4213E+01
      7.007  0.1796E+00  0.4239E+01
      7.151  0.1689E+00  0.4263E+01
      7.296  0.1614E+00  0.4286E+01
      7.440  0.1861E+00  0.4313E+01
      7.584  0.1699E+00  0.4338E+01
      7.728  0.1719E+00  0.4363E+01
      7.872  0.2234E+00  0.4395E+01
      8.016  0.2587E+00  0.4432E+01
      8.161  0.2808E+00  0.4473E+01
      8.305  0.2915E+00  0.4515E+01
      8.449  0.3245E+00  0.4561E+01
      8.593  0.3738E+00  0.4615E+01
      8.737  0.3864E+00  0.4671E+01
      8.881  0.4148E+00  0.4731E+01
      9.026  0.4526E+00  0.4796E+01
      9.170  0.4482E+00  0.4861E+01
      9.314  0.4594E+00  0.4927E+01
      9.458  0.5081E+00  0.5000E+01
      9.602  0.5197E+00  0.5075E+01
      9.747  0.5194E+00  0.5150E+01
      9.891  0.5196E+00  0.5225E+01
     10.035  0.4962E+00  0.5296E+01
     10.179  0.4794E+00  0.5365E+01
     10.323  0.4815E+00  0.5435E+01
     10.467  0.4951E+00  0.5506E+01
     10.612  0.3926E+00  0.5563E+01
     10.756  0.1927E+00  0.5591E+01
     10.900  0.6106E-01  0.5599E+01
     11.044  0.3766E-02  0.5600E+01
     11.188  0.1132E-04  0.5600E+01
     11.332  0.8392E-09  0.5600E+01
     11.477  0.1186E-14  0.5600E+01
     11.621  0.0000E+00  0.5600E+01
     11.765  0.0000E+00  0.5600E+01
     11.909  0.0000E+00  0.5600E+01
     12.053  0.0000E+00  0.5600E+01
     12.197  0.0000E+00  0.5600E+01
     12.342  0.0000E+00  0.5600E+01
     12.486  0.0000E+00  0.5600E+01
     12.630  0.0000E+00  0.5600E+01
     12.774  0.0000E+00  0.5600E+01
