       N       E                     dE             d eps       ncg     rms          rms(c)
DAV:   1     0.370580078443E+04    0.37058E+04   -0.17421E+05  8820   0.118E+03
DAV:   2     0.138810816431E+03   -0.35670E+04   -0.34382E+04  8568   0.432E+02
DAV:   3    -0.555276889552E+03   -0.69409E+03   -0.66766E+03 12992   0.134E+02
DAV:   4    -0.628020701335E+03   -0.72744E+02   -0.69884E+02 12068   0.430E+01
DAV:   5    -0.636433761881E+03   -0.84131E+01   -0.81303E+01 13076   0.154E+01    0.652E+01
RMM:   6    -0.508481020347E+03    0.12795E+03   -0.11371E+03 10832   0.514E+01    0.503E+01
RMM:   7    -0.486810780860E+03    0.21670E+02   -0.24621E+02 11081   0.288E+01    0.304E+01
RMM:   8    -0.474215129207E+03    0.12596E+02   -0.10927E+02 11545   0.121E+01    0.134E+01
RMM:   9    -0.475106860168E+03   -0.89173E+00   -0.36684E+01 11517   0.765E+00    0.134E+01
RMM:  10    -0.475668557168E+03   -0.56170E+00   -0.19017E+01 11309   0.509E+00    0.131E+01
RMM:  11    -0.474769512173E+03    0.89904E+00   -0.10796E+01 10944   0.422E+00    0.105E+01
RMM:  12    -0.475167187280E+03   -0.39768E+00   -0.71519E+00 11600   0.377E+00    0.110E+01
RMM:  13    -0.474690855474E+03    0.47633E+00   -0.43091E+00 11066   0.256E+00    0.692E+00
RMM:  14    -0.474448252657E+03    0.24260E+00   -0.27813E+00 11135   0.182E+00    0.369E+00
RMM:  15    -0.474535839433E+03   -0.87587E-01   -0.20906E+00 11314   0.138E+00    0.337E+00
RMM:  16    -0.474604208871E+03   -0.68369E-01   -0.15362E+00 11474   0.110E+00    0.271E+00
RMM:  17    -0.474649768487E+03   -0.45560E-01   -0.92522E-01 11312   0.943E-01    0.226E+00
RMM:  18    -0.474694271728E+03   -0.44503E-01   -0.68567E-01 11289   0.780E-01    0.172E+00
RMM:  19    -0.474729688760E+03   -0.35417E-01   -0.46517E-01 11475   0.600E-01    0.153E+00
RMM:  20    -0.474751913144E+03   -0.22224E-01   -0.36199E-01 11631   0.401E-01    0.137E+00
RMM:  21    -0.474744309837E+03    0.76033E-02   -0.22638E-01 11381   0.369E-01    0.772E-01
RMM:  22    -0.474756729273E+03   -0.12419E-01   -0.21535E-01 11973   0.335E-01    0.540E-01
RMM:  23    -0.474768304864E+03   -0.11576E-01   -0.15491E-01 11841   0.307E-01    0.356E-01
RMM:  24    -0.474780865473E+03   -0.12561E-01   -0.13502E-01 11744   0.233E-01    0.248E-01
RMM:  25    -0.474789093986E+03   -0.82285E-02   -0.88321E-02 11238   0.163E-01    0.228E-01
RMM:  26    -0.474795970377E+03   -0.68764E-02   -0.76700E-02 11213   0.123E-01    0.140E-01
RMM:  27    -0.474800890596E+03   -0.49202E-02   -0.53143E-02 11247   0.106E-01    0.128E-01
RMM:  28    -0.474805898052E+03   -0.50075E-02   -0.54216E-02 11681   0.117E-01    0.101E-01
RMM:  29    -0.474809477707E+03   -0.35797E-02   -0.35854E-02 11338   0.979E-02    0.106E-01
RMM:  30    -0.474812619444E+03   -0.31417E-02   -0.33807E-02 10192   0.685E-02    0.643E-02
RMM:  31    -0.474814858834E+03   -0.22394E-02   -0.22908E-02 10513   0.594E-02    0.441E-02
RMM:  32    -0.474817240587E+03   -0.23818E-02   -0.23808E-02 10905   0.567E-02    0.471E-02
RMM:  33    -0.474818798776E+03   -0.15582E-02   -0.15412E-02 10149   0.519E-02    0.458E-02
RMM:  34    -0.474820421617E+03   -0.16228E-02   -0.16429E-02  9651   0.402E-02    0.370E-02
RMM:  35    -0.474821439323E+03   -0.10177E-02   -0.10422E-02  9449   0.360E-02    0.322E-02
RMM:  36    -0.474822581559E+03   -0.11422E-02   -0.11709E-02 10098   0.342E-02    0.133E-02
RMM:  37    -0.474823323879E+03   -0.74232E-03   -0.73725E-03  9352   0.302E-02    0.108E-02
RMM:  38    -0.474824144188E+03   -0.82031E-03   -0.81714E-03  7964   0.254E-02    0.115E-02
RMM:  39    -0.474824664727E+03   -0.52054E-03   -0.51710E-03  6326   0.236E-02    0.113E-02
RMM:  40    -0.474825233377E+03   -0.56865E-03   -0.57066E-03  6142   0.209E-02    0.569E-03
RMM:  41    -0.474825610887E+03   -0.37751E-03   -0.37389E-03  5994   0.207E-02    0.120E-02
RMM:  42    -0.474826015974E+03   -0.40509E-03   -0.40456E-03  6268   0.198E-02    0.430E-03
RMM:  43    -0.474826292870E+03   -0.27690E-03   -0.27417E-03  6036   0.185E-02    0.292E-03
RMM:  44    -0.474826589197E+03   -0.29633E-03   -0.29394E-03  5482   0.155E-02    0.615E-03
RMM:  45    -0.474826790517E+03   -0.20132E-03   -0.19944E-03  5357   0.140E-02    0.612E-03
RMM:  46    -0.474827001809E+03   -0.21129E-03   -0.21058E-03  5627   0.145E-02    0.458E-03
RMM:  47    -0.474827149383E+03   -0.14757E-03   -0.14660E-03  5005   0.128E-02    0.311E-03
RMM:  48    -0.474827302875E+03   -0.15349E-03   -0.15280E-03  4933   0.126E-02    0.428E-03
RMM:  49    -0.474827413976E+03   -0.11110E-03   -0.10963E-03  4524   0.109E-02    0.112E-02
RMM:  50    -0.474827526142E+03   -0.11217E-03   -0.11166E-03  4335   0.932E-03    0.135E-02
RMM:  51    -0.474827607183E+03   -0.81041E-04   -0.81390E-04  4518   0.966E-03    0.112E-02
RMM:  52    -0.474827688774E+03   -0.81590E-04   -0.81867E-04  4656   0.914E-03    0.100E-02
RMM:  53    -0.474827749688E+03   -0.60914E-04   -0.60875E-04  4236   0.860E-03    0.969E-03
RMM:  54    -0.474827810479E+03   -0.60792E-04   -0.60573E-04  4039   0.792E-03    0.110E-02
RMM:  55    -0.474827858477E+03   -0.47998E-04   -0.47608E-04  4367   0.732E-03    0.110E-02
RMM:  56    -0.474827903508E+03   -0.45031E-04   -0.44945E-04  4166   0.720E-03    0.110E-02
RMM:  57    -0.474827938234E+03   -0.34725E-04   -0.34534E-04  3982   0.641E-03    0.119E-02
RMM:  58    -0.474827971229E+03   -0.32996E-04   -0.33411E-04  4390   0.631E-03    0.103E-02
RMM:  59    -0.474827997301E+03   -0.26072E-04   -0.26149E-04  4112   0.613E-03    0.100E-02
RMM:  60    -0.474828022633E+03   -0.25332E-04   -0.25102E-04  3936   0.554E-03
   1 F= -.47482802E+03 E0= -.47461792E+03  d E =-.474828E+03
       N       E                     dE             d eps       ncg     rms          rms(c)
DAV:   1    -0.251888991729E+04   -0.20441E+04   -0.48880E+04 10192   0.690E+02    0.267E+02
RMM:   2    -0.886518592695E+03    0.16324E+04   -0.42840E+03 11890   0.196E+02    0.133E+02
RMM:   3    -0.563126132852E+03    0.32339E+03   -0.18635E+03 11352   0.121E+02    0.480E+01
RMM:   4    -0.561464584105E+03    0.16615E+01   -0.61614E+02 11072   0.640E+01    0.180E+01
RMM:   5    -0.564739261719E+03   -0.32747E+01   -0.10687E+02 10621   0.292E+01    0.102E+01
RMM:   6    -0.566695528867E+03   -0.19563E+01   -0.30300E+01 11261   0.123E+01    0.668E+00
RMM:   7    -0.566895788795E+03   -0.20026E+00   -0.86912E+00 10846   0.599E+00    0.365E+00
RMM:   8    -0.567126759841E+03   -0.23097E+00   -0.40392E+00 11128   0.302E+00    0.202E+00
RMM:   9    -0.567253347245E+03   -0.12659E+00   -0.15538E+00 10404   0.175E+00    0.875E-01
RMM:  10    -0.567306185614E+03   -0.52838E-01   -0.73343E-01 11318   0.105E+00    0.415E-01
RMM:  11    -0.567337754582E+03   -0.31569E-01   -0.33814E-01 11096   0.598E-01    0.354E-01
RMM:  12    -0.567349479952E+03   -0.11725E-01   -0.15180E-01 10197   0.372E-01    0.197E-01
RMM:  13    -0.567354927017E+03   -0.54471E-02   -0.68295E-02 10451   0.248E-01    0.114E-01
RMM:  14    -0.567357652794E+03   -0.27258E-02   -0.30109E-02 10374   0.151E-01    0.726E-02
RMM:  15    -0.567358897774E+03   -0.12450E-02   -0.13742E-02 10014   0.886E-02    0.305E-02
RMM:  16    -0.567359555507E+03   -0.65773E-03   -0.68069E-03  9409   0.549E-02    0.205E-02
RMM:  17    -0.567359873655E+03   -0.31815E-03   -0.33056E-03  7288   0.331E-02    0.113E-02
RMM:  18    -0.567360037346E+03   -0.16369E-03   -0.16889E-03  6311   0.275E-02    0.720E-03
RMM:  19    -0.567360119957E+03   -0.82611E-04   -0.82927E-04  5759   0.200E-02    0.293E-03
RMM:  20    -0.567360166403E+03   -0.46446E-04   -0.46032E-04  5533   0.141E-02    0.173E-03
RMM:  21    -0.567360190252E+03   -0.23849E-04   -0.23742E-04  5403   0.101E-02    0.143E-03
RMM:  22    -0.567360203730E+03   -0.13478E-04   -0.13259E-04  5230   0.817E-03    0.683E-04
RMM:  23    -0.567360210809E+03   -0.70786E-05   -0.69073E-05  5097   0.650E-03
   2 F= -.56736021E+03 E0= -.56730050E+03  d E =-.925322E+02
       N       E                     dE             d eps       ncg     rms          rms(c)
DAV:   1    -0.929145556938E+03   -0.36179E+03   -0.66376E+03  8568   0.274E+02    0.143E+02
RMM:   2    -0.979851199562E+03   -0.50706E+02   -0.14894E+03  8479   0.101E+02    0.781E+01
RMM:   3    -0.763834637761E+03    0.21602E+03   -0.35869E+02 10106   0.510E+01    0.485E+01
RMM:   4    -0.689112866324E+03    0.74722E+02   -0.79745E+01 10886   0.212E+01    0.353E+01
RMM:   5    -0.643304619954E+03    0.45808E+02   -0.11790E+02 10749   0.227E+01    0.154E+01
RMM:   6    -0.659475923473E+03   -0.16171E+02   -0.11572E+02 11523   0.167E+01    0.363E+01
RMM:   7    -0.642387197444E+03    0.17089E+02   -0.22445E+01  8013   0.132E+01    0.107E+01
RMM:   8    -0.640726999207E+03    0.16602E+01   -0.77280E+00 10158   0.635E+00    0.511E+00
RMM:   9    -0.640903334527E+03   -0.17634E+00   -0.38235E+00 10341   0.295E+00    0.522E+00
RMM:  10    -0.640541121854E+03    0.36221E+00   -0.11895E+00 10647   0.238E+00    0.234E+00
RMM:  11    -0.640501274433E+03    0.39847E-01   -0.46003E-01 11108   0.122E+00    0.174E+00
RMM:  12    -0.640476116720E+03    0.25158E-01   -0.12508E-01 11200   0.700E-01    0.146E+00
RMM:  13    -0.640434031909E+03    0.42085E-01   -0.29234E-01 10977   0.902E-01    0.504E-01
RMM:  14    -0.640444935747E+03   -0.10904E-01   -0.12961E-01 11294   0.490E-01    0.447E-01
RMM:  15    -0.640441417524E+03    0.35182E-02   -0.26326E-02 10311   0.244E-01    0.264E-01
RMM:  16    -0.640441372650E+03    0.44874E-04   -0.17911E-02 10497   0.153E-01    0.205E-01
RMM:  17    -0.640441399110E+03   -0.26460E-04   -0.74191E-03 10744   0.106E-01    0.155E-01
RMM:  18    -0.640441420209E+03   -0.21099E-04   -0.44816E-03 10619   0.797E-02    0.998E-02
RMM:  19    -0.640441446998E+03   -0.26790E-04   -0.23605E-03 10012   0.651E-02    0.477E-02
RMM:  20    -0.640441560274E+03   -0.11328E-03   -0.12566E-03  9354   0.338E-02    0.431E-02
RMM:  21    -0.640441612507E+03   -0.52233E-04   -0.63876E-04  7507   0.261E-02    0.438E-02
RMM:  22    -0.640441611488E+03    0.10189E-05   -0.44369E-04  8549   0.281E-02    0.118E-02
RMM:  23    -0.640441638405E+03   -0.26916E-04   -0.28410E-04  6557   0.170E-02    0.851E-03
RMM:  24    -0.640441651465E+03   -0.13060E-04   -0.14013E-04  5625   0.145E-02    0.702E-03
RMM:  25    -0.640441659092E+03   -0.76270E-05   -0.82643E-05  5460   0.903E-03
   3 F= -.64044166E+03 E0= -.64035538E+03  d E =-.165614E+03
       N       E                     dE             d eps       ncg     rms          rms(c)
DAV:   1    -0.642650071105E+03   -0.22084E+01   -0.34254E+01  8764   0.170E+01    0.731E+00
RMM:   2    -0.641884647587E+03    0.76542E+00   -0.68524E+00 10026   0.682E+00    0.460E+00
RMM:   3    -0.641376722593E+03    0.50792E+00   -0.11092E+00 10019   0.286E+00    0.261E+00
RMM:   4    -0.641264563551E+03    0.11216E+00   -0.38541E-01 10304   0.138E+00    0.186E+00
RMM:   5    -0.641208733263E+03    0.55830E-01   -0.18117E-01  9816   0.102E+00    0.950E-01
RMM:   6    -0.641198945794E+03    0.97875E-02   -0.80368E-02 10395   0.660E-01    0.624E-01
RMM:   7    -0.641196044756E+03    0.29010E-02   -0.23470E-02 10995   0.364E-01    0.372E-01
RMM:   8    -0.641195271128E+03    0.77363E-03   -0.73221E-03 11456   0.179E-01    0.200E-01
RMM:   9    -0.641195050192E+03    0.22094E-03   -0.26028E-03 11156   0.971E-02    0.117E-01
RMM:  10    -0.641195134946E+03   -0.84754E-04   -0.12577E-03 10538   0.691E-02    0.811E-02
RMM:  11    -0.641195186897E+03   -0.51952E-04   -0.67254E-04 10510   0.519E-02    0.434E-02
RMM:  12    -0.641195198818E+03   -0.11920E-04   -0.26550E-04  9750   0.342E-02    0.188E-02
RMM:  13    -0.641195201662E+03   -0.28446E-05   -0.14083E-04  7118   0.215E-02    0.103E-02
RMM:  14    -0.641195203907E+03   -0.22445E-05   -0.60113E-05  5866   0.177E-02
   4 F= -.64119520E+03 E0= -.64111134E+03  d E =-.166367E+03
       N       E                     dE             d eps       ncg     rms          rms(c)
DAV:   1    -0.641672583675E+03   -0.47738E+00   -0.90519E+00  8624   0.885E+00    0.376E+00
RMM:   2    -0.641478675895E+03    0.19391E+00   -0.18148E+00  9685   0.351E+00    0.242E+00
RMM:   3    -0.641338757626E+03    0.13992E+00   -0.28845E-01  9965   0.148E+00    0.135E+00
RMM:   4    -0.641309994067E+03    0.28764E-01   -0.99455E-02 10206   0.709E-01    0.977E-01
RMM:   5    -0.641295326556E+03    0.14668E-01   -0.47451E-02  9826   0.519E-01    0.527E-01
RMM:   6    -0.641292746149E+03    0.25804E-02   -0.21520E-02 10404   0.346E-01    0.366E-01
RMM:   7    -0.641291513509E+03    0.12326E-02   -0.62501E-03 10781   0.189E-01    0.178E-01
RMM:   8    -0.641291365683E+03    0.14783E-03   -0.18808E-03 11212   0.918E-02    0.986E-02
RMM:   9    -0.641291328647E+03    0.37037E-04   -0.66503E-04 10651   0.519E-02    0.583E-02
RMM:  10    -0.641291365141E+03   -0.36494E-04   -0.31343E-04 10040   0.366E-02    0.386E-02
RMM:  11    -0.641291389239E+03   -0.24098E-04   -0.15869E-04  9325   0.280E-02    0.211E-02
RMM:  12    -0.641291395158E+03   -0.59188E-05   -0.66341E-05  6956   0.210E-02
   5 F= -.64129140E+03 E0= -.64120872E+03  d E =-.166463E+03
       N       E                     dE             d eps       ncg     rms          rms(c)
DAV:   1    -0.639293340156E+03    0.19980E+01   -0.32560E+02  8120   0.568E+01    0.315E+00
RMM:   2    -0.642334229267E+03   -0.30409E+01   -0.33295E+01 11433   0.167E+01    0.255E+00
RMM:   3    -0.642946464462E+03   -0.61224E+00   -0.63259E+00 11782   0.608E+00    0.168E+00
RMM:   4    -0.642959166173E+03   -0.12702E-01   -0.76618E-01 11942   0.216E+00    0.123E+00
RMM:   5    -0.642955215780E+03    0.39504E-02   -0.25376E-01 11449   0.102E+00    0.105E+00
RMM:   6    -0.642943884093E+03    0.11332E-01   -0.19187E-01 10360   0.855E-01    0.548E-01
RMM:   7    -0.642944562651E+03   -0.67856E-03   -0.61746E-02 11441   0.415E-01    0.284E-01
RMM:   8    -0.642944160749E+03    0.40190E-03   -0.26370E-02 10728   0.247E-01    0.181E-01
RMM:   9    -0.642945090931E+03   -0.93018E-03   -0.15803E-02 11038   0.179E-01    0.125E-01
RMM:  10    -0.642945606819E+03   -0.51589E-03   -0.80469E-03 11350   0.111E-01    0.613E-02
RMM:  11    -0.642945929203E+03   -0.32238E-03   -0.40242E-03 10563   0.639E-02    0.434E-02
RMM:  12    -0.642946178924E+03   -0.24972E-03   -0.26037E-03 10006   0.485E-02    0.343E-02
RMM:  13    -0.642946283189E+03   -0.10427E-03   -0.12916E-03  8757   0.362E-02    0.211E-02
RMM:  14    -0.642946344422E+03   -0.61233E-04   -0.79392E-04  7646   0.264E-02    0.107E-02
RMM:  15    -0.642946385995E+03   -0.41573E-04   -0.43927E-04  6818   0.218E-02    0.786E-03
RMM:  16    -0.642946412321E+03   -0.26326E-04   -0.28360E-04  5959   0.186E-02    0.600E-03
RMM:  17    -0.642946425375E+03   -0.13054E-04   -0.15154E-04  5511   0.128E-02    0.339E-03
RMM:  18    -0.642946434569E+03   -0.91945E-05   -0.98850E-05  5442   0.892E-03
   6 F= -.64294643E+03 E0= -.64287406E+03  d E =-.165504E+01
       N       E                     dE             d eps       ncg     rms          rms(c)
DAV:   1    -0.642460444342E+03    0.48598E+00   -0.64717E+01  8680   0.252E+01    0.139E+00
RMM:   2    -0.643024208149E+03   -0.56376E+00   -0.62362E+00 11268   0.698E+00    0.120E+00
RMM:   3    -0.643130703079E+03   -0.10649E+00   -0.11174E+00 11671   0.266E+00    0.751E-01
RMM:   4    -0.643131964044E+03   -0.12610E-02   -0.14008E-01 11834   0.934E-01    0.526E-01
RMM:   5    -0.643131506278E+03    0.45777E-03   -0.50288E-02 11510   0.463E-01    0.429E-01
RMM:   6    -0.643129552745E+03    0.19535E-02   -0.35317E-02 10340   0.368E-01    0.180E-01
RMM:   7    -0.643129914698E+03   -0.36195E-03   -0.10743E-02 11557   0.171E-01    0.111E-01
RMM:   8    -0.643129985030E+03   -0.70332E-04   -0.49357E-03 10675   0.108E-01    0.677E-02
RMM:   9    -0.643130215577E+03   -0.23055E-03   -0.27439E-03 11098   0.698E-02    0.519E-02
RMM:  10    -0.643130305151E+03   -0.89575E-04   -0.13926E-03  9936   0.481E-02    0.249E-02
RMM:  11    -0.643130372434E+03   -0.67283E-04   -0.77888E-04  8591   0.293E-02    0.183E-02
RMM:  12    -0.643130418834E+03   -0.46400E-04   -0.46061E-04  7245   0.254E-02    0.134E-02
RMM:  13    -0.643130437411E+03   -0.18577E-04   -0.23522E-04  5928   0.206E-02    0.762E-03
RMM:  14    -0.643130449570E+03   -0.12158E-04   -0.14327E-04  5623   0.130E-02    0.407E-03
RMM:  15    -0.643130457368E+03   -0.77986E-05   -0.81469E-05  5502   0.119E-02
   7 F= -.64313046E+03 E0= -.64306087E+03  d E =-.183906E+01
       N       E                     dE             d eps       ncg     rms          rms(c)
DAV:   1    -0.642954169600E+03    0.17628E+00   -0.13162E+02  8232   0.383E+01    0.728E+00
RMM:   2    -0.643509368311E+03   -0.55520E+00   -0.20344E+01 11025   0.137E+01    0.450E+00
RMM:   3    -0.643484409164E+03    0.24959E-01   -0.48852E+00 11408   0.599E+00    0.231E+00
RMM:   4    -0.643443000806E+03    0.41408E-01   -0.88366E-01 11492   0.216E+00    0.141E+00
RMM:   5    -0.643429704468E+03    0.13296E-01   -0.23914E-01 11439   0.116E+00    0.108E+00
RMM:   6    -0.643414816737E+03    0.14888E-01   -0.10449E-01 10696   0.696E-01    0.483E-01
RMM:   7    -0.643415962212E+03   -0.11455E-02   -0.43616E-02 11611   0.403E-01    0.364E-01
RMM:   8    -0.643415675009E+03    0.28720E-03   -0.17819E-02 11458   0.230E-01    0.156E-01
RMM:   9    -0.643416412648E+03   -0.73764E-03   -0.95571E-03 11664   0.127E-01    0.119E-01
RMM:  10    -0.643416647210E+03   -0.23456E-03   -0.44916E-03 10863   0.870E-02    0.546E-02
RMM:  11    -0.643416859118E+03   -0.21191E-03   -0.26277E-03 10494   0.550E-02    0.358E-02
RMM:  12    -0.643416969848E+03   -0.11073E-03   -0.13702E-03  9470   0.376E-02    0.171E-02
RMM:  13    -0.643417043219E+03   -0.73371E-04   -0.78932E-04  8212   0.286E-02    0.104E-02
RMM:  14    -0.643417083648E+03   -0.40429E-04   -0.42538E-04  6540   0.202E-02    0.682E-03
RMM:  15    -0.643417109338E+03   -0.25690E-04   -0.25231E-04  5783   0.151E-02    0.490E-03
RMM:  16    -0.643417125456E+03   -0.16118E-04   -0.14479E-04  5574   0.122E-02    0.323E-03
RMM:  17    -0.643417135161E+03   -0.97050E-05   -0.88746E-05  5470   0.986E-03
   8 F= -.64341714E+03 E0= -.64335066E+03  d E =-.286678E+00
       N       E                     dE             d eps       ncg     rms          rms(c)
DAV:   1    -0.643415646959E+03    0.14785E-02   -0.40385E+00  9016   0.672E+00    0.126E+00
RMM:   2    -0.643435514761E+03   -0.19868E-01   -0.65125E-01 11190   0.240E+00    0.768E-01
RMM:   3    -0.643433018884E+03    0.24959E-02   -0.14230E-01 11363   0.101E+00    0.412E-01
RMM:   4    -0.643431402365E+03    0.16165E-02   -0.24860E-02 11436   0.361E-01    0.252E-01
RMM:   5    -0.643430879482E+03    0.52288E-03   -0.78097E-03 11298   0.211E-01    0.187E-01
RMM:   6    -0.643430484445E+03    0.39504E-03   -0.32382E-03 10465   0.127E-01    0.867E-02
RMM:   7    -0.643430524419E+03   -0.39974E-04   -0.13011E-03 11410   0.740E-02    0.608E-02
RMM:   8    -0.643430526883E+03   -0.24643E-05   -0.50002E-04 10349   0.413E-02    0.271E-02
RMM:   9    -0.643430555320E+03   -0.28437E-04   -0.25858E-04  8814   0.254E-02    0.205E-02
RMM:  10    -0.643430567785E+03   -0.12465E-04   -0.11969E-04  6957   0.202E-02    0.962E-03
RMM:  11    -0.643430574645E+03   -0.68604E-05   -0.63658E-05  5813   0.145E-02
   9 F= -.64343057E+03 E0= -.64336338E+03  d E =-.300117E+00
       N       E                     dE             d eps       ncg     rms          rms(c)
DAV:   1    -0.641972956472E+03    0.14576E+01   -0.10130E+02  8232   0.348E+01    0.261E+00
RMM:   2    -0.643448404221E+03   -0.14754E+01   -0.16755E+01 11815   0.110E+01    0.154E+00
RMM:   3    -0.643679153809E+03   -0.23075E+00   -0.25497E+00 11735   0.370E+00    0.109E+00
RMM:   4    -0.643688730093E+03   -0.95763E-02   -0.31381E-01 11949   0.138E+00    0.729E-01
RMM:   5    -0.643689652274E+03   -0.92218E-03   -0.11380E-01 11730   0.673E-01    0.527E-01
RMM:   6    -0.643687555642E+03    0.20966E-02   -0.51051E-02 10779   0.447E-01    0.257E-01
RMM:   7    -0.643688423479E+03   -0.86784E-03   -0.20675E-02 11396   0.239E-01    0.129E-01
RMM:   8    -0.643689095875E+03   -0.67240E-03   -0.95360E-03 11453   0.143E-01    0.832E-02
RMM:   9    -0.643689475571E+03   -0.37970E-03   -0.47903E-03 11272   0.865E-02    0.554E-02
RMM:  10    -0.643689697525E+03   -0.22195E-03   -0.26832E-03 10602   0.561E-02    0.299E-02
RMM:  11    -0.643689829870E+03   -0.13235E-03   -0.14181E-03  9241   0.383E-02    0.199E-02
RMM:  12    -0.643689908696E+03   -0.78826E-04   -0.82019E-04  8096   0.267E-02    0.110E-02
RMM:  13    -0.643689951696E+03   -0.43000E-04   -0.44715E-04  6492   0.206E-02    0.632E-03
RMM:  14    -0.643689976395E+03   -0.24699E-04   -0.25787E-04  5777   0.151E-02    0.418E-03
RMM:  15    -0.643689990573E+03   -0.14178E-04   -0.15036E-04  5580   0.115E-02    0.282E-03
RMM:  16    -0.643689998696E+03   -0.81237E-05   -0.89824E-05  5438   0.928E-03
  10 F= -.64369000E+03 E0= -.64363021E+03  d E =-.259424E+00
       N       E                     dE             d eps       ncg     rms          rms(c)
DAV:   1    -0.643680618147E+03    0.93724E-02   -0.64439E-01  9800   0.278E+00    0.213E-01
RMM:   2    -0.643689842830E+03   -0.92247E-02   -0.10632E-01 11743   0.880E-01    0.112E-01
RMM:   3    -0.643691564535E+03   -0.17217E-02   -0.17412E-02 11782   0.304E-01    0.885E-02
RMM:   4    -0.643691649204E+03   -0.84669E-04   -0.22393E-03 11762   0.115E-01    0.549E-02
RMM:   5    -0.643691674399E+03   -0.25194E-04   -0.80032E-04 10843   0.569E-02    0.405E-02
RMM:   6    -0.643691672993E+03    0.14060E-05   -0.34842E-04  9634   0.385E-02    0.200E-02
RMM:   7    -0.643691686300E+03   -0.13308E-04   -0.17277E-04  8034   0.239E-02    0.104E-02
RMM:   8    -0.643691693068E+03   -0.67680E-05   -0.75196E-05  6103   0.189E-02
  11 F= -.64369169E+03 E0= -.64363244E+03  d E =-.261118E+00
       N       E                     dE             d eps       ncg     rms          rms(c)
DAV:   1    -0.643427686797E+03    0.26400E+00   -0.27601E+01  8624   0.174E+01    0.121E+00
RMM:   2    -0.643747362193E+03   -0.31968E+00   -0.36220E+00 11539   0.507E+00    0.721E-01
RMM:   3    -0.643807599807E+03   -0.60238E-01   -0.58016E-01 11572   0.183E+00    0.597E-01
RMM:   4    -0.643807939428E+03   -0.33962E-03   -0.69569E-02 11800   0.676E-01    0.327E-01
RMM:   5    -0.643808359318E+03   -0.41989E-03   -0.29005E-02 11424   0.352E-01    0.253E-01
RMM:   6    -0.643808179598E+03    0.17972E-03   -0.11317E-02 11052   0.205E-01    0.127E-01
RMM:   7    -0.643808434085E+03   -0.25449E-03   -0.51089E-03 11334   0.109E-01    0.728E-02
RMM:   8    -0.643808548758E+03   -0.11467E-03   -0.23396E-03 11100   0.693E-02    0.392E-02
RMM:   9    -0.643808658137E+03   -0.10938E-03   -0.13315E-03 10289   0.444E-02    0.299E-02
RMM:  10    -0.643808707373E+03   -0.49236E-04   -0.63136E-04  8958   0.327E-02    0.146E-02
RMM:  11    -0.643808743363E+03   -0.35990E-04   -0.39309E-04  6925   0.204E-02    0.977E-03
RMM:  12    -0.643808761338E+03   -0.17975E-04   -0.19223E-04  5920   0.184E-02    0.538E-03
RMM:  13    -0.643808772911E+03   -0.11573E-04   -0.12163E-04  5638   0.120E-02    0.334E-03
RMM:  14    -0.643808778925E+03   -0.60133E-05   -0.62001E-05  5481   0.999E-03
  12 F= -.64380878E+03 E0= -.64375178E+03  d E =-.117086E+00
       N       E                     dE             d eps       ncg     rms          rms(c)
DAV:   1    -0.643721246925E+03    0.87526E-01   -0.68822E+00  8400   0.875E+00    0.620E-01
RMM:   2    -0.643806672380E+03   -0.85425E-01   -0.96163E-01 11562   0.268E+00    0.358E-01
RMM:   3    -0.643824983782E+03   -0.18311E-01   -0.17580E-01 11678   0.950E-01    0.304E-01
RMM:   4    -0.643825116749E+03   -0.13297E-03   -0.18294E-02 11838   0.347E-01    0.173E-01
RMM:   5    -0.643825206877E+03   -0.90128E-04   -0.75741E-03 11392   0.179E-01    0.128E-01
RMM:   6    -0.643825173532E+03    0.33345E-04   -0.30204E-03 10866   0.106E-01    0.659E-02
RMM:   7    -0.643825237095E+03   -0.63563E-04   -0.13403E-03 10772   0.571E-02    0.374E-02
RMM:   8    -0.643825266950E+03   -0.29855E-04   -0.63271E-04  9836   0.376E-02    0.209E-02
RMM:   9    -0.643825295539E+03   -0.28588E-04   -0.35920E-04  8375   0.265E-02    0.155E-02
RMM:  10    -0.643825309518E+03   -0.13980E-04   -0.17752E-04  6709   0.206E-02    0.763E-03
RMM:  11    -0.643825318865E+03   -0.93464E-05   -0.10419E-04  5794   0.142E-02    0.502E-03
RMM:  12    -0.643825323935E+03   -0.50705E-05   -0.54137E-05  5539   0.109E-02
  13 F= -.64382532E+03 E0= -.64376938E+03  d E =-.133631E+00
       N       E                     dE             d eps       ncg     rms          rms(c)
DAV:   1    -0.643764633335E+03    0.60686E-01   -0.90262E+00  8624   0.963E+00    0.924E-01
RMM:   2    -0.643847876150E+03   -0.83243E-01   -0.10737E+00 11484   0.290E+00    0.570E-01
RMM:   3    -0.643863743266E+03   -0.15867E-01   -0.20683E-01 11913   0.111E+00    0.397E-01
RMM:   4    -0.643863600261E+03    0.14301E-03   -0.29482E-02 11871   0.404E-01    0.266E-01
RMM:   5    -0.643863287844E+03    0.31242E-03   -0.10323E-02 11622   0.212E-01    0.160E-01
RMM:   6    -0.643863122415E+03    0.16543E-03   -0.46056E-03 10775   0.129E-01    0.937E-02
RMM:   7    -0.643863162805E+03   -0.40390E-04   -0.19866E-03 11129   0.803E-02    0.513E-02
RMM:   8    -0.643863216640E+03   -0.53835E-04   -0.98842E-04 10678   0.460E-02    0.267E-02
RMM:   9    -0.643863250431E+03   -0.33791E-04   -0.46623E-04  8952   0.291E-02    0.180E-02
RMM:  10    -0.643863268184E+03   -0.17753E-04   -0.24969E-04  7185   0.214E-02    0.895E-03
RMM:  11    -0.643863279417E+03   -0.11233E-04   -0.13178E-04  6031   0.166E-02    0.634E-03
RMM:  12    -0.643863285183E+03   -0.57661E-05   -0.72400E-05  5637   0.118E-02
  14 F= -.64386329E+03 E0= -.64380764E+03  d E =-.379612E-01
       N       E                     dE             d eps       ncg     rms          rms(c)
DAV:   1    -0.643848549324E+03    0.14730E-01   -0.15526E+00  9016   0.400E+00    0.390E-01
RMM:   2    -0.643864742238E+03   -0.16193E-01   -0.20362E-01 11647   0.128E+00    0.239E-01
RMM:   3    -0.643867538303E+03   -0.27961E-02   -0.36754E-02 11889   0.450E-01    0.167E-01
RMM:   4    -0.643867502948E+03    0.35355E-04   -0.52902E-03 11871   0.169E-01    0.113E-01
RMM:   5    -0.643867448449E+03    0.54499E-04   -0.18456E-03 11431   0.884E-02    0.693E-02
RMM:   6    -0.643867416105E+03    0.32344E-04   -0.86506E-04 10354   0.559E-02    0.402E-02
RMM:   7    -0.643867423073E+03   -0.69678E-05   -0.37830E-04 10076   0.370E-02    0.216E-02
RMM:   8    -0.643867432875E+03   -0.98018E-05   -0.19628E-04  8043   0.233E-02    0.113E-02
RMM:   9    -0.643867438634E+03   -0.57594E-05   -0.92328E-05  6274   0.165E-02
  15 F= -.64386744E+03 E0= -.64381190E+03  d E =-.421147E-01
       N       E                     dE             d eps       ncg     rms          rms(c)
DAV:   1    -0.643802300047E+03    0.65133E-01   -0.10111E+01  8288   0.104E+01    0.163E+00
RMM:   2    -0.643875073052E+03   -0.72773E-01   -0.14989E+00 11411   0.354E+00    0.913E-01
RMM:   3    -0.643881285576E+03   -0.62125E-02   -0.28804E-01 11161   0.138E+00    0.546E-01
RMM:   4    -0.643878779380E+03    0.25062E-02   -0.49603E-02 11428   0.513E-01    0.294E-01
RMM:   5    -0.643878451157E+03    0.32822E-03   -0.16747E-02 11327   0.294E-01    0.195E-01
RMM:   6    -0.643878206415E+03    0.24474E-03   -0.61294E-03 11223   0.164E-01    0.859E-02
RMM:   7    -0.643878373595E+03   -0.16718E-03   -0.25534E-03 11414   0.863E-02    0.572E-02
RMM:   8    -0.643878447901E+03   -0.74306E-04   -0.10722E-03 10703   0.481E-02    0.335E-02
RMM:   9    -0.643878502960E+03   -0.55059E-04   -0.55684E-04  9292   0.311E-02    0.245E-02
RMM:  10    -0.643878534375E+03   -0.31415E-04   -0.29465E-04  7680   0.235E-02    0.969E-03
RMM:  11    -0.643878550361E+03   -0.15986E-04   -0.15622E-04  6242   0.192E-02    0.717E-03
RMM:  12    -0.643878557790E+03   -0.74284E-05   -0.83377E-05  5688   0.127E-02
  16 F= -.64387856E+03 E0= -.64382436E+03  d E =-.111192E-01
       N       E                     dE             d eps       ncg     rms          rms(c)
DAV:   1    -0.643874266108E+03    0.42843E-02   -0.10187E+00  9016   0.332E+00    0.519E-01
RMM:   2    -0.643881384920E+03   -0.71188E-02   -0.14968E-01 11358   0.112E+00    0.292E-01
RMM:   3    -0.643882177897E+03   -0.79298E-03   -0.30298E-02 11190   0.445E-01    0.174E-01
RMM:   4    -0.643881876661E+03    0.30124E-03   -0.48113E-03 11420   0.162E-01    0.928E-02
RMM:   5    -0.643881814615E+03    0.62046E-04   -0.15837E-03 11117   0.920E-02    0.623E-02
RMM:   6    -0.643881769184E+03    0.45431E-04   -0.56151E-04 10697   0.532E-02    0.282E-02
RMM:   7    -0.643881773483E+03   -0.42983E-05   -0.22904E-04  9761   0.295E-02    0.191E-02
RMM:   8    -0.643881773701E+03   -0.21881E-06   -0.91401E-05  6948   0.202E-02
  17 F= -.64388177E+03 E0= -.64382715E+03  d E =-.143351E-01
       N       E                     dE             d eps       ncg     rms          rms(c)
DAV:   1    -0.643837153121E+03    0.44620E-01   -0.37485E+00  8260   0.630E+00    0.466E-01
RMM:   2    -0.643882580204E+03   -0.45427E-01   -0.51873E-01 11765   0.199E+00    0.241E-01
RMM:   3    -0.643891237737E+03   -0.86575E-02   -0.86102E-02 11937   0.661E-01    0.192E-01
RMM:   4    -0.643891562003E+03   -0.32427E-03   -0.10185E-02 11993   0.245E-01    0.119E-01
RMM:   5    -0.643891642839E+03   -0.80836E-04   -0.37071E-03 11554   0.125E-01    0.969E-02
RMM:   6    -0.643891609245E+03    0.33595E-04   -0.15969E-03 10839   0.750E-02    0.536E-02
RMM:   7    -0.643891631291E+03   -0.22046E-04   -0.69096E-04 10470   0.443E-02    0.292E-02
RMM:   8    -0.643891643721E+03   -0.12431E-04   -0.31092E-04  9122   0.296E-02    0.158E-02
RMM:   9    -0.643891655309E+03   -0.11587E-04   -0.17681E-04  7029   0.196E-02    0.104E-02
RMM:  10    -0.643891661105E+03   -0.57964E-05   -0.83049E-05  5868   0.189E-02
  18 F= -.64389166E+03 E0= -.64383768E+03  d E =-.988740E-02
       N       E                     dE             d eps       ncg     rms          rms(c)
DAV:   1    -0.643888105569E+03    0.35497E-02   -0.29432E-01  9044   0.177E+00    0.130E-01
RMM:   2    -0.643891642995E+03   -0.35374E-02   -0.40331E-02 11739   0.552E-01    0.687E-02
RMM:   3    -0.643892319644E+03   -0.67665E-03   -0.68604E-03 11948   0.187E-01    0.533E-02
RMM:   4    -0.643892357890E+03   -0.38246E-04   -0.90205E-04 11534   0.697E-02    0.336E-02
RMM:   5    -0.643892365509E+03   -0.76191E-05   -0.33727E-04 10191   0.374E-02    0.249E-02
RMM:   6    -0.643892365848E+03   -0.33971E-06   -0.15302E-04  8244   0.262E-02    0.136E-02
RMM:   7    -0.643892369869E+03   -0.40209E-05   -0.74181E-05  6366   0.193E-02
  19 F= -.64389237E+03 E0= -.64383857E+03  d E =-.105962E-01
       N       E                     dE             d eps       ncg     rms          rms(c)
DAV:   1    -0.643887788590E+03    0.45773E-02   -0.70701E-01  8540   0.265E+00    0.230E-01
RMM:   2    -0.643894257240E+03   -0.64687E-02   -0.78748E-02 11545   0.813E-01    0.138E-01
RMM:   3    -0.643895357057E+03   -0.10998E-02   -0.13611E-02 11934   0.284E-01    0.102E-01
RMM:   4    -0.643895341069E+03    0.15987E-04   -0.20235E-03 11682   0.107E-01    0.622E-02
RMM:   5    -0.643895336712E+03    0.43574E-05   -0.76202E-04 10785   0.574E-02    0.467E-02
RMM:   6    -0.643895320397E+03    0.16315E-04   -0.36178E-04  9757   0.383E-02    0.213E-02
RMM:   7    -0.643895327986E+03   -0.75892E-05   -0.16219E-04  8596   0.255E-02    0.133E-02
RMM:   8    -0.643895331838E+03   -0.38517E-05   -0.76909E-05  6462   0.167E-02
  20 F= -.64389533E+03 E0= -.64384158E+03  d E =-.296197E-02
       N       E                     dE             d eps       ncg     rms          rms(c)
DAV:   1    -0.643895079793E+03    0.24819E-03   -0.39666E-02  9408   0.628E-01    0.547E-02
RMM:   2    -0.643895457962E+03   -0.37817E-03   -0.45626E-03 11526   0.200E-01    0.334E-02
RMM:   3    -0.643895535229E+03   -0.77267E-04   -0.93946E-04 11705   0.716E-02    0.249E-02
RMM:   4    -0.643895536549E+03   -0.13195E-05   -0.14353E-04  9006   0.283E-02    0.161E-02
RMM:   5    -0.643895536367E+03    0.18151E-06   -0.54649E-05  6430   0.204E-02
  21 F= -.64389554E+03 E0= -.64384179E+03  d E =-.316650E-02
       N       E                     dE             d eps       ncg     rms          rms(c)
DAV:   1    -0.643895218810E+03    0.31774E-03   -0.48468E-01  8792   0.216E+00    0.339E-01
RMM:   2    -0.643896818335E+03   -0.15995E-02   -0.49032E-02 11148   0.688E-01    0.200E-01
RMM:   3    -0.643896895746E+03   -0.77410E-04   -0.10799E-02 11358   0.279E-01    0.125E-01
RMM:   4    -0.643896739221E+03    0.15652E-03   -0.19486E-03 11305   0.100E-01    0.814E-02
RMM:   5    -0.643896663875E+03    0.75346E-04   -0.65223E-04 11016   0.589E-02    0.453E-02
RMM:   6    -0.643896649741E+03    0.14134E-04   -0.29392E-04 10268   0.374E-02    0.229E-02
RMM:   7    -0.643896657945E+03   -0.82040E-05   -0.12170E-04  8390   0.250E-02    0.146E-02
RMM:   8    -0.643896662228E+03   -0.42835E-05   -0.52938E-05  6125   0.168E-02
  22 F= -.64389666E+03 E0= -.64384305E+03  d E =-.112586E-02
       N       E                     dE             d eps       ncg     rms          rms(c)
DAV:   1    -0.643896672314E+03   -0.14369E-04   -0.38114E-03  9856   0.192E-01    0.316E-02
RMM:   2    -0.643896682898E+03   -0.10583E-04   -0.38947E-04 10770   0.617E-02    0.191E-02
RMM:   3    -0.643896681768E+03    0.11299E-05   -0.85350E-05  7297   0.270E-02
  23 F= -.64389668E+03 E0= -.64384307E+03  d E =-.114540E-02
       N       E                     dE             d eps       ncg     rms          rms(c)
DAV:   1    -0.643895038583E+03    0.16443E-02   -0.26936E-01  8848   0.162E+00    0.132E-01
RMM:   2    -0.643897000493E+03   -0.19619E-02   -0.24519E-02 11421   0.464E-01    0.754E-02
RMM:   3    -0.643897377579E+03   -0.37709E-03   -0.44888E-03 11695   0.169E-01    0.593E-02
RMM:   4    -0.643897367991E+03    0.95881E-05   -0.63661E-04 11300   0.623E-02    0.357E-02
RMM:   5    -0.643897363295E+03    0.46954E-05   -0.23413E-04  9697   0.351E-02    0.250E-02
RMM:   6    -0.643897355894E+03    0.74016E-05   -0.11508E-04  7913   0.280E-02    0.121E-02
RMM:   7    -0.643897357430E+03   -0.15368E-05   -0.49949E-05  6189   0.184E-02
  24 F= -.64389736E+03 E0= -.64384375E+03  d E =-.675663E-03
       N       E                     dE             d eps       ncg     rms          rms(c)
DAV:   1    -0.643895528821E+03    0.18271E-02   -0.21333E-01  8820   0.144E+00    0.115E-01
RMM:   2    -0.643897092401E+03   -0.15636E-02   -0.19514E-02 11387   0.412E-01    0.629E-02
RMM:   3    -0.643897408694E+03   -0.31629E-03   -0.36225E-03 11840   0.151E-01    0.501E-02
RMM:   4    -0.643897408648E+03    0.45882E-07   -0.52358E-04 11088   0.556E-02    0.304E-02
RMM:   5    -0.643897408490E+03    0.15775E-06   -0.20130E-04  9603   0.325E-02    0.222E-02
RMM:   6    -0.643897403364E+03    0.51259E-05   -0.99938E-05  7568   0.255E-02
  25 F= -.64389740E+03 E0= -.64384381E+03  d E =-.721596E-03
       N       E                     dE             d eps       ncg     rms          rms(c)
DAV:   1    -0.643897004531E+03    0.40396E-03   -0.52173E-02  9128   0.711E-01    0.559E-02
RMM:   2    -0.643897381864E+03   -0.37733E-03   -0.46478E-03 11367   0.201E-01    0.323E-02
RMM:   3    -0.643897454334E+03   -0.72470E-04   -0.83748E-04 11480   0.730E-02    0.256E-02
RMM:   4    -0.643897450297E+03    0.40364E-05   -0.10849E-04  8343   0.279E-02    0.156E-02
RMM:   5    -0.643897448920E+03    0.13772E-05   -0.34865E-05  5731   0.204E-02
  26 F= -.64389745E+03 E0= -.64384385E+03  d E =-.767152E-03
       N       E                     dE             d eps       ncg     rms          rms(c)
DAV:   1    -0.643897544235E+03   -0.93937E-04   -0.41354E-02  9016   0.614E-01    0.885E-02
RMM:   2    -0.643897734588E+03   -0.19035E-03   -0.41809E-03 11208   0.189E-01    0.518E-02
RMM:   3    -0.643897759318E+03   -0.24730E-04   -0.77504E-04 11076   0.739E-02    0.390E-02
RMM:   4    -0.643897732677E+03    0.26641E-04   -0.15370E-04  9041   0.303E-02    0.221E-02
RMM:   5    -0.643897724875E+03    0.78016E-05   -0.57800E-05  7031   0.241E-02
  27 F= -.64389772E+03 E0= -.64384414E+03  d E =-.275955E-03
       N       E                     dE             d eps       ncg     rms          rms(c)
DAV:   1    -0.643897716415E+03    0.16262E-04   -0.84161E-03  9016   0.275E-01    0.406E-02
RMM:   2    -0.643897761544E+03   -0.45129E-04   -0.90389E-04 11141   0.876E-02    0.274E-02
RMM:   3    -0.643897765877E+03   -0.43329E-05   -0.17854E-04  9254   0.357E-02    0.205E-02
RMM:   4    -0.643897758966E+03    0.69113E-05   -0.40575E-05  6054   0.199E-02
  28 F= -.64389776E+03 E0= -.64384417E+03  d E =-.310046E-03
       N       E                     dE             d eps       ncg     rms          rms(c)
DAV:   1    -0.643897795540E+03   -0.29663E-04   -0.14552E-02  9016   0.347E-01    0.474E-02
RMM:   2    -0.643897862322E+03   -0.66782E-04   -0.12901E-03 11180   0.109E-01    0.303E-02
RMM:   3    -0.643897866802E+03   -0.44797E-05   -0.26252E-04 10460   0.427E-02    0.183E-02
RMM:   4    -0.643897866602E+03    0.19985E-06   -0.60442E-05  6882   0.207E-02
  29 F= -.64389787E+03 E0= -.64384429E+03  d E =-.107637E-03
       N       E                     dE             d eps       ncg     rms          rms(c)
DAV:   1    -0.643897706893E+03    0.15991E-03   -0.42298E-02  8736   0.591E-01    0.824E-02
RMM:   2    -0.643897884713E+03   -0.17782E-03   -0.37245E-03 11326   0.185E-01    0.466E-02
RMM:   3    -0.643897906685E+03   -0.21972E-04   -0.72937E-04 11234   0.707E-02    0.305E-02
RMM:   4    -0.643897903756E+03    0.29286E-05   -0.15239E-04  8938   0.290E-02    0.206E-02
RMM:   5    -0.643897903460E+03    0.29600E-06   -0.57172E-05  6896   0.240E-02
  30 F= -.64389790E+03 E0= -.64384436E+03  d E =-.144494E-03
       N       E                     dE             d eps       ncg     rms          rms(c)
DAV:   1    -0.643897902617E+03    0.11390E-05   -0.39198E-03  9016   0.182E-01    0.243E-02
RMM:   2    -0.643897919475E+03   -0.16858E-04   -0.33611E-04 10838   0.547E-02    0.140E-02
RMM:   3    -0.643897920934E+03   -0.14588E-05   -0.65417E-05  6589   0.232E-02
  31 F= -.64389792E+03 E0= -.64384436E+03  d E =-.161968E-03
       N       E                     dE             d eps       ncg     rms          rms(c)
DAV:   1    -0.643897922449E+03   -0.29745E-05   -0.42585E-03  9016   0.192E-01    0.195E-02
RMM:   2    -0.643897950494E+03   -0.28044E-04   -0.37817E-04 10966   0.553E-02    0.139E-02
RMM:   3    -0.643897953148E+03   -0.26544E-05   -0.66719E-05  6391   0.226E-02
  32 F= -.64389795E+03 E0= -.64384439E+03  d E =-.322145E-04
       N       E                     dE             d eps       ncg     rms          rms(c)
DAV:   1    -0.643897955846E+03   -0.53520E-05   -0.75670E-04  9184   0.817E-02    0.103E-02
RMM:   2    -0.643897963594E+03   -0.77487E-05   -0.10037E-04  8133   0.268E-02    0.993E-03
RMM:   3    -0.643897961391E+03    0.22038E-05   -0.13861E-05  5002   0.146E-02
  33 F= -.64389796E+03 E0= -.64384441E+03  d E =-.404570E-04
       N       E                     dE             d eps       ncg     rms          rms(c)
DAV:   1    -0.643897952303E+03    0.11292E-04   -0.28722E-03  9016   0.157E-01    0.151E-02
RMM:   2    -0.643897973847E+03   -0.21545E-04   -0.28268E-04 10818   0.486E-02    0.922E-03
RMM:   3    -0.643897976033E+03   -0.21860E-05   -0.47461E-05  5892   0.194E-02
  34 F= -.64389798E+03 E0= -.64384442E+03  d E =-.550994E-04
       N       E                     dE             d eps       ncg     rms          rms(c)
DAV:   1    -0.643898002102E+03   -0.28255E-04   -0.62600E-04  9184   0.821E-02    0.213E-02
RMM:   2    -0.643898000566E+03    0.15358E-05   -0.11077E-04  9141   0.298E-02    0.135E-02
RMM:   3    -0.643897995224E+03    0.53425E-05   -0.15510E-05  4881   0.156E-02
  35 F= -.64389800E+03 E0= -.64384443E+03  d E =-.191906E-04
       N       E                     dE             d eps       ncg     rms          rms(c)
DAV:   1    -0.643898021068E+03   -0.20502E-04   -0.12778E-03  9016   0.117E-01    0.311E-02
RMM:   2    -0.643898016200E+03    0.48681E-05   -0.20832E-04 10382   0.439E-02    0.206E-02
RMM:   3    -0.643898009227E+03    0.69733E-05   -0.43432E-05  5917   0.214E-02
  36 F= -.64389801E+03 E0= -.64384444E+03  d E =-.331937E-04
       N       E                     dE             d eps       ncg     rms          rms(c)
DAV:   1    -0.643898035896E+03   -0.19696E-04   -0.50617E-03  9016   0.229E-01    0.594E-02
RMM:   2    -0.643898016485E+03    0.19411E-04   -0.76215E-04 10822   0.847E-02    0.369E-02
RMM:   3    -0.643897994040E+03    0.22445E-04   -0.16654E-04  9310   0.374E-02    0.223E-02
RMM:   4    -0.643897986910E+03    0.71305E-05   -0.45047E-05  6128   0.197E-02
  37 F= -.64389799E+03 E0= -.64384442E+03  d E =-.108769E-04
       N       E                     dE             d eps       ncg     rms          rms(c)
DAV:   1    -0.643898013815E+03   -0.19774E-04   -0.23571E-03  9016   0.156E-01    0.357E-02
RMM:   2    -0.643898011330E+03    0.24843E-05   -0.33626E-04 10502   0.579E-02    0.236E-02
RMM:   3    -0.643898001895E+03    0.94357E-05   -0.66609E-05  6932   0.244E-02
  38 F= -.64389800E+03 E0= -.64384445E+03  d E =-.258615E-04
       N       E                     dE             d eps       ncg     rms          rms(c)
DAV:   1    -0.643898004412E+03    0.69186E-05   -0.24840E-04  9016   0.535E-02    0.182E-02
RMM:   2    -0.643898008855E+03   -0.44431E-05   -0.74620E-05  7375   0.233E-02
  39 F= -.64389801E+03 E0= -.64384445E+03  d E =-.328217E-04
       N       E                     dE             d eps       ncg     rms          rms(c)
DAV:   1    -0.643897999487E+03    0.49241E-05   -0.95332E-04  9016   0.105E-01    0.104E-02
RMM:   2    -0.643898014052E+03   -0.14565E-04   -0.14257E-04  8927   0.312E-02    0.141E-02
RMM:   3    -0.643898010246E+03    0.38063E-05   -0.18044E-05  5051   0.173E-02
  40 F= -.64389801E+03 E0= -.64384445E+03  d E =-.139143E-05
       N       E                     dE             d eps       ncg     rms          rms(c)
DAV:   1    -0.643898011831E+03    0.22216E-05   -0.33919E-05  8036   0.201E-02    0.243E-03
RMM:   2    -0.643898012850E+03   -0.10196E-05   -0.57327E-06  4004   0.906E-03
  41 F= -.64389801E+03 E0= -.64384446E+03  d E =-.399561E-05
       N       E                     dE             d eps       ncg     rms          rms(c)
DAV:   1    -0.643898013695E+03   -0.18645E-05   -0.97547E-05  9632   0.336E-02    0.245E-03
RMM:   2    -0.643898015321E+03   -0.16261E-05   -0.13893E-05  5056   0.108E-02
  42 F= -.64389802E+03 E0= -.64384446E+03  d E =-.646668E-05
       N       E                     dE             d eps       ncg     rms          rms(c)
DAV:   1    -0.643898012693E+03    0.10024E-05   -0.37075E-04  9016   0.649E-02    0.436E-03
RMM:   2    -0.643898018347E+03   -0.56544E-05   -0.57899E-05  6918   0.209E-02
  43 F= -.64389802E+03 E0= -.64384447E+03  d E =-.949261E-05
       N       E                     dE             d eps       ncg     rms          rms(c)
DAV:   1    -0.643898016410E+03   -0.37170E-05   -0.13890E-04  9016   0.413E-02    0.309E-03
RMM:   2    -0.643898017443E+03   -0.10330E-05   -0.11444E-05  4082   0.939E-03
  44 F= -.64389802E+03 E0= -.64384446E+03  d E =-.858817E-05
       N       E                     dE             d eps       ncg     rms          rms(c)
DAV:   1    -0.643898018098E+03   -0.16885E-05   -0.66170E-05  9016   0.287E-02    0.240E-03
RMM:   2    -0.643898018986E+03   -0.88769E-06   -0.75820E-06  4292   0.789E-03
  45 F= -.64389802E+03 E0= -.64384447E+03  d E =-.101314E-04
       N       E                     dE             d eps       ncg     rms          rms(c)
DAV:   1    -0.643898025849E+03   -0.77507E-05   -0.30224E-04  8624   0.557E-02    0.124E-02
RMM:   2    -0.643898026040E+03   -0.19132E-06   -0.44318E-05  6324   0.204E-02
  46 F= -.64389803E+03 E0= -.64384448E+03  d E =-.705432E-05
       N       E                     dE             d eps       ncg     rms          rms(c)
DAV:   1    -0.643898029431E+03   -0.35815E-05   -0.22738E-04  9408   0.493E-02    0.134E-02
RMM:   2    -0.643898030543E+03   -0.11125E-05   -0.47669E-05  6585   0.197E-02
  47 F= -.64389803E+03 E0= -.64384448E+03  d E =-.115571E-04
       N       E                     dE             d eps       ncg     rms          rms(c)
DAV:   1    -0.643898033076E+03   -0.36452E-05   -0.82876E-04  8624   0.941E-02    0.238E-02
RMM:   2    -0.643898033706E+03   -0.63044E-06   -0.13970E-04  9754   0.381E-02    0.151E-02
RMM:   3    -0.643898030758E+03    0.29485E-05   -0.28065E-05  5277   0.179E-02
  48 F= -.64389803E+03 E0= -.64384449E+03  d E =-.117716E-04
