HECN                                    
           1
    11.240000    0.000000    0.000000
     0.000000   11.240000    0.000000
     0.000000    0.000000   11.240000
   Ti   Nb   Hf   N    C    Zr   Mo
     7     6     6    13    19     7     6
Direct configuration=     1
   0.00000000  0.00000000  0.00000000
   0.25000000  0.00000000  0.25000000
   0.25000000  0.50000000  0.25000000
   0.50000000  0.50000000  0.00000000
   0.50000000  0.25000000  0.75000004
   0.00000000  0.50000000  0.50000000
   0.50000000  0.75000004  0.75000004
   0.00000000  0.25000000  0.25000000
   0.75000004  0.75000004  0.00000000
   0.00000000  0.25000000  0.75000004
   0.75000004  0.25000000  0.50000000
   0.00000000  0.75000004  0.75000004
   0.25000000  0.50000000  0.75000004
   0.25000000  0.25000000  0.00000000
   0.50000000  0.25000000  0.25000000
   0.75000004  0.00000000  0.25000000
   0.75000004  0.25000000  0.00000000
   0.25000000  0.75000004  0.00000000
   0.25000000  0.25000000  0.50000000
   0.25000000  0.25000000  0.25000000
   0.25000000  0.00000000  0.00000000
   0.00000000  0.25000000  0.00000000
   0.75000004  0.25000000  0.25000000
   0.75000004  0.00000000  0.00000000
   0.50000000  0.00000000  0.25000000
   0.00000000  0.50000000  0.25000000
   0.50000000  0.75000004  0.00000000
   0.00000000  0.00000000  0.75000004
   0.75000004  0.25000000  0.75000004
   0.75000004  0.00000000  0.50000000
   0.50000000  0.25000000  0.50000000
   0.50000000  0.00000000  0.75000004
   0.00000000  0.00000000  0.25000000
   0.50000000  0.25000000  0.00000000
   0.25000000  0.75000004  0.25000000
   0.25000000  0.50000000  0.00000000
   0.00000000  0.75000004  0.00000000
   0.75000004  0.75000004  0.25000000
   0.75000004  0.50000000  0.00000000
   0.50000000  0.50000000  0.25000000
   0.25000000  0.25000000  0.75000004
   0.25000000  0.00000000  0.50000000
   0.00000000  0.25000000  0.50000000
   0.25000000  0.75000004  0.75000004
   0.25000000  0.50000000  0.50000000
   0.00000000  0.75000004  0.50000000
   0.00000000  0.50000000  0.75000004
   0.75000004  0.75000004  0.75000004
   0.75000004  0.50000000  0.50000000
   0.50000000  0.75000004  0.50000000
   0.50000000  0.50000000  0.75000004
   0.50000000  0.00000000  0.00000000
   0.00000000  0.50000000  0.00000000
   0.50000000  0.75000004  0.25000000
   0.25000000  0.00000000  0.75000004
   0.50000000  0.00000000  0.50000000
   0.75000004  0.00000000  0.75000004
   0.25000000  0.75000004  0.50000000
   0.00000000  0.75000004  0.25000000
   0.75000004  0.50000000  0.25000000
   0.00000000  0.00000000  0.50000000
   0.50000000  0.50000000  0.50000000
   0.75000004  0.50000000  0.75000004
   0.75000004  0.75000004  0.50000000
HECN                                    
           1
     8.118498    0.006072    0.000591
     0.006072    8.132069    0.000666
     0.000591    0.000666    8.109937
   Ti   Nb   Hf   N    C    Zr   Mo
     7     6     6    13    19     7     6
Direct configuration=     2
   0.99972555  0.99788690  0.00160626
   0.24695741  0.99807845  0.25198565
   0.25132214  0.50196190  0.25033033
   0.50068815  0.49914769  0.99983472
   0.49884178  0.25252853  0.75074277
   0.00010312  0.50020687  0.50094710
   0.50042759  0.74750846  0.74797230
   0.99903120  0.24784179  0.25346098
   0.75278211  0.74665706  0.99996908
   0.00149513  0.25241222  0.74658394
   0.75316281  0.25283859  0.50042588
   0.99938668  0.74762268  0.74948850
   0.25051822  0.50002887  0.74945762
   0.25084786  0.25173489  0.99847727
   0.50042297  0.25302436  0.24933916
   0.75306906  0.99790982  0.25134375
   0.74893192  0.25258540  0.99955592
   0.24837623  0.74838094  0.00026521
   0.24829828  0.25038676  0.50143018
   0.25165733  0.24963863  0.24981217
   0.25187758  0.00032220  0.99862973
   0.00008631  0.25129645  0.00015623
   0.74831060  0.24723527  0.24867662
   0.74825832  0.00194060  0.00055397
   0.50264231  0.00118650  0.24960023
   0.99989612  0.49860351  0.24860194
   0.49853458  0.75207337  0.00147589
   0.99928388  0.00018106  0.75050924
   0.75052743  0.24757602  0.75138833
   0.74806888  0.00146976  0.49935294
   0.49891694  0.24792767  0.49748108
   0.50080672  0.00014598  0.75036353
   0.99795033  0.00094604  0.25053419
   0.50023061  0.24799091  0.00220023
   0.25076503  0.75023598  0.24912448
   0.24860648  0.49960096  0.99906057
   0.00028883  0.74907800  0.99930668
   0.74946255  0.75119634  0.24939798
   0.75116919  0.49928388  0.00011354
   0.50092492  0.49901953  0.25074707
   0.24891817  0.24958831  0.75023374
   0.25104264  0.00097912  0.50096812
   0.00014784  0.24947111  0.49986185
   0.24911710  0.75038330  0.75085492
   0.25041630  0.49903632  0.50110275
   0.00007842  0.75048414  0.50059826
   0.00030530  0.49988218  0.75076070
   0.75087524  0.75079258  0.75063711
   0.74946520  0.49944164  0.49993496
   0.49986875  0.75067455  0.49910041
   0.49974580  0.50001588  0.74914833
   0.50010904  0.00100333  0.99944059
   0.99936735  0.50184424  0.99968037
   0.50017126  0.74704235  0.25167036
   0.24875000  0.99991268  0.74816777
   0.49840495  0.99803604  0.50058571
   0.75126434  0.99810468  0.74857093
   0.24967315  0.74965732  0.49977740
   0.99941608  0.75246152  0.25042608
   0.74782190  0.50280221  0.24984035
   0.00163647  0.00016407  0.49784491
   0.50057785  0.50257288  0.50025999
   0.74965413  0.50257293  0.75023785
   0.75052022  0.74738646  0.49999394
HECN                                    
           1
     9.100196    0.004163    0.000405
     0.004163    9.109499    0.000456
     0.000405    0.000456    9.094328
   Ti   Nb   Hf   N    C    Zr   Mo
     7     6     6    13    19     7     6
Direct configuration=     3
   0.99984442  0.99880541  0.00090604
   0.24828164  0.99891281  0.25111998
   0.25074711  0.50110952  0.25018646
   0.50038823  0.49951840  0.99990675
   0.49934693  0.25142905  0.75041908
   0.00005832  0.50011701  0.50053429
   0.50024054  0.74859159  0.74885607
   0.99945244  0.24877975  0.25195231
   0.75156966  0.74811113  0.99998253
   0.00084480  0.25136401  0.74807307
   0.75178662  0.25160573  0.50024045
   0.99965294  0.74865588  0.74971136
   0.25029257  0.50001647  0.74969407
   0.25047920  0.25098097  0.99914108
   0.50023976  0.25170981  0.24962733
   0.75173212  0.99881945  0.25075806
   0.74939782  0.25146119  0.99974954
   0.24908273  0.74908423  0.00014950
   0.24903941  0.25021813  0.50080676
   0.25093558  0.24979625  0.24989408
   0.25106011  0.00018270  0.99922707
   0.00004916  0.25073293  0.00008818
   0.74904527  0.24843647  0.24925330
   0.74901735  0.00109650  0.00031252
   0.50149218  0.00067159  0.24977461
   0.99994085  0.49921047  0.24921127
   0.49917337  0.75117169  0.00083261
   0.99959577  0.00010214  0.75028728
   0.75029705  0.24862992  0.75078314
   0.74891020  0.00083022  0.49963497
   0.49938777  0.24882805  0.49857891
   0.50045552  0.00008280  0.75020512
   0.99884312  0.00053416  0.25030132
   0.50012962  0.24886439  0.00124114
   0.25043197  0.75013364  0.24950613
   0.24921308  0.49977393  0.99946999
   0.00016275  0.74947887  0.99960886
   0.74969695  0.75067612  0.24966041
   0.75065989  0.49959555  0.00006406
   0.50052190  0.49944606  0.25042143
   0.24938909  0.24976692  0.75013183
   0.25058901  0.00055388  0.50054621
   0.00008329  0.24970106  0.49992205
   0.24950168  0.75021644  0.75048228
   0.25023476  0.49945540  0.50062207
   0.00004445  0.75027376  0.50033751
   0.00017235  0.49993352  0.75042915
   0.75049444  0.75044838  0.75035949
   0.74969789  0.49968418  0.49996327
   0.49992609  0.75038127  0.49949254
   0.49985646  0.50000886  0.74951957
   0.50006187  0.00056721  0.99968446
   0.99964341  0.50104235  0.99981974
   0.50009578  0.74832814  0.25094219
   0.24929418  0.99995017  0.74896637
   0.49909884  0.99888926  0.50033029
   0.75071318  0.99892892  0.74919382
   0.24981535  0.74980619  0.49987440
   0.99967114  0.75139136  0.25024043
   0.74877121  0.50158340  0.24990997
   0.00092391  0.00009321  0.49878432
   0.50032709  0.50145467  0.50014678
   0.74980559  0.50145440  0.75013427
   0.75029288  0.74852273  0.49999651
HECN                                    
           1
     9.024947    0.004309    0.000420
     0.004309    9.034577    0.000472
     0.000420    0.000472    9.018872
   Ti   Nb   Hf   N    C    Zr   Mo
     7     6     6    13    19     7     6
Direct configuration=     4
   0.99983627  0.99874256  0.00095390
   0.24819107  0.99885569  0.25117915
   0.25078645  0.50116786  0.25019630
   0.50040874  0.49949304  0.99990183
   0.49931241  0.25150428  0.75044121
   0.00006139  0.50012316  0.50056251
   0.50025331  0.74851748  0.74879566
   0.99942362  0.24871556  0.25205544
   0.75165254  0.74801165  0.99998161
   0.00088929  0.25143575  0.74797129
   0.75188076  0.25169012  0.50025313
   0.99963471  0.74858517  0.74969613
   0.25030800  0.50001732  0.74967790
   0.25050443  0.25103257  0.99909571
   0.50025232  0.25179977  0.24960763
   0.75182353  0.99875723  0.25079810
   0.74936598  0.25153811  0.99973631
   0.24903440  0.74903609  0.00015741
   0.24898873  0.25022966  0.50084937
   0.25098493  0.24978548  0.24988848
   0.25111602  0.00019227  0.99918624
   0.00005171  0.25077149  0.00009283
   0.74899500  0.24835426  0.24921387
   0.74896546  0.00115424  0.00032902
   0.50157084  0.00070684  0.24976269
   0.99993778  0.49916893  0.24916961
   0.49912971  0.75123338  0.00087658
   0.99957444  0.00010754  0.75030245
   0.75031279  0.24855781  0.75082451
   0.74885268  0.00087396  0.49961569
   0.49935555  0.24876643  0.49850386
   0.50047954  0.00008713  0.75021595
   0.99878207  0.00056233  0.25031724
   0.50013651  0.24880463  0.00130670
   0.25045475  0.75014064  0.24948005
   0.24917160  0.49976208  0.99944200
   0.00017136  0.74945145  0.99958820
   0.74968093  0.75071172  0.24964247
   0.75069471  0.49957424  0.00006744
   0.50054945  0.49941688  0.25044369
   0.24935689  0.24975469  0.75013879
   0.25062004  0.00058299  0.50057505
   0.00008770  0.24968532  0.49991793
   0.24947539  0.75022785  0.75050776
   0.25024717  0.49942673  0.50065493
   0.00004678  0.75028815  0.50035533
   0.00018144  0.49993001  0.75045181
   0.75052049  0.75047194  0.75037846
   0.74968198  0.49966758  0.49996134
   0.49992217  0.75040134  0.49946574
   0.49984889  0.50000934  0.74949419
   0.50006511  0.00059705  0.99966779
   0.99962454  0.50109721  0.99981021
   0.50010092  0.74824016  0.25099196
   0.24925697  0.99994759  0.74891178
   0.49905138  0.99883086  0.50034775
   0.75075085  0.99887253  0.74915124
   0.24980562  0.74979600  0.49986777
   0.99965372  0.75146459  0.25025312
   0.74870632  0.50166678  0.24990521
   0.00097264  0.00009807  0.49872011
   0.50034426  0.50153120  0.50015452
   0.74979525  0.50153093  0.75014136
   0.75030840  0.74844498  0.49999633
HECN                                    
           1
     8.986402    0.004384    0.000427
     0.004384    8.996199    0.000480
     0.000427    0.000480    8.980221
   Ti   Nb   Hf   N    C    Zr   Mo
     7     6     6    13    19     7     6
Direct configuration=     5
   0.99983206  0.99871010  0.00097863
   0.24814429  0.99882619  0.25120971
   0.25080676  0.50119799  0.25020138
   0.50041933  0.49947994  0.99989929
   0.49929458  0.25154313  0.75045264
   0.00006297  0.50012634  0.50057708
   0.50025990  0.74847920  0.74876446
   0.99940873  0.24868241  0.25210870
   0.75169535  0.74796027  0.99998113
   0.00091227  0.25147280  0.74791871
   0.75192937  0.25173370  0.50025968
   0.99962530  0.74854866  0.74968826
   0.25031597  0.50001776  0.74966956
   0.25051745  0.25105922  0.99907227
   0.50025880  0.25184623  0.24959746
   0.75187074  0.99872510  0.25081878
   0.74934954  0.25157783  0.99972947
   0.24900944  0.74901123  0.00016149
   0.24896256  0.25023561  0.50087138
   0.25101042  0.24977991  0.24988559
   0.25114489  0.00019720  0.99916515
   0.00005303  0.25079141  0.00009524
   0.74896904  0.24831180  0.24919351
   0.74893866  0.00118407  0.00033755
   0.50161147  0.00072505  0.24975654
   0.99993620  0.49914748  0.24914810
   0.49910715  0.75126524  0.00089930
   0.99956343  0.00011032  0.75031029
   0.75032092  0.24852057  0.75084587
   0.74882297  0.00089656  0.49960574
   0.49933892  0.24873460  0.49846510
   0.50049194  0.00008936  0.75022154
   0.99875054  0.00057687  0.25032546
   0.50014007  0.24877376  0.00134056
   0.25046651  0.75014426  0.24946657
   0.24915017  0.49975596  0.99942754
   0.00017581  0.74943728  0.99957754
   0.74967266  0.75073010  0.24963321
   0.75071270  0.49956323  0.00006919
   0.50056368  0.49940181  0.25045519
   0.24934025  0.24974838  0.75014239
   0.25063606  0.00059802  0.50058995
   0.00008998  0.24967720  0.49991581
   0.24946180  0.75023375  0.75052091
   0.25025358  0.49941192  0.50067190
   0.00004798  0.75029559  0.50036454
   0.00018614  0.49992820  0.75046352
   0.75053394  0.75048411  0.75038827
   0.74967375  0.49965900  0.49996034
   0.49992015  0.75041170  0.49945189
   0.49984498  0.50000959  0.74948108
   0.50006678  0.00061247  0.99965919
   0.99961480  0.50112555  0.99980529
   0.50010357  0.74819472  0.25101767
   0.24923775  0.99994626  0.74888359
   0.49902686  0.99880070  0.50035677
   0.75077031  0.99884340  0.74912925
   0.24980060  0.74979073  0.49986435
   0.99964472  0.75150240  0.25025968
   0.74867280  0.50170985  0.24990276
   0.00099781  0.00010058  0.49868694
   0.50035313  0.50157072  0.50015852
   0.74978991  0.50157046  0.75014501
   0.75031642  0.74840482  0.49999624
HECN                                    
           1
     8.961821    0.006674   -0.000781
     0.006666    8.991769   -0.000156
    -0.000780   -0.000153    8.960272
   Ti   Nb   Hf   N    C    Zr   Mo
     7     6     6    13    19     7     6
Direct configuration=     6
   0.99982307  0.99616159  0.00494640
   0.24199558  0.99663945  0.25292572
   0.25351333  0.50330006  0.25061750
   0.50213255  0.49950892  0.99948533
   0.49823982  0.25601763  0.75066466
   0.00076644  0.49943136  0.50089294
   0.50204932  0.74347560  0.74676156
   0.99809570  0.24426084  0.25847980
   0.75395136  0.74405256  0.99982773
   0.00214888  0.25530058  0.74204303
   0.75683831  0.25631129  0.50113065
   0.99780695  0.74458438  0.74916447
   0.25321423  0.49917287  0.74901247
   0.24953552  0.25052449  0.00053211
   0.50025413  0.25548334  0.25053495
   0.75647557  0.99667435  0.25324491
   0.74980556  0.25369303  0.99838358
   0.24917430  0.74980080  0.00149707
   0.24742049  0.25169989  0.49924890
   0.25129052  0.24950835  0.25003597
   0.24699872  0.00048238  0.00383012
   0.00045776  0.24692570  0.00061821
   0.74811068  0.24741615  0.24896750
   0.75338434  0.00245872  0.00196529
   0.50090148  0.00339840  0.24906470
   0.00205661  0.49895715  0.25432559
   0.49869948  0.74717293  0.99661707
   0.99833922  0.99983480  0.75342043
   0.74696576  0.24947851  0.75086423
   0.75007133  0.00110948  0.49767406
   0.49933807  0.25029969  0.50033368
   0.50220674  0.00016287  0.75047395
   0.00296113  0.99962386  0.24848430
   0.50052197  0.25348276  0.99846899
   0.24601046  0.75030079  0.24752279
   0.25373939  0.49946315  0.00232940
   0.99891452  0.75495974  0.00068511
   0.75364906  0.74787931  0.25113533
   0.74535676  0.50119486  0.00010231
   0.49963416  0.49748051  0.24963954
   0.25168896  0.25223657  0.74977780
   0.24715937  0.00283784  0.49408770
   0.99893767  0.25217639  0.49953172
   0.25205901  0.74769340  0.75221099
   0.24842953  0.49722414  0.49789877
   0.99536277  0.74829044  0.49888756
   0.99839143  0.50006069  0.74347593
   0.74689482  0.74581754  0.74871021
   0.75197952  0.50154296  0.50004805
   0.50456970  0.74575438  0.50625559
   0.50204871  0.50030988  0.75005674
   0.49925089  0.99989190  0.99792932
   0.99847545  0.50197794  0.00248973
   0.50012702  0.74436190  0.25053717
   0.24716334  0.00031142  0.74979058
   0.49743227  0.99764085  0.50221559
   0.75239017  0.99753234  0.74668797
   0.24827129  0.74804225  0.49869336
   0.99933511  0.75732116  0.25039832
   0.74373358  0.50508941  0.24830934
   0.00328142  0.00212381  0.49315768
   0.50210396  0.50528300  0.50049102
   0.74749810  0.50529411  0.75185805
   0.75056729  0.74350319  0.50054914
HECN                                    
           1
     8.950911    0.007690   -0.001317
     0.007680    8.989803   -0.000438
    -0.001315   -0.000434    8.951418
   Ti   Nb   Hf   N    C    Zr   Mo
     7     6     6    13    19     7     6
Direct configuration=     7
   0.99981960  0.99502997  0.00671137
   0.23925927  0.99566912  0.25368864
   0.25471775  0.50423325  0.25080284
   0.50289505  0.49952158  0.99930129
   0.49776987  0.25800479  0.75075906
   0.00107964  0.49912266  0.50103347
   0.50284619  0.74125334  0.74587053
   0.99751217  0.24229766  0.26131375
   0.75495589  0.74231697  0.99975950
   0.00269848  0.25700010  0.73942943
   0.75902270  0.25834357  0.50151854
   0.99699807  0.74282412  0.74893122
   0.25450423  0.49879732  0.74872031
   0.24909862  0.25028718  0.00118144
   0.50025170  0.25709853  0.25095210
   0.75852545  0.99576321  0.25432439
   0.75000821  0.25463225  0.99778495
   0.24924767  0.75015146  0.00209123
   0.24673389  0.25235027  0.49852709
   0.25141523  0.24938773  0.25010287
   0.24515360  0.00060964  0.00590508
   0.00063836  0.24520899  0.00085075
   0.74772874  0.24701850  0.24886688
   0.75536297  0.00302430  0.00268970
   0.50058514  0.00458564  0.24875699
   0.00300069  0.49887255  0.25662892
   0.49851824  0.74535554  0.99471198
   0.99779457  0.99971268  0.75480389
   0.74547235  0.24990429  0.75087223
   0.75062681  0.00120383  0.49681484
   0.49933762  0.25099478  0.50116497
   0.50296997  0.00019533  0.75058633
   0.00483517  0.99920010  0.24766549
   0.50069125  0.25557380  0.99719176
   0.24402704  0.75037075  0.24665783
   0.25578215  0.49933269  0.00362055
   0.99835259  0.75741232  0.00117792
   0.75541928  0.74661293  0.25180370
   0.74297277  0.50192005  0.00011678
   0.49922062  0.49662737  0.24927658
   0.25273402  0.25334125  0.74961584
   0.24561133  0.00383268  0.49119505
   0.99842450  0.25328635  0.49936087
   0.25321536  0.74656504  0.75296290
   0.24761778  0.49625271  0.49666498
   0.99327762  0.74740048  0.49823019
   0.99759221  0.50011952  0.74036741
   0.74527556  0.74374558  0.74796336
   0.75300555  0.50237933  0.50008726
   0.50664005  0.74368584  0.50928233
   0.50302954  0.50044299  0.75031296
   0.49888773  0.99957196  0.99715971
   0.99796842  0.50235667  0.00368385
   0.50013786  0.74265980  0.25032329
   0.24624008  0.00047384  0.75019395
   0.49672279  0.99712602  0.50304235
   0.75311113  0.99694987  0.74560203
   0.24759076  0.74726592  0.49817231
   0.99919665  0.75990518  0.25046016
   0.74153477  0.50659071  0.24760032
   0.00429724  0.00302186  0.49069820
   0.50288282  0.50693136  0.50063916
   0.74647774  0.50694801  0.75262008
   0.75067954  0.74132647  0.50079495
HECN                                    
           1
     9.022231    0.004170    0.000737
     0.004137    9.068936   -0.005281
     0.000741   -0.005259    9.005822
   Ti   Nb   Hf   N    C    Zr   Mo
     7     6     6    13    19     7     6
Direct configuration=     8
   0.99927278  0.99474023  0.00951967
   0.23801467  0.99446920  0.25382066
   0.25742521  0.50480169  0.25052910
   0.50243249  0.50043780  0.99904292
   0.49588478  0.26126718  0.75007993
   0.00266950  0.49871442  0.49875721
   0.50284349  0.73752688  0.74655245
   0.99633519  0.24042307  0.26229210
   0.75444688  0.74274080  0.99996770
   0.00326582  0.26102905  0.73748832
   0.75887513  0.26284902  0.50216192
   0.99653227  0.73864368  0.74772993
   0.25644818  0.49950452  0.74900318
   0.24686092  0.25175675  0.00223996
   0.50129181  0.25477215  0.25187026
   0.75772199  0.99400227  0.25495256
   0.75145566  0.25514817  0.99641010
   0.24840845  0.74891588  0.00022281
   0.24706842  0.25230397  0.49750844
   0.25081526  0.24953193  0.25025172
   0.24391124  0.00061651  0.00772626
   0.00046049  0.24385576  0.00130355
   0.74842874  0.24678893  0.24949522
   0.75690167  0.00357877  0.00279652
   0.50104999  0.00481213  0.24834278
   0.00372644  0.49794351  0.25844965
   0.49883448  0.74415095  0.99373047
   0.99715083  0.00001166  0.75599936
   0.74449370  0.24958908  0.75012599
   0.75080855  0.00194857  0.49667644
   0.50041891  0.25119177  0.50235519
   0.50328516  0.00055384  0.75058459
   0.00574500  0.99898962  0.24648995
   0.50088826  0.25570496  0.99608390
   0.24356762  0.74974487  0.24769129
   0.25579467  0.49930483  0.00516227
   0.99861768  0.75770500  0.00151359
   0.75527514  0.74454221  0.25173463
   0.74260267  0.50152692  0.00066091
   0.49772195  0.49809350  0.24858246
   0.25426086  0.25329524  0.74947355
   0.24445345  0.00270887  0.49034331
   0.00040136  0.25495018  0.50004790
   0.25391457  0.74606895  0.75225992
   0.24752097  0.49773120  0.49501017
   0.99263347  0.74805298  0.49772100
   0.99756135  0.49976563  0.74006863
   0.74429005  0.74308953  0.74842493
   0.75442855  0.50228657  0.49945671
   0.50539466  0.74334294  0.50927799
   0.50379525  0.50019920  0.75030716
   0.50040654  0.00017622  0.99823730
   0.99900840  0.50225716  0.00523786
   0.50146025  0.74463527  0.25140089
   0.24455353  0.00008801  0.74900946
   0.49512730  0.99588455  0.50194861
   0.75461144  0.99469686  0.74486229
   0.24655054  0.74709326  0.49997238
   0.00006883  0.76452405  0.25080203
   0.73655532  0.50823710  0.24535811
   0.00618142  0.00492543  0.48718434
   0.50459523  0.50831782  0.50152671
   0.74355874  0.50902765  0.75527607
   0.75091651  0.73441395  0.50088743
HECN                                    
           1
     9.009603    0.004793    0.000374
     0.004764    9.054924   -0.004423
     0.000377   -0.004404    8.996189
   Ti   Nb   Hf   N    C    Zr   Mo
     7     6     6    13    19     7     6
Direct configuration=     9
   0.99936897  0.99479086  0.00902542
   0.23823340  0.99467989  0.25379749
   0.25694955  0.50470175  0.25057733
   0.50251367  0.50027704  0.99908829
   0.49621568  0.26069475  0.75019908
   0.00239015  0.49878618  0.49915793
   0.50284425  0.73818090  0.74643278
   0.99654212  0.24075210  0.26212004
   0.75453628  0.74266642  0.99993100
   0.00316580  0.26032202  0.73782960
   0.75890076  0.26205816  0.50204826
   0.99661434  0.73937759  0.74794173
   0.25610665  0.49938023  0.74895341
   0.24725396  0.25149886  0.00205343
   0.50110929  0.25518033  0.25170892
   0.75786328  0.99431136  0.25484214
   0.75120130  0.25505764  0.99665208
   0.24855588  0.74913299  0.00055173
   0.24700962  0.25231217  0.49768774
   0.25092065  0.24950665  0.25022549
   0.24412956  0.00061522  0.00740569
   0.00049185  0.24409325  0.00122398
   0.74830581  0.24682912  0.24938468
   0.75663134  0.00348133  0.00277773
   0.50096830  0.00477238  0.24841568
   0.00359909  0.49810636  0.25812932
   0.49877897  0.74436245  0.99390334
   0.99726394  0.99995911  0.75578890
   0.74466561  0.24964454  0.75025732
   0.75077656  0.00181785  0.49670074
   0.50022899  0.25115701  0.50214574
   0.50322976  0.00049089  0.75058488
   0.00558514  0.99902661  0.24669690
   0.50085360  0.25568203  0.99627888
   0.24364841  0.74985466  0.24750944
   0.25579254  0.49930958  0.00489093
   0.99857111  0.75765358  0.00145450
   0.75530060  0.74490569  0.25174697
   0.74266773  0.50159590  0.00056517
   0.49798509  0.49783633  0.24870442
   0.25399264  0.25330322  0.74949865
   0.24465689  0.00290629  0.49049327
   0.00005400  0.25465794  0.49992691
   0.25379175  0.74615604  0.75238372
   0.24753781  0.49747186  0.49530127
   0.99274656  0.74793854  0.49781053
   0.99756679  0.49982777  0.74012125
   0.74446324  0.74320470  0.74834372
   0.75417855  0.50230281  0.49956775
   0.50561346  0.74340321  0.50927873
   0.50366075  0.50024194  0.75030823
   0.50013974  0.00006995  0.99804765
   0.99882578  0.50227441  0.00496441
   0.50122785  0.74428834  0.25121110
   0.24484978  0.00015596  0.74921789
   0.49540763  0.99610267  0.50214116
   0.75434801  0.99509228  0.74499276
   0.24673336  0.74712347  0.49965554
   0.99991530  0.76371324  0.25074146
   0.73742985  0.50794868  0.24575238
   0.00585015  0.00459151  0.48780267
   0.50429435  0.50807426  0.50137044
   0.74407147  0.50866258  0.75480830
   0.75087537  0.73562723  0.50087181
HECN                                    
           1
     8.990328    0.002368    0.000972
     0.002320    9.046366   -0.007166
     0.000977   -0.007144    8.959428
   Ti   Nb   Hf   N    C    Zr   Mo
     7     6     6    13    19     7     6
Direct configuration=    10
   0.99866265  0.99474535  0.01103679
   0.23828421  0.99332524  0.25328933
   0.25992619  0.50527857  0.25054188
   0.50176209  0.50102893  0.99901293
   0.49416192  0.26340748  0.74940279
   0.00461794  0.49843751  0.49581605
   0.50243294  0.73539788  0.74737011
   0.99555786  0.23989086  0.26211366
   0.75443510  0.74332839  0.00020345
   0.00400022  0.26478039  0.73718506
   0.75822494  0.26757462  0.50267554
   0.99610072  0.73491411  0.74630020
   0.25784813  0.49999326  0.74887991
   0.24556539  0.25261911  0.00280278
   0.50229438  0.25359759  0.25217929
   0.75674401  0.99275671  0.25533104
   0.75244476  0.25514585  0.99521809
   0.24779093  0.74813200  0.99917603
   0.24803545  0.25238788  0.49711483
   0.25045929  0.24954941  0.25031668
   0.24422410  0.00058684  0.00788829
   0.00023057  0.24374009  0.00169534
   0.74918301  0.24633599  0.25014214
   0.75700597  0.00398626  0.00241494
   0.50195290  0.00459259  0.24820058
   0.00377619  0.49673556  0.25868475
   0.49887051  0.74440351  0.99401646
   0.99677178  0.00049539  0.75627932
   0.74467333  0.24854159  0.74932873
   0.75056473  0.00292488  0.49723408
   0.50140490  0.25064764  0.50278995
   0.50326987  0.00090589  0.75069713
   0.00467194  0.99940549  0.24605025
   0.50086651  0.25457330  0.99604403
   0.24416903  0.74937205  0.24853221
   0.25468581  0.49939025  0.00571967
   0.99899114  0.75659413  0.00166135
   0.75472377  0.74329486  0.25140863
   0.74365573  0.50089099  0.00116488
   0.49674901  0.49909883  0.24829677
   0.25474147  0.25276717  0.74934855
   0.24431951  0.00164045  0.49117941
   0.00182828  0.25566903  0.50035263
   0.25373493  0.74623329  0.75159876
   0.24834058  0.49905618  0.49439015
   0.99281832  0.74958863  0.49753152
   0.99789768  0.49935253  0.74157042
   0.74446368  0.74351446  0.74927985
   0.75538305  0.50136436  0.49893151
   0.50348746  0.74404924  0.50795450
   0.50377938  0.49978007  0.75044125
   0.50134035  0.00086383  0.99823824
   0.99975132  0.50228841  0.00680313
   0.50162372  0.74629071  0.25205156
   0.24327248  0.99982558  0.74855121
   0.49407729  0.99492822  0.50176970
   0.75568705  0.99262955  0.74426002
   0.24557682  0.74707705  0.50108642
   0.00077575  0.76749310  0.25179653
   0.73195397  0.50936227  0.24312369
   0.00790561  0.00625509  0.48495923
   0.50533446  0.50907282  0.50190365
   0.74081092  0.51054219  0.75803069
   0.75130669  0.72754918  0.50063214
HECN                                    
           1
     8.988789    0.002174    0.001019
     0.002125    9.045683   -0.007385
     0.001025   -0.007362    8.956494
   Ti   Nb   Hf   N    C    Zr   Mo
     7     6     6    13    19     7     6
Direct configuration=    11
   0.99860613  0.99474175  0.01119803
   0.23828825  0.99321698  0.25324857
   0.26016436  0.50532472  0.25053903
   0.50170197  0.50108899  0.99900691
   0.49399767  0.26362420  0.74933904
   0.00479619  0.49840962  0.49554814
   0.50239997  0.73517550  0.74744518
   0.99547909  0.23982202  0.26211313
   0.75442702  0.74338129  0.00022531
   0.00406708  0.26513666  0.73713349
   0.75817099  0.26801544  0.50272596
   0.99605954  0.73455738  0.74616851
   0.25798747  0.50004228  0.74887402
   0.24543031  0.25270861  0.00286289
   0.50238916  0.25347115  0.25221695
   0.75665442  0.99263247  0.25537020
   0.75254425  0.25515289  0.99510313
   0.24772971  0.74805196  0.99906573
   0.24811753  0.25239394  0.49706890
   0.25042237  0.24955282  0.25032400
   0.24423166  0.00058459  0.00792697
   0.00020965  0.24371188  0.00173311
   0.74925318  0.24629662  0.25020285
   0.75703595  0.00402660  0.00238586
   0.50203167  0.00457824  0.24818333
   0.00379032  0.49662604  0.25872924
   0.49887784  0.74440680  0.99402553
   0.99673241  0.00053824  0.75631865
   0.74467392  0.24845343  0.74925427
   0.75054780  0.00301335  0.49727686
   0.50149896  0.25060697  0.50284157
   0.50327309  0.00093906  0.75070613
   0.00459889  0.99943573  0.24599843
   0.50086752  0.25448470  0.99602518
   0.24421067  0.74933352  0.24861418
   0.25459726  0.49939669  0.00578611
   0.99902472  0.75650948  0.00167790
   0.75467759  0.74316612  0.25138147
   0.74373476  0.50083470  0.00121293
   0.49665015  0.49919968  0.24826413
   0.25480137  0.25272434  0.74933650
   0.24429248  0.00153931  0.49123438
   0.00197026  0.25574987  0.50038677
   0.25373040  0.74623944  0.75153584
   0.24840484  0.49918278  0.49431715
   0.99282409  0.74972049  0.49750919
   0.99792413  0.49931459  0.74168657
   0.74446372  0.74353924  0.74935490
   0.75547940  0.50128938  0.49888048
   0.50331739  0.74410079  0.50784838
   0.50378886  0.49974316  0.75045190
   0.50143642  0.00092730  0.99825353
   0.99982536  0.50228959  0.00695052
   0.50165543  0.74645075  0.25211897
   0.24314628  0.99979912  0.74849776
   0.49397084  0.99483434  0.50173990
   0.75579413  0.99243276  0.74420121
   0.24548428  0.74707335  0.50120113
   0.00084467  0.76779519  0.25188120
   0.73151592  0.50947505  0.24291303
   0.00807011  0.00638800  0.48473132
   0.50541769  0.50915265  0.50194641
   0.74055008  0.51069240  0.75828906
   0.75134102  0.72690367  0.50061273
HECN                                    
           1
     8.988788    0.004011   -0.001856
     0.003971    9.063258   -0.005208
    -0.001841   -0.005227    8.947977
   Ti   Nb   Hf   N    C    Zr   Mo