  64  64   0   0
  0.1068044E+02  0.8812897E-09  0.8814614E-09  0.8799443E-09  0.5000000E-15
  1.000000000000000E-004
  CAR 
 HECN                                    
     12.89959833    -38.12790669  301      7.99933286      1.00000000
    -38.128  0.0000E+00  0.0000E+00
    -37.958  0.0000E+00  0.0000E+00
    -37.788  0.0000E+00  0.0000E+00
    -37.618  0.0000E+00  0.0000E+00
    -37.448  0.0000E+00  0.0000E+00
    -37.277  0.0000E+00  0.0000E+00
    -37.107  0.0000E+00  0.0000E+00
    -36.937  0.0000E+00  0.0000E+00
    -36.767  0.0000E+00  0.0000E+00
    -36.597  0.0000E+00  0.0000E+00
    -36.427  0.0000E+00  0.0000E+00
    -36.257  0.1333E-10  0.2267E-11
    -36.087  0.4876E-05  0.8294E-06
    -35.917  0.7791E-02  0.1326E-02
    -35.747  0.1509E+00  0.2698E-01
    -35.577  0.6892E+00  0.1442E+00
    -35.406  0.1093E+01  0.3301E+00
    -35.236  0.1744E+00  0.3598E+00
    -35.066  0.1174E-02  0.3600E+00
    -34.896  0.7730E-07  0.3600E+00
    -34.726  0.2290E-13  0.3600E+00
    -34.556  0.0000E+00  0.3600E+00
    -34.386  0.0000E+00  0.3600E+00
    -34.216  0.0000E+00  0.3600E+00
    -34.046  0.0000E+00  0.3600E+00
    -33.876  0.0000E+00  0.3600E+00
    -33.706  0.0000E+00  0.3600E+00
    -33.535  0.0000E+00  0.3600E+00
    -33.365  0.0000E+00  0.3600E+00
    -33.195  0.0000E+00  0.3600E+00
    -33.025  0.0000E+00  0.3600E+00
    -32.855  0.0000E+00  0.3600E+00
    -32.685  0.0000E+00  0.3600E+00
    -32.515  0.0000E+00  0.3600E+00
    -32.345  0.0000E+00  0.3600E+00
    -32.175  0.0000E+00  0.3600E+00
    -32.005  0.0000E+00  0.3600E+00
    -31.835  0.2163E-10  0.3600E+00
    -31.664  0.7205E-05  0.3600E+00
    -31.494  0.1262E-01  0.3621E+00
    -31.324  0.3381E+00  0.4197E+00
    -31.154  0.9079E+00  0.5741E+00
    -30.984  0.6076E+00  0.6774E+00
    -30.814  0.2388E+00  0.7180E+00
    -30.644  0.1155E-01  0.7200E+00
    -30.474  0.8206E-05  0.7200E+00
    -30.304  0.2884E-10  0.7200E+00
    -30.134  0.0000E+00  0.7200E+00
    -29.964  0.0000E+00  0.7200E+00
    -29.793  0.0000E+00  0.7200E+00
    -29.623  0.0000E+00  0.7200E+00
    -29.453  0.0000E+00  0.7200E+00
    -29.283  0.0000E+00  0.7200E+00
    -29.113  0.0000E+00  0.7200E+00
    -28.943  0.0000E+00  0.7200E+00
    -28.773  0.0000E+00  0.7200E+00
    -28.603  0.0000E+00  0.7200E+00
    -28.433  0.0000E+00  0.7200E+00
    -28.263  0.1535E-12  0.7200E+00
    -28.092  0.2587E-06  0.7200E+00
    -27.922  0.1737E-02  0.7203E+00
    -27.752  0.9521E-01  0.7365E+00
    -27.582  0.3386E+00  0.7941E+00
    -27.412  0.3834E+00  0.8593E+00
    -27.242  0.5102E+00  0.9461E+00
    -27.072  0.3541E+00  0.1006E+01
    -26.902  0.2459E+00  0.1048E+01
    -26.732  0.1825E+00  0.1079E+01
    -26.562  0.4918E-02  0.1080E+01
    -26.392  0.9157E-03  0.1080E+01
    -26.221  0.1024E+00  0.1098E+01
    -26.051  0.3724E+00  0.1161E+01
    -25.881  0.5672E+00  0.1257E+01
    -25.711  0.9451E+00  0.1418E+01
    -25.541  0.4450E+00  0.1494E+01
    -25.371  0.3623E-01  0.1500E+01
    -25.201  0.8464E-04  0.1500E+01
    -25.031  0.1200E-08  0.1500E+01
    -24.861  0.6527E-16  0.1500E+01
    -24.691  0.0000E+00  0.1500E+01
    -24.521  0.0000E+00  0.1500E+01
    -24.350  0.0000E+00  0.1500E+01
    -24.180  0.0000E+00  0.1500E+01
    -24.010  0.0000E+00  0.1500E+01
    -23.840  0.0000E+00  0.1500E+01
    -23.670  0.0000E+00  0.1500E+01
    -23.500  0.0000E+00  0.1500E+01
    -23.330  0.0000E+00  0.1500E+01
    -23.160  0.0000E+00  0.1500E+01
    -22.990  0.0000E+00  0.1500E+01
    -22.820  0.0000E+00  0.1500E+01
    -22.650  0.0000E+00  0.1500E+01
    -22.479  0.0000E+00  0.1500E+01
    -22.309  0.0000E+00  0.1500E+01
    -22.139  0.0000E+00  0.1500E+01
    -21.969  0.0000E+00  0.1500E+01
    -21.799  0.0000E+00  0.1500E+01
    -21.629  0.0000E+00  0.1500E+01
    -21.459  0.0000E+00  0.1500E+01
    -21.289  0.0000E+00  0.1500E+01
    -21.119  0.0000E+00  0.1500E+01
    -20.949  0.0000E+00  0.1500E+01
    -20.779  0.0000E+00  0.1500E+01
    -20.608  0.0000E+00  0.1500E+01
    -20.438  0.0000E+00  0.1500E+01
    -20.268  0.0000E+00  0.1500E+01
    -20.098  0.0000E+00  0.1500E+01
    -19.928  0.0000E+00  0.1500E+01
    -19.758  0.0000E+00  0.1500E+01
    -19.588  0.0000E+00  0.1500E+01
    -19.418  0.0000E+00  0.1500E+01
    -19.248  0.0000E+00  0.1500E+01
    -19.078  0.0000E+00  0.1500E+01
    -18.908  0.0000E+00  0.1500E+01
    -18.737  0.0000E+00  0.1500E+01
    -18.567  0.0000E+00  0.1500E+01
    -18.397  0.0000E+00  0.1500E+01
    -18.227  0.0000E+00  0.1500E+01
    -18.057  0.0000E+00  0.1500E+01
    -17.887  0.0000E+00  0.1500E+01
    -17.717  0.0000E+00  0.1500E+01
    -17.547  0.0000E+00  0.1500E+01
    -17.377  0.0000E+00  0.1500E+01
    -17.207  0.0000E+00  0.1500E+01
    -17.037  0.0000E+00  0.1500E+01
    -16.866  0.0000E+00  0.1500E+01
    -16.696  0.0000E+00  0.1500E+01
    -16.526  0.0000E+00  0.1500E+01
    -16.356  0.0000E+00  0.1500E+01
    -16.186  0.0000E+00  0.1500E+01
    -16.016  0.0000E+00  0.1500E+01
    -15.846  0.0000E+00  0.1500E+01
    -15.676  0.0000E+00  0.1500E+01
    -15.506  0.0000E+00  0.1500E+01
    -15.336  0.0000E+00  0.1500E+01
    -15.166  0.0000E+00  0.1500E+01
    -14.995  0.0000E+00  0.1500E+01
    -14.825  0.0000E+00  0.1500E+01
    -14.655  0.0000E+00  0.1500E+01
    -14.485  0.0000E+00  0.1500E+01
    -14.315  0.0000E+00  0.1500E+01
    -14.145  0.0000E+00  0.1500E+01
    -13.975  0.0000E+00  0.1500E+01
    -13.805  0.0000E+00  0.1500E+01
    -13.635  0.0000E+00  0.1500E+01
    -13.465  0.0000E+00  0.1500E+01
    -13.295  0.0000E+00  0.1500E+01
    -13.124  0.0000E+00  0.1500E+01
    -12.954  0.0000E+00  0.1500E+01
    -12.784  0.0000E+00  0.1500E+01
    -12.614  0.0000E+00  0.1500E+01
    -12.444  0.0000E+00  0.1500E+01
    -12.274  0.0000E+00  0.1500E+01
    -12.104  0.0000E+00  0.1500E+01
    -11.934  0.0000E+00  0.1500E+01
    -11.764  0.0000E+00  0.1500E+01
    -11.594  0.0000E+00  0.1500E+01
    -11.424  0.0000E+00  0.1500E+01
    -11.253  0.0000E+00  0.1500E+01
    -11.083  0.0000E+00  0.1500E+01
    -10.913  0.0000E+00  0.1500E+01
    -10.743  0.0000E+00  0.1500E+01
    -10.573  0.0000E+00  0.1500E+01
    -10.403  0.0000E+00  0.1500E+01
    -10.233  0.0000E+00  0.1500E+01
    -10.063  0.0000E+00  0.1500E+01
     -9.893  0.0000E+00  0.1500E+01
     -9.723  0.0000E+00  0.1500E+01
     -9.553  0.0000E+00  0.1500E+01
     -9.382  0.0000E+00  0.1500E+01
     -9.212  0.0000E+00  0.1500E+01
     -9.042  0.0000E+00  0.1500E+01
     -8.872  0.2937E-11  0.1500E+01
     -8.702  0.6612E-06  0.1500E+01
     -8.532  0.1001E-02  0.1500E+01
     -8.362  0.3281E-01  0.1506E+01
     -8.192  0.7626E-01  0.1519E+01
     -8.022  0.7250E-01  0.1531E+01
     -7.852  0.6876E-01  0.1543E+01
     -7.681  0.1022E+00  0.1560E+01
     -7.511  0.1058E+00  0.1578E+01
     -7.341  0.1266E+00  0.1600E+01
     -7.171  0.2127E+00  0.1636E+01
     -7.001  0.1812E+00  0.1667E+01
     -6.831  0.2149E+00  0.1703E+01
     -6.661  0.1942E+00  0.1736E+01
     -6.491  0.4313E-01  0.1744E+01
     -6.321  0.8840E-01  0.1759E+01
     -6.151  0.8005E-02  0.1760E+01
     -5.981  0.5810E-05  0.1760E+01
     -5.810  0.1784E-10  0.1760E+01
     -5.640  0.4493E-10  0.1760E+01
     -5.470  0.3984E-05  0.1760E+01
     -5.300  0.2012E-02  0.1760E+01
     -5.130  0.3138E-01  0.1766E+01
     -4.960  0.6309E-01  0.1776E+01
     -4.790  0.2191E-01  0.1780E+01
     -4.620  0.4848E-01  0.1788E+01
     -4.450  0.1002E+00  0.1805E+01
     -4.280  0.7824E-01  0.1819E+01
     -4.110  0.1021E+00  0.1836E+01
     -3.939  0.1337E+00  0.1859E+01
     -3.769  0.2054E+00  0.1894E+01
     -3.599  0.2190E+00  0.1931E+01
     -3.429  0.2182E+00  0.1968E+01
     -3.259  0.1981E+00  0.2002E+01
     -3.089  0.2083E+00  0.2037E+01
     -2.919  0.1582E+00  0.2064E+01
     -2.749  0.1398E+00  0.2088E+01
     -2.579  0.1567E+00  0.2115E+01
     -2.409  0.8912E-01  0.2130E+01
     -2.239  0.4169E-01  0.2137E+01
     -2.068  0.1747E-01  0.2140E+01
     -1.898  0.8441E-03  0.2140E+01
     -1.728  0.1032E-05  0.2140E+01
     -1.558  0.7324E-11  0.2140E+01
     -1.388  0.0000E+00  0.2140E+01
     -1.218  0.0000E+00  0.2140E+01
     -1.048  0.0000E+00  0.2140E+01
     -0.878  0.0000E+00  0.2140E+01
     -0.708  0.1492E-15  0.2140E+01
     -0.538  0.8250E-09  0.2140E+01
     -0.368  0.1858E-04  0.2140E+01
     -0.197  0.2853E-02  0.2140E+01
     -0.027  0.1072E-01  0.2142E+01
      0.143  0.3677E-01  0.2149E+01
      0.313  0.8859E-01  0.2164E+01
      0.483  0.9631E-01  0.2180E+01
      0.653  0.1068E+00  0.2198E+01
      0.823  0.1364E+00  0.2221E+01
      0.993  0.1745E+00  0.2251E+01
      1.163  0.2050E+00  0.2286E+01
      1.333  0.2720E+00  0.2332E+01
      1.503  0.2715E+00  0.2378E+01
      1.674  0.2560E+00  0.2422E+01
      1.844  0.2666E+00  0.2467E+01
      2.014  0.3220E+00  0.2522E+01
      2.184  0.3461E+00  0.2581E+01
      2.354  0.3740E+00  0.2645E+01
      2.524  0.3996E+00  0.2712E+01
      2.694  0.4646E+00  0.2792E+01
      2.864  0.5267E+00  0.2881E+01
      3.034  0.5631E+00  0.2977E+01
      3.204  0.5951E+00  0.3078E+01
      3.374  0.5899E+00  0.3178E+01
      3.545  0.5978E+00  0.3280E+01
      3.715  0.5686E+00  0.3377E+01
      3.885  0.5299E+00  0.3467E+01
      4.055  0.5039E+00  0.3553E+01
      4.225  0.4606E+00  0.3631E+01
      4.395  0.4346E+00  0.3705E+01
      4.565  0.3767E+00  0.3769E+01
      4.735  0.3475E+00  0.3828E+01
      4.905  0.2972E+00  0.3879E+01
      5.075  0.2761E+00  0.3926E+01
      5.245  0.2382E+00  0.3966E+01
      5.416  0.2032E+00  0.4001E+01
      5.586  0.1633E+00  0.4028E+01
      5.756  0.1252E+00  0.4050E+01
      5.926  0.6755E-01  0.4061E+01
      6.096  0.1072E+00  0.4079E+01
      6.266  0.1537E+00  0.4106E+01
      6.436  0.1705E+00  0.4135E+01
      6.606  0.1458E+00  0.4159E+01
      6.776  0.2006E+00  0.4194E+01
      6.946  0.2342E+00  0.4233E+01
      7.116  0.2044E+00  0.4268E+01
      7.287  0.1970E+00  0.4302E+01
      7.457  0.2454E+00  0.4343E+01
      7.627  0.2911E+00  0.4393E+01
      7.797  0.2893E+00  0.4442E+01
      7.967  0.2398E+00  0.4483E+01
      8.137  0.2368E+00  0.4523E+01
      8.307  0.2973E+00  0.4574E+01
      8.477  0.3606E+00  0.4635E+01
      8.647  0.4119E+00  0.4705E+01
      8.817  0.4427E+00  0.4780E+01
      8.987  0.4578E+00  0.4858E+01
      9.158  0.4893E+00  0.4941E+01
      9.328  0.5009E+00  0.5027E+01
      9.498  0.5148E+00  0.5114E+01
      9.668  0.5058E+00  0.5200E+01
      9.838  0.4873E+00  0.5283E+01
     10.008  0.4962E+00  0.5368E+01
     10.178  0.5053E+00  0.5454E+01
     10.348  0.4467E+00  0.5530E+01
     10.518  0.3241E+00  0.5585E+01
     10.688  0.8824E-01  0.5600E+01
     10.858  0.2094E-02  0.5600E+01
     11.029  0.7474E-06  0.5600E+01
     11.199  0.1500E-11  0.5600E+01
     11.369  0.0000E+00  0.5600E+01
     11.539  0.0000E+00  0.5600E+01
     11.709  0.0000E+00  0.5600E+01
     11.879  0.0000E+00  0.5600E+01
     12.049  0.0000E+00  0.5600E+01
     12.219  0.0000E+00  0.5600E+01
     12.389  0.0000E+00  0.5600E+01
     12.559  0.0000E+00  0.5600E+01
     12.730  0.0000E+00  0.5600E+01
     12.900  0.0000E+00  0.5600E+01
