       N       E                     dE             d eps       ncg     rms          rms(c)
DAV:   1     0.556788618914E+04    0.55679E+04   -0.17907E+05  8232   0.146E+03
DAV:   2     0.238560388870E+03   -0.53293E+04   -0.51472E+04  7840   0.524E+02
DAV:   3    -0.687829673289E+03   -0.92639E+03   -0.86854E+03 11676   0.185E+02
DAV:   4    -0.786739696480E+03   -0.98910E+02   -0.95648E+02 12628   0.737E+01
DAV:   5    -0.792641816926E+03   -0.59021E+01   -0.57888E+01 11732   0.143E+01    0.734E+01
RMM:   6    -0.815713447572E+03   -0.23072E+02   -0.16281E+03 10445   0.143E+02    0.101E+02
RMM:   7    -0.649108230127E+03    0.16661E+03   -0.30903E+02 10421   0.524E+01    0.453E+01
RMM:   8    -0.654282550932E+03   -0.51743E+01   -0.10915E+02 11492   0.186E+01    0.290E+01
RMM:   9    -0.650783044016E+03    0.34995E+01   -0.31800E+01 11115   0.114E+01    0.224E+01
RMM:  10    -0.647795706031E+03    0.29873E+01   -0.11821E+01 11242   0.630E+00    0.108E+01
RMM:  11    -0.647821963519E+03   -0.26257E-01   -0.59147E+00 10466   0.565E+00    0.174E+01
RMM:  12    -0.646096437140E+03    0.17255E+01   -0.53216E+00 10455   0.537E+00    0.528E+00
RMM:  13    -0.646525873592E+03   -0.42944E+00   -0.29978E+00 11103   0.348E+00    0.892E+00
RMM:  14    -0.646210300028E+03    0.31557E+00   -0.94564E-01 10570   0.248E+00    0.522E+00
RMM:  15    -0.645916681631E+03    0.29362E+00   -0.59209E-01 10503   0.159E+00    0.417E+00
RMM:  16    -0.645821689121E+03    0.94993E-01   -0.40501E-01 11260   0.111E+00    0.140E+00
RMM:  17    -0.645814103719E+03    0.75854E-02   -0.39803E-01 11161   0.928E-01    0.119E+00
RMM:  18    -0.645828716842E+03   -0.14613E-01   -0.18355E-01 12055   0.610E-01    0.101E+00
RMM:  19    -0.645821483573E+03    0.72333E-02   -0.54052E-02 10659   0.318E-01    0.423E-01
RMM:  20    -0.645818152535E+03    0.33310E-02   -0.37639E-02 11103   0.304E-01    0.167E-01
RMM:  21    -0.645820126555E+03   -0.19740E-02   -0.20554E-02 11554   0.190E-01    0.919E-02
RMM:  22    -0.645820777389E+03   -0.65083E-03   -0.10354E-02  9278   0.102E-01    0.465E-02
RMM:  23    -0.645821271395E+03   -0.49401E-03   -0.58508E-03  9590   0.631E-02    0.217E-02
RMM:  24    -0.645821586588E+03   -0.31519E-03   -0.32548E-03  8025   0.445E-02    0.194E-02
RMM:  25    -0.645821741571E+03   -0.15498E-03   -0.16833E-03  6990   0.392E-02    0.141E-02
RMM:  26    -0.645821839411E+03   -0.97840E-04   -0.10749E-03  7386   0.255E-02    0.693E-03
RMM:  27    -0.645821901894E+03   -0.62483E-04   -0.63655E-04  6979   0.337E-02    0.952E-03
RMM:  28    -0.645821938938E+03   -0.37044E-04   -0.39909E-04  5743   0.144E-02    0.547E-03
RMM:  29    -0.645821961220E+03   -0.22282E-04   -0.23532E-04  5505   0.117E-02    0.330E-03
RMM:  30    -0.645821975399E+03   -0.14179E-04   -0.14900E-04  5360   0.789E-03    0.158E-03
RMM:  31    -0.645821984675E+03   -0.92763E-05   -0.93307E-05  5246   0.677E-03
   1 F= -.64582198E+03 E0= -.64576655E+03  d E =-.645822E+03
       N       E                     dE             d eps       ncg     rms          rms(c)
DAV:   1    -0.645821916772E+03    0.58627E-04   -0.23072E-02  9968   0.861E-01    0.145E-01
RMM:   2    -0.645824210194E+03   -0.22934E-02   -0.58132E-03 10023   0.309E-01    0.536E-01
RMM:   3    -0.645822072747E+03    0.21374E-02   -0.18051E-03  8796   0.191E-01    0.894E-02
RMM:   4    -0.645822266168E+03   -0.19342E-03   -0.70080E-04 10266   0.834E-02    0.203E-01
RMM:   5    -0.645822053524E+03    0.21264E-03   -0.19053E-04  7948   0.531E-02    0.385E-02
RMM:   6    -0.645822077459E+03   -0.23935E-04   -0.12093E-04  6687   0.331E-02    0.798E-02
RMM:   7    -0.645822044388E+03    0.33070E-04   -0.33364E-05  5196   0.283E-02    0.244E-02
RMM:   8    -0.645822050725E+03   -0.63364E-05   -0.30260E-05  5217   0.192E-02
   2 F= -.64582205E+03 E0= -.64576664E+03  d E =-.660497E-04
       N       E                     dE             d eps       ncg     rms          rms(c)
DAV:   1    -0.645822042525E+03    0.18633E-05   -0.11756E-03 10948   0.197E-01    0.307E-02
RMM:   2    -0.645822152616E+03   -0.11009E-03   -0.25282E-04  8331   0.652E-02    0.122E-01
RMM:   3    -0.645822052861E+03    0.99755E-04   -0.77000E-05  6112   0.442E-02    0.336E-02
RMM:   4    -0.645822053577E+03   -0.71584E-06   -0.27730E-05  5337   0.218E-02
   3 F= -.64582205E+03 E0= -.64576662E+03  d E =-.689021E-04
       N       E                     dE             d eps       ncg     rms          rms(c)
DAV:   1    -0.645822043232E+03    0.96296E-05   -0.12467E-03 11424   0.196E-01    0.380E-02
RMM:   2    -0.645822214612E+03   -0.17138E-03   -0.31836E-04  8590   0.735E-02    0.157E-01
RMM:   3    -0.645822052815E+03    0.16180E-03   -0.10508E-04  6343   0.526E-02    0.397E-02
RMM:   4    -0.645822051674E+03    0.11404E-05   -0.32472E-05  5497   0.244E-02
   4 F= -.64582205E+03 E0= -.64576661E+03  d E =-.669994E-04
       N       E                     dE             d eps       ncg     rms          rms(c)
DAV:   1    -0.645822013715E+03    0.39100E-04   -0.20834E-03  9856   0.298E-01    0.270E-02
RMM:   2    -0.645822232558E+03   -0.21884E-03   -0.54837E-04  9887   0.750E-02    0.184E-01
RMM:   3    -0.645822061335E+03    0.17122E-03   -0.12721E-04  6550   0.521E-02    0.255E-02
RMM:   4    -0.645822063249E+03   -0.19139E-05   -0.38799E-05  5696   0.232E-02
   5 F= -.64582206E+03 E0= -.64576663E+03  d E =-.115748E-04
