 vasp.6.4.3 19Mar24 (build Sep 18 2024 11:30:23) complex                        
  
 executed on             LinuxIFC date 2026.07.07  06:20:38
 running   28 mpi-ranks, on    1 nodes
 distrk:  each k-point on   28 cores,    1 groups
 distr:  one band on NCORE=   1 cores,   28 groups


--------------------------------------------------------------------------------------------------------


 INCAR:
   SYSTEM = HECN
   ISTART = 0
   ICHARG = 2
   PREC = Normal
   LREAL = .F.
   IBRION = 2
   ISIF = 3
   NSW = 100
   POTIM = 0.5
   EDIFFG = -0.01
   ENCUT = 400
   NELM = 60
   EDIFF = 1E-5
   LCHARG = .F.
   LWAVE = .F.
   ISMEAR = 0
   SIGMA = 0.1
   ALGO = Fast

 POTCAR:   PAW_PBE Zr 08Apr2002                   
 POTCAR:   PAW_PBE Ta_pv 07Sep2000                
 POTCAR:   PAW_PBE Ti_pv 07Sep2000                
 POTCAR:   PAW_PBE N 08Apr2002                    
 POTCAR:   PAW_PBE C 08Apr2002                    
 POTCAR:   PAW_PBE Cr_pv 07Sep2000                
 POTCAR:   PAW_PBE W_pv 06Sep2000                 
 -----------------------------------------------------------------------------
|                                                                             |
|           W    W    AA    RRRRR   N    N  II  N    N   GGGG   !!!           |
|           W    W   A  A   R    R  NN   N  II  NN   N  G    G  !!!           |
|           W    W  A    A  R    R  N N  N  II  N N  N  G       !!!           |
|           W WW W  AAAAAA  RRRRR   N  N N  II  N  N N  G  GGG   !            |
|           WW  WW  A    A  R   R   N   NN  II  N   NN  G    G                |
|           W    W  A    A  R    R  N    N  II  N    N   GGGG   !!!           |
|                                                                             |
|     For optimal performance we recommend to set                             |
|       NCORE = 2 up to number-of-cores-per-socket                            |
|     NCORE specifies how many cores store one orbital (NPAR=cpu/NCORE).      |
|     This setting can greatly improve the performance of VASP for DFT.       |
|     The default, NCORE=1 might be grossly inefficient on modern             |
|     multi-core architectures or massively parallel machines. Do your        |
|     own testing! More info at https://www.vasp.at/wiki/index.php/NCORE      |
|     Unfortunately you need to use the default for GW and RPA                |
|     calculations (for HF NCORE is supported but not extensively tested      |
|     yet).                                                                   |
|                                                                             |
 -----------------------------------------------------------------------------

 POTCAR:   PAW_PBE Zr 08Apr2002                   
   VRHFIN =Zr: 5s4d5p                                                                               
   LEXCH  = PE                                                                                      
   EATOM  =    77.8472 eV,    5.7216 Ry                                                             
                                                                                                    
   TITEL  = PAW_PBE Zr 08Apr2002                                                                    
   LULTRA =        F    use ultrasoft PP ?                                                          
   IUNSCR =        1    unscreen: 0-lin 1-nonlin 2-no                                               
   RPACOR =    2.200    partial core radius                                                         
   POMASS =   91.224; ZVAL   =    4.000    mass and valenz                                          
   RCORE  =    3.000    outmost cutoff radius                                                       
   RWIGS  =    3.070; RWIGS  =    1.625    wigner-seitz radius (au A)                               
   ENMAX  =  154.632; ENMIN  =  115.974 eV                                                          
   RCLOC  =    2.213    cutoff for local pot                                                        
   LCOR   =        T    correct aug charges                                                         
   LPAW   =        T    paw PP                                                                      
   EAUG   =  243.217                                                                                
   DEXC   =    -.082                                                                                
   RMAX   =    3.708    core radius for proj-oper                                                   
   RAUG   =    1.300    factor for augmentation sphere                                              
   RDEP   =    3.146    radius for radial grids                                                     
   QCUT   =   -3.371; QGAM   =    6.742    optimization parameters                                  
                                                                                                    
   Description                                                                                      
     l     E      TYP  RCUT    TYP  RCUT                                                            
     2   .000     23  3.000                                                                         
     2   .000     23  3.000                                                                         
     0   .000     23  3.000                                                                         
     0  2.000     23  3.000                                                                         
     1  -.400     23  3.000                                                                         
     3   .000      7   .000                                                                         
  local pseudopotential read in
  partial core-charges read in
  atomic valenz-charges read in
  non local Contribution for L=           2  read in
    real space projection operators read in
  non local Contribution for L=           2  read in
    real space projection operators read in
  non local Contribution for L=           0  read in
    real space projection operators read in
  non local Contribution for L=           0  read in
    real space projection operators read in
  non local Contribution for L=           1  read in
    real space projection operators read in
    PAW grid and wavefunctions read in
 
   number of l-projection  operators is LMAX  =           5
   number of lm-projection operators is LMMAX =          15
 
 POTCAR:   PAW_PBE Ta_pv 07Sep2000                
   VRHFIN =Ta:  5p6s5d                                                                              
   LEXCH  = PE                                                                                      
   EATOM  =  1045.8051 eV,   76.8645 Ry                                                             
                                                                                                    
   TITEL  = PAW_PBE Ta_pv 07Sep2000                                                                 
   LULTRA =        F    use ultrasoft PP ?                                                          
   IUNSCR =        1    unscreen: 0-lin 1-nonlin 2-no                                               
   RPACOR =    2.330    partial core radius                                                         
   POMASS =  180.948; ZVAL   =   11.000    mass and valenz                                          
   RCORE  =    2.500    outmost cutoff radius                                                       
   RWIGS  =    2.840; RWIGS  =    1.503    wigner-seitz radius (au A)                               
   ENMAX  =  223.675; ENMIN  =  167.756 eV                                                          
   RCLOC  =    2.205    cutoff for local pot                                                        
   LCOR   =        T    correct aug charges                                                         
   LPAW   =        T    paw PP                                                                      
   EAUG   =  377.421                                                                                
   DEXC   =    -.043                                                                                
   RMAX   =    3.083    core radius for proj-oper                                                   
   RAUG   =    1.300    factor for augmentation sphere                                              
   RDEP   =    2.526    radius for radial grids                                                     
   QCUT   =   -4.055; QGAM   =    8.109    optimization parameters                                  
                                                                                                    
   Description                                                                                      
     l     E      TYP  RCUT    TYP  RCUT                                                            
     1   .000     23  2.500                                                                         
     1   .100     23  2.500                                                                         
     2   .000     23  2.500                                                                         
     2   .000     23  2.500                                                                         
     0   .000     23  2.500                                                                         
     0   .000     23  2.500                                                                         
     3   .000      7   .000                                                                         
  local pseudopotential read in
  partial core-charges read in
  atomic valenz-charges read in
  non local Contribution for L=           1  read in
    real space projection operators read in
  non local Contribution for L=           1  read in
    real space projection operators read in
  non local Contribution for L=           2  read in
    real space projection operators read in
  non local Contribution for L=           2  read in
    real space projection operators read in
  non local Contribution for L=           0  read in
    real space projection operators read in
  non local Contribution for L=           0  read in
    real space projection operators read in
    PAW grid and wavefunctions read in
 
   number of l-projection  operators is LMAX  =           6
   number of lm-projection operators is LMMAX =          18
 
 POTCAR:   PAW_PBE Ti_pv 07Sep2000                
   VRHFIN =Ti: d3 s1                                                                                
   LEXCH  = PE                                                                                      
   EATOM  =  1042.3781 eV,   76.6126 Ry                                                             
                                                                                                    
   TITEL  = PAW_PBE Ti_pv 07Sep2000                                                                 
   LULTRA =        F    use ultrasoft PP ?                                                          
   IUNSCR =        1    unscreen: 0-lin 1-nonlin 2-no                                               
   RPACOR =    2.200    partial core radius                                                         
   POMASS =   47.880; ZVAL   =   10.000    mass and valenz                                          
   RCORE  =    2.500    outmost cutoff radius                                                       
   RWIGS  =    2.500; RWIGS  =    1.323    wigner-seitz radius (au A)                               
   ENMAX  =  222.338; ENMIN  =  166.753 eV                                                          
   RCLOC  =    1.701    cutoff for local pot                                                        
   LCOR   =        T    correct aug charges                                                         
   LPAW   =        T    paw PP                                                                      
   EAUG   =  482.848                                                                                
   DEXC   =    -.008                                                                                
   RMAX   =    3.092    core radius for proj-oper                                                   
   RAUG   =    1.300    factor for augmentation sphere                                              
   RDEP   =    2.538    radius for radial grids                                                     
   QCUT   =   -4.042; QGAM   =    8.085    optimization parameters                                  
                                                                                                    
   Description                                                                                      
     l     E      TYP  RCUT    TYP  RCUT                                                            
     1   .000     23  2.300                                                                         
     1  -.100     23  2.300                                                                         
     2   .000     23  2.500                                                                         
     2   .000     23  2.500                                                                         
     0   .000     23  2.500                                                                         
     0  1.500     23  2.500                                                                         
     3   .000      7   .000                                                                         
  local pseudopotential read in
  partial core-charges read in
  atomic valenz-charges read in
  non local Contribution for L=           1  read in
    real space projection operators read in
  non local Contribution for L=           1  read in
    real space projection operators read in
  non local Contribution for L=           2  read in
    real space projection operators read in
  non local Contribution for L=           2  read in
    real space projection operators read in
  non local Contribution for L=           0  read in
    real space projection operators read in
  non local Contribution for L=           0  read in
    real space projection operators read in
    PAW grid and wavefunctions read in
 
   number of l-projection  operators is LMAX  =           6
   number of lm-projection operators is LMMAX =          18
 
 POTCAR:   PAW_PBE N 08Apr2002                    
   VRHFIN =N: s2p3                                                                                  
   LEXCH  = PE                                                                                      
   EATOM  =   264.5486 eV,   19.4438 Ry                                                             
                                                                                                    
   TITEL  = PAW_PBE N 08Apr2002                                                                     
   LULTRA =        F    use ultrasoft PP ?                                                          
   IUNSCR =        0    unscreen: 0-lin 1-nonlin 2-no                                               
   RPACOR =     .000    partial core radius                                                         
   POMASS =   14.001; ZVAL   =    5.000    mass and valenz                                          
   RCORE  =    1.500    outmost cutoff radius                                                       
   RWIGS  =    1.400; RWIGS  =     .741    wigner-seitz radius (au A)                               
   ENMAX  =  400.000; ENMIN  =  300.000 eV                                                          
   ICORE  =        2    local potential                                                             
   LCOR   =        T    correct aug charges                                                         
   LPAW   =        T    paw PP                                                                      
   EAUG   =  627.112                                                                                
   DEXC   =     .000                                                                                
   RMAX   =    2.247    core radius for proj-oper                                                   
   RAUG   =    1.300    factor for augmentation sphere                                              
   RDEP   =    1.514    radius for radial grids                                                     
   QCUT   =   -5.562; QGAM   =   11.124    optimization parameters                                  
                                                                                                    
   Description                                                                                      
     l     E      TYP  RCUT    TYP  RCUT                                                            
     0   .000     23  1.200                                                                         
     0   .000     23  1.200                                                                         
     1   .000     23  1.500                                                                         
     1   .700     23  1.500                                                                         
     2   .000      7  1.500                                                                         
  local pseudopotential read in
  atomic valenz-charges read in
  non local Contribution for L=           0  read in
    real space projection operators read in
  non local Contribution for L=           0  read in
    real space projection operators read in
  non local Contribution for L=           1  read in
    real space projection operators read in
  non local Contribution for L=           1  read in
    real space projection operators read in
    PAW grid and wavefunctions read in
 
   number of l-projection  operators is LMAX  =           4
   number of lm-projection operators is LMMAX =           8
 
 POTCAR:   PAW_PBE C 08Apr2002                    
   VRHFIN =C: s2p2                                                                                  
   LEXCH  = PE                                                                                      
   EATOM  =   147.1560 eV,   10.8157 Ry                                                             
                                                                                                    
   TITEL  = PAW_PBE C 08Apr2002                                                                     
   LULTRA =        F    use ultrasoft PP ?                                                          
   IUNSCR =        0    unscreen: 0-lin 1-nonlin 2-no                                               
   RPACOR =     .000    partial core radius                                                         
   POMASS =   12.011; ZVAL   =    4.000    mass and valenz                                          
   RCORE  =    1.500    outmost cutoff radius                                                       
   RWIGS  =    1.630; RWIGS  =     .863    wigner-seitz radius (au A)                               
   ENMAX  =  400.000; ENMIN  =  300.000 eV                                                          
   ICORE  =        2    local potential                                                             
   LCOR   =        T    correct aug charges                                                         
   LPAW   =        T    paw PP                                                                      
   EAUG   =  644.873                                                                                
   DEXC   =     .000                                                                                
   RMAX   =    2.266    core radius for proj-oper                                                   
   RAUG   =    1.300    factor for augmentation sphere                                              
   RDEP   =    1.501    radius for radial grids                                                     
   RDEPT  =    1.300    core radius for aug-charge                                                  
   QCUT   =   -5.516; QGAM   =   11.032    optimization parameters                                  
                                                                                                    
   Description                                                                                      
     l     E      TYP  RCUT    TYP  RCUT                                                            
     0   .000     23  1.200                                                                         
     0   .000     23  1.200                                                                         
     1   .000     23  1.500                                                                         
     1  2.500     23  1.500                                                                         
     2   .000      7  1.500                                                                         
  local pseudopotential read in
  atomic valenz-charges read in
  non local Contribution for L=           0  read in
    real space projection operators read in
  non local Contribution for L=           0  read in
    real space projection operators read in
  non local Contribution for L=           1  read in
    real space projection operators read in
  non local Contribution for L=           1  read in
    real space projection operators read in
    PAW grid and wavefunctions read in
 
   number of l-projection  operators is LMAX  =           4
   number of lm-projection operators is LMMAX =           8
 
 POTCAR:   PAW_PBE Cr_pv 07Sep2000                
   VRHFIN =Cr : p6d5s1                                                                              
   LEXCH  = PE                                                                                      
   EATOM  =  1647.5667 eV,  121.0927 Ry                                                             
                                                                                                    
   TITEL  = PAW_PBE Cr_pv 07Sep2000                                                                 
   LULTRA =        F    use ultrasoft PP ?                                                          
   IUNSCR =        1    unscreen: 0-lin 1-nonlin 2-no                                               
   RPACOR =    2.080    partial core radius                                                         
   POMASS =   51.996; ZVAL   =   12.000    mass and valenz                                          
   RCORE  =    2.300    outmost cutoff radius                                                       
   RWIGS  =    2.500; RWIGS  =    1.323    wigner-seitz radius (au A)                               
   ENMAX  =  265.683; ENMIN  =  199.262 eV                                                          
   RCLOC  =    1.721    cutoff for local pot                                                        
   LCOR   =        T    correct aug charges                                                         
   LPAW   =        T    paw PP                                                                      
   EAUG   =  519.424                                                                                
   DEXC   =    -.003                                                                                
   RMAX   =    2.829    core radius for proj-oper                                                   
   RAUG   =    1.300    factor for augmentation sphere                                              
   RDEP   =    2.447    radius for radial grids                                                     
   QCUT   =   -4.419; QGAM   =    8.838    optimization parameters                                  
                                                                                                    
   Description                                                                                      
     l     E      TYP  RCUT    TYP  RCUT                                                            
     1   .000     23  2.000                                                                         
     1   .100     23  2.000                                                                         
     2   .000     23  2.300                                                                         
     2   .000     23  2.300                                                                         
     0   .000     23  2.300                                                                         
     0   .000     23  2.300                                                                         
     3   .000      7   .000                                                                         
  local pseudopotential read in
  partial core-charges read in
  atomic valenz-charges read in
  non local Contribution for L=           1  read in
    real space projection operators read in
  non local Contribution for L=           1  read in
    real space projection operators read in
  non local Contribution for L=           2  read in
    real space projection operators read in
  non local Contribution for L=           2  read in
    real space projection operators read in
  non local Contribution for L=           0  read in
    real space projection operators read in
  non local Contribution for L=           0  read in
    real space projection operators read in
    PAW grid and wavefunctions read in
 
   number of l-projection  operators is LMAX  =           6
   number of lm-projection operators is LMMAX =          18
 
 POTCAR:   PAW_PBE W_pv 06Sep2000                 
   VRHFIN =W : 5p6s5d                                                                               
   LEXCH  = PE                                                                                      
   EATOM  =  1260.0376 eV,   92.6101 Ry                                                             
                                                                                                    
   TITEL  = PAW_PBE W_pv 06Sep2000                                                                  
   LULTRA =        F    use ultrasoft PP ?                                                          
   IUNSCR =        1    unscreen: 0-lin 1-nonlin 2-no                                               
   RPACOR =    2.330    partial core radius                                                         
   POMASS =  183.850; ZVAL   =   12.000    mass and valenz                                          
   RCORE  =    2.500    outmost cutoff radius                                                       
   RWIGS  =    2.750; RWIGS  =    1.455    wigner-seitz radius (au A)                               
   ENMAX  =  223.065; ENMIN  =  167.299 eV                                                          
   RCLOC  =    2.147    cutoff for local pot                                                        
   LCOR   =        T    correct aug charges                                                         
   LPAW   =        T    paw PP                                                                      
   EAUG   =  373.438                                                                                
   DEXC   =    -.018                                                                                
   RMAX   =    3.087    core radius for proj-oper                                                   
   RAUG   =    1.300    factor for augmentation sphere                                              
   RDEP   =    2.539    radius for radial grids                                                     
   QCUT   =   -4.049; QGAM   =    8.098    optimization parameters                                  
                                                                                                    
   Description                                                                                      
     l     E      TYP  RCUT    TYP  RCUT                                                            
     1   .000     23  2.500                                                                         
     1  -.200     23  2.500                                                                         
     2   .000     23  2.500                                                                         
     2   .000     23  2.500                                                                         
     0   .000     23  2.500                                                                         
     0   .000     23  2.500                                                                         
     3   .000      7   .000                                                                         
  local pseudopotential read in
  partial core-charges read in
  atomic valenz-charges read in
  non local Contribution for L=           1  read in
    real space projection operators read in
  non local Contribution for L=           1  read in
    real space projection operators read in
  non local Contribution for L=           2  read in
    real space projection operators read in
  non local Contribution for L=           2  read in
    real space projection operators read in
  non local Contribution for L=           0  read in
    real space projection operators read in
  non local Contribution for L=           0  read in
    real space projection operators read in
    PAW grid and wavefunctions read in
 
   number of l-projection  operators is LMAX  =           6
   number of lm-projection operators is LMMAX =          18
 
 -----------------------------------------------------------------------------
|                                                                             |
|               ----> ADVICE to this user running VASP <----                  |
|                                                                             |
|     You have a (more or less) 'large supercell' and for larger cells it     |
|     might be more efficient to use real-space projection operators.         |
|     Therefore, try LREAL= Auto in the INCAR file.                           |
|     Mind: If you want to do very accurate calculations, keep the            |
|     reciprocal projection scheme (i.e. LREAL=.FALSE.).                      |
|                                                                             |
 -----------------------------------------------------------------------------

 PAW_PBE Zr 08Apr2002                   :
 energy of atom  1       EATOM=  -77.8472
 kinetic energy error for atom=    0.0002 (will be added to EATOM!!)
 PAW_PBE Ta_pv 07Sep2000                :
 energy of atom  2       EATOM=-1045.8051
 kinetic energy error for atom=    0.0046 (will be added to EATOM!!)
 PAW_PBE Ti_pv 07Sep2000                :
 energy of atom  3       EATOM=-1042.3781
 kinetic energy error for atom=    0.0037 (will be added to EATOM!!)
 PAW_PBE N 08Apr2002                    :
 energy of atom  4       EATOM= -264.5486
 kinetic energy error for atom=    0.0736 (will be added to EATOM!!)
 PAW_PBE C 08Apr2002                    :
 energy of atom  5       EATOM= -147.1560
 kinetic energy error for atom=    0.0288 (will be added to EATOM!!)
 PAW_PBE Cr_pv 07Sep2000                :
 energy of atom  6       EATOM=-1647.5667
 kinetic energy error for atom=    0.0284 (will be added to EATOM!!)
 PAW_PBE W_pv 06Sep2000                 :
 energy of atom  7       EATOM=-1260.0376
 kinetic energy error for atom=    0.0051 (will be added to EATOM!!)
 
 
 POSCAR: 64-TiZrTaCrW
  positions in direct lattice
  velocities in cartesian coordinates


 exchange-correlation table for PE
   RHO(1)=    0.500       N(1)  =     2000
   RHO(2)=  100.500       N(2)  =     4000
 


--------------------------------------------------------------------------------------------------------


 ion  position               nearest neighbor table
   1  0.001  0.997  0.997-  34 2.26  38 2.26  29 2.26  23 2.27  22 2.30  25 2.30  56 2.94  58 2.99
                            59 3.05  12 3.07  18 3.08   8 3.09  10 3.11   9 3.11  17 3.13  14 3.15
   2  0.269  0.002  0.243-  26 2.16  21 2.17  22 2.23  36 2.23  43 2.38  34 2.39  55 2.96  57 3.00
                            59 3.05  14 3.07  15 3.09  61 3.11  18 3.13  19 3.16  20 3.19   1 3.21
   3  0.245  0.495  0.246-  21 2.17  37 2.23  27 2.24  41 2.25  36 2.25  46 2.26  55 2.95   4 3.11
                            62 3.12  59 3.12  18 3.13   6 3.13  15 3.15  19 3.17  14 3.17   8 3.18
   4  0.501  0.500  0.002-  41 2.21  52 2.29  37 2.30  35 2.31  40 2.32  28 2.33  60 3.05  55 3.06
                            63 3.07  15 3.09  17 3.10   3 3.11  18 3.12  14 3.12   9 3.13  13 3.13
   5  0.506  0.247  0.742-  33 2.17  30 2.22  32 2.23  52 2.25  42 2.27  35 2.31  53 2.85  57 2.99
                            11 3.06  19 3.06  17 3.07  14 3.07  13 3.14   4 3.19  58 3.21  56 3.21
   6  0.998  0.502  0.501-  48 2.24  50 2.25  44 2.25  47 2.27  27 2.28  46 2.28  64 3.04  12 3.10
                            13 3.12  10 3.13   3 3.13  20 3.14  11 3.15  63 3.15  60 3.15  19 3.17
   7  0.497  0.759  0.749-  33 2.16  45 2.24  49 2.25  52 2.26  28 2.28  51 2.31  58 2.86  57 2.91
                            53 2.92  20 3.07  18 3.10  63 3.12  62 3.12  64 3.16   4 3.19  13 3.20
   8  0.992  0.240  0.250-  34 2.11  24 2.16  23 2.20  44 2.21  21 2.25  27 2.29  61 3.01  11 3.04
                             1 3.09  17 3.12  60 3.15  16 3.17   3 3.18   6 3.20   2 3.21  19 3.21
   9  0.754  0.747  0.012-  39 2.13  38 2.19  25 2.22  40 2.23  28 2.25  49 2.31  58 2.83  54 2.96
                            63 2.98  16 3.08  60 3.08   1 3.11   4 3.13  59 3.16  12 3.17  53 3.18
  10  0.002  0.250  0.751-  30 2.15  29 2.17  42 2.17  23 2.19  44 2.21  48 2.21  56 2.86  19 3.08
                            54 3.08  13 3.08  14 3.10   1 3.11   6 3.13  61 3.13  11 3.13  17 3.17
  11  0.752  0.244  0.498-  31 2.11  24 2.21  50 2.21  44 2.22  32 2.22  30 2.22  15 3.03   8 3.04
                             5 3.06  16 3.06  60 3.08  10 3.13   6 3.15  61 3.17  62 3.26  63 3.35
  12  0.000  0.751  0.750-  45 2.13  49 2.18  48 2.20  47 2.20  29 2.24  38 2.24  54 2.90  63 3.00
                            58 3.00   1 3.07  18 3.07  56 3.08   6 3.10  20 3.10  13 3.14  61 3.16
  13  0.249  0.495  0.750-  37 2.14  46 2.18  42 2.18  48 2.20  52 2.25  45 2.30  54 3.01  14 3.07
                            19 3.07  10 3.08  18 3.10   6 3.12   4 3.13   5 3.14  12 3.14  20 3.14
  14  0.260  0.242  0.990-  42 2.12  22 2.13  35 2.13  21 2.27  37 2.28  23 2.29  56 2.91  53 3.02
                            13 3.07   2 3.07   5 3.07  10 3.10   4 3.12   1 3.15   3 3.17   8 3.29
  15  0.511  0.254  0.252-  24 2.09  32 2.09  41 2.19  35 2.19  26 2.25  21 2.32  60 2.93  16 3.01
                            17 3.01  11 3.03   4 3.09   2 3.09  62 3.13   3 3.15
  16  0.732  0.993  0.259-  26 1.95  31 2.08  39 2.18  24 2.19  25 2.23  34 2.35  15 3.01  64 3.04
                            11 3.06   9 3.08  17 3.17   8 3.17  59 3.19  61 3.30   1 3.31
  17  0.741  0.241  1.000-  35 2.12  25 2.15  24 2.17  30 2.20  40 2.23  23 2.29  53 2.87  15 3.01
                            58 3.06   5 3.07   4 3.10   8 3.12   1 3.13  60 3.16  16 3.17  10 3.17
  18  0.247  0.747  0.996-  38 2.15  45 2.16  37 2.17  36 2.23  28 2.23  22 2.24  54 3.02  59 3.05
                            55 3.05  12 3.07   1 3.08   7 3.10  13 3.10   4 3.12   3 3.13   2 3.13
  19  0.251  0.246  0.506-  42 2.14  43 2.17  44 2.18  32 2.21  46 2.26  21 2.28  57 2.92  61 2.95
                            56 2.98   5 3.06  13 3.07  10 3.08   2 3.16   6 3.17   3 3.17   8 3.21
  20  0.251  0.751  0.502-  51 2.19  43 2.19  45 2.19  46 2.20  47 2.22  36 2.23  57 2.88  55 2.93
                            61 3.00  59 3.00  62 3.01   7 3.07  12 3.10  13 3.14   6 3.14   2 3.19
  21  0.247  0.248  0.248-   2 2.17   3 2.17   8 2.25  14 2.27  19 2.28  15 2.32
  22  0.261  0.001  0.989-  56 2.12  14 2.13   2 2.23  18 2.24  53 2.24   1 2.30
  23  0.000  0.255  0.000-  10 2.19   8 2.20   1 2.27  14 2.29  17 2.29  54 2.30
  24  0.747  0.240  0.246-  15 2.09   8 2.16  17 2.17  16 2.19  11 2.21  60 2.24
  25  0.740  0.998  0.006-  58 1.99  53 2.03  17 2.15   9 2.22  16 2.23   1 2.30
  26  0.511  0.000  0.279-  16 1.95  57 2.15   2 2.16  15 2.25  55 2.36
  27  0.991  0.499  0.242-  60 2.23   3 2.24   6 2.28   8 2.29  54 2.31  59 2.38
  28  0.499  0.764  0.009-  55 2.20  53 2.22  18 2.23   9 2.25   7 2.28   4 2.33
  29  0.988  0.004  0.740-  56 2.11  61 2.17  10 2.17  12 2.24  58 2.24   1 2.26
  30  0.758  0.249  0.750-  10 2.15  17 2.20   5 2.22  11 2.22  63 2.36
  31  0.763  0.005  0.493-  16 2.08  11 2.11  61 2.28  64 2.38
  32  0.501  0.246  0.489-  15 2.09  19 2.21  11 2.22   5 2.23  57 2.25  62 2.41
  33  0.526  0.002  0.741-  58 1.94  53 1.96  57 2.03   7 2.16   5 2.17
  34  0.998  0.000  0.253-  59 2.06   8 2.11  61 2.14   1 2.26  16 2.35   2 2.39
  35  0.501  0.238  0.004-  53 2.03  17 2.12  14 2.13  15 2.19   5 2.31   4 2.31
  36  0.254  0.750  0.249-  55 1.96  59 2.09  18 2.23  20 2.23   2 2.23   3 2.25
  37  0.240  0.501  0.993-  13 2.14  54 2.15  18 2.17   3 2.23  14 2.28   4 2.30
  38  0.003  0.741  0.004-  54 2.00  18 2.15   9 2.19  59 2.22  12 2.24   1 2.26
  39  0.748  0.746  0.253-  64 2.08   9 2.13  16 2.18  60 2.22  59 2.38  55 2.40
  40  0.763  0.493  0.006-  54 2.08  63 2.14  60 2.19   9 2.23  17 2.23   4 2.32
  41  0.500  0.502  0.253-  55 2.07  62 2.08  60 2.11  15 2.19   4 2.21   3 2.25
  42  0.248  0.248  0.749-  56 2.06  14 2.12  19 2.14  10 2.17  13 2.18   5 2.27
  43  0.255  1.000  0.513-  57 1.87  61 2.06  56 2.12  19 2.17  20 2.19   2 2.38
  44  0.004  0.246  0.500-  61 2.14  19 2.18   8 2.21  10 2.21  11 2.22   6 2.25
  45  0.242  0.757  0.751-  12 2.13  18 2.16  20 2.19   7 2.24  56 2.28  13 2.30
  46  0.257  0.502  0.503-  62 2.18  13 2.18  20 2.20  19 2.26   3 2.26   6 2.28
  47  0.999  0.759  0.499-  59 2.16  61 2.16  12 2.20  20 2.22  64 2.26   6 2.27
  48  1.000  0.501  0.756-  54 1.98  63 2.16  13 2.20  12 2.20  10 2.21   6 2.24
  49  0.752  0.755  0.750-  58 1.92  63 2.10  12 2.18   7 2.25  64 2.30   9 2.31
  50  0.743  0.495  0.507-  64 2.13  62 2.13  11 2.21  60 2.23   6 2.25  63 2.27
  51  0.498  0.766  0.487-  55 2.05  57 2.06  62 2.17  64 2.18  20 2.19   7 2.31
  52  0.504  0.503  0.742-  63 2.22  62 2.23  13 2.25   5 2.25   7 2.26   4 2.29
  53  0.514  0.012  0.963-  33 1.96  35 2.03  25 2.03  28 2.22  22 2.24  58 2.57   5 2.85  17 2.87
                             7 2.92  14 3.02  56 3.14   9 3.18   2 3.28
  54  0.997  0.515  0.980-  48 1.98  38 2.00  40 2.08  37 2.15  23 2.30  27 2.31  63 2.86  12 2.90
                             9 2.96  13 3.01  18 3.02  10 3.08   3 3.21  59 3.30  60 3.32
  55  0.476  0.736  0.256-  36 1.96  51 2.05  41 2.07  28 2.20  26 2.36  39 2.40  62 2.81  20 2.93
                             3 2.95   2 2.96  18 3.05   4 3.06  64 3.13  60 3.14   9 3.27
  56  0.227  0.015  0.752-  42 2.06  29 2.11  22 2.12  43 2.12  45 2.28  10 2.86  61 2.89  14 2.91
                             1 2.94  57 2.95  19 2.98  12 3.08  53 3.14   5 3.21   7 3.27
  57  0.467  0.995  0.519-  43 1.87  33 2.03  51 2.06  26 2.15  32 2.25  20 2.88   7 2.91  19 2.92
                            56 2.95   5 2.99   2 3.00  11 3.35
  58  0.740  0.970  0.782-  49 1.92  33 1.94  25 1.99  29 2.24  53 2.57   9 2.83   7 2.86   1 2.99
                            12 3.00  17 3.06   5 3.21  64 3.29
  59  0.017  0.767  0.255-  34 2.06  36 2.09  47 2.16  38 2.22  27 2.38  39 2.38  61 2.97  20 3.00
                             2 3.05   1 3.05  18 3.05   3 3.12   9 3.16  64 3.19   6 3.19  16 3.19
  60  0.739  0.494  0.254-  41 2.11  40 2.19  39 2.22  27 2.23  50 2.23  24 2.24  15 2.93  62 2.94
                            64 2.98   4 3.05  11 3.08   9 3.08  55 3.14   8 3.15   6 3.15  17 3.16
  61  0.022  0.004  0.495-  43 2.06  34 2.14  44 2.14  47 2.16  29 2.17  31 2.28  56 2.89  19 2.95
                            59 2.97  20 3.00   8 3.01   2 3.11  10 3.13  12 3.16  11 3.17  16 3.30
  62  0.503  0.519  0.489-  41 2.08  50 2.13  51 2.17  46 2.18  52 2.23  32 2.41  55 2.81  64 2.87
                            60 2.94  20 3.01   7 3.12   3 3.12  15 3.13  13 3.21  11 3.26   5 3.27
  63  0.755  0.516  0.764-  49 2.10  40 2.14  48 2.16  52 2.22  50 2.27  30 2.36  54 2.86   9 2.98
                            12 3.00   4 3.07  64 3.09   7 3.12   6 3.15  10 3.19  17 3.20   5 3.24
  64  0.744  0.736  0.490-  39 2.08  50 2.13  51 2.18  47 2.26  49 2.30  31 2.38  62 2.87  60 2.98
                             6 3.04  16 3.04  63 3.09  55 3.13   7 3.16  59 3.19  12 3.22  58 3.29
 
  LATTYP: Found a triclinic cell.
 ALAT       =     8.8128968084
 B/A-ratio  =     1.4100348580
 C/A-ratio  =     1.7347317287
 COS(alpha) =     0.0002049838
 COS(beta)  =     0.5801947292
 COS(gamma) =     0.7048792613
  
  Lattice vectors:
  
 A1 = (  -8.8128539280,  -0.0235927242,   0.0141132135)
 A2 = (  -8.7827218394,   8.7909677175,   0.0194844573)
 A3 = (  -8.8605106385,  -8.8282859317,  -8.7906780701)


Analysis of symmetry for initial positions (statically):
=====================================================================
 Subroutine PRICEL returns:
 Original cell was already a primitive cell.
 

 Routine SETGRP: Setting up the symmetry group for a 
 triclinic supercell.


 Subroutine GETGRP returns: Found  1 space group operations
 (whereof  1 operations were pure point group operations)
 out of a pool of  2 trial point group operations.


The static configuration has the point symmetry C_1 .


Analysis of symmetry for dynamics (positions and initial velocities):
=====================================================================
 Subroutine PRICEL returns:
 Original cell was already a primitive cell.
 

 Routine SETGRP: Setting up the symmetry group for a 
 triclinic supercell.


 Subroutine GETGRP returns: Found  1 space group operations
 (whereof  1 operations were pure point group operations)
 out of a pool of  2 trial point group operations.


The dynamic configuration has the point symmetry C_1 .


 Subroutine INISYM returns: Found  1 space group operations
 (whereof  1 operations are pure point group operations),
 and found     1 'primitive' translations


----------------------------------------------------------------------------------------

                                     Primitive cell                                     

  volume of cell :     683.5480

  direct lattice vectors                    reciprocal lattice vectors
     8.812853928  0.023592724 -0.014113213     0.113471296 -0.000387757 -0.000226420
     0.030132089  8.814560442  0.005371244    -0.000303509  0.113449612  0.000127821
     0.017524622 -0.009867234  8.799420040     0.000182180 -0.000069873  0.113643412

  length of vectors
     8.812896808  8.814613581  8.799443023     0.113472184  0.113450090  0.113643580

  position of ions in fractional coordinates (direct lattice)
     0.000807652  0.996969666  0.996730470
     0.268894533  0.002413970  0.242761210
     0.245399406  0.494756186  0.246217501
     0.500664734  0.499630693  0.002316725
     0.505951990  0.247411868  0.742072278
     0.997525410  0.502155868  0.501071870
     0.496607710  0.759122072  0.749320786
     0.991814556  0.240201065  0.249668394
     0.754352895  0.746520160  0.012023050
     0.001687711  0.250038816  0.751149844
     0.752300863  0.244371215  0.497660803
     0.000124922  0.750906276  0.749581142
     0.249434857  0.495353435  0.750339038
     0.259673887  0.242259876  0.989619746
     0.510905432  0.254390267  0.252375574
     0.731934271  0.992721103  0.259382428
     0.741211414  0.241051198  0.999774588
     0.246810637  0.747173086  0.996387319
     0.251036996  0.245971980  0.506401435
     0.250930194  0.751374709  0.502251863
     0.247328984  0.248120935  0.247501026
     0.261199303  0.000822373  0.989412519
     0.000474197  0.254663643  0.000095902
     0.747282482  0.240482032  0.246424905
     0.739706557  0.997589775  0.005844709
     0.511343063  0.000423258  0.278649678
     0.991101358  0.499348433  0.241985980
     0.499057612  0.764342157  0.008753266
     0.988462099  0.004205036  0.739925030
     0.757588216  0.248979147  0.750091071
     0.763379550  0.005013855  0.493137990
     0.501065561  0.246081095  0.489206442
     0.525898658  0.002468302  0.741445576
     0.998389850  0.000492517  0.253104166
     0.500915137  0.237738811  0.003913798
     0.253557529  0.749734014  0.249160138
     0.239922180  0.500693094  0.993141023
     0.002747988  0.740559532  0.004317875
     0.747896267  0.746230970  0.253432276
     0.763364010  0.493401361  0.005867960
     0.500008347  0.502279134  0.252972910
     0.248259342  0.247629735  0.749035715
     0.254936507  0.999678713  0.512671909
     0.003622453  0.246459023  0.499940717
     0.242090908  0.756588829  0.751215330
     0.256653990  0.501966071  0.502592149
     0.998685695  0.759472740  0.499490165
     0.999878628  0.501190888  0.755545070
     0.752268834  0.754677158  0.750100511
     0.742957568  0.495106229  0.507106031
     0.498007253  0.765661483  0.486837261
     0.504095429  0.503084025  0.741556245
     0.514052126  0.011864207  0.963165894
     0.997040749  0.514836185  0.979678773
     0.475661604  0.736172440  0.256489313
     0.226773422  0.015041951  0.751575559
     0.467426316  0.994815278  0.518944406
     0.739700235  0.970113965  0.781623678
     0.017110693  0.767280407  0.255192566
     0.738960344  0.494200772  0.253920107
     0.021835325  0.003803643  0.495499822
     0.502782009  0.519287493  0.488694523
     0.754747181  0.516271062  0.763630229
     0.743694747  0.736334473  0.490003861

  ion indices of the primitive-cell ions
   primitive index   ion index
                 1           1
                 2           2
                 3           3
                 4           4
                 5           5
                 6           6
                 7           7
                 8           8
                 9           9
                10          10
                11          11
                12          12
                13          13
                14          14
                15          15
                16          16
                17          17
                18          18
                19          19
                20          20
                21          21
                22          22
                23          23
                24          24
                25          25
                26          26
                27          27
                28          28
                29          29
                30          30
                31          31
                32          32
                33          33
                34          34
                35          35
                36          36
                37          37
                38          38
                39          39
                40          40
                41          41
                42          42
                43          43
                44          44
                45          45
                46          46
                47          47
                48          48
                49          49
                50          50
                51          51
                52          52
                53          53
                54          54
                55          55
                56          56
                57          57
                58          58
                59          59
                60          60
                61          61
                62          62
                63          63
                64          64

----------------------------------------------------------------------------------------

 
 
 KPOINTS: HECN                                    

Automatic generation of k-mesh.
 Grid dimensions read from file:
 generate k-points for:    3    3    3

 Generating k-lattice:

  Cartesian coordinates                     Fractional coordinates (reciprocal lattice)
     0.037823765 -0.000129252 -0.000075473     0.333333333 -0.000000000 -0.000000000
    -0.000101170  0.037816537  0.000042607    -0.000000000  0.333333333 -0.000000000
     0.000060727 -0.000023291  0.037881137     0.000000000 -0.000000000  0.333333333

  Length of vectors
     0.037824061  0.037816697  0.037881193

  Shift w.r.t. Gamma in fractional coordinates (k-lattice)
     0.000000000  0.000000000  0.000000000

 
 Subroutine IBZKPT returns following result:
 ===========================================
 
 Found     14 irreducible k-points:
 
 Following reciprocal coordinates:
            Coordinates               Weight
  0.000000  0.000000  0.000000      1.000000
  0.333333  0.000000  0.000000      2.000000
  0.000000  0.333333 -0.000000      2.000000
  0.333333  0.333333  0.000000      2.000000
 -0.333333  0.333333  0.000000      2.000000
 -0.000000 -0.000000  0.333333      2.000000
  0.333333  0.000000  0.333333      2.000000
 -0.333333 -0.000000  0.333333      2.000000
 -0.000000  0.333333  0.333333      2.000000
  0.333333  0.333333  0.333333      2.000000
 -0.333333  0.333333  0.333333      2.000000
 -0.000000 -0.333333  0.333333      2.000000
  0.333333 -0.333333  0.333333      2.000000
 -0.333333 -0.333333  0.333333      2.000000
 
 Following cartesian coordinates:
            Coordinates               Weight
  0.000000  0.000000  0.000000      1.000000
  0.037824 -0.000129 -0.000075      2.000000
 -0.000101  0.037817  0.000043      2.000000
  0.037723  0.037687 -0.000033      2.000000
 -0.037925  0.037946  0.000118      2.000000
  0.000061 -0.000023  0.037881      2.000000
  0.037884 -0.000153  0.037806      2.000000
 -0.037763  0.000106  0.037957      2.000000
 -0.000040  0.037793  0.037924      2.000000
  0.037783  0.037664  0.037848      2.000000
 -0.037864  0.037922  0.037999      2.000000
  0.000162 -0.037840  0.037839      2.000000
  0.037986 -0.037969  0.037763      2.000000
 -0.037662 -0.037711  0.037914      2.000000
 


--------------------------------------------------------------------------------------------------------




 Dimension of arrays:
   k-points           NKPTS =     14   k-points in BZ     NKDIM =     14   number of bands    NBANDS=    280
   number of dos      NEDOS =    301   number of ions     NIONS =     64
   non local maximal  LDIM  =      6   non local SUM 2l+1 LMDIM =     18
   total plane-waves  NPLWV = 110592
   max r-space proj   IRMAX =      1   max aug-charges    IRDMAX=  17768
   dimension x,y,z NGX =    48 NGY =   48 NGZ =   48
   dimension x,y,z NGXF=    96 NGYF=   96 NGZF=   96
   support grid    NGXF=    96 NGYF=   96 NGZF=   96
   ions per type =               7   6   7  13  19   6   6
   NGX,Y,Z   is equivalent  to a cutoff of   9.05,  9.05,  9.07 a.u.
   NGXF,Y,Z  is equivalent  to a cutoff of  18.11, 18.11, 18.14 a.u.

 SYSTEM =  HECN                                    
 POSCAR =  64-TiZrTaCrW                            

 Startparameter for this run:
   NWRITE =      2    write-flag & timer
   PREC   = normal    normal or accurate (medium, high low for compatibility)
   ISTART =      0    job   : 0-new  1-cont  2-samecut
   ICHARG =      2    charge: 1-file 2-atom 10-const
   ISPIN  =      1    spin polarized calculation?
   LNONCOLLINEAR =      F non collinear calculations
   LSORBIT =      F    spin-orbit coupling
   INIWAV =      1    electr: 0-lowe 1-rand  2-diag
   LASPH  =      F    aspherical Exc in radial PAW
 Electronic Relaxation 1
   ENCUT  =  400.0 eV  29.40 Ry    5.42 a.u.  14.37 14.37 14.35*2*pi/ulx,y,z
   ENINI  =  400.0     initial cutoff
   ENAUG  =  644.9 eV  augmentation charge cutoff
   NELM   =     60;   NELMIN=  2; NELMDL= -5     # of ELM steps 
   EDIFF  = 0.1E-04   stopping-criterion for ELM
   LREAL  =      F    real-space projection
   NLSPLINE    = F    spline interpolate recip. space projectors
   LCOMPAT=      F    compatible to vasp.4.4
   GGA_COMPAT  = T    GGA compatible to vasp.4.4-vasp.4.6
   LMAXPAW     = -100 max onsite density
   LMAXMIX     =    2 max onsite mixed and CHGCAR
   VOSKOWN=      0    Vosko Wilk Nusair interpolation
   ROPT   =    0.00000   0.00000   0.00000   0.00000
   ROPT   =    0.00000   0.00000   0.00000
 Ionic relaxation
   EDIFFG = -.1E-01   stopping-criterion for IOM
   NSW    =    100    number of steps for IOM
   NBLOCK =      1;   KBLOCK =    100    inner block; outer block 
   IBRION =      2    ionic relax: 0-MD 1-quasi-New 2-CG
   NFREE  =      1    steps in history (QN), initial steepest desc. (CG)
   ISIF   =      3    stress and relaxation
   IWAVPR =     11    prediction:  0-non 1-charg 2-wave 3-comb
   ISYM   =      2    0-nonsym 1-usesym 2-fastsym
   LCORR  =      T    Harris-Foulkes like correction to forces

   POTIM  = 0.5000    time-step for ionic-motion
   TEIN   =    0.0    initial temperature
   TEBEG  =    0.0;   TEEND  =   0.0 temperature during run
   SMASS  =  -3.00    Nose mass-parameter (am)
   estimated Nose-frequenzy (Omega)   =  0.10E-29 period in steps = 0.13E+47 mass=  -0.177E-26a.u.
   SCALEE = 1.0000    scale energy and forces
   NPACO  =    256;   APACO  = 10.0  distance and # of slots for P.C.
   PSTRESS=    0.0 pullay stress

  Mass of Ions in am
   POMASS =  91.22180.95 47.88 14.00 12.01 52.00183.85
  Ionic Valenz
   ZVAL   =   4.00 11.00 10.00  5.00  4.00 12.00 12.00
  Atomic Wigner-Seitz radii
   RWIGS  =  -1.00 -1.00 -1.00 -1.00 -1.00 -1.00 -1.00
  virtual crystal weights 
   VCA    =   1.00  1.00  1.00  1.00  1.00  1.00  1.00
   NELECT =     449.0000    total number of electrons
   NUPDOWN=      -1.0000    fix difference up-down

 DOS related values:
   EMIN   =  10.00;   EMAX   =-10.00  energy-range for DOS
   EFERMI =   0.00;   METHOD = LEGACY      
   ISMEAR =     0;   SIGMA  =   0.10  broadening in eV -4-tet -1-fermi 0-gaus

 Electronic relaxation 2 (details)
   IALGO  =     68    algorithm
   LDIAG  =      T    sub-space diagonalisation (order eigenvalues)
   LSUBROT=      F    optimize rotation matrix (better conditioning)
   TURBO    =      0    0=normal 1=particle mesh
   IRESTART =      0    0=no restart 2=restart with 2 vectors
   NREBOOT  =      0    no. of reboots
   NMIN     =      0    reboot dimension
   EREF     =   0.00    reference energy to select bands
   IMIX   =      4    mixing-type and parameters
     AMIX     =   0.40;   BMIX     =  1.00
     AMIX_MAG =   1.60;   BMIX_MAG =  1.00
     AMIN     =   0.10
     WC   =   100.;   INIMIX=   1;  MIXPRE=   1;  MAXMIX= -45

 Intra band minimization:
   WEIMIN = 0.0010     energy-eigenvalue tresh-hold
   EBREAK =  0.89E-08  absolut break condition
   DEPER  =   0.30     relativ break condition  

   TIME   =   0.40     timestep for ELM

  volume/ion in A,a.u.               =      10.68        72.08
  Fermi-wavevector in a.u.,A,eV,Ry     =   1.423095  2.689260 27.554517  2.025200
  Thomas-Fermi vector in A             =   2.543729
 
 Write flags
   LWAVE        =      F    write WAVECAR
   LDOWNSAMPLE  =      F    k-point downsampling of WAVECAR
   LCHARG       =      F    write CHGCAR
   LVTOT        =      F    write LOCPOT, total local potential
   LVHAR        =      F    write LOCPOT, Hartree potential only
   WRT_POTENTIAL= false  ! write potential to hdf5 file
   LELF         =      F    write electronic localiz. function (ELF)
   LORBIT       =      0    0 simple, 1 ext, 2 COOP (PROOUT), +10 PAW based schemes


 Dipole corrections
   LMONO      =      F    monopole corrections only (constant potential shift)
   LDIPOL     =      F    correct potential (dipole corrections)
   IDIPOL     =      0    1-x, 2-y, 3-z, 4-all directions 
   EPSILON    =  1.0000000 bulk dielectric constant
   LVACPOTAV  =      F  vacuum potentials using an averaging scheme for the charge density
   VACPOTFLAT =  0.1000000 required flatness to determine vacuum potential
 Exchange correlation treatment:
   GGA     = PE    functional components
   XC_C    = 1    coefficients multiplying the functional components
   LIBXC   =     F    Libxc                    
   VOSKOWN =     0    Vosko Wilk Nusair interpolation
   LHFCALC =     F    Hartree Fock is set to
   LHFONE  =     F    Hartree Fock one center treatment
   AEXX    =    0.0000 exact exchange contribution

 Parameters of functionals:
   PE:
     No parameter
 
 Van der Waals corrections
   IVDW    =     0    specifies the selected vdW correction

 Linear response parameters
   LEPSILON=     F    determine dielectric tensor
   LRPA    =     F    only Hartree local field effects (RPA)
   LNABLA  =     F    use nabla operator in PAW spheres
   LVEL    =     F    velocity operator in full k-point grid
   CSHIFT  =0.1000    complex shift for real part using Kramers Kronig
   OMEGAMAX=  -1.0    maximum frequency
   DEG_THRESHOLD= 0.2000000E-02 threshold for treating states as degnerate
   RTIME   =   -0.100 relaxation time in fs
  (WPLASMAI=    0.000 imaginary part of plasma frequency in eV, 0.658/RTIME)
   DFIELD  = 0.0000000 0.0000000 0.0000000 field for delta impulse in time
 
  Optional k-point grid parameters
   LKPOINTS_OPT  =     F    use optional k-point grid
   KPOINTS_OPT_MODE=     1    mode for optional k-point grid
 
 Orbital magnetization related:
   ORBITALMAG=     F  switch on orbital magnetization
   LCHIMAG   =     F  perturbation theory with respect to B field
   DQ        =  0.001000  dq finite difference perturbation B field
   LLRAUG    =     F  two centre corrections for induced B field
   LBONE     =     F  B-component reconstruction in AE one-centre
   LVGVCALC  =     T  calculate vGv susceptibility
   LVGVAPPL  =     F  apply vGv susceptibility instead of pGv for G=0

 Random number generation:
   RANDOM_GENERATOR = DEFAULT
   PCG_SEED         = not used


--------------------------------------------------------------------------------------------------------


 conjugate gradient relaxation of ions
 charge density and potential will be updated during run
 non-spin polarized calculation
 RMM-DIIS sequential band-by-band and
  variant of blocked Davidson during initial phase
 perform sub-space diagonalisation
    before iterative eigenvector-optimisation
 modified Broyden-mixing scheme, WC =      100.0
 initial mixing is a Kerker type mixing with AMIX =  0.4000 and BMIX =      1.0000
 Hartree-type preconditioning will be used
 using additional bands           55
 reciprocal scheme for non local part
 use partial core corrections
 calculate Harris-corrections to forces 
   (improved forces if not selfconsistent)
 use gradient corrections 
 use of overlap-Matrix (Vanderbilt PP)
 Gauss-broadening in eV      SIGMA  =   0.10


--------------------------------------------------------------------------------------------------------


  energy-cutoff  :      400.00
  volume of cell :      683.55
      direct lattice vectors                 reciprocal lattice vectors
     8.812853928  0.023592724 -0.014113213     0.113471296 -0.000387757 -0.000226420
     0.030132089  8.814560442  0.005371244    -0.000303509  0.113449612  0.000127821
     0.017524622 -0.009867234  8.799420040     0.000182180 -0.000069873  0.113643412

  length of vectors
     8.812896808  8.814613581  8.799443023     0.113472184  0.113450090  0.113643580


 
 k-points in units of 2pi/SCALE and weight: HECN                                    
   0.00000000  0.00000000  0.00000000       0.037
   0.03782377 -0.00012925 -0.00007547       0.074
  -0.00010117  0.03781654  0.00004261       0.074
   0.03772260  0.03768728 -0.00003287       0.074
  -0.03792493  0.03794579  0.00011808       0.074
   0.00006073 -0.00002329  0.03788114       0.074
   0.03788449 -0.00015254  0.03780566       0.074
  -0.03776304  0.00010596  0.03795661       0.074
  -0.00004044  0.03779325  0.03792374       0.074
   0.03778332  0.03766399  0.03784827       0.074
  -0.03786421  0.03792250  0.03799922       0.074
   0.00016190 -0.03783983  0.03783853       0.074
   0.03798566 -0.03796908  0.03776306       0.074
  -0.03766187 -0.03771058  0.03791400       0.074
 
 k-points in reciprocal lattice and weights: HECN                                    
   0.00000000  0.00000000  0.00000000       0.037
   0.33333333  0.00000000  0.00000000       0.074
   0.00000000  0.33333333 -0.00000000       0.074
   0.33333333  0.33333333  0.00000000       0.074
  -0.33333333  0.33333333  0.00000000       0.074
  -0.00000000 -0.00000000  0.33333333       0.074
   0.33333333  0.00000000  0.33333333       0.074
  -0.33333333 -0.00000000  0.33333333       0.074
  -0.00000000  0.33333333  0.33333333       0.074
   0.33333333  0.33333333  0.33333333       0.074
  -0.33333333  0.33333333  0.33333333       0.074
  -0.00000000 -0.33333333  0.33333333       0.074
   0.33333333 -0.33333333  0.33333333       0.074
  -0.33333333 -0.33333333  0.33333333       0.074
 
 position of ions in fractional coordinates (direct lattice) 
   0.00080765  0.99696967  0.99673047
   0.26889453  0.00241397  0.24276121
   0.24539941  0.49475619  0.24621750
   0.50066473  0.49963069  0.00231673
   0.50595199  0.24741187  0.74207228
   0.99752541  0.50215587  0.50107187
   0.49660771  0.75912207  0.74932079
   0.99181456  0.24020107  0.24966839
   0.75435289  0.74652016  0.01202305
   0.00168771  0.25003882  0.75114984
   0.75230086  0.24437121  0.49766080
   0.00012492  0.75090628  0.74958114
   0.24943486  0.49535344  0.75033904
   0.25967389  0.24225988  0.98961975
   0.51090543  0.25439027  0.25237557
   0.73193427  0.99272110  0.25938243
   0.74121141  0.24105120  0.99977459
   0.24681064  0.74717309  0.99638732
   0.25103700  0.24597198  0.50640144
   0.25093019  0.75137471  0.50225186
   0.24732898  0.24812093  0.24750103
   0.26119930  0.00082237  0.98941252
   0.00047420  0.25466364  0.00009590
   0.74728248  0.24048203  0.24642491
   0.73970656  0.99758978  0.00584471
   0.51134306  0.00042326  0.27864968
   0.99110136  0.49934843  0.24198598
   0.49905761  0.76434216  0.00875327
   0.98846210  0.00420504  0.73992503
   0.75758822  0.24897915  0.75009107
   0.76337955  0.00501386  0.49313799
   0.50106556  0.24608109  0.48920644
   0.52589866  0.00246830  0.74144558
   0.99838985  0.00049252  0.25310417
   0.50091514  0.23773881  0.00391380
   0.25355753  0.74973401  0.24916014
   0.23992218  0.50069309  0.99314102
   0.00274799  0.74055953  0.00431787
   0.74789627  0.74623097  0.25343228
   0.76336401  0.49340136  0.00586796
   0.50000835  0.50227913  0.25297291
   0.24825934  0.24762973  0.74903572
   0.25493651  0.99967871  0.51267191
   0.00362245  0.24645902  0.49994072
   0.24209091  0.75658883  0.75121533
   0.25665399  0.50196607  0.50259215
   0.99868570  0.75947274  0.49949016
   0.99987863  0.50119089  0.75554507
   0.75226883  0.75467716  0.75010051
   0.74295757  0.49510623  0.50710603
   0.49800725  0.76566148  0.48683726
   0.50409543  0.50308403  0.74155625
   0.51405213  0.01186421  0.96316589
   0.99704075  0.51483618  0.97967877
   0.47566160  0.73617244  0.25648931
   0.22677342  0.01504195  0.75157556
   0.46742632  0.99481528  0.51894441
   0.73970023  0.97011396  0.78162368
   0.01711069  0.76728041  0.25519257
   0.73896034  0.49420077  0.25392011
   0.02183532  0.00380364  0.49549982
   0.50278201  0.51928749  0.48869452
   0.75474718  0.51627106  0.76363023
   0.74369475  0.73633447  0.49000386
 
 position of ions in cartesian coordinates  (Angst):
   0.05462583  8.77803346  8.77599364
   2.37405528  0.02522665  2.13237585
   2.18189202  4.36441846  2.16576529
   4.42738068  4.41581413  0.01600349
   4.47934056  2.18544145  6.52399398
   8.81495782  4.44487340  4.39776077
   4.41253671  6.69565000  6.59065704
   8.75232991  2.13820288  2.18422956
   6.67070678  6.59792568  0.09915926
   0.03557136  2.19661030  6.61100219
   6.64600235  2.16686314  4.36982164
   0.03686342  6.61151541  6.59991086
   2.22630840  4.36480387  6.60168870
   2.31311054  2.13177592  8.70571623
   4.51462304  2.25190179  2.21491456
   6.48488816  8.76510910  2.27741714
   6.55697197  2.13238254  8.78827041
   2.21508129  6.58199367  8.76816050
   2.22863852  2.16906075  4.45381717
   2.24285341  6.62400208  4.42001949
   2.19148798  2.19046999  2.17570760
   2.31927516  0.00364849  8.70257440
   0.01185426  2.24475832  0.00220505
   6.59725609  2.13494230  2.15914138
   6.54908772  8.81070939  0.04634871
   4.51128771  0.01304531  2.44474114
   8.75371862  4.42253199  2.11803078
   4.42130646  6.74902790  0.07408583
   8.72426570  0.05308504  6.49698335
   6.69716161  2.20511399  6.59101173
   6.73634560  0.05733923  4.32858150
   4.43180569  2.17609107  4.29898308
   4.64773598  0.02684836  6.51688220
   8.80311431  0.02539862  2.21308202
   4.42172408  2.10734245  0.02864658
   2.26152296  6.61209937  2.19291320
   2.14689047  4.40925040  8.73836829
   0.04660789  6.52772899  0.04193374
   6.61802736  6.59284222  2.22351002
   6.74238556  4.36706806  0.04351131
   4.42606850  4.43667020  2.22165603
   2.20846148  2.18121347  6.58890622
   2.28582498  8.81268443  4.51298702
   0.04811175  2.16758039  4.40046103
   2.16947417  6.66729713  6.61090637
   2.28578715  4.42570625  4.42159339
   8.83290903  6.71305150  4.38520842
   8.84012686  4.43391209  6.63693895
   6.66552058  6.66249407  6.59388609
   6.57138194  4.37666844  4.45441279
   4.42046779  6.75591503  4.28096962
   4.47067385  4.43904042  6.52085267
   4.54750291  0.10720187  8.46811007
   8.81945607  4.55191086  8.60929889
   4.21861353  6.49772778  2.25419825
   2.01214536  0.13052241  6.61030933
   4.15843001  8.77476671  4.56515631
   6.56179934  8.56086726  6.87260622
   0.17838595  6.76112517  2.24942634
   6.53169073  4.37109117  2.22657504
   0.20122958  0.02915338  4.35982333
   4.45515581  4.58433093  4.29592173
   6.68041532  4.56097410  6.71162425
   6.58484760  6.50317552  4.30520891
 


--------------------------------------------------------------------------------------------------------


 k-point     1 :   0.0000 0.0000 0.0000  plane waves:   12443
 k-point     2 :   0.3333 0.0000 0.0000  plane waves:   12442
 k-point     3 :   0.0000 0.3333-0.0000  plane waves:   12440
 k-point     4 :   0.3333 0.3333 0.0000  plane waves:   12419
 k-point     5 :  -0.3333 0.3333 0.0000  plane waves:   12398
 k-point     6 :  -0.0000-0.0000 0.3333  plane waves:   12447
 k-point     7 :   0.3333 0.0000 0.3333  plane waves:   12406
 k-point     8 :  -0.3333-0.0000 0.3333  plane waves:   12408
 k-point     9 :  -0.0000 0.3333 0.3333  plane waves:   12411
 k-point    10 :   0.3333 0.3333 0.3333  plane waves:   12395
 k-point    11 :  -0.3333 0.3333 0.3333  plane waves:   12409
 k-point    12 :  -0.0000-0.3333 0.3333  plane waves:   12405
 k-point    13 :   0.3333-0.3333 0.3333  plane waves:   12409
 k-point    14 :  -0.3333-0.3333 0.3333  plane waves:   12395

 maximum and minimum number of plane-waves per node :     12447    12395

 maximum number of plane-waves:     12447
 maximum index in each direction: 
   IXMAX=   14   IYMAX=   14   IZMAX=   14
   IXMIN=  -14   IYMIN=  -14   IZMIN=  -14


 serial   3D FFT for wavefunctions
 parallel 3D FFT for charge:
    minimum data exchange during FFTs selected (reduces bandwidth)


 total amount of memory used by VASP MPI-rank0   259058. kBytes
=======================================================================

   base      :      30000. kBytes
   nonl-proj :     188594. kBytes
   fftplans  :       1680. kBytes
   grid      :       8060. kBytes
   one-center:        995. kBytes
   wavefun   :      29729. kBytes
 
     INWAV:  cpu time      0.0000: real time      0.0002
 Broyden mixing: mesh for mixing (old mesh)
   NGX = 29   NGY = 29   NGZ = 29
  (NGX  = 96   NGY  = 96   NGZ  = 96)
  gives a total of  24389 points

 initial charge density was supplied:
 charge density of overlapping atoms calculated
 number of electron     449.0000000 magnetization 
 keeping initial charge density in first step


--------------------------------------------------------------------------------------------------------


 Maximum index for augmentation-charges         1167 (set IRDMAX)


--------------------------------------------------------------------------------------------------------


 First call to EWALD:  gamma=   0.201
 Maximum number of real-space cells 3x 3x 3
 Maximum number of reciprocal cells 3x 3x 3

    FEWALD:  cpu time      0.0020: real time      0.0022


--------------------------------------- Ionic step        1  -------------------------------------------




--------------------------------------- Iteration      1(   1)  ---------------------------------------


    POTLOK:  cpu time      0.0249: real time      0.0373
    SETDIJ:  cpu time      0.0076: real time      0.0110
     EDDAV:  cpu time     16.2916: real time     16.5862
       DOS:  cpu time      0.0015: real time      0.0042
    --------------------------------------------
      LOOP:  cpu time     16.3256: real time     16.6387

 eigenvalue-minimisations  :  8232
 total energy-change (2. order) : 0.5567886E+04  (-0.1790660E+05)
 number of electron     449.0000000 magnetization 
 augmentation part      449.0000000 magnetization 

 Free energy of the ion-electron system (eV)
  ---------------------------------------------------
  alpha Z        PSCENC =      3518.77358788
  Ewald energy   TEWEN  =    -32143.37455391
  -Hartree energ DENC   =     -7613.16231471
  -exchange      EXHF   =         0.00000000
  -V(xc)+E(xc)   XCENC  =       782.68422064
  PAW double counting   =     23981.56285346   -23408.35391467
  entropy T*S    EENTRO =        -0.09000537
  eigenvalues    EBANDS =      2654.47666839
  atomic energy  EATOM  =     37795.36964742
  Solvation  Ediel_sol  =         0.00000000
  ---------------------------------------------------
  free energy    TOTEN  =      5567.88618914 eV

  energy without entropy =     5567.97619451  energy(sigma->0) =     5567.93119182


--------------------------------------------------------------------------------------------------------




--------------------------------------- Iteration      1(   2)  ---------------------------------------


     EDDAV:  cpu time     15.8476: real time     16.4256
       DOS:  cpu time      0.0008: real time      0.0008
    --------------------------------------------
      LOOP:  cpu time     15.8483: real time     16.4263

 eigenvalue-minimisations  :  7840
 total energy-change (2. order) :-0.5329326E+04  (-0.5147179E+04)
 number of electron     449.0000000 magnetization 
 augmentation part      449.0000000 magnetization 

 Free energy of the ion-electron system (eV)
  ---------------------------------------------------
  alpha Z        PSCENC =      3518.77358788
  Ewald energy   TEWEN  =    -32143.37455391
  -Hartree energ DENC   =     -7613.16231471
  -exchange      EXHF   =         0.00000000
  -V(xc)+E(xc)   XCENC  =       782.68422064
  PAW double counting   =     23981.56285346   -23408.35391467
  entropy T*S    EENTRO =        -0.13394972
  eigenvalues    EBANDS =     -2674.80518753
  atomic energy  EATOM  =     37795.36964742
  Solvation  Ediel_sol  =         0.00000000
  ---------------------------------------------------
  free energy    TOTEN  =       238.56038887 eV

  energy without entropy =      238.69433859  energy(sigma->0) =      238.62736373


--------------------------------------------------------------------------------------------------------




--------------------------------------- Iteration      1(   3)  ---------------------------------------


     EDDAV:  cpu time     22.2068: real time     22.4694
       DOS:  cpu time      0.0008: real time      0.0008
    --------------------------------------------
      LOOP:  cpu time     22.2076: real time     22.4702

 eigenvalue-minimisations  : 11676
 total energy-change (2. order) :-0.9263901E+03  (-0.8685443E+03)
 number of electron     449.0000000 magnetization 
 augmentation part      449.0000000 magnetization 

 Free energy of the ion-electron system (eV)
  ---------------------------------------------------
  alpha Z        PSCENC =      3518.77358788
  Ewald energy   TEWEN  =    -32143.37455391
  -Hartree energ DENC   =     -7613.16231471
  -exchange      EXHF   =         0.00000000
  -V(xc)+E(xc)   XCENC  =       782.68422064
  PAW double counting   =     23981.56285346   -23408.35391467
  entropy T*S    EENTRO =        -0.08612243
  eigenvalues    EBANDS =     -3601.24307697
  atomic energy  EATOM  =     37795.36964742
  Solvation  Ediel_sol  =         0.00000000
  ---------------------------------------------------
  free energy    TOTEN  =      -687.82967329 eV

  energy without entropy =     -687.74355086  energy(sigma->0) =     -687.78661207


--------------------------------------------------------------------------------------------------------




--------------------------------------- Iteration      1(   4)  ---------------------------------------


     EDDAV:  cpu time     23.8335: real time     24.1249
       DOS:  cpu time      0.0008: real time      0.0008
    --------------------------------------------
      LOOP:  cpu time     23.8344: real time     24.1258

 eigenvalue-minimisations  : 12628
 total energy-change (2. order) :-0.9891002E+02  (-0.9564797E+02)
 number of electron     449.0000000 magnetization 
 augmentation part      449.0000000 magnetization 

 Free energy of the ion-electron system (eV)
  ---------------------------------------------------
  alpha Z        PSCENC =      3518.77358788
  Ewald energy   TEWEN  =    -32143.37455391
  -Hartree energ DENC   =     -7613.16231471
  -exchange      EXHF   =         0.00000000
  -V(xc)+E(xc)   XCENC  =       782.68422064
  PAW double counting   =     23981.56285346   -23408.35391467
  entropy T*S    EENTRO =        -0.09931327
  eigenvalues    EBANDS =     -3700.13990933
  atomic energy  EATOM  =     37795.36964742
  Solvation  Ediel_sol  =         0.00000000
  ---------------------------------------------------
  free energy    TOTEN  =      -786.73969648 eV

  energy without entropy =     -786.64038321  energy(sigma->0) =     -786.69003985


--------------------------------------------------------------------------------------------------------




--------------------------------------- Iteration      1(   5)  ---------------------------------------


     EDDAV:  cpu time     22.3809: real time     22.6620
       DOS:  cpu time      0.0008: real time      0.0008
    CHARGE:  cpu time      0.1578: real time      0.1618
    MIXING:  cpu time      0.0020: real time      0.0060
    --------------------------------------------
      LOOP:  cpu time     22.5415: real time     22.8306

 eigenvalue-minimisations  : 11732
 total energy-change (2. order) :-0.5902120E+01  (-0.5788821E+01)
 number of electron     448.9999952 magnetization 
 augmentation part      107.7612138 magnetization 

 Broyden mixing:
  rms(total) = 0.73420E+01    rms(broyden)= 0.73410E+01
  rms(prec ) = 0.11568E+02
  weight for this iteration     100.00

 Free energy of the ion-electron system (eV)
  ---------------------------------------------------
  alpha Z        PSCENC =      3518.77358788
  Ewald energy   TEWEN  =    -32143.37455391
  -Hartree energ DENC   =     -7613.16231471
  -exchange      EXHF   =         0.00000000
  -V(xc)+E(xc)   XCENC  =       782.68422064
  PAW double counting   =     23981.56285346   -23408.35391467
  entropy T*S    EENTRO =        -0.10530777
  eigenvalues    EBANDS =     -3706.03603527
  atomic energy  EATOM  =     37795.36964742
  Solvation  Ediel_sol  =         0.00000000
  ---------------------------------------------------
  free energy    TOTEN  =      -792.64181693 eV

  energy without entropy =     -792.53650916  energy(sigma->0) =     -792.58916304


--------------------------------------------------------------------------------------------------------




--------------------------------------- Iteration      1(   6)  ---------------------------------------


    POTLOK:  cpu time      0.0184: real time      0.0185
    SETDIJ:  cpu time      0.0060: real time      0.0060
    EDDIAG:  cpu time      1.1475: real time      1.1638
  RMM-DIIS:  cpu time     13.7842: real time     13.9624
    ORTHCH:  cpu time      0.2764: real time      0.2821
       DOS:  cpu time      0.0008: real time      0.0008
    CHARGE:  cpu time      0.1547: real time      0.1548
    MIXING:  cpu time      0.0012: real time      0.0021
    --------------------------------------------
      LOOP:  cpu time     15.3893: real time     15.5906

 eigenvalue-minimisations  : 10445
 total energy-change (2. order) :-0.2307163E+02  (-0.1628099E+03)
 number of electron     449.0000014 magnetization 
 augmentation part      139.5533603 magnetization 

 Broyden mixing:
  rms(total) = 0.10086E+02    rms(broyden)= 0.10085E+02
  rms(prec ) = 0.16420E+02
  weight for this iteration     100.00

 eigenvalues of (default mixing * dielectric matrix)
  average eigenvalue GAMMA=   0.4007
  0.4007

 Free energy of the ion-electron system (eV)
  ---------------------------------------------------
  alpha Z        PSCENC =      3518.77358788
  Ewald energy   TEWEN  =    -32143.37455391
  -Hartree energ DENC   =     -6946.28095838
  -exchange      EXHF   =         0.00000000
  -V(xc)+E(xc)   XCENC  =       775.31130030
  PAW double counting   =     23123.32424855   -22567.09181143
  entropy T*S    EENTRO =        -0.10724983
  eigenvalues    EBANDS =     -4371.63765817
  atomic energy  EATOM  =     37795.36964742
  Solvation  Ediel_sol  =         0.00000000
  ---------------------------------------------------
  free energy    TOTEN  =      -815.71344757 eV

  energy without entropy =     -815.60619774  energy(sigma->0) =     -815.65982266


--------------------------------------------------------------------------------------------------------




--------------------------------------- Iteration      1(   7)  ---------------------------------------


    POTLOK:  cpu time      0.0177: real time      0.0177
    SETDIJ:  cpu time      0.0067: real time      0.0067
    EDDIAG:  cpu time      1.1754: real time      1.1823
  RMM-DIIS:  cpu time     13.5486: real time     13.7986
    ORTHCH:  cpu time      0.2983: real time      0.2988
       DOS:  cpu time      0.0008: real time      0.0008
    CHARGE:  cpu time      0.1524: real time      0.1533
    MIXING:  cpu time      0.0010: real time      0.0010
    --------------------------------------------
      LOOP:  cpu time     15.2009: real time     15.4592

 eigenvalue-minimisations  : 10421
 total energy-change (2. order) : 0.1666052E+03  (-0.3090333E+02)
 number of electron     449.0000001 magnetization 
 augmentation part      116.2184894 magnetization 

 Broyden mixing:
  rms(total) = 0.45327E+01    rms(broyden)= 0.45307E+01
  rms(prec ) = 0.79598E+01
  weight for this iteration     100.00

 eigenvalues of (default mixing * dielectric matrix)
  average eigenvalue GAMMA=   0.5809
  0.8885  0.2733

 Free energy of the ion-electron system (eV)
  ---------------------------------------------------
  alpha Z        PSCENC =      3518.77358788
  Ewald energy   TEWEN  =    -32143.37455391
  -Hartree energ DENC   =     -7321.06720383
  -exchange      EXHF   =         0.00000000
  -V(xc)+E(xc)   XCENC  =       789.29213595
  PAW double counting   =     24045.81285042   -23550.38409191
  entropy T*S    EENTRO =        -0.12864752
  eigenvalues    EBANDS =     -3783.40195463
  atomic energy  EATOM  =     37795.36964742
  Solvation  Ediel_sol  =         0.00000000
  ---------------------------------------------------
  free energy    TOTEN  =      -649.10823013 eV

[...]
  0.001  -0.001   0.005  -0.000  -0.007  -0.004   0.003  -0.010   0.000   0.011   0.188   0.036  -0.003   0.001  -0.001
 -0.000   0.006   0.027  -0.002   0.042   0.005  -0.013  -0.029   0.005  -0.041  -0.041  -0.003   0.422   0.003   0.000
 -0.002   0.001   0.051   0.013   0.002   0.005  -0.003  -0.040  -0.003   0.008   0.036   0.001   0.003   0.408   0.002
 -0.015  -0.001  -0.008  -0.003   0.014   0.010   0.004   0.001   0.011  -0.006   0.014  -0.001   0.000   0.002   0.342


------------------------ aborting loop because EDIFF is reached ----------------------------------------


    CHARGE:  cpu time      0.1518: real time      0.1530
    FORLOC:  cpu time      0.0074: real time      0.0074
    FORNL :  cpu time      5.3126: real time      5.3852
    STRESS:  cpu time     20.9130: real time     21.3347
    FORCOR:  cpu time      0.0188: real time      0.0188
    FORHAR:  cpu time      0.0102: real time      0.0102
    MIXING:  cpu time      0.0008: real time      0.0009
    OFIELD:  cpu time      0.0001: real time      0.0001

  FORCE on cell =-STRESS in cart. coord.  units (eV):
  Direction    XX          YY          ZZ          XY          YZ          ZX
  --------------------------------------------------------------------------------------
  Alpha Z  3518.35491  3518.35491  3518.35491
  Ewald  -10794.21087-10810.92875-10537.15481  -143.16910    96.54430  -195.53357
  Hartree  2322.31375  2325.73111  2557.30290   -81.80292    61.55756  -200.46309
  E(xc)   -2016.21498 -2017.32489 -2016.33936    -0.24024     0.06341    -0.05834
  Local    1409.23831  1421.19287   927.28388   224.64552  -159.59411   393.69598
  n-local -1283.48306 -1283.02631 -1280.94578     0.07563    -0.96269    -0.04034
  augment  1045.15078  1046.41816  1042.72968    -0.04090     0.83557     1.20518
  Kinetic  5798.62062  5799.43281  5788.56108     0.52729     1.55819     1.18619
  Fock        0.00000     0.00000     0.00000     0.00000     0.00000     0.00000
  -------------------------------------------------------------------------------------
  Total      -0.23053    -0.15009    -0.20749    -0.00472     0.00223    -0.00799
  in kB      -0.54029    -0.35177    -0.48629    -0.01107     0.00524    -0.01873
  external pressure =       -0.46 kB  Pullay stress =        0.00 kB


 VOLUME and BASIS-vectors are now :
 -----------------------------------------------------------------------------
  energy-cutoff  :      400.00
  volume of cell :      683.63
      direct lattice vectors                 reciprocal lattice vectors
     8.813857238  0.023576982 -0.014167971     0.113458377 -0.000387595 -0.000225713
     0.030121103  8.814049519  0.005369346    -0.000303289  0.113456187  0.000127838
     0.017472852 -0.009868742  8.799975331     0.000182853 -0.000069850  0.113636241

  length of vectors
     8.813900159  8.814102622  8.799998211     0.113459264  0.113456664  0.113636409


 FORCES acting on ions
    electron-ion (+dipol)            ewald-force                    non-local-force                 convergence-correction
 -----------------------------------------------------------------------------------------------
   -.367E+02 -.526E+01 -.485E+02   0.370E+02 0.485E+01 0.490E+02   -.261E+00 0.420E+00 -.504E+00   -.116E-01 -.154E-02 -.104E-01
   0.307E+02 -.136E+02 0.365E+02   -.299E+02 0.137E+02 -.366E+02   -.770E+00 -.688E-01 0.461E-01   0.294E-02 -.196E-02 0.508E-02
   0.483E+01 0.172E+02 0.697E+01   -.432E+01 -.172E+02 -.732E+01   -.514E+00 0.540E-01 0.342E+00   0.301E-02 0.200E-02 0.425E-02
   0.472E+02 0.126E+02 0.329E+02   -.476E+02 -.133E+02 -.326E+02   0.391E+00 0.684E+00 -.248E+00   0.219E-02 0.309E-02 -.245E-02
   0.204E+02 -.816E+02 -.248E+02   -.206E+02 0.816E+02 0.253E+02   0.213E+00 0.413E-01 -.464E+00   0.889E-02 -.126E-01 -.421E-02
   -.484E+02 0.847E+01 0.247E+02   0.488E+02 -.846E+01 -.243E+02   -.350E+00 -.127E-01 -.468E+00   -.215E-02 0.170E-02 0.137E-02
   0.391E+02 0.800E+02 -.271E+02   -.395E+02 -.800E+02 0.269E+02   0.401E+00 -.220E-01 0.203E+00   0.115E-01 0.140E-01 -.385E-02
   -.184E+03 -.522E+02 0.318E+02   0.184E+03 0.516E+02 -.321E+02   -.784E+00 0.608E+00 0.218E+00   -.277E-02 -.137E-01 0.971E-02
   0.596E+02 0.671E+02 -.132E+02   -.596E+02 -.675E+02 0.143E+02   -.465E-01 0.312E+00 -.105E+01   -.138E-01 0.453E-01 -.314E-01
   -.157E+02 -.915E+02 0.294E+01   0.162E+02 0.922E+02 -.336E+01   -.460E+00 -.716E+00 0.434E+00   -.240E-01 -.389E-01 -.116E-01
   -.601E+01 -.105E+03 -.820E+02   0.636E+01 0.104E+03 0.829E+02   -.341E+00 0.811E+00 -.935E+00   -.826E-02 -.293E-01 0.286E-01
   -.740E+02 0.532E+02 0.219E+02   0.757E+02 -.540E+02 -.221E+02   -.167E+01 0.786E+00 0.180E+00   -.296E-01 0.443E-01 -.126E-01
   -.160E+03 -.123E+02 0.376E+01   0.160E+03 0.123E+02 -.337E+01   -.449E+00 -.631E-01 -.372E+00   0.131E-01 0.504E-02 -.143E-01
   -.530E+02 -.113E+03 -.118E+03   0.545E+02 0.114E+03 0.118E+03   -.144E+01 -.748E+00 0.555E+00   0.402E-02 -.112E-01 -.410E-02
   0.207E+03 -.732E+02 0.109E+03   -.207E+03 0.729E+02 -.110E+03   0.369E+00 0.309E+00 0.577E+00   -.104E-03 -.118E-01 0.104E-01
   -.759E+02 0.148E+02 0.763E+02   0.742E+02 -.157E+02 -.751E+02   0.174E+01 0.909E+00 -.116E+01   -.527E-02 -.657E-02 0.477E-02
   0.308E+02 -.103E+03 0.346E+02   -.323E+02 0.104E+03 -.348E+02   0.145E+01 -.598E+00 0.234E+00   -.475E-02 -.380E-01 -.278E-01
   -.796E+02 0.453E+02 -.474E+02   0.797E+02 -.458E+02 0.468E+02   -.147E+00 0.548E+00 0.608E+00   0.103E-01 0.122E-01 -.275E-02
   -.294E+01 -.176E+03 0.101E+03   0.284E+01 0.177E+03 -.100E+03   0.832E-01 -.653E+00 -.614E+00   0.851E-02 -.166E-01 0.547E-02
   0.377E+02 0.147E+03 0.194E+02   -.374E+02 -.148E+03 -.187E+02   -.319E+00 0.593E+00 -.656E+00   0.105E-01 0.179E-01 0.479E-02
   -.513E+01 -.366E+02 0.235E+02   0.692E+01 0.371E+02 -.235E+02   -.180E+01 -.461E+00 -.194E-01   -.727E-03 -.543E-02 0.428E-02
   0.587E+02 0.202E+02 -.128E+03   -.576E+02 -.216E+02 0.129E+03   -.112E+01 0.143E+01 -.821E+00   -.229E-02 -.253E-02 -.792E-03
   -.435E+02 0.548E+02 -.434E+02   0.441E+02 -.529E+02 0.443E+02   -.595E+00 -.189E+01 -.885E+00   -.597E-02 -.214E-01 -.552E-02
   -.195E+02 -.109E+02 0.264E+02   0.178E+02 0.816E+01 -.290E+02   0.170E+01 0.271E+01 0.262E+01   0.185E-02 -.421E-02 0.468E-02
   -.115E+03 -.120E+02 -.890E+02   0.116E+03 0.136E+02 0.929E+02   -.101E+01 -.167E+01 -.379E+01   0.149E-02 -.817E-02 -.508E-01
   0.120E+03 -.162E+02 0.739E+02   -.119E+03 0.154E+02 -.753E+02   -.933E+00 0.859E+00 0.141E+01   -.146E-02 -.360E-02 0.151E-01
   -.124E+03 0.723E+01 -.776E+02   0.125E+03 -.663E+01 0.761E+02   -.110E+01 -.597E+00 0.147E+01   -.148E-02 0.129E-02 0.143E-01
   0.537E+02 0.114E+03 0.626E+02   -.553E+02 -.112E+03 -.614E+02   0.161E+01 -.105E+01 -.121E+01   0.956E-02 0.443E-02 -.775E-02
   0.252E+02 0.251E+01 -.822E+02   -.288E+02 -.239E+01 0.829E+02   0.360E+01 -.114E+00 -.669E+00   -.363E-01 -.498E-02 0.125E-02
   0.836E+02 -.377E+02 -.266E+00   -.851E+02 0.347E+02 0.151E+01   0.152E+01 0.300E+01 -.124E+01   -.485E-02 -.367E-01 -.381E-02
   0.137E+02 0.140E+02 -.387E+02   -.168E+02 -.146E+02 0.417E+02   0.308E+01 0.633E+00 -.306E+01   -.927E-02 -.337E-02 0.304E-01
   0.388E+02 -.581E+02 -.684E+02   -.408E+02 0.563E+02 0.674E+02   0.197E+01 0.184E+01 0.100E+01   0.642E-02 -.172E-01 0.106E-01
   0.858E+02 -.213E+02 0.356E+02   -.870E+02 0.221E+02 -.383E+02   0.121E+01 -.783E+00 0.272E+01   0.479E-01 -.977E-02 -.110E-01
   -.639E+02 -.185E+02 0.951E+02   0.631E+02 0.194E+02 -.968E+02   0.743E+00 -.846E+00 0.176E+01   -.111E-02 0.177E-03 0.979E-03
   0.481E+02 -.130E+03 0.263E+02   -.485E+02 0.131E+03 -.258E+02   0.378E+00 -.848E+00 -.482E+00   0.601E-02 -.496E-02 -.749E-02
   0.349E+02 0.229E+02 0.269E+02   -.335E+02 -.230E+02 -.269E+02   -.136E+01 0.181E+00 0.622E-01   0.376E-02 0.301E-02 0.414E-02
   -.109E+03 0.215E+02 -.757E+02   0.109E+03 -.216E+02 0.768E+02   -.525E+00 0.111E+00 -.116E+01   0.115E-01 0.202E-02 -.550E-03
   -.390E+02 -.835E+02 -.294E+02   0.400E+02 0.834E+02 0.292E+02   -.104E+01 0.112E-01 0.208E+00   -.631E-02 0.190E-01 -.373E-02
   -.179E+02 0.430E+01 0.288E+02   0.170E+02 -.284E+01 -.298E+02   0.930E+00 -.148E+01 0.102E+01   -.232E-02 0.382E-02 0.238E-02
   0.104E+03 0.252E+02 -.452E+01   -.104E+03 -.268E+02 0.508E+01   -.194E+00 0.154E+01 -.551E+00   -.124E-01 0.256E-02 -.872E-03
   0.114E+03 0.472E+02 0.109E+03   -.116E+03 -.479E+02 -.112E+03   0.181E+01 0.705E+00 0.212E+01   -.271E-03 0.413E-02 0.570E-03
   -.825E+02 -.726E+02 -.116E+02   0.839E+02 0.724E+02 0.116E+02   -.137E+01 0.155E+00 0.488E-02   0.256E-02 -.650E-02 -.480E-02
   0.205E+02 0.273E+00 0.874E+02   -.193E+02 -.687E+00 -.878E+02   -.120E+01 0.418E+00 0.415E+00   0.145E-01 -.365E-02 0.480E-02
   -.260E+02 -.111E+03 0.235E+02   0.272E+02 0.113E+03 -.234E+02   -.120E+01 -.184E+01 -.147E+00   -.531E-02 -.493E-02 0.477E-02
   -.812E+02 0.440E+02 -.133E+02   0.825E+02 -.435E+02 0.133E+02   -.131E+01 -.474E+00 0.811E-02   0.295E-02 0.643E-02 -.533E-02
   0.680E+02 0.189E+02 0.564E+02   -.696E+02 -.188E+02 -.573E+02   0.158E+01 -.856E-01 0.889E+00   0.191E-02 0.233E-02 0.104E-02
   -.225E+02 0.982E+02 0.646E+01   0.235E+02 -.996E+02 -.558E+01   -.978E+00 0.145E+01 -.881E+00   -.546E-02 0.550E-02 0.537E-02
   -.342E+02 0.157E+02 0.115E+03   0.352E+02 -.160E+02 -.115E+03   -.103E+01 0.250E+00 0.932E+00   -.242E-02 0.891E-03 -.150E-01
   0.622E+02 0.591E+02 0.123E+02   -.630E+02 -.577E+02 -.125E+02   0.870E+00 -.142E+01 0.220E+00   -.535E-02 0.449E-01 0.486E-03
   -.702E+02 0.342E+02 -.347E+02   0.717E+02 -.358E+02 0.357E+02   -.145E+01 0.165E+01 -.103E+01   -.868E-03 0.134E-02 0.302E-02
   0.239E+02 0.232E+02 -.779E+02   -.248E+02 -.208E+02 0.779E+02   0.956E+00 -.243E+01 0.308E-01   0.322E-02 0.172E-01 0.794E-02
   0.337E+02 0.130E+02 -.813E+02   -.345E+02 -.131E+02 0.829E+02   0.733E+00 0.188E+00 -.157E+01   0.270E-02 0.215E-02 -.251E-02
   0.220E+03 -.122E+02 -.134E+03   -.221E+03 0.139E+02 0.134E+03   0.366E+00 -.167E+01 0.370E+00   0.587E-01 -.147E-01 -.492E-01
   -.141E+03 0.735E+02 -.139E+03   0.142E+03 -.724E+02 0.139E+03   -.104E+01 -.107E+01 -.239E+00   -.723E-02 0.799E-02 -.511E-02
   0.123E+03 0.411E+02 0.167E+03   -.126E+03 -.415E+02 -.167E+03   0.272E+01 0.308E+00 0.107E+00   0.227E-02 0.119E-01 0.750E-02
   -.966E+02 0.478E+02 -.120E+03   0.967E+02 -.473E+02 0.120E+03   -.130E+00 -.492E+00 -.228E+00   -.592E-03 -.802E-02 -.258E-01
   -.167E+02 -.364E+02 0.779E+01   0.147E+02 0.341E+02 -.877E+01   0.192E+01 0.229E+01 0.947E+00   0.261E-01 -.871E-02 0.259E-01
   -.814E+02 -.516E+02 0.907E+02   0.802E+02 0.495E+02 -.902E+02   0.119E+01 0.213E+01 -.433E+00   -.720E-02 0.531E-02 -.113E-01
   -.115E+03 0.678E+02 0.447E+02   0.117E+03 -.672E+02 -.453E+02   -.127E+01 -.543E+00 0.644E+00   -.548E-02 0.107E-01 0.124E-01
   -.365E+02 0.893E+01 0.558E+02   0.363E+02 -.742E+01 -.576E+02   0.197E+00 -.153E+01 0.174E+01   -.592E-02 0.102E-01 0.109E-01
   -.333E+02 -.570E+01 0.123E+03   0.333E+02 0.537E+01 -.123E+03   0.186E-01 0.336E+00 0.859E-01   -.181E-01 -.663E-02 0.293E-01
   0.164E+03 0.101E+03 -.139E+03   -.165E+03 -.998E+02 0.140E+03   0.172E+01 -.105E+01 -.621E+00   0.411E-02 0.728E-02 0.111E-01
   0.190E+03 0.760E+02 0.233E+02   -.191E+03 -.756E+02 -.224E+02   0.840E+00 -.427E+00 -.893E+00   -.169E-01 0.967E-02 -.161E-01
   -.624E+02 0.374E+02 -.722E+02   0.620E+02 -.368E+02 0.718E+02   0.463E+00 -.581E+00 0.347E+00   -.696E-02 0.338E-01 0.293E-01
 -----------------------------------------------------------------------------------------------
   -.862E+01 -.204E+01 0.191E+01   -.540E-12 -.128E-12 0.341E-12   0.859E+01 0.202E+01 -.187E+01   0.768E-02 0.587E-02 -.358E-01
 
 
 POSITION                                       TOTAL-FORCE (eV/Angst)
 -----------------------------------------------------------------------------------
      0.05447      8.77748      8.77663        -0.000861      0.002187      0.000146
      2.37412      0.02509      2.13229         0.002440      0.001635     -0.003295
      2.18219      4.36431      2.16581         0.000546      0.001710      0.000817
      4.42788      4.41553      0.01598         0.000512      0.001132      0.001804
      4.47977      2.18526      6.52449         0.000427      0.002834      0.000165
      8.81588      4.44465      4.39811        -0.000281     -0.000444     -0.000048
      4.41306      6.69536      6.59103        -0.001342     -0.000820      0.000578
      8.75324      2.13812      2.18433        -0.000226      0.001663      0.001078
      6.67147      6.59734      0.09910         0.001543     -0.000336      0.002523
      0.03562      2.19652      6.61138        -0.001206     -0.000467      0.000446
      6.64679      2.16636      4.36986        -0.000017     -0.005054     -0.001160
      0.03680      6.61106      6.60032         0.003092      0.001827      0.000692
      2.22658      4.36448      6.60213         0.001026      0.002504     -0.000964
      2.31321      2.13180      8.70632         0.001037      0.001199     -0.000476
      4.51499      2.25185      2.21491         0.000751     -0.001682      0.001630
      6.48575      8.76467      2.27719        -0.003048      0.000762     -0.001828
      6.55764      2.13227      8.78895        -0.000839      0.000325      0.001587
      2.21528      6.58157      8.76877        -0.000510      0.000974     -0.002284
      2.22886      2.16887      4.45401        -0.000023      0.001820      0.000657
      2.24308      6.62365      4.42015         0.000363     -0.000388      0.001356
      2.19183      2.19037      2.17586        -0.000105      0.000448      0.000374
      2.31959      0.00361      8.70298        -0.000465     -0.000140      0.000423
      0.01182      2.24471      0.00227        -0.000172      0.000678     -0.000343
      6.59781      2.13455      2.15920        -0.001854     -0.002980     -0.000815
      6.54975      8.81013      0.04617        -0.001582     -0.000238     -0.001955
      4.51181      0.01290      2.44515        -0.000703     -0.001812      0.003914
      8.75466      4.42238      2.11800         0.000720      0.000745      0.000795
      4.42177      6.74873      0.07412         0.001084      0.002032     -0.000793
      8.72520      0.05309      6.49738         0.002594      0.000136      0.000616
      6.69789      2.20501      6.59144         0.000779     -0.000006     -0.000287
      6.73696      0.05705      4.32920        -0.001162     -0.003848      0.004200
      4.43220      2.17599      4.29925         0.000972     -0.000357      0.000198
      4.64818      0.02691      6.51724         0.002580     -0.000628     -0.000654
      8.80404      0.02522      2.21323        -0.000750      0.003678     -0.000123
      4.42215      2.10729      0.02867        -0.000803     -0.000408     -0.000116
      2.26173      6.61180      2.19303         0.000279      0.000201     -0.000069
      2.14705      4.40899      8.73892         0.001468      0.000179      0.000195
      0.04662      6.52742      0.04188        -0.000187     -0.001345     -0.000620
      6.61876      6.59230      2.22364         0.001349     -0.003242      0.000045
      6.74317      4.36678      0.04337        -0.000135     -0.001204     -0.001263
      4.42679      4.43657      2.22196         0.000846      0.002343     -0.001914
      2.20864      2.18115      6.58931         0.000395      0.000053      0.000392
      2.28590      8.81221      4.51319         0.000181      0.000611     -0.001289
      0.04811      2.16742      4.40074        -0.000056      0.000151      0.000386
      2.16971      6.66690      6.61130         0.000226      0.000395      0.000057
      2.28596      4.42548      4.42189         0.000528      0.001036     -0.000709
      8.83393      6.71260      4.38548         0.000298      0.001298     -0.000605
      8.84113      4.43369      6.63740         0.000714     -0.000335     -0.000573
      6.66622      6.66195      6.59427         0.000121     -0.000846      0.001855
      6.57207      4.37637      4.45459        -0.001040     -0.002894     -0.000701
      4.42097      6.75557      4.28123         0.000605      0.003141      0.001766
      4.47110      4.43879      6.52128        -0.000152      0.001249     -0.000242
      4.54769      0.10722      8.46846         0.002772     -0.001665      0.002383
      8.82044      4.55151      8.60974        -0.003749      0.005483      0.002723
      4.21925      6.49752      2.25442        -0.003018      0.002557     -0.001086
      2.01276      0.13049      6.61114        -0.006175     -0.000041     -0.005265
      4.15886      8.77450      4.56552        -0.005192     -0.003217     -0.003667
      6.56267      8.56028      6.87277         0.000280      0.001323     -0.002787
      0.17835      6.76102      2.24948         0.001146     -0.006292      0.001676
      6.53244      4.37028      2.22671         0.001856     -0.004557      0.000894
      0.20126      0.02922      4.35997         0.001875     -0.001568      0.001070
      4.45566      4.58438      4.29597         0.000529     -0.002930      0.003406
      6.68112      4.56089      6.71192        -0.000431     -0.003388     -0.001034
      6.58548      6.50264      4.30541         0.000149      0.004824     -0.003880
 -----------------------------------------------------------------------------------
    total drift:                               -0.019768     -0.013640      0.007322


--------------------------------------------------------------------------------------------------------



  FREE ENERGIE OF THE ION-ELECTRON SYSTEM (eV)
  ---------------------------------------------------
  free  energy   TOTEN  =      -645.82206325 eV

  energy  without entropy=     -645.71120304  energy(sigma->0) =     -645.76663315
 
 d Force = 0.1510752E-04[-0.758E-06, 0.310E-04]  d Energy = 0.1157485E-04 0.353E-05
 d Force = 0.7406309E-02[ 0.733E-02, 0.749E-02]  d Ewald  = 0.6818060E-01-0.608E-01


--------------------------------------------------------------------------------------------------------


    POTLOK:  cpu time      0.0288: real time      0.0288


--------------------------------------------------------------------------------------------------------


 Conjugate gradient step on ions:
 trial-energy change:   -0.000012  1 .order   -0.000013   -0.000027    0.000001
  (g-gl).g = 0.415E-03      g.g   = 0.392E-03  gl.gl    = 0.138E-03
 g(Force)  = 0.122E-03   g(Stress)= 0.270E-03 ortho     =-0.234E-04
 gamma     =   3.00387
 trial     =   0.08395
 opt step  =   0.07960  (harmonic =   0.07960) maximal distance =0.00017196
 next E    =  -645.822064   (d E  =  -0.00001)


--------------------------------------------------------------------------------------------------------


  
 reached required accuracy - stopping structural energy minimisation
     LOOP+:  cpu time     81.4705: real time     83.0227
    4ORBIT:  cpu time      0.0000: real time      0.0000

 total amount of memory used by VASP MPI-rank0   259058. kBytes
=======================================================================

   base      :      30000. kBytes
   nonl-proj :     188594. kBytes
   fftplans  :       1680. kBytes
   grid      :       8060. kBytes
   one-center:        995. kBytes
   wavefun   :      29729. kBytes
 
  
  
 General timing and accounting informations for this job:
 ========================================================
  
                  Total CPU time used (sec):      882.825
                            User time (sec):      879.750
                          System time (sec):        3.075
                         Elapsed time (sec):      900.616
  
                   Maximum memory used (kb):      341900.
                   Average memory used (kb):          N/A
  
                          Minor page faults:       274966
                          Major page faults:            2
                 Voluntary context switches:         1290
