<?xml version="1.0" encoding="ISO-8859-1"?>
<modeling>
 <generator>
  <i name="program" type="string">vasp </i>
  <i name="version" type="string">6.4.3  </i>
  <i name="subversion" type="string">19Mar24 (build Sep 18 2024 11:30:23) complex                          parallel </i>
  <i name="platform" type="string">LinuxIFC </i>
  <i name="date" type="string">2026 07 07 </i>
  <i name="time" type="string">06:20:38 </i>
 </generator>
 <incar>
  <i type="string" name="SYSTEM">HECN</i>
  <i type="int" name="ISTART">     0</i>
  <i type="string" name="PREC">Normal</i>
  <i type="string" name="ALGO">Fast</i>
  <i type="int" name="ICHARG">     2</i>
  <i type="int" name="NELM">    60</i>
  <i type="int" name="IBRION">     2</i>
  <i name="EDIFF">      0.00001000</i>
  <i name="EDIFFG">     -0.01000000</i>
  <i type="int" name="NSW">   100</i>
  <i type="int" name="ISIF">     3</i>
  <i name="ENCUT">    400.00000000</i>
  <i name="POTIM">      0.50000000</i>
  <i type="logical" name="LREAL"> F  </i>
  <i type="int" name="ISMEAR">     0</i>
  <i name="SIGMA">      0.10000000</i>
  <i type="logical" name="LWAVE"> F  </i>
  <i type="logical" name="LCHARG"> F  </i>
 </incar>
 <primitive_cell>
  <structure name="primitive_cell" >
   <crystal>
    <varray name="basis" >
     <v>       8.81285393       0.02359272      -0.01411321 </v>
     <v>       0.03013209       8.81456044       0.00537124 </v>
     <v>       0.01752462      -0.00986723       8.79942004 </v>
    </varray>
    <i name="volume">    683.54796174 </i>
    <varray name="rec_basis" >
     <v>       0.11347130      -0.00038776      -0.00022642 </v>
     <v>      -0.00030351       0.11344961       0.00012782 </v>
     <v>       0.00018218      -0.00006987       0.11364341 </v>
    </varray>
   </crystal>
   <varray name="positions" >
    <v>       0.00080765       0.99696967       0.99673047 </v>
    <v>       0.26889453       0.00241397       0.24276121 </v>
    <v>       0.24539941       0.49475619       0.24621750 </v>
    <v>       0.50066473       0.49963069       0.00231673 </v>
    <v>       0.50595199       0.24741187       0.74207228 </v>
    <v>       0.99752541       0.50215587       0.50107187 </v>
    <v>       0.49660771       0.75912207       0.74932079 </v>
    <v>       0.99181456       0.24020107       0.24966839 </v>
    <v>       0.75435289       0.74652016       0.01202305 </v>
    <v>       0.00168771       0.25003882       0.75114984 </v>
    <v>       0.75230086       0.24437121       0.49766080 </v>
    <v>       0.00012492       0.75090628       0.74958114 </v>
    <v>       0.24943486       0.49535344       0.75033904 </v>
    <v>       0.25967389       0.24225988       0.98961975 </v>
    <v>       0.51090543       0.25439027       0.25237557 </v>
    <v>       0.73193427       0.99272110       0.25938243 </v>
    <v>       0.74121141       0.24105120       0.99977459 </v>
    <v>       0.24681064       0.74717309       0.99638732 </v>
    <v>       0.25103700       0.24597198       0.50640144 </v>
    <v>       0.25093019       0.75137471       0.50225186 </v>
    <v>       0.24732898       0.24812093       0.24750103 </v>
    <v>       0.26119930       0.00082237       0.98941252 </v>
    <v>       0.00047420       0.25466364       0.00009590 </v>
    <v>       0.74728248       0.24048203       0.24642491 </v>
    <v>       0.73970656       0.99758978       0.00584471 </v>
    <v>       0.51134306       0.00042326       0.27864968 </v>
    <v>       0.99110136       0.49934843       0.24198598 </v>
    <v>       0.49905761       0.76434216       0.00875327 </v>
    <v>       0.98846210       0.00420504       0.73992503 </v>
    <v>       0.75758822       0.24897915       0.75009107 </v>
    <v>       0.76337955       0.00501386       0.49313799 </v>
    <v>       0.50106556       0.24608109       0.48920644 </v>
    <v>       0.52589866       0.00246830       0.74144558 </v>
    <v>       0.99838985       0.00049252       0.25310417 </v>
    <v>       0.50091514       0.23773881       0.00391380 </v>
    <v>       0.25355753       0.74973401       0.24916014 </v>
    <v>       0.23992218       0.50069309       0.99314102 </v>
    <v>       0.00274799       0.74055953       0.00431787 </v>
    <v>       0.74789627       0.74623097       0.25343228 </v>
    <v>       0.76336401       0.49340136       0.00586796 </v>
    <v>       0.50000835       0.50227913       0.25297291 </v>
    <v>       0.24825934       0.24762973       0.74903572 </v>
    <v>       0.25493651       0.99967871       0.51267191 </v>
    <v>       0.00362245       0.24645902       0.49994072 </v>
    <v>       0.24209091       0.75658883       0.75121533 </v>
    <v>       0.25665399       0.50196607       0.50259215 </v>
    <v>       0.99868570       0.75947274       0.49949016 </v>
    <v>       0.99987863       0.50119089       0.75554507 </v>
    <v>       0.75226883       0.75467716       0.75010051 </v>
    <v>       0.74295757       0.49510623       0.50710603 </v>
    <v>       0.49800725       0.76566148       0.48683726 </v>
    <v>       0.50409543       0.50308403       0.74155625 </v>
    <v>       0.51405213       0.01186421       0.96316589 </v>
    <v>       0.99704075       0.51483618       0.97967877 </v>
    <v>       0.47566160       0.73617244       0.25648931 </v>
    <v>       0.22677342       0.01504195       0.75157556 </v>
    <v>       0.46742632       0.99481528       0.51894441 </v>
    <v>       0.73970023       0.97011396       0.78162368 </v>
    <v>       0.01711069       0.76728041       0.25519257 </v>
    <v>       0.73896034       0.49420077       0.25392011 </v>
    <v>       0.02183532       0.00380364       0.49549982 </v>
    <v>       0.50278201       0.51928749       0.48869452 </v>
    <v>       0.75474718       0.51627106       0.76363023 </v>
    <v>       0.74369475       0.73633447       0.49000386 </v>
   </varray>
  </structure>
  <varray name="primitive_index" >
   <v type="int" >        1 </v>
   <v type="int" >        2 </v>
   <v type="int" >        3 </v>
   <v type="int" >        4 </v>
   <v type="int" >        5 </v>
   <v type="int" >        6 </v>
   <v type="int" >        7 </v>
   <v type="int" >        8 </v>
   <v type="int" >        9 </v>
   <v type="int" >       10 </v>
   <v type="int" >       11 </v>
   <v type="int" >       12 </v>
   <v type="int" >       13 </v>
   <v type="int" >       14 </v>
   <v type="int" >       15 </v>
   <v type="int" >       16 </v>
   <v type="int" >       17 </v>
   <v type="int" >       18 </v>
   <v type="int" >       19 </v>
   <v type="int" >       20 </v>
   <v type="int" >       21 </v>
   <v type="int" >       22 </v>
   <v type="int" >       23 </v>
   <v type="int" >       24 </v>
   <v type="int" >       25 </v>
   <v type="int" >       26 </v>
   <v type="int" >       27 </v>
   <v type="int" >       28 </v>
   <v type="int" >       29 </v>
   <v type="int" >       30 </v>
   <v type="int" >       31 </v>
   <v type="int" >       32 </v>
   <v type="int" >       33 </v>
   <v type="int" >       34 </v>
   <v type="int" >       35 </v>
   <v type="int" >       36 </v>
   <v type="int" >       37 </v>
   <v type="int" >       38 </v>
   <v type="int" >       39 </v>
   <v type="int" >       40 </v>
   <v type="int" >       41 </v>
   <v type="int" >       42 </v>
   <v type="int" >       43 </v>
   <v type="int" >       44 </v>
   <v type="int" >       45 </v>
   <v type="int" >       46 </v>
   <v type="int" >       47 </v>
   <v type="int" >       48 </v>
   <v type="int" >       49 </v>
   <v type="int" >       50 </v>
   <v type="int" >       51 </v>
   <v type="int" >       52 </v>
   <v type="int" >       53 </v>
   <v type="int" >       54 </v>
   <v type="int" >       55 </v>
   <v type="int" >       56 </v>
   <v type="int" >       57 </v>
   <v type="int" >       58 </v>
   <v type="int" >       59 </v>
   <v type="int" >       60 </v>
   <v type="int" >       61 </v>
   <v type="int" >       62 </v>
   <v type="int" >       63 </v>
   <v type="int" >       64 </v>
  </varray>
 </primitive_cell>
 <kpoints>
  <generation param="Gamma">
   <v type="int" name="divisions">       3        3        3 </v>
   <v name="usershift">      0.00000000       0.00000000       0.00000000 </v>
   <v name="genvec1">      0.33333333      -0.00000000      -0.00000000 </v>
   <v name="genvec2">     -0.00000000       0.33333333      -0.00000000 </v>
   <v name="genvec3">      0.00000000      -0.00000000       0.33333333 </v>
   <v name="shift">      0.00000000       0.00000000       0.00000000 </v>
  </generation>
  <varray name="kpointlist" >
   <v>       0.00000000       0.00000000       0.00000000 </v>
   <v>       0.33333333       0.00000000       0.00000000 </v>
   <v>       0.00000000       0.33333333      -0.00000000 </v>
   <v>       0.33333333       0.33333333       0.00000000 </v>
   <v>      -0.33333333       0.33333333       0.00000000 </v>
   <v>      -0.00000000      -0.00000000       0.33333333 </v>
   <v>       0.33333333       0.00000000       0.33333333 </v>
   <v>      -0.33333333      -0.00000000       0.33333333 </v>
   <v>      -0.00000000       0.33333333       0.33333333 </v>
   <v>       0.33333333       0.33333333       0.33333333 </v>
   <v>      -0.33333333       0.33333333       0.33333333 </v>
   <v>      -0.00000000      -0.33333333       0.33333333 </v>
   <v>       0.33333333      -0.33333333       0.33333333 </v>
   <v>      -0.33333333      -0.33333333       0.33333333 </v>
  </varray>
  <varray name="weights" >
   <v>       0.03703704 </v>
   <v>       0.07407407 </v>
   <v>       0.07407407 </v>
   <v>       0.07407407 </v>
   <v>       0.07407407 </v>
   <v>       0.07407407 </v>
   <v>       0.07407407 </v>
   <v>       0.07407407 </v>
   <v>       0.07407407 </v>
   <v>       0.07407407 </v>
   <v>       0.07407407 </v>
   <v>       0.07407407 </v>
   <v>       0.07407407 </v>
   <v>       0.07407407 </v>
  </varray>
 </kpoints>
 <parameters>
  <separator name="general" >
   <i type="string" name="SYSTEM">HECN</i>
   <i type="logical" name="LCOMPAT"> F  </i>
  </separator>
  <separator name="electronic" >
   <i type="string" name="PREC">normal</i>
   <i name="ENMAX">    400.00000000</i>
   <i name="ENAUG">    644.87300000</i>
   <i name="EDIFF">      0.00001000</i>
   <i type="int" name="IALGO">    68</i>
   <i type="int" name="IWAVPR">    11</i>
   <i type="int" name="NBANDS">   280</i>
   <i type="int" name="NBANDSLOW">    -1</i>
   <i type="int" name="NBANDSHIGH">    -1</i>
   <i name="NELECT">    449.00000000</i>
   <i type="int" name="TURBO">     0</i>
   <i type="int" name="IRESTART">     0</i>
   <i type="int" name="NREBOOT">     0</i>
   <i type="int" name="NMIN">     0</i>
   <i name="EREF">      0.00000000</i>
   <separator name="electronic smearing" >
    <i type="int" name="ISMEAR">     0</i>
    <i name="SIGMA">      0.10000000</i>
    <i name="KSPACING">      0.50000000</i>
    <i type="logical" name="KGAMMA"> T  </i>
    <i type="logical" name="KBLOWUP"> T  </i>
   </separator>
   <separator name="electronic projectors" >
    <i type="logical" name="LREAL"> F  </i>
    <v name="ROPT">      0.00000000      0.00000000      0.00000000      0.00000000      0.00000000      0.00000000      0.00000000</v>
    <i type="int" name="LMAXPAW">  -100</i>
    <i type="int" name="LMAXMIX">     2</i>
    <i type="logical" name="NLSPLINE"> F  </i>
   </separator>
   <separator name="electronic startup" >
    <i type="int" name="ISTART">     0</i>
    <i type="int" name="ICHARG">     2</i>
    <i type="int" name="INIWAV">     1</i>
   </separator>
   <separator name="electronic spin" >
    <i type="int" name="ISPIN">     1</i>
    <i type="logical" name="LNONCOLLINEAR"> F  </i>
    <v name="MAGMOM">      1.00000000      1.00000000      1.00000000      1.00000000      1.00000000      1.00000000      1.00000000      1.00000000      1.00000000      1.00000000      1.00000000      1.00000000      1.00000000      1.00000000      1.00000000      1.00000000      1.00000000      1.00000000      1.00000000      1.00000000
      1.00000000      1.00000000      1.00000000      1.00000000      1.00000000      1.00000000      1.00000000      1.00000000      1.00000000      1.00000000      1.00000000      1.00000000      1.00000000      1.00000000      1.00000000      1.00000000      1.00000000      1.00000000      1.00000000      1.00000000
      1.00000000      1.00000000      1.00000000      1.00000000      1.00000000      1.00000000      1.00000000      1.00000000      1.00000000      1.00000000      1.00000000      1.00000000      1.00000000      1.00000000      1.00000000      1.00000000      1.00000000      1.00000000      1.00000000      1.00000000
      1.00000000      1.00000000      1.00000000      1.00000000</v>
    <i name="NUPDOWN">     -1.00000000</i>
    <i type="logical" name="LSORBIT"> F  </i>
    <v name="SAXIS">      0.00000000      0.00000000      1.00000000</v>
    <i type="logical" name="LSPIRAL"> F  </i>
    <v name="QSPIRAL">      0.00000000      0.00000000      0.00000000</v>
    <i type="logical" name="LZEROZ"> F  </i>
   </separator>
   <separator name="electronic exchange-correlation" >
    <i type="logical" name="LASPH"> F  </i>
   </separator>
   <separator name="electronic convergence" >
    <i type="int" name="NELM">    60</i>
    <i type="int" name="NELMDL">    -5</i>
    <i type="int" name="NELMIN">     2</i>
    <i name="ENINI">    400.00000000</i>
    <separator name="electronic convergence detail" >
     <i type="logical" name="LDIAG"> T  </i>
     <i type="logical" name="LSUBROT"> F  </i>
     <i name="WEIMIN">      0.00100000</i>
     <i name="EBREAK">      0.00000001</i>
     <i name="DEPER">      0.30000000</i>
     <i type="int" name="NRMM">     4</i>
     <i name="TIME">      0.40000000</i>
    </separator>
   </separator>
   <separator name="electronic mixer" >
    <i name="AMIX">      0.40000000</i>
    <i name="BMIX">      1.00000000</i>
    <i name="AMIN">      0.10000000</i>
    <i name="AMIX_MAG">      1.60000000</i>
    <i name="BMIX_MAG">      1.00000000</i>
    <separator name="electronic mixer details" >
     <i type="int" name="IMIX">     4</i>
     <i type="logical" name="MIXFIRST"> F  </i>
     <i type="int" name="MAXMIX">   -45</i>
     <i name="WC">    100.00000000</i>
     <i type="int" name="INIMIX">     1</i>
     <i type="int" name="MIXPRE">     1</i>
     <i type="int" name="MREMOVE">     5</i>
    </separator>
   </separator>
   <separator name="electronic dipolcorrection" >
    <i type="logical" name="LDIPOL"> F  </i>
    <i type="logical" name="LMONO"> F  </i>
    <i type="int" name="IDIPOL">     0</i>
    <i name="EPSILON">      1.00000000</i>
    <v name="DIPOL">   -100.00000000   -100.00000000   -100.00000000</v>
    <i name="EFIELD">      0.00000000</i>
    <i type="logical" name="LVACPOTAV"> F  </i>
   </separator>
  </separator>
  <separator name="grids" >
   <i type="int" name="NGX">    48</i>
   <i type="int" name="NGY">    48</i>
   <i type="int" name="NGZ">    48</i>
   <i type="int" name="NGXF">    96</i>
   <i type="int" name="NGYF">    96</i>
   <i type="int" name="NGZF">    96</i>
   <i type="logical" name="ADDGRID"> F  </i>
  </separator>
  <separator name="ionic" >
   <i type="int" name="NSW">   100</i>
   <i type="int" name="IBRION">     2</i>
   <i type="int" name="MDALGO">     0</i>
   <i type="int" name="ISIF">     3</i>
   <i name="PSTRESS">      0.00000000</i>
   <i name="EDIFFG">     -0.01000000</i>
   <i type="int" name="NFREE">     1</i>
   <i name="POTIM">      0.50000000</i>
   <i name="SMASS">     -3.00000000</i>
   <i name="SCALEE">      1.00000000</i>
  </separator>
  <separator name="ionic md" >
   <i name="TEBEG">      0.00010000</i>
   <i name="TEEND">      0.00010000</i>
   <i type="int" name="NBLOCK">     1</i>
   <i type="int" name="KBLOCK">   100</i>
   <i type="int" name="NPACO">   256</i>
   <i name="APACO">     10.00000000</i>
  </separator>
  <separator name="symmetry" >
   <i type="int" name="ISYM">     2</i>
   <i name="SYMPREC">      0.00001000</i>
  </separator>
  <separator name="dos" >
   <i type="int" name="LORBIT">     0</i>
   <v name="RWIGS">     -1.00000000     -1.00000000     -1.00000000     -1.00000000     -1.00000000     -1.00000000     -1.00000000</v>
   <i type="int" name="NEDOS">   301</i>
   <i name="EMIN">     10.00000000</i>
   <i name="EMAX">    -10.00000000</i>
   <i name="EFERMI">      0.00000000</i>
  </separator>
  <separator name="writing" >
   <i type="int" name="NWRITE">     2</i>
   <i type="logical" name="LWAVE"> F  </i>
   <i type="logical" name="LDOWNSAMPLE"> F  </i>
   <i type="logical" name="LCHARG"> F  </i>
   <i type="logical" name="LPARD"> F  </i>
   <i type="logical" name="LVTOT"> F  </i>
   <i type="logical" name="LVHAR"> F  </i>
   <i type="logical" name="LELF"> F  </i>
   <i type="logical" name="LOPTICS"> F  </i>
   <v name="STM">      0.00000000      0.00000000      0.00000000      0.00000000      0.00000000      0.00000000      0.00000000</v>
  </separator>
  <separator name="performance" >
   <i type="int" name="NPAR">    28</i>
   <i type="int" name="NSIM">     4</i>
   <i type="int" name="NBLK">    -1</i>
   <i type="logical" name="LPLANE"> T  </i>
   <i type="logical" name="LSCALAPACK"> T  </i>
   <i type="logical" name="LSCAAWARE"> F  </i>
   <i type="logical" name="LSCALU"> F  </i>
   <i type="logical" name="LASYNC"> F  </i>
   <i type="logical" name="LORBITALREAL"> F  </i>
  </separator>
  <separator name="miscellaneous" >
   <i type="int" name="IDIOT">     3</i>
   <i type="int" name="PHON_NSTRUCT">    -1</i>
   <i type="logical" name="LMUSIC"> F  </i>
   <v name="POMASS">     91.22400000    180.94800000     47.88000000     14.00100000     12.01100000     51.99600000    183.85000000</v>
   <v name="DARWINR">      0.00000000      0.00000000      0.00000000      0.00000000      0.00000000      0.00000000      0.00000000</v>
   <v name="DARWINV">      1.00000000      1.00000000      1.00000000      1.00000000      1.00000000      1.00000000      1.00000000</v>
   <i type="logical" name="LCORR"> T  </i>
  </separator>
  <i type="logical" name="GGA_COMPAT"> T  </i>
  <i type="logical" name="LBERRY"> F  </i>
  <i type="int" name="ICORELEVEL">     0</i>
  <i type="logical" name="LDAU"> F  </i>
  <i type="int" name="I_CONSTRAINED_M">     0</i>
  <separator name="electronic exchange-correlation" >
   <i type="string" name="GGA    ">PE</i>
   <i type="string" name="XC_C">1</i>
   <i type="int" name="VOSKOWN">     0</i>
   <i type="logical" name="LHFCALC"> F  </i>
   <i type="string" name="PRECFOCK"></i>
   <i type="logical" name="LSYMGRAD"> F  </i>
   <i type="logical" name="LHFONE"> F  </i>
   <i type="logical" name="LRHFCALC"> F  </i>
   <i type="logical" name="LTHOMAS"> F  </i>
   <i type="logical" name="LMODELHF"> F  </i>
   <i type="logical" name="LFOCKACE"> F  </i>
   <i name="ENCUT4O">     -1.00000000</i>
   <i type="int" name="EXXOEP">     0</i>
   <i type="int" name="FOURORBIT">     0</i>
   <i name="AEXX">      0.00000000</i>
   <i name="HFALPHA">      0.00000000</i>
   <i name="MCALPHA">      0.00000000</i>
   <i name="ALDAX">      1.00000000</i>
   <i name="AGGAX">      1.00000000</i>
   <i name="AMGGAX">      1.00000000</i>
   <i name="ALDAC">      1.00000000</i>
   <i name="AGGAC">      1.00000000</i>
   <i name="AMGGAC">      1.00000000</i>
   <i type="int" name="NKREDX">     1</i>
   <i type="int" name="NKREDY">     1</i>
   <i type="int" name="NKREDZ">     1</i>
   <i type="logical" name="SHIFTRED"> F  </i>
   <i type="logical" name="ODDONLY"> F  </i>
   <i type="logical" name="EVENONLY"> F  </i>
   <i type="int" name="LMAXFOCK">     0</i>
   <i type="int" name="NMAXFOCKAE">     0</i>
   <i type="logical" name="LFOCKAEDFT"> F  </i>
   <i name="HFSCREEN">      0.00000000</i>
   <i name="HFSCREENC">      0.00000000</i>
   <i type="int" name="NBANDSGWLOW">     0</i>
  </separator>
  <separator name="vdW DFT" >
   <i type="logical" name="LUSE_VDW"> F  </i>
   <i type="int" name="IVDW_NL">    -1</i>
   <i type="logical" name="LSPIN_VDW"> F  </i>
   <i name="ZAB_VDW">     -0.84910000</i>
   <i name="GAMMA_VDW">      1.39626340</i>
   <i name="ALPHA_VDW">      0.00000000</i>
   <i name="PARAM1">      0.12340000</i>
   <i name="PARAM2">      1.00000000</i>
   <i name="BPARAM">      6.30000000</i>
   <i name="CPARAM">      0.00930000</i>
  </separator>
  <separator name="model GW" >
   <i type="int" name="MODEL_GW">     0</i>
   <i name="MODEL_EPS0">      6.40826214</i>
   <i name="MODEL_ALPHA">      1.00000000</i>
  </separator>
  <separator name="linear response parameters" >
   <i type="logical" name="LEPSILON"> F  </i>
   <i type="logical" name="LRPA"> F  </i>
   <i type="logical" name="LNABLA"> F  </i>
   <i type="logical" name="LVEL"> F  </i>
   <i name="CSHIFT">      0.10000000</i>
   <i name="OMEGAMAX">     -1.00000000</i>
   <i name="DEG_THRESHOLD">      0.00200000</i>
   <i name="RTIME">     -0.10000000</i>
   <i name="WPLASMAI">      0.00000000</i>
   <v name="DFIELD">      0.00000000      0.00000000      0.00000000</v>
   <v name="WPLASMA">      0.00000000      0.00000000      0.00000000      0.00000000      0.00000000      0.00000000      0.00000000      0.00000000      0.00000000</v>
  </separator>
  <separator name="orbital magnetization" >
   <i type="logical" name="NUCIND"> F  </i>
   <v name="MAGPOS">      0.00000000      0.00000000      0.00000000</v>
   <i type="logical" name="LNICSALL"> T  </i>
   <i type="logical" name="ORBITALMAG"> F  </i>
   <i type="logical" name="LMAGBLOCH"> F  </i>
   <i type="logical" name="LCHIMAG"> F  </i>
   <i type="logical" name="LGAUGE"> T  </i>
   <i type="int" name="MAGATOM">     0</i>
   <v name="MAGDIPOL">      0.00000000      0.00000000      0.00000000</v>
   <v name="AVECCONST">      0.00000000      0.00000000      0.00000000</v>
  </separator>
  <separator name="response functions" >
   <i type="logical" name="LALL_IN_ONE"> F  </i>
   <i type="int" name="IALL_IN_ONE">    -1</i>
   <i type="int" name="NBANDS_WAVE">    -1</i>
   <i type="logical" name="LFINITE_TEMPERATURE"> F  </i>
   <i type="logical" name="LADDER"> F  </i>
   <i type="logical" name="LRPAFORCE"> F  </i>
   <i type="logical" name="LFXC"> F  </i>
   <i type="logical" name="LHARTREE"> T  </i>
   <i type="int" name="IBSE">     0</i>
   <v type="int" name="KPOINT">    -1     0     0     0</v>
   <i type="logical" name="LTCTC"> F  </i>
   <i type="logical" name="LTCTE"> F  </i>
   <i type="logical" name="LTETE"> F  </i>
   <i type="logical" name="LTRIPLET"> F  </i>
   <i type="logical" name="LFXCEPS"> F  </i>
   <i type="logical" name="LFXHEG"> F  </i>
   <i type="int" name="NATURALO">     2</i>
   <i type="logical" name="LHOLEGF"> F  </i>
   <i type="logical" name="L2ORDER"> F  </i>
   <i type="logical" name="LDMP1"> F  </i>
   <i type="logical" name="LMP2LT"> F  </i>
   <i type="logical" name="LSMP2LT"> F  </i>
   <i type="logical" name="LGWLF"> F  </i>
   <i name="ENCUTGW">     -1.60000002</i>
   <i name="ENCUTGWSOFT">     -1.60000002</i>
   <i name="ENCUTLF">     -1.00000000</i>
   <i type="logical" name="ESF_SPLINES"> F  </i>
   <i name="ESF_CONV">      0.01000000</i>
   <i type="int" name="ESF_NINTER">    15</i>
   <i type="int" name="LMAXMP2">    -1</i>
   <i name="SCISSOR">      0.00000000</i>
   <i type="int" name="NOMEGA">     0</i>
   <i type="int" name="NOMEGAR">     0</i>
   <i type="int" name="NBANDSGW">    -1</i>
   <i type="int" name="NBANDSO">    -1</i>
   <i type="int" name="NBANDSV">    -1</i>
   <i type="int" name="NELMGW">     1</i>
   <i type="int" name="NELMHF">     1</i>
   <i type="int" name="DIM">     3</i>
   <i type="int" name="IESPILON">     4</i>
   <i type="int" name="ANTIRES">     0</i>
   <i name="OMEGAMAX">    -30.00000000</i>
   <i name="OMEGAMIN">    -30.00000000</i>
   <i name="OMEGATL">   -200.00000000</i>
   <i type="int" name="OMEGAGRID">     0</i>
   <i name="CSHIFT">     -0.10000000</i>
   <i type="logical" name="LSELFENERGY"> F  </i>
   <i type="logical" name="LSPECTRAL"> F  </i>
   <i type="logical" name="LSPECTRALGW"> F  </i>
   <i type="logical" name="LSINGLES"> F  </i>
   <i type="logical" name="LFERMIGW"> F  </i>
   <i type="logical" name="ODDONLYGW"> F  </i>
   <i type="logical" name="EVENONLYGW"> F  </i>
   <i type="int" name="NKREDLFX">     1</i>
   <i type="int" name="NKREDLFY">     1</i>
   <i type="int" name="NKREDLFZ">     1</i>
   <i type="int" name="MAXMEM">  2800</i>
   <i type="int" name="TELESCOPE">     0</i>
   <i type="int" name="NTAUPAR">    -1</i>
   <i type="int" name="NOMEGAPAR">    -1</i>
   <i name="DAMP_NEWTON">      0.80000001</i>
   <i name="LAMBDA">      1.00000000</i>
  </separator>
  <separator name="External order field" >
   <i name="OFIELD_KAPPA">      0.00000000</i>
   <v name="OFIELD_K">      0.00000000      0.00000000      0.00000000</v>
   <i name="OFIELD_Q6_NEAR">      0.00000000</i>
   <i name="OFIELD_Q6_FAR">      0.00000000</i>
   <i name="OFIELD_A">      0.00000000</i>
  </separator>
  <separator name="optional k-points parameters" >
   <i type="int" name="KPOINTS_OPT_MODE">     1</i>
   <i type="logical" name="LKPOINTS_OPT"> F  </i>
  </separator>
  <separator name="solvation model" >
   <i type="logical" name="LSOL"> F  </i>
  </separator>
 </parameters>
 <atominfo>
  <atoms>      64 </atoms>
  <types>       7 </types>
  <array name="atoms" >
   <dimension dim="1">ion</dimension>
   <field type="string">element</field>
   <field type="int">atomtype</field>
   <set>
    <rc><c>Zr</c><c>   1</c></rc>
    <rc><c>Zr</c><c>   1</c></rc>
    <rc><c>Zr</c><c>   1</c></rc>
    <rc><c>Zr</c><c>   1</c></rc>
    <rc><c>Zr</c><c>   1</c></rc>
    <rc><c>Zr</c><c>   1</c></rc>
    <rc><c>Zr</c><c>   1</c></rc>
    <rc><c>Ta</c><c>   2</c></rc>
    <rc><c>Ta</c><c>   2</c></rc>
    <rc><c>Ta</c><c>   2</c></rc>
    <rc><c>Ta</c><c>   2</c></rc>
    <rc><c>Ta</c><c>   2</c></rc>
    <rc><c>Ta</c><c>   2</c></rc>
    <rc><c>Ti</c><c>   3</c></rc>
    <rc><c>Ti</c><c>   3</c></rc>
    <rc><c>Ti</c><c>   3</c></rc>
    <rc><c>Ti</c><c>   3</c></rc>
    <rc><c>Ti</c><c>   3</c></rc>
    <rc><c>Ti</c><c>   3</c></rc>
    <rc><c>Ti</c><c>   3</c></rc>
    <rc><c>N </c><c>   4</c></rc>
    <rc><c>N </c><c>   4</c></rc>
    <rc><c>N </c><c>   4</c></rc>
    <rc><c>N </c><c>   4</c></rc>
    <rc><c>N </c><c>   4</c></rc>
    <rc><c>N </c><c>   4</c></rc>
    <rc><c>N </c><c>   4</c></rc>
    <rc><c>N </c><c>   4</c></rc>
    <rc><c>N </c><c>   4</c></rc>
    <rc><c>N </c><c>   4</c></rc>
    <rc><c>N </c><c>   4</c></rc>
    <rc><c>N </c><c>   4</c></rc>
    <rc><c>N </c><c>   4</c></rc>
    <rc><c>C </c><c>   5</c></rc>
    <rc><c>C </c><c>   5</c></rc>
    <rc><c>C </c><c>   5</c></rc>
    <rc><c>C </c><c>   5</c></rc>
    <rc><c>C </c><c>   5</c></rc>
    <rc><c>C </c><c>   5</c></rc>
    <rc><c>C </c><c>   5</c></rc>
    <rc><c>C </c><c>   5</c></rc>
    <rc><c>C </c><c>   5</c></rc>
    <rc><c>C </c><c>   5</c></rc>
    <rc><c>C </c><c>   5</c></rc>
    <rc><c>C </c><c>   5</c></rc>
    <rc><c>C </c><c>   5</c></rc>
    <rc><c>C </c><c>   5</c></rc>
    <rc><c>C </c><c>   5</c></rc>
    <rc><c>C </c><c>   5</c></rc>
    <rc><c>C </c><c>   5</c></rc>
    <rc><c>C </c><c>   5</c></rc>
    <rc><c>C </c><c>   5</c></rc>
    <rc><c>Cr</c><c>   6</c></rc>
    <rc><c>Cr</c><c>   6</c></rc>
    <rc><c>Cr</c><c>   6</c></rc>
    <rc><c>Cr</c><c>   6</c></rc>
    <rc><c>Cr</c><c>   6</c></rc>
    <rc><c>Cr</c><c>   6</c></rc>
    <rc><c>W </c><c>   7</c></rc>
    <rc><c>W </c><c>   7</c></rc>
    <rc><c>W </c><c>   7</c></rc>
    <rc><c>W </c><c>   7</c></rc>
    <rc><c>W </c><c>   7</c></rc>
    <rc><c>W </c><c>   7</c></rc>
   </set>
  </array>
  <array name="atomtypes" >
   <dimension dim="1">type</dimension>
   <field type="int">atomspertype</field>
   <field type="string">element</field>
   <field>mass</field>
   <field>valence</field>
   <field type="string">pseudopotential</field>
   <set>
    <rc><c>   7</c><c>Zr</c><c>     91.22400000</c><c>      4.00000000</c><c> PAW_PBE Zr 08Apr2002                   </c></rc>
    <rc><c>   6</c><c>Ta</c><c>    180.94800000</c><c>     11.00000000</c><c> PAW_PBE Ta_pv 07Sep2000                </c></rc>
    <rc><c>   7</c><c>Ti</c><c>     47.88000000</c><c>     10.00000000</c><c> PAW_PBE Ti_pv 07Sep2000                </c></rc>
    <rc><c>  13</c><c>N </c><c>     14.00100000</c><c>      5.00000000</c><c> PAW_PBE N 08Apr2002                    </c></rc>
    <rc><c>  19</c><c>C </c><c>     12.01100000</c><c>      4.00000000</c><c> PAW_PBE C 08Apr2002                    </c></rc>
    <rc><c>   6</c><c>Cr</c><c>     51.99600000</c><c>     12.00000000</c><c> PAW_PBE Cr_pv 07Sep2000                </c></rc>
    <rc><c>   6</c><c>W </c><c>    183.85000000</c><c>     12.00000000</c><c> PAW_PBE W_pv 06Sep2000                 </c></rc>
   </set>
  </array>
 </atominfo>
 <structure name="initialpos" >
  <crystal>
   <varray name="basis" >
    <v>       8.81285393       0.02359272      -0.01411321 </v>
    <v>       0.03013209       8.81456044       0.00537124 </v>
    <v>       0.01752462      -0.00986723       8.79942004 </v>
   </varray>
   <i name="volume">    683.54796174 </i>
   <varray name="rec_basis" >
    <v>       0.11347130      -0.00038776      -0.00022642 </v>
    <v>      -0.00030351       0.11344961       0.00012782 </v>
    <v>       0.00018218      -0.00006987       0.11364341 </v>
   </varray>
  </crystal>
  <varray name="positions" >
   <v>       0.00080765       0.99696967       0.99673047 </v>
   <v>       0.26889453       0.00241397       0.24276121 </v>
   <v>       0.24539941       0.49475619       0.24621750 </v>
   <v>       0.50066473       0.49963069       0.00231673 </v>
   <v>       0.50595199       0.24741187       0.74207228 </v>
   <v>       0.99752541       0.50215587       0.50107187 </v>
   <v>       0.49660771       0.75912207       0.74932079 </v>
   <v>       0.99181456       0.24020107       0.24966839 </v>
   <v>       0.75435289       0.74652016       0.01202305 </v>
   <v>       0.00168771       0.25003882       0.75114984 </v>
   <v>       0.75230086       0.24437121       0.49766080 </v>
   <v>       0.00012492       0.75090628       0.74958114 </v>
   <v>       0.24943486       0.49535344       0.75033904 </v>
   <v>       0.25967389       0.24225988       0.98961975 </v>
   <v>       0.51090543       0.25439027       0.25237557 </v>
   <v>       0.73193427       0.99272110       0.25938243 </v>
   <v>       0.74121141       0.24105120       0.99977459 </v>
   <v>       0.24681064       0.74717309       0.99638732 </v>
   <v>       0.25103700       0.24597198       0.50640144 </v>
   <v>       0.25093019       0.75137471       0.50225186 </v>
   <v>       0.24732898       0.24812093       0.24750103 </v>
   <v>       0.26119930       0.00082237       0.98941252 </v>
   <v>       0.00047420       0.25466364       0.00009590 </v>
   <v>       0.74728248       0.24048203       0.24642491 </v>
   <v>       0.73970656       0.99758978       0.00584471 </v>
   <v>       0.51134306       0.00042326       0.27864968 </v>
   <v>       0.99110136       0.49934843       0.24198598 </v>
   <v>       0.49905761       0.76434216       0.00875327 </v>
   <v>       0.98846210       0.00420504       0.73992503 </v>
   <v>       0.75758822       0.24897915       0.75009107 </v>
   <v>       0.76337955       0.00501386       0.49313799 </v>
   <v>       0.50106556       0.24608109       0.48920644 </v>
   <v>       0.52589866       0.00246830       0.74144558 </v>
   <v>       0.99838985       0.00049252       0.25310417 </v>
   <v>       0.50091514       0.23773881       0.00391380 </v>
   <v>       0.25355753       0.74973401       0.24916014 </v>
   <v>       0.23992218       0.50069309       0.99314102 </v>
   <v>       0.00274799       0.74055953       0.00431787 </v>
   <v>       0.74789627       0.74623097       0.25343228 </v>
   <v>       0.76336401       0.49340136       0.00586796 </v>
   <v>       0.50000835       0.50227913       0.25297291 </v>
   <v>       0.24825934       0.24762973       0.74903572 </v>
   <v>       0.25493651       0.99967871       0.51267191 </v>
   <v>       0.00362245       0.24645902       0.49994072 </v>
   <v>       0.24209091       0.75658883       0.75121533 </v>
   <v>       0.25665399       0.50196607       0.50259215 </v>
   <v>       0.99868570       0.75947274       0.49949016 </v>
   <v>       0.99987863       0.50119089       0.75554507 </v>
   <v>       0.75226883       0.75467716       0.75010051 </v>
   <v>       0.74295757       0.49510623       0.50710603 </v>
   <v>       0.49800725       0.76566148       0.48683726 </v>
   <v>       0.50409543       0.50308403       0.74155625 </v>
   <v>       0.51405213       0.01186421       0.96316589 </v>
   <v>       0.99704075       0.51483618       0.97967877 </v>
   <v>       0.47566160       0.73617244       0.25648931 </v>
   <v>       0.22677342       0.01504195       0.75157556 </v>
   <v>       0.46742632       0.99481528       0.51894441 </v>
   <v>       0.73970023       0.97011396       0.78162368 </v>
   <v>       0.01711069       0.76728041       0.25519257 </v>
   <v>       0.73896034       0.49420077       0.25392011 </v>
   <v>       0.02183532       0.00380364       0.49549982 </v>
   <v>       0.50278201       0.51928749       0.48869452 </v>
   <v>       0.75474718       0.51627106       0.76363023 </v>
   <v>       0.74369475       0.73633447       0.49000386 </v>
  </varray>
 </structure>
 <calculation>
  <scstep>
   <time name="dav">   16.29   16.59</time>
   <time name="total">   16.33   16.64</time>
   <energy>
    <i name="alphaZ">   3518.77358788 </i>
    <i name="ewald"> -32143.37455391 </i>
    <i name="hartreedc">  -7613.16231471 </i>
    <i name="XCdc">    782.68422064 </i>
    <i name="pawpsdc">  23981.56285346 </i>
    <i name="pawaedc"> -23408.35391467 </i>
    <i name="eentropy">     -0.09000537 </i>
    <i name="bandstr">   2654.47666839 </i>
    <i name="atom">  37795.36964742 </i>
    <i name="e_fr_energy">   5567.88618914 </i>
    <i name="e_wo_entrp">   5567.97619451 </i>
    <i name="e_0_energy">   5567.93119182 </i>
   </energy>
  </scstep>
  <scstep>
   <time name="dav">   15.85   16.43</time>
   <time name="total">   15.85   16.43</time>
   <energy>
    <i name="e_fr_energy">    238.56038887 </i>
    <i name="e_wo_entrp">    238.69433859 </i>
    <i name="e_0_energy">    238.62736373 </i>
   </energy>
  </scstep>
  <scstep>
   <time name="dav">   22.21   22.47</time>
   <time name="total">   22.21   22.47</time>
   <energy>
    <i name="e_fr_energy">   -687.82967329 </i>
    <i name="e_wo_entrp">   -687.74355086 </i>
    <i name="e_0_energy">   -687.78661207 </i>
   </energy>
  </scstep>
  <scstep>
   <time name="dav">   23.83   24.12</time>
   <time name="total">   23.83   24.13</time>
   <energy>
    <i name="e_fr_energy">   -786.73969648 </i>
    <i name="e_wo_entrp">   -786.64038321 </i>
    <i name="e_0_energy">   -786.69003985 </i>
   </energy>
  </scstep>
  <scstep>
   <time name="dav">   22.38   22.66</time>
   <time name="total">   22.54   22.83</time>
   <energy>
    <i name="e_fr_energy">   -792.64181693 </i>
    <i name="e_wo_entrp">   -792.53650916 </i>
    <i name="e_0_energy">   -792.58916304 </i>
   </energy>
  </scstep>
  <scstep>
   <time name="diag">    1.15    1.16</time>
   <time name="diis">   13.78   13.96</time>
   <time name="orth">    0.28    0.28</time>
   <time name="total">   15.39   15.59</time>
   <energy>
    <i name="e_fr_energy">   -815.71344757 </i>
    <i name="e_wo_entrp">   -815.60619774 </i>
    <i name="e_0_energy">   -815.65982266 </i>
   </energy>
  </scstep>
  <scstep>
   <time name="diag">    1.18    1.18</time>
   <time name="diis">   13.55   13.80</time>
   <time name="orth">    0.30    0.30</time>
   <time name="total">   15.20   15.46</time>
   <energy>
    <i name="e_fr_energy">   -649.10823013 </i>
    <i name="e_wo_entrp">   -648.97958261 </i>
    <i name="e_0_energy">   -649.04390637 </i>
   </energy>
  </scstep>
  <scstep>
   <time name="diag">    1.15    1.16</time>
   <time name="diis">   15.09   15.32</time>
   <time name="orth">    0.30    0.30</time>
   <time name="total">   16.72   16.96</time>
   <energy>
    <i name="e_fr_energy">   -654.28255093 </i>
    <i name="e_wo_entrp">   -654.15732293 </i>
    <i name="e_0_energy">   -654.21993693 </i>
   </energy>
  </scstep>
  <scstep>
   <time name="diag">    1.23    1.24</time>
   <time name="diis">   14.56   14.75</time>
   <time name="orth">    0.28    0.28</time>
   <time name="total">   16.25   16.46</time>
   <energy>
    <i name="e_fr_energy">   -650.78304402 </i>
    <i name="e_wo_entrp">   -650.67793550 </i>
    <i name="e_0_energy">   -650.73048976 </i>
   </energy>
  </scstep>
  <scstep>
   <time name="diag">    1.18    1.19</time>
   <time name="diis">   15.06   15.22</time>
   <time name="orth">    0.27    0.28</time>
   <time name="total">   16.69   16.86</time>
   <energy>
    <i name="e_fr_energy">   -647.79570603 </i>
    <i name="e_wo_entrp">   -647.69287136 </i>
    <i name="e_0_energy">   -647.74428870 </i>
   </energy>
  </scstep>
  <scstep>
   <time name="diag">    1.16    1.18</time>
   <time name="diis">   13.81   14.00</time>
   <time name="orth">    0.30    0.31</time>
   <time name="total">   15.46   15.66</time>
   <energy>
    <i name="e_fr_energy">   -647.82196352 </i>
    <i name="e_wo_entrp">   -647.68938982 </i>
    <i name="e_0_energy">   -647.75567667 </i>
   </energy>
  </scstep>
  <scstep>
   <time name="diag">    1.18    1.19</time>
   <time name="diis">   14.02   14.21</time>
   <time name="orth">    0.27    0.28</time>
   <time name="total">   15.66   15.86</time>
   <energy>
    <i name="e_fr_energy">   -646.09643714 </i>
    <i name="e_wo_entrp">   -645.99237259 </i>
    <i name="e_0_energy">   -646.04440487 </i>
   </energy>
  </scstep>
  <scstep>
   <time name="diag">    1.15    1.16</time>
   <time name="diis">   14.48   14.65</time>
   <time name="orth">    0.28    0.28</time>
   <time name="total">   16.09   16.27</time>
   <energy>
    <i name="e_fr_energy">   -646.52587359 </i>
    <i name="e_wo_entrp">   -646.41598903 </i>
    <i name="e_0_energy">   -646.47093131 </i>
   </energy>
  </scstep>
  <scstep>
   <time name="diag">    1.21    1.22</time>
   <time name="diis">   14.01   14.16</time>
   <time name="orth">    0.27    0.28</time>
   <time name="total">   15.68   15.84</time>
   <energy>
    <i name="e_fr_energy">   -646.21030003 </i>
    <i name="e_wo_entrp">   -646.09639110 </i>
    <i name="e_0_energy">   -646.15334556 </i>
   </energy>
  </scstep>
  <scstep>
   <time name="diag">    1.26    1.27</time>
   <time name="diis">   13.71   13.90</time>
   <time name="orth">    0.28    0.28</time>
   <time name="total">   15.45   15.66</time>
   <energy>
    <i name="e_fr_energy">   -645.91668163 </i>
    <i name="e_wo_entrp">   -645.80591884 </i>
    <i name="e_0_energy">   -645.86130024 </i>
   </energy>
  </scstep>
  <scstep>
   <time name="diag">    1.21    1.22</time>
   <time name="diis">   14.78   14.95</time>
   <time name="orth">    0.28    0.28</time>
   <time name="total">   16.45   16.64</time>
   <energy>
    <i name="e_fr_energy">   -645.82168912 </i>
    <i name="e_wo_entrp">   -645.71036856 </i>
    <i name="e_0_energy">   -645.76602884 </i>
   </energy>
  </scstep>
  <scstep>
   <time name="diag">    1.20    1.20</time>
   <time name="diis">   14.78   14.97</time>
   <time name="orth">    0.28    0.28</time>
   <time name="total">   16.43   16.64</time>
   <energy>
    <i name="e_fr_energy">   -645.81410372 </i>
    <i name="e_wo_entrp">   -645.70284536 </i>
    <i name="e_0_energy">   -645.75847454 </i>
   </energy>
  </scstep>
  <scstep>
   <time name="diag">    1.14    1.15</time>
   <time name="diis">   15.85   16.05</time>
   <time name="orth">    0.28    0.28</time>
   <time name="total">   17.45   17.66</time>
   <energy>
    <i name="e_fr_energy">   -645.82871684 </i>
    <i name="e_wo_entrp">   -645.71743785 </i>
    <i name="e_0_energy">   -645.77307735 </i>
   </energy>
  </scstep>
  <scstep>
   <time name="diag">    1.24    1.25</time>
   <time name="diis">   14.22   14.41</time>
   <time name="orth">    0.31    0.31</time>
   <time name="total">   15.98   16.18</time>
   <energy>
    <i name="e_fr_energy">   -645.82148357 </i>
    <i name="e_wo_entrp">   -645.71095189 </i>
    <i name="e_0_energy">   -645.76621773 </i>
   </energy>
  </scstep>
  <scstep>
   <time name="diag">    1.17    1.18</time>
   <time name="diis">   14.76   14.93</time>
   <time name="orth">    0.28    0.28</time>
   <time name="total">   16.39   16.57</time>
   <energy>
    <i name="e_fr_energy">   -645.81815253 </i>
    <i name="e_wo_entrp">   -645.70747359 </i>
    <i name="e_0_energy">   -645.76281306 </i>
   </energy>
  </scstep>
  <scstep>
   <time name="diag">    1.15    1.15</time>
   <time name="diis">   15.17   15.53</time>
   <time name="orth">    0.28    0.28</time>
   <time name="total">   16.78   17.15</time>
   <energy>
    <i name="e_fr_energy">   -645.82012655 </i>
    <i name="e_wo_entrp">   -645.70944239 </i>
    <i name="e_0_energy">   -645.76478447 </i>
   </energy>
  </scstep>
  <scstep>
   <time name="diag">    1.15    1.16</time>
   <time name="diis">   12.30   12.50</time>
   <time name="orth">    0.28    0.28</time>
   <time name="total">   13.91   14.12</time>
   <energy>
    <i name="e_fr_energy">   -645.82077739 </i>
    <i name="e_wo_entrp">   -645.71009379 </i>
    <i name="e_0_energy">   -645.76543559 </i>
   </energy>
  </scstep>
  <scstep>
   <time name="diag">    1.20    1.21</time>
   <time name="diis">   12.82   13.01</time>
   <time name="orth">    0.27    0.28</time>
   <time name="total">   14.48   14.67</time>
   <energy>
    <i name="e_fr_energy">   -645.82127139 </i>
    <i name="e_wo_entrp">   -645.71050698 </i>
    <i name="e_0_energy">   -645.76588919 </i>
   </energy>
  </scstep>
  <scstep>
   <time name="diag">    1.16    1.18</time>
   <time name="diis">   10.76   10.91</time>
   <time name="orth">    0.27    0.28</time>
   <time name="total">   12.38   12.54</time>
   <energy>
    <i name="e_fr_energy">   -645.82158659 </i>
    <i name="e_wo_entrp">   -645.71079175 </i>
    <i name="e_0_energy">   -645.76618917 </i>
   </energy>
  </scstep>
  <scstep>
   <time name="diag">    1.19    1.20</time>
   <time name="diis">    9.40    9.51</time>
   <time name="orth">    0.30    0.30</time>
   <time name="total">   11.08   11.21</time>
   <energy>
    <i name="e_fr_energy">   -645.82174157 </i>
    <i name="e_wo_entrp">   -645.71092216 </i>
    <i name="e_0_energy">   -645.76633187 </i>
   </energy>
  </scstep>
  <scstep>
   <time name="diag">    1.18    1.19</time>
   <time name="diis">    9.73    9.88</time>
   <time name="orth">    0.28    0.28</time>
   <time name="total">   11.37   11.54</time>
   <energy>
    <i name="e_fr_energy">   -645.82183941 </i>
    <i name="e_wo_entrp">   -645.71100719 </i>
    <i name="e_0_energy">   -645.76642330 </i>
   </energy>
  </scstep>
  <scstep>
   <time name="diag">    1.25    1.26</time>
   <time name="diis">    9.28    9.42</time>
   <time name="orth">    0.28    0.28</time>
   <time name="total">   11.01   11.17</time>
   <energy>
    <i name="e_fr_energy">   -645.82190189 </i>
    <i name="e_wo_entrp">   -645.71105958 </i>
    <i name="e_0_energy">   -645.76648074 </i>
   </energy>
  </scstep>
  <scstep>
   <time name="diag">    1.18    1.18</time>
   <time name="diis">    7.62    7.69</time>
   <time name="orth">    0.28    0.29</time>
   <time name="total">    9.26    9.35</time>
   <energy>
    <i name="e_fr_energy">   -645.82193894 </i>
    <i name="e_wo_entrp">   -645.71109237 </i>
    <i name="e_0_energy">   -645.76651565 </i>
   </energy>
  </scstep>
  <scstep>
   <time name="diag">    1.17    1.18</time>
   <time name="diis">    7.38    7.46</time>
   <time name="orth">    0.32    0.33</time>
   <time name="total">    9.10    9.19</time>
   <energy>
    <i name="e_fr_energy">   -645.82196122 </i>
    <i name="e_wo_entrp">   -645.71110516 </i>
    <i name="e_0_energy">   -645.76653319 </i>
   </energy>
  </scstep>
  <scstep>
   <time name="diag">    1.23    1.27</time>
   <time name="diis">    7.28    7.36</time>
   <time name="orth">    0.28    0.28</time>
   <time name="total">    8.98    9.10</time>
   <energy>
    <i name="e_fr_energy">   -645.82197540 </i>
    <i name="e_wo_entrp">   -645.71111392 </i>
    <i name="e_0_energy">   -645.76654466 </i>
   </energy>
  </scstep>
  <scstep>
   <time name="diag">    1.24    1.25</time>
   <time name="diis">    7.12    7.28</time>
   <time name="orth">    0.28    0.28</time>
   <time name="total">    8.66    8.83</time>
   <energy>
    <i name="alphaZ">   3518.77358788 </i>
    <i name="ewald"> -32143.37455391 </i>
    <i name="hartreedc">  -7205.23451461 </i>
    <i name="XCdc">    782.02397454 </i>
    <i name="pawpsdc">  25714.89978078 </i>
    <i name="pawaedc"> -25226.40027572 </i>
    <i name="eentropy">     -0.11086710 </i>
    <i name="bandstr">  -3881.76876395 </i>
    <i name="atom">  37795.36964742 </i>
    <i name="e_fr_energy">   -645.82198468 </i>
    <i name="e_wo_entrp">   -645.71111758 </i>
    <i name="e_0_energy">   -645.76655113 </i>
   </energy>
  </scstep>
  <structure>
   <crystal>
    <varray name="basis" >
     <v>       8.81285393       0.02359272      -0.01411321 </v>
     <v>       0.03013209       8.81456044       0.00537124 </v>
     <v>       0.01752462      -0.00986723       8.79942004 </v>
    </varray>
    <i name="volume">    683.54796174 </i>
    <varray name="rec_basis" >
     <v>       0.11347130      -0.00038776      -0.00022642 </v>
     <v>      -0.00030351       0.11344961       0.00012782 </v>
     <v>       0.00018218      -0.00006987       0.11364341 </v>
    </varray>
   </crystal>
   <varray name="positions" >
    <v>       0.00080765       0.99696967       0.99673047 </v>
    <v>       0.26889453       0.00241397       0.24276121 </v>
    <v>       0.24539941       0.49475619       0.24621750 </v>
    <v>       0.50066473       0.49963069       0.00231673 </v>
    <v>       0.50595199       0.24741187       0.74207228 </v>
    <v>       0.99752541       0.50215587       0.50107187 </v>
    <v>       0.49660771       0.75912207       0.74932079 </v>
    <v>       0.99181456       0.24020107       0.24966839 </v>
    <v>       0.75435289       0.74652016       0.01202305 </v>
    <v>       0.00168771       0.25003882       0.75114984 </v>
    <v>       0.75230086       0.24437121       0.49766080 </v>
    <v>       0.00012492       0.75090628       0.74958114 </v>
    <v>       0.24943486       0.49535344       0.75033904 </v>
    <v>       0.25967389       0.24225988       0.98961975 </v>
    <v>       0.51090543       0.25439027       0.25237557 </v>
    <v>       0.73193427       0.99272110       0.25938243 </v>
    <v>       0.74121141       0.24105120       0.99977459 </v>
    <v>       0.24681064       0.74717309       0.99638732 </v>
    <v>       0.25103700       0.24597198       0.50640144 </v>
    <v>       0.25093019       0.75137471       0.50225186 </v>
    <v>       0.24732898       0.24812093       0.24750103 </v>
    <v>       0.26119930       0.00082237       0.98941252 </v>
    <v>       0.00047420       0.25466364       0.00009590 </v>
    <v>       0.74728248       0.24048203       0.24642491 </v>
    <v>       0.73970656       0.99758978       0.00584471 </v>
    <v>       0.51134306       0.00042326       0.27864968 </v>
    <v>       0.99110136       0.49934843       0.24198598 </v>
    <v>       0.49905761       0.76434216       0.00875327 </v>
    <v>       0.98846210       0.00420504       0.73992503 </v>
    <v>       0.75758822       0.24897915       0.75009107 </v>
    <v>       0.76337955       0.00501386       0.49313799 </v>
    <v>       0.50106556       0.24608109       0.48920644 </v>
    <v>       0.52589866       0.00246830       0.74144558 </v>
    <v>       0.99838985       0.00049252       0.25310417 </v>
    <v>       0.50091514       0.23773881       0.00391380 </v>
    <v>       0.25355753       0.74973401       0.24916014 </v>
    <v>       0.23992218       0.50069309       0.99314102 </v>
    <v>       0.00274799       0.74055953       0.00431787 </v>
    <v>       0.74789627       0.74623097       0.25343228 </v>
    <v>       0.76336401       0.49340136       0.00586796 </v>
    <v>       0.50000835       0.50227913       0.25297291 </v>
    <v>       0.24825934       0.24762973       0.74903572 </v>
    <v>       0.25493651       0.99967871       0.51267191 </v>
    <v>       0.00362245       0.24645902       0.49994072 </v>
    <v>       0.24209091       0.75658883       0.75121533 </v>
    <v>       0.25665399       0.50196607       0.50259215 </v>
    <v>       0.99868570       0.75947274       0.49949016 </v>
    <v>       0.99987863       0.50119089       0.75554507 </v>
    <v>       0.75226883       0.75467716       0.75010051 </v>
    <v>       0.74295757       0.49510623       0.50710603 </v>
    <v>       0.49800725       0.76566148       0.48683726 </v>
    <v>       0.50409543       0.50308403       0.74155625 </v>
    <v>       0.51405213       0.01186421       0.96316589 </v>
    <v>       0.99704075       0.51483618       0.97967877 </v>
    <v>       0.47566160       0.73617244       0.25648931 </v>
    <v>       0.22677342       0.01504195       0.75157556 </v>
    <v>       0.46742632       0.99481528       0.51894441 </v>
    <v>       0.73970023       0.97011396       0.78162368 </v>
    <v>       0.01711069       0.76728041       0.25519257 </v>
    <v>       0.73896034       0.49420077       0.25392011 </v>
    <v>       0.02183532       0.00380364       0.49549982 </v>
    <v>       0.50278201       0.51928749       0.48869452 </v>
    <v>       0.75474718       0.51627106       0.76363023 </v>
    <v>       0.74369475       0.73633447       0.49000386 </v>
   </varray>
  </structure>
  <varray name="forces" >
   <v>      -0.00224246      -0.00109536       0.00204634 </v>
   <v>      -0.00491356      -0.00342793      -0.00484634 </v>
   <v>       0.00169071       0.00370473      -0.00195786 </v>
   <v>       0.00014551      -0.00055299       0.00001559 </v>
   <v>      -0.00086515      -0.00132692       0.00276746 </v>
   <v>      -0.00101270       0.00117003       0.00305484 </v>
   <v>       0.00213651       0.00272435      -0.00032813 </v>
   <v>      -0.00135106       0.00120032       0.00042640 </v>
   <v>       0.00025181      -0.00436769      -0.00069540 </v>
   <v>       0.00196506       0.00087563      -0.00084692 </v>
   <v>       0.00149386      -0.00846847      -0.00452338 </v>
   <v>      -0.00065209      -0.00148745      -0.00022311 </v>
   <v>       0.00133665      -0.00162719       0.00094064 </v>
   <v>      -0.00242737       0.00335594       0.00162497 </v>
   <v>      -0.00302010       0.00197473      -0.00272948 </v>
   <v>       0.00379470       0.00168971      -0.00731990 </v>
   <v>      -0.00030192       0.00053169       0.00359287 </v>
   <v>       0.00037637      -0.00093713       0.00165437 </v>
   <v>       0.00009827      -0.00143823      -0.00171384 </v>
   <v>       0.00026670       0.00088428      -0.00299323 </v>
   <v>       0.00268711       0.00073161       0.00070203 </v>
   <v>       0.00261663      -0.00063860      -0.00294639 </v>
   <v>      -0.00075561       0.00195649       0.00164343 </v>
   <v>      -0.00436854      -0.00585558      -0.00069360 </v>
   <v>      -0.00142242      -0.00140378      -0.00294324 </v>
   <v>       0.00077448      -0.00316251       0.00645922 </v>
   <v>      -0.00095294       0.00283407      -0.00274402 </v>
   <v>      -0.00071111       0.00240029       0.00153245 </v>
   <v>      -0.00068378       0.00073087       0.00081184 </v>
   <v>       0.00022463       0.00102497       0.00127826 </v>
   <v>      -0.00302491      -0.00633411       0.00910427 </v>
   <v>      -0.00199696       0.00084101       0.00039936 </v>
   <v>      -0.00133422       0.00190906      -0.00049818 </v>
   <v>      -0.00134293      -0.00414578       0.00140883 </v>
   <v>      -0.00167600       0.00182033       0.00128946 </v>
   <v>      -0.00060100       0.00212117      -0.00004685 </v>
   <v>      -0.00060342       0.00010810       0.00042054 </v>
   <v>       0.00041253       0.00191339      -0.00137031 </v>
   <v>       0.00013208      -0.00352486       0.00072565 </v>
   <v>       0.00058786      -0.00056466      -0.00249466 </v>
   <v>       0.00574325       0.00391764       0.00478107 </v>
   <v>      -0.00063580       0.00184795       0.00014521 </v>
   <v>      -0.00351251       0.00100890      -0.00144593 </v>
   <v>       0.00075366      -0.00092930       0.00002869 </v>
   <v>       0.00095462      -0.00014128      -0.00024997 </v>
   <v>      -0.00131943       0.00076290       0.00078156 </v>
   <v>       0.00129588      -0.00104744       0.00117885 </v>
   <v>       0.00094237       0.00134636       0.00232141 </v>
   <v>      -0.00010418      -0.00336729       0.00008913 </v>
   <v>      -0.00057184      -0.00059992      -0.00158582 </v>
   <v>       0.00074321       0.00124543       0.00041242 </v>
   <v>      -0.00084478       0.00040095       0.00101288 </v>
   <v>      -0.00618132       0.00081290      -0.00344183 </v>
   <v>       0.00102629      -0.00251425      -0.00091234 </v>
   <v>       0.00375684       0.00325679       0.00210440 </v>
   <v>       0.00919482      -0.00040975       0.00902273 </v>
   <v>       0.00038708       0.00514507       0.00232562 </v>
   <v>       0.00455152      -0.00195902      -0.00523966 </v>
   <v>      -0.00094621       0.00718133      -0.00210488 </v>
   <v>       0.00051148      -0.01260165       0.00081959 </v>
   <v>       0.00073162       0.00180363      -0.00295776 </v>
   <v>       0.00083076       0.00776794      -0.00473916 </v>
   <v>      -0.00018105       0.00475388      -0.00200440 </v>
   <v>      -0.00185755      -0.00382532      -0.00032577 </v>
  </varray>
  <varray name="stress" >
   <v>       0.54727539      -0.00510135      -0.02124281 </v>
   <v>      -0.00510263      -0.17976129       0.00013776 </v>
   <v>      -0.02124371       0.00013727       0.33384174 </v>
  </varray>
  <energy>
   <i name="e_fr_energy">   -645.82198468 </i>
   <i name="e_wo_entrp">   -645.71111758 </i>
   <i name="e_0_energy">   -645.76655113 </i>
  </energy>
  <time name="totalsc">  498.20  505.51</time>
 </calculation>
 <calculation>
  <scstep>
   <time name="dav">   19.65   20.00</time>
   <time name="total">   19.83   20.18</time>
   <energy>
    <i name="alphaZ">   3517.98008928 </i>
    <i name="ewald"> -32140.96680719 </i>
    <i name="hartreedc">  -7204.69883047 </i>
    <i name="XCdc">    781.90182983 </i>
    <i name="pawpsdc">  25714.91284409 </i>
    <i name="pawaedc"> -25226.41350899 </i>
    <i name="eentropy">     -0.11075297 </i>
    <i name="bandstr">  -3883.79642777 </i>
    <i name="atom">  37795.36964742 </i>
    <i name="e_fr_energy">   -645.82191677 </i>
    <i name="e_wo_entrp">   -645.71116380 </i>
    <i name="e_0_energy">   -645.76654029 </i>
   </energy>
  </scstep>
  <scstep>
   <time name="diag">    1.13    1.16</time>
   <time name="diis">   13.00   13.48</time>
   <time name="orth">    0.27    0.28</time>
   <time name="total">   14.59   15.43</time>
   <energy>
    <i name="e_fr_energy">   -645.82421019 </i>
    <i name="e_wo_entrp">   -645.71269222 </i>
    <i name="e_0_energy">   -645.76845121 </i>
   </energy>
  </scstep>
  <scstep>
   <time name="diag">    1.14    1.17</time>
   <time name="diis">   11.68   12.04</time>
   <time name="orth">    0.27    0.28</time>
   <time name="total">   13.27   13.68</time>
   <energy>
    <i name="e_fr_energy">   -645.82207275 </i>
    <i name="e_wo_entrp">   -645.71128795 </i>
    <i name="e_0_energy">   -645.76668035 </i>
   </energy>
  </scstep>
  <scstep>
   <time name="diag">    1.17    1.20</time>
   <time name="diis">   13.46   13.91</time>
   <time name="orth">    0.33    0.34</time>
   <time name="total">   15.15   15.63</time>
   <energy>
    <i name="e_fr_energy">   -645.82226617 </i>
    <i name="e_wo_entrp">   -645.71131720 </i>
    <i name="e_0_energy">   -645.76679168 </i>
   </energy>
  </scstep>
  <scstep>
   <time name="diag">    1.15    1.17</time>
   <time name="diis">   10.77   11.08</time>
   <time name="orth">    0.27    0.28</time>
   <time name="total">   12.37   12.71</time>
   <energy>
    <i name="e_fr_energy">   -645.82205352 </i>
    <i name="e_wo_entrp">   -645.71122101 </i>
    <i name="e_0_energy">   -645.76663727 </i>
   </energy>
  </scstep>
  <scstep>
   <time name="diag">    1.14    1.16</time>
   <time name="diis">    8.93    9.25</time>
   <time name="orth">    0.27    0.28</time>
   <time name="total">   10.52   10.87</time>
   <energy>
    <i name="e_fr_energy">   -645.82207746 </i>
    <i name="e_wo_entrp">   -645.71123966 </i>
    <i name="e_0_energy">   -645.76665856 </i>
   </energy>
  </scstep>
  <scstep>
   <time name="diag">    1.20    1.23</time>
   <time name="diis">    7.05    7.23</time>
   <time name="orth">    0.28    0.28</time>
   <time name="total">    8.70    8.92</time>
   <energy>
    <i name="e_fr_energy">   -645.82204439 </i>
    <i name="e_wo_entrp">   -645.71116278 </i>
    <i name="e_0_energy">   -645.76660359 </i>
   </energy>
  </scstep>
  <scstep>
   <time name="diag">    1.16    1.19</time>
   <time name="diis">    7.04    7.22</time>
   <time name="orth">    0.27    0.28</time>
   <time name="total">    8.50    8.71</time>
   <energy>
    <i name="alphaZ">   3517.98008928 </i>
    <i name="ewald"> -32140.96680719 </i>
    <i name="hartreedc">  -7205.99220892 </i>
    <i name="XCdc">    781.97275054 </i>
    <i name="pawpsdc">  25713.07613451 </i>
    <i name="pawaedc"> -25224.54708170 </i>
    <i name="eentropy">     -0.11083139 </i>
    <i name="bandstr">  -3882.60374328 </i>
    <i name="atom">  37795.36964742 </i>
    <i name="e_fr_energy">   -645.82205072 </i>
    <i name="e_wo_entrp">   -645.71121934 </i>
    <i name="e_0_energy">   -645.76663503 </i>
   </energy>
  </scstep>
  <structure>
   <crystal>
    <varray name="basis" >
     <v>       8.81440506       0.02357690      -0.01417493 </v>
     <v>       0.03012289       8.81405082       0.00537201 </v>
     <v>       0.01746761      -0.00986630       8.80036464 </v>
    </varray>
    <i name="volume">    683.70213952 </i>
    <varray name="rec_basis" >
     <v>       0.11345133      -0.00038759      -0.00022562 </v>
     <v>      -0.00030327       0.11345617       0.00012780 </v>
     <v>       0.00018292      -0.00006988       0.11363121 </v>
    </varray>
   </crystal>
   <varray name="positions" >
    <v>       0.00079537       0.99696372       0.99674167 </v>
    <v>       0.26886775       0.00239525       0.24273461 </v>
    <v>       0.24540861       0.49477643       0.24620677 </v>
    <v>       0.50066554       0.49962766       0.00231681 </v>
    <v>       0.50594725       0.24740463       0.74208745 </v>
    <v>       0.99751981       0.50216231       0.50108861 </v>
    <v>       0.49661936       0.75913695       0.74931900 </v>
    <v>       0.99180713       0.24020766       0.24967072 </v>
    <v>       0.75435436       0.74649625       0.01201925 </v>
    <v>       0.00169846       0.25004357       0.75114522 </v>
    <v>       0.75230925       0.24432482       0.49763605 </v>
    <v>       0.00012138       0.75089814       0.74957992 </v>
    <v>       0.24944219       0.49534452       0.75034421 </v>
    <v>       0.25966052       0.24227829       0.98962862 </v>
    <v>       0.51088889       0.25440110       0.25236058 </v>
    <v>       0.73195509       0.99273025       0.25934232 </v>
    <v>       0.74120971       0.24105413       0.99979428 </v>
    <v>       0.24681270       0.74716796       0.99639640 </v>
    <v>       0.25103758       0.24596410       0.50639204 </v>
    <v>       0.25093167       0.75137953       0.50223545 </v>
    <v>       0.24734367       0.24812490       0.24750490 </v>
    <v>       0.26121367       0.00081882       0.98939639 </v>
    <v>       0.00047001       0.25467437       0.00010490 </v>
    <v>       0.74725869       0.24045004       0.24642108 </v>
    <v>       0.73969883       0.99758209       0.00582856 </v>
    <v>       0.51134729       0.00040598       0.27868511 </v>
    <v>       0.99109612       0.49936394       0.24197092 </v>
    <v>       0.49905366       0.76435531       0.00876165 </v>
    <v>       0.98845833       0.00420905       0.73992947 </v>
    <v>       0.75758941       0.24898476       0.75009808 </v>
    <v>       0.76336301       0.00497929       0.49318790 </v>
    <v>       0.50105461       0.24608573       0.48920861 </v>
    <v>       0.52589132       0.00247877       0.74144283 </v>
    <v>       0.99838256       0.00046985       0.25311189 </v>
    <v>       0.50090591       0.23774881       0.00392085 </v>
    <v>       0.25355420       0.74974563       0.24915987 </v>
    <v>       0.23991887       0.50069370       0.99314332 </v>
    <v>       0.00275023       0.74056999       0.00431036 </v>
    <v>       0.74789705       0.74621168       0.25343627 </v>
    <v>       0.76336727       0.49339825       0.00585429 </v>
    <v>       0.50003966       0.50230052       0.25299916 </v>
    <v>       0.24825583       0.24763986       0.74903650 </v>
    <v>       0.25491728       0.99968428       0.51266395 </v>
    <v>       0.00362660       0.24645393       0.49994088 </v>
    <v>       0.24209614       0.75658804       0.75121397 </v>
    <v>       0.25664674       0.50197027       0.50259642 </v>
    <v>       0.99869280       0.75946700       0.49949664 </v>
    <v>       0.99988374       0.50119826       0.75555780 </v>
    <v>       0.75226833       0.75465873       0.75010101 </v>
    <v>       0.74295447       0.49510294       0.50709733 </v>
    <v>       0.49801129       0.76566829       0.48683952 </v>
    <v>       0.50409079       0.50308624       0.74156179 </v>
    <v>       0.51401831       0.01186873       0.96314697 </v>
    <v>       0.99704642       0.51482240       0.97967379 </v>
    <v>       0.47568209       0.73619022       0.25650087 </v>
    <v>       0.22682366       0.01503963       0.75162511 </v>
    <v>       0.46742831       0.99484345       0.51895714 </v>
    <v>       0.73972524       0.97010314       0.78159500 </v>
    <v>       0.01710540       0.76731971       0.25518099 </v>
    <v>       0.73896337       0.49413180       0.25392465 </v>
    <v>       0.02183933       0.00381349       0.49548361 </v>
    <v>       0.50278646       0.51932997       0.48866852 </v>
    <v>       0.75474612       0.51629707       0.76361922 </v>
    <v>       0.74368465       0.73631356       0.49000207 </v>
   </varray>
  </structure>
  <varray name="forces" >
   <v>       0.00000197       0.00207408      -0.00077818 </v>
   <v>       0.00546186       0.00299772      -0.00323182 </v>
   <v>       0.00003538       0.00060835       0.00186607 </v>
   <v>       0.00067871       0.00086128       0.00166344 </v>
   <v>       0.00066527       0.00069003       0.00098939 </v>
   <v>      -0.00012704      -0.00073688      -0.00030385 </v>
   <v>      -0.00215169       0.00079933       0.00149149 </v>
   <v>      -0.00083289       0.00222061       0.00166406 </v>
   <v>       0.00176035      -0.00083424       0.00256530 </v>
   <v>      -0.00026712      -0.00017238      -0.00014922 </v>
   <v>       0.00002610      -0.00592117      -0.00106933 </v>
   <v>       0.00408151       0.00196603       0.00065349 </v>
   <v>       0.00205862       0.00209305      -0.00044219 </v>
   <v>       0.00121170       0.00089612      -0.00037169 </v>
   <v>       0.00018976      -0.00186068       0.00115034 </v>
   <v>      -0.00336306       0.00185595      -0.00444667 </v>
   <v>      -0.00308401      -0.00040302       0.00210027 </v>
   <v>      -0.00082899       0.00162555      -0.00224598 </v>
   <v>       0.00086842       0.00079758       0.00011553 </v>
   <v>       0.00115059       0.00074718       0.00034773 </v>
   <v>       0.00124140       0.00114219       0.00036104 </v>
   <v>      -0.00027442      -0.00056331      -0.00061192 </v>
   <v>      -0.00032757       0.00223261      -0.00003108 </v>
   <v>      -0.00258858      -0.00412465      -0.00145880 </v>
   <v>      -0.00041352      -0.00120827      -0.00377124 </v>
   <v>      -0.00345718      -0.00409987       0.00696580 </v>
   <v>       0.00147080       0.00052335       0.00039412 </v>
   <v>       0.00101549       0.00183706      -0.00178942 </v>
   <v>       0.00062540       0.00059086       0.00249956 </v>
   <v>       0.00006094       0.00011954       0.00024986 </v>
   <v>      -0.00042456      -0.00438142       0.00715778 </v>
   <v>       0.00024369      -0.00077035       0.00174812 </v>
   <v>       0.00232261       0.00057793      -0.00024199 </v>
   <v>      -0.00040339       0.00365505      -0.00047915 </v>
   <v>      -0.00118609      -0.00096872      -0.00113622 </v>
   <v>      -0.00109133       0.00072980      -0.00007679 </v>
   <v>       0.00298010      -0.00005426       0.00068844 </v>
   <v>      -0.00073373       0.00011553      -0.00140083 </v>
   <v>       0.00178582      -0.00375237       0.00010701 </v>
   <v>      -0.00202928      -0.00102879      -0.00162542 </v>
   <v>       0.00015473       0.00124780      -0.00327231 </v>
   <v>       0.00111755       0.00027460       0.00073243 </v>
   <v>       0.00062071       0.00103687      -0.00222371 </v>
   <v>      -0.00032128       0.00017920       0.00000615 </v>
   <v>       0.00150090       0.00059354       0.00024623 </v>
   <v>      -0.00010878       0.00152010      -0.00194704 </v>
   <v>       0.00044507       0.00087912      -0.00081482 </v>
   <v>       0.00060420      -0.00004540      -0.00123156 </v>
   <v>      -0.00047842      -0.00172473       0.00248239 </v>
   <v>      -0.00053443      -0.00257390      -0.00151743 </v>
   <v>       0.00128553       0.00268751       0.00338226 </v>
   <v>      -0.00018498       0.00219752       0.00096466 </v>
   <v>      -0.00240376       0.00064401      -0.00132191 </v>
   <v>      -0.00033513      -0.00342887      -0.00143547 </v>
   <v>       0.00055077       0.00761763       0.00088616 </v>
   <v>       0.00174887      -0.00080087       0.00120992 </v>
   <v>      -0.01061689       0.00217757      -0.00228312 </v>
   <v>      -0.00487207       0.00085724       0.00057734 </v>
   <v>       0.00156141      -0.00618033       0.00081884 </v>
   <v>       0.00223978      -0.00754857       0.00027650 </v>
   <v>       0.00368661      -0.00166263      -0.00077042 </v>
   <v>       0.00065575      -0.00111921       0.00284752 </v>
   <v>      -0.00095017      -0.00194169      -0.00165674 </v>
   <v>      -0.00171801       0.00423710      -0.00507296 </v>
  </varray>
  <varray name="stress" >
   <v>      -0.55116821      -0.01388761      -0.00622135 </v>
   <v>      -0.01388595      -0.15852099      -0.01114519 </v>
   <v>      -0.00622212      -0.01114617      -0.37729311 </v>
  </varray>
  <energy>
   <i name="e_fr_energy">   -645.82205072 </i>
   <i name="e_wo_entrp">   -645.71121934 </i>
   <i name="e_0_energy">   -645.76663503 </i>
  </energy>
  <time name="totalsc">  131.93  135.98</time>
 </calculation>
 <calculation>
  <scstep>
   <time name="dav">   20.95   21.53</time>
   <time name="total">   21.14   21.72</time>
   <energy>
    <i name="alphaZ">   3518.15336735 </i>
    <i name="ewald"> -32141.49280204 </i>
    <i name="hartreedc">  -7206.10132748 </i>
    <i name="XCdc">    781.99918703 </i>
    <i name="pawpsdc">  25712.91579232 </i>
    <i name="pawaedc"> -25224.38625363 </i>
    <i name="eentropy">     -0.11089192 </i>
    <i name="bandstr">  -3882.16876157 </i>
    <i name="atom">  37795.36964742 </i>
    <i name="e_fr_energy">   -645.82204253 </i>
    <i name="e_wo_entrp">   -645.71115060 </i>
    <i name="e_0_energy">   -645.76659656 </i>
   </energy>
  </scstep>
  <scstep>
   <time name="diag">    1.16    1.19</time>
   <time name="diis">   11.18   11.43</time>
   <time name="orth">    0.27    0.28</time>
   <time name="total">   12.79   13.08</time>
   <energy>
    <i name="e_fr_energy">   -645.82215262 </i>
    <i name="e_wo_entrp">   -645.71141905 </i>
    <i name="e_0_energy">   -645.76678583 </i>
   </energy>
  </scstep>
  <scstep>
   <time name="diag">    1.47    1.52</time>
   <time name="diis">    8.14    8.36</time>
   <time name="orth">    0.27    0.28</time>
   <time name="total">   10.07   10.33</time>
   <energy>
    <i name="e_fr_energy">   -645.82205286 </i>
    <i name="e_wo_entrp">   -645.71116631 </i>
    <i name="e_0_energy">   -645.76660959 </i>
   </energy>
  </scstep>
  <scstep>
   <time name="diag">    1.22    1.24</time>
   <time name="diis">    7.12    7.25</time>
   <time name="orth">    0.27    0.28</time>
   <time name="total">    8.64    8.79</time>
   <energy>
    <i name="alphaZ">   3518.15336735 </i>
    <i name="ewald"> -32141.49280204 </i>
    <i name="hartreedc">  -7205.85328485 </i>
    <i name="XCdc">    781.98623272 </i>
    <i name="pawpsdc">  25712.67683741 </i>
    <i name="pawaedc"> -25224.15420090 </i>
    <i name="eentropy">     -0.11087009 </i>
    <i name="bandstr">  -3882.39698060 </i>
    <i name="atom">  37795.36964742 </i>
    <i name="e_fr_energy">   -645.82205358 </i>
    <i name="e_wo_entrp">   -645.71118349 </i>
    <i name="e_0_energy">   -645.76661853 </i>
   </energy>
  </scstep>
  <structure>
   <crystal>
    <varray name="basis" >
     <v>       8.81406628       0.02358036      -0.01416145 </v>
     <v>       0.03012490       8.81416213       0.00537184 </v>
     <v>       0.01748006      -0.00986651       8.80015833 </v>
    </varray>
    <i name="volume">    683.66846544 </i>
    <varray name="rec_basis" >
     <v>       0.11345569      -0.00038763      -0.00022580 </v>
     <v>      -0.00030332       0.11345474       0.00012780 </v>
     <v>       0.00018276      -0.00006988       0.11363388 </v>
    </varray>
   </crystal>
   <varray name="positions" >
    <v>       0.00079806       0.99696502       0.99673923 </v>
    <v>       0.26887360       0.00239934       0.24274042 </v>
    <v>       0.24540660       0.49477200       0.24620911 </v>
    <v>       0.50066536       0.49962833       0.00231679 </v>
    <v>       0.50594828       0.24740621       0.74208413 </v>
    <v>       0.99752103       0.50216090       0.50108495 </v>
    <v>       0.49661682       0.75913370       0.74931939 </v>
    <v>       0.99180875       0.24020622       0.24967021 </v>
    <v>       0.75435404       0.74650147       0.01202008 </v>
    <v>       0.00169611       0.25004254       0.75114623 </v>
    <v>       0.75230742       0.24433495       0.49764145 </v>
    <v>       0.00012216       0.75089992       0.74958019 </v>
    <v>       0.24944059       0.49534646       0.75034308 </v>
    <v>       0.25966344       0.24227427       0.98962668 </v>
    <v>       0.51089250       0.25439874       0.25236385 </v>
    <v>       0.73195055       0.99272825       0.25935108 </v>
    <v>       0.74121008       0.24105349       0.99978998 </v>
    <v>       0.24681225       0.74716908       0.99639441 </v>
    <v>       0.25103745       0.24596582       0.50639410 </v>
    <v>       0.25093135       0.75137847       0.50223904 </v>
    <v>       0.24734047       0.24812404       0.24750405 </v>
    <v>       0.26121053       0.00081960       0.98939991 </v>
    <v>       0.00047092       0.25467203       0.00010293 </v>
    <v>       0.74726388       0.24045703       0.24642192 </v>
    <v>       0.73970052       0.99758377       0.00583209 </v>
    <v>       0.51134637       0.00040975       0.27867737 </v>
    <v>       0.99109726       0.49936055       0.24197421 </v>
    <v>       0.49905452       0.76435244       0.00875982 </v>
    <v>       0.98845916       0.00420817       0.73992850 </v>
    <v>       0.75758915       0.24898354       0.75009655 </v>
    <v>       0.76336662       0.00498684       0.49317700 </v>
    <v>       0.50105700       0.24608472       0.48920814 </v>
    <v>       0.52589293       0.00247648       0.74144343 </v>
    <v>       0.99838415       0.00047480       0.25311020 </v>
    <v>       0.50090793       0.23774662       0.00391931 </v>
    <v>       0.25355493       0.74974309       0.24915993 </v>
    <v>       0.23991959       0.50069356       0.99314282 </v>
    <v>       0.00274974       0.74056771       0.00431200 </v>
    <v>       0.74789688       0.74621589       0.25343540 </v>
    <v>       0.76336655       0.49339893       0.00585728 </v>
    <v>       0.50003282       0.50229585       0.25299343 </v>
    <v>       0.24825659       0.24763765       0.74903633 </v>
    <v>       0.25492148       0.99968306       0.51266569 </v>
    <v>       0.00362569       0.24645504       0.49994085 </v>
    <v>       0.24209500       0.75658821       0.75121427 </v>
    <v>       0.25664833       0.50196935       0.50259549 </v>
    <v>       0.99869125       0.75946825       0.49949523 </v>
    <v>       0.99988262       0.50119665       0.75555502 </v>
    <v>       0.75226844       0.75466276       0.75010090 </v>
    <v>       0.74295514       0.49510366       0.50709923 </v>
    <v>       0.49801041       0.76566680       0.48683903 </v>
    <v>       0.50409180       0.50308575       0.74156058 </v>
    <v>       0.51402570       0.01186774       0.96315110 </v>
    <v>       0.99704518       0.51482541       0.97967488 </v>
    <v>       0.47567761       0.73618634       0.25649835 </v>
    <v>       0.22681269       0.01504014       0.75161429 </v>
    <v>       0.46742788       0.99483729       0.51895436 </v>
    <v>       0.73971978       0.97010551       0.78160126 </v>
    <v>       0.01710656       0.76731113       0.25518352 </v>
    <v>       0.73896271       0.49414686       0.25392366 </v>
    <v>       0.02183845       0.00381134       0.49548715 </v>
    <v>       0.50278549       0.51932069       0.48867420 </v>
    <v>       0.75474635       0.51629139       0.76362163 </v>
    <v>       0.74368686       0.73631813       0.49000246 </v>
   </varray>
  </structure>
  <varray name="forces" >
   <v>      -0.00015050       0.00152610       0.00005118 </v>
   <v>       0.00229354       0.00097103      -0.00333751 </v>
   <v>       0.00065919       0.00133352       0.00086900 </v>
   <v>       0.00053714       0.00060853       0.00154754 </v>
   <v>      -0.00052050       0.00122085       0.00000644 </v>
   <v>      -0.00099881      -0.00063711       0.00071374 </v>
   <v>      -0.00201558      -0.00030425      -0.00012148 </v>
   <v>      -0.00279847       0.00276629       0.00173087 </v>
   <v>       0.00132597      -0.00492501       0.00210172 </v>
   <v>       0.00191780       0.00049177      -0.00133110 </v>
   <v>       0.00117616      -0.00941813      -0.00465003 </v>
   <v>       0.00215979      -0.00035149      -0.00010947 </v>
   <v>       0.00300866       0.00019601       0.00018539 </v>
   <v>      -0.00205884       0.00391444       0.00087600 </v>
   <v>      -0.00204192       0.00049438      -0.00192668 </v>
   <v>      -0.00000548       0.00251010      -0.00891599 </v>
   <v>      -0.00241735       0.00133015       0.00593253 </v>
   <v>      -0.00086675      -0.00026576       0.00029860 </v>
   <v>       0.00002508      -0.00124750      -0.00128880 </v>
   <v>       0.00112368       0.00123192      -0.00296449 </v>
   <v>       0.00079329       0.00081634       0.00056022 </v>
   <v>       0.00100770      -0.00102534      -0.00261254 </v>
   <v>      -0.00073544       0.00190535       0.00047233 </v>
   <v>      -0.00309742      -0.00586403      -0.00128791 </v>
   <v>      -0.00274345      -0.00170875      -0.00566798 </v>
   <v>      -0.00151686      -0.00439964       0.00674844 </v>
   <v>       0.00046992       0.00130033      -0.00106612 </v>
   <v>       0.00056273       0.00217993       0.00006400 </v>
   <v>       0.00111642       0.00010050       0.00160535 </v>
   <v>       0.00067137      -0.00091330       0.00031874 </v>
   <v>      -0.00136363      -0.00596707       0.00825211 </v>
   <v>      -0.00006801      -0.00078312       0.00119264 </v>
   <v>       0.00203110       0.00023621       0.00013808 </v>
   <v>      -0.00155851       0.00216086       0.00035356 </v>
   <v>      -0.00154277      -0.00014729       0.00018883 </v>
   <v>      -0.00063410       0.00048111      -0.00000975 </v>
   <v>       0.00103164      -0.00008381       0.00020943 </v>
   <v>      -0.00075004       0.00000805      -0.00138781 </v>
   <v>       0.00111792      -0.00362332       0.00035846 </v>
   <v>      -0.00073050      -0.00114160      -0.00192472 </v>
   <v>       0.00177677       0.00231551      -0.00096082 </v>
   <v>      -0.00028453      -0.00064574       0.00029854 </v>
   <v>      -0.00035455       0.00074241      -0.00069004 </v>
   <v>      -0.00076459       0.00000490       0.00046707 </v>
   <v>       0.00012501       0.00091402      -0.00003303 </v>
   <v>       0.00008219       0.00103136      -0.00065847 </v>
   <v>       0.00015591      -0.00016953      -0.00026313 </v>
   <v>       0.00067148      -0.00001779       0.00022713 </v>
   <v>      -0.00013355      -0.00209322       0.00212137 </v>
   <v>      -0.00164156      -0.00275639      -0.00125444 </v>
   <v>       0.00088482       0.00295911       0.00185488 </v>
   <v>      -0.00080296       0.00137042       0.00047750 </v>
   <v>      -0.00772498      -0.00006456      -0.00396510 </v>
   <v>      -0.00038934      -0.00230145      -0.00088850 </v>
   <v>       0.00753662       0.01349473       0.00566619 </v>
   <v>       0.00973721      -0.00140764       0.01187617 </v>
   <v>      -0.00650529       0.01230499       0.00424528 </v>
   <v>       0.00056047      -0.00004957      -0.00547990 </v>
   <v>       0.00075933      -0.00156991      -0.00073439 </v>
   <v>       0.00146712      -0.01441244       0.00101973 </v>
   <v>       0.00333099      -0.00021074      -0.00180044 </v>
   <v>       0.00070816       0.00358972      -0.00094986 </v>
   <v>      -0.00110116       0.00065106      -0.00262413 </v>
   <v>      -0.00250772       0.00134349      -0.00412448 </v>
  </varray>
  <varray name="stress" >
   <v>      -1.16242768      -0.01727056      -0.01970458 </v>
   <v>      -0.01726985      -0.41173003      -0.00901598 </v>
   <v>      -0.01970483      -0.00901846      -0.92467957 </v>
  </varray>
  <energy>
   <i name="e_fr_energy">   -645.82205358 </i>
   <i name="e_wo_entrp">   -645.71118349 </i>
   <i name="e_0_energy">   -645.76661853 </i>
  </energy>
  <time name="totalsc">   81.89   83.64</time>
 </calculation>
 <calculation>
  <scstep>
   <time name="dav">   21.97   22.40</time>
   <time name="total">   22.15   22.59</time>
   <energy>
    <i name="alphaZ">   3518.33592799 </i>
    <i name="ewald"> -32142.04684819 </i>
    <i name="hartreedc">  -7205.92766608 </i>
    <i name="XCdc">    782.01110363 </i>
    <i name="pawpsdc">  25712.72874524 </i>
    <i name="pawaedc"> -25224.20674074 </i>
    <i name="eentropy">     -0.11090644 </i>
    <i name="bandstr">  -3881.97530606 </i>
    <i name="atom">  37795.36964742 </i>
    <i name="e_fr_energy">   -645.82204323 </i>
    <i name="e_wo_entrp">   -645.71113680 </i>
    <i name="e_0_energy">   -645.76659001 </i>
   </energy>
  </scstep>
  <scstep>
   <time name="diag">    1.22    1.25</time>
   <time name="diis">   11.37   11.65</time>
   <time name="orth">    0.27    0.27</time>
   <time name="total">   13.04   13.35</time>
   <energy>
    <i name="e_fr_energy">   -645.82221461 </i>
[...]
      </set>
     </set>
    </set>
   </array>
  </eigenvalues>
  <separator name="orbital magnetization" >
   <v name="MAGDIPOLOUT">      0.00000000      0.00000000      0.00000000</v>
  </separator>
  <dos>
   <i name="efermi">      7.99933286 </i>
   <total>
    <array>
     <dimension dim="1">gridpoints</dimension>
     <dimension dim="2">spin</dimension>
     <field>energy</field>
     <field>total</field>
     <field>integrated</field>
     <set>
      <set comment="spin 1">
       <r>   -38.1279     0.0000     0.0000 </r>
       <r>   -37.9578     0.0000     0.0000 </r>
       <r>   -37.7877     0.0000     0.0000 </r>
       <r>   -37.6176     0.0000     0.0000 </r>
       <r>   -37.4475     0.0000     0.0000 </r>
       <r>   -37.2774     0.0000     0.0000 </r>
       <r>   -37.1074     0.0000     0.0000 </r>
       <r>   -36.9373     0.0000     0.0000 </r>
       <r>   -36.7672     0.0000     0.0000 </r>
       <r>   -36.5971     0.0000     0.0000 </r>
       <r>   -36.4270     0.0000     0.0000 </r>
       <r>   -36.2569     0.0000     0.0000 </r>
       <r>   -36.0868     0.0005     0.0001 </r>
       <r>   -35.9167     0.7791     0.1326 </r>
       <r>   -35.7466    15.0853     2.6985 </r>
       <r>   -35.5765    68.9158    14.4205 </r>
       <r>   -35.4064   109.3140    33.0139 </r>
       <r>   -35.2363    17.4385    35.9800 </r>
       <r>   -35.0663     0.1174    36.0000 </r>
       <r>   -34.8962     0.0000    36.0000 </r>
       <r>   -34.7261     0.0000    36.0000 </r>
       <r>   -34.5560     0.0000    36.0000 </r>
       <r>   -34.3859     0.0000    36.0000 </r>
       <r>   -34.2158     0.0000    36.0000 </r>
       <r>   -34.0457     0.0000    36.0000 </r>
       <r>   -33.8756     0.0000    36.0000 </r>
       <r>   -33.7055     0.0000    36.0000 </r>
       <r>   -33.5354     0.0000    36.0000 </r>
       <r>   -33.3653     0.0000    36.0000 </r>
       <r>   -33.1952     0.0000    36.0000 </r>
       <r>   -33.0252     0.0000    36.0000 </r>
       <r>   -32.8551     0.0000    36.0000 </r>
       <r>   -32.6850     0.0000    36.0000 </r>
       <r>   -32.5149     0.0000    36.0000 </r>
       <r>   -32.3448     0.0000    36.0000 </r>
       <r>   -32.1747     0.0000    36.0000 </r>
       <r>   -32.0046     0.0000    36.0000 </r>
       <r>   -31.8345     0.0000    36.0000 </r>
       <r>   -31.6644     0.0007    36.0001 </r>
       <r>   -31.4943     1.2624    36.2148 </r>
       <r>   -31.3242    33.8065    41.9651 </r>
       <r>   -31.1541    90.7857    57.4069 </r>
       <r>   -30.9841    60.7637    67.7423 </r>
       <r>   -30.8140    23.8754    71.8033 </r>
       <r>   -30.6439     1.1553    71.9999 </r>
       <r>   -30.4738     0.0008    72.0000 </r>
       <r>   -30.3037     0.0000    72.0000 </r>
       <r>   -30.1336     0.0000    72.0000 </r>
       <r>   -29.9635     0.0000    72.0000 </r>
       <r>   -29.7934     0.0000    72.0000 </r>
       <r>   -29.6233     0.0000    72.0000 </r>
       <r>   -29.4532     0.0000    72.0000 </r>
       <r>   -29.2831     0.0000    72.0000 </r>
       <r>   -29.1130     0.0000    72.0000 </r>
       <r>   -28.9430     0.0000    72.0000 </r>
       <r>   -28.7729     0.0000    72.0000 </r>
       <r>   -28.6028     0.0000    72.0000 </r>
       <r>   -28.4327     0.0000    72.0000 </r>
       <r>   -28.2626     0.0000    72.0000 </r>
       <r>   -28.0925     0.0000    72.0000 </r>
       <r>   -27.9224     0.1737    72.0296 </r>
       <r>   -27.7523     9.5208    73.6490 </r>
       <r>   -27.5822    33.8590    79.4081 </r>
       <r>   -27.4121    38.3355    85.9286 </r>
       <r>   -27.2420    51.0164    94.6061 </r>
       <r>   -27.0719    35.4137   100.6297 </r>
       <r>   -26.9019    24.5933   104.8128 </r>
       <r>   -26.7318    18.2463   107.9163 </r>
       <r>   -26.5617     0.4918   108.0000 </r>
       <r>   -26.3916     0.0916   108.0156 </r>
       <r>   -26.2215    10.2368   109.7568 </r>
       <r>   -26.0514    37.2401   116.0910 </r>
       <r>   -25.8813    56.7175   125.7382 </r>
       <r>   -25.7112    94.5104   141.8136 </r>
       <r>   -25.5411    44.4983   149.3824 </r>
       <r>   -25.3710     3.6225   149.9986 </r>
       <r>   -25.2009     0.0085   150.0000 </r>
       <r>   -25.0308     0.0000   150.0000 </r>
       <r>   -24.8608     0.0000   150.0000 </r>
       <r>   -24.6907     0.0000   150.0000 </r>
       <r>   -24.5206     0.0000   150.0000 </r>
       <r>   -24.3505     0.0000   150.0000 </r>
       <r>   -24.1804     0.0000   150.0000 </r>
       <r>   -24.0103     0.0000   150.0000 </r>
       <r>   -23.8402     0.0000   150.0000 </r>
       <r>   -23.6701     0.0000   150.0000 </r>
       <r>   -23.5000     0.0000   150.0000 </r>
       <r>   -23.3299     0.0000   150.0000 </r>
       <r>   -23.1598     0.0000   150.0000 </r>
       <r>   -22.9897     0.0000   150.0000 </r>
       <r>   -22.8197     0.0000   150.0000 </r>
       <r>   -22.6496     0.0000   150.0000 </r>
       <r>   -22.4795     0.0000   150.0000 </r>
       <r>   -22.3094     0.0000   150.0000 </r>
       <r>   -22.1393     0.0000   150.0000 </r>
       <r>   -21.9692     0.0000   150.0000 </r>
       <r>   -21.7991     0.0000   150.0000 </r>
       <r>   -21.6290     0.0000   150.0000 </r>
       <r>   -21.4589     0.0000   150.0000 </r>
       <r>   -21.2888     0.0000   150.0000 </r>
       <r>   -21.1187     0.0000   150.0000 </r>
       <r>   -20.9486     0.0000   150.0000 </r>
       <r>   -20.7786     0.0000   150.0000 </r>
       <r>   -20.6085     0.0000   150.0000 </r>
       <r>   -20.4384     0.0000   150.0000 </r>
       <r>   -20.2683     0.0000   150.0000 </r>
       <r>   -20.0982     0.0000   150.0000 </r>
       <r>   -19.9281     0.0000   150.0000 </r>
       <r>   -19.7580     0.0000   150.0000 </r>
       <r>   -19.5879     0.0000   150.0000 </r>
       <r>   -19.4178     0.0000   150.0000 </r>
       <r>   -19.2477     0.0000   150.0000 </r>
       <r>   -19.0776     0.0000   150.0000 </r>
       <r>   -18.9075     0.0000   150.0000 </r>
       <r>   -18.7375     0.0000   150.0000 </r>
       <r>   -18.5674     0.0000   150.0000 </r>
       <r>   -18.3973     0.0000   150.0000 </r>
       <r>   -18.2272     0.0000   150.0000 </r>
       <r>   -18.0571     0.0000   150.0000 </r>
       <r>   -17.8870     0.0000   150.0000 </r>
       <r>   -17.7169     0.0000   150.0000 </r>
       <r>   -17.5468     0.0000   150.0000 </r>
       <r>   -17.3767     0.0000   150.0000 </r>
       <r>   -17.2066     0.0000   150.0000 </r>
       <r>   -17.0365     0.0000   150.0000 </r>
       <r>   -16.8664     0.0000   150.0000 </r>
       <r>   -16.6964     0.0000   150.0000 </r>
       <r>   -16.5263     0.0000   150.0000 </r>
       <r>   -16.3562     0.0000   150.0000 </r>
       <r>   -16.1861     0.0000   150.0000 </r>
       <r>   -16.0160     0.0000   150.0000 </r>
       <r>   -15.8459     0.0000   150.0000 </r>
       <r>   -15.6758     0.0000   150.0000 </r>
       <r>   -15.5057     0.0000   150.0000 </r>
       <r>   -15.3356     0.0000   150.0000 </r>
       <r>   -15.1655     0.0000   150.0000 </r>
       <r>   -14.9954     0.0000   150.0000 </r>
       <r>   -14.8253     0.0000   150.0000 </r>
       <r>   -14.6553     0.0000   150.0000 </r>
       <r>   -14.4852     0.0000   150.0000 </r>
       <r>   -14.3151     0.0000   150.0000 </r>
       <r>   -14.1450     0.0000   150.0000 </r>
       <r>   -13.9749     0.0000   150.0000 </r>
       <r>   -13.8048     0.0000   150.0000 </r>
       <r>   -13.6347     0.0000   150.0000 </r>
       <r>   -13.4646     0.0000   150.0000 </r>
       <r>   -13.2945     0.0000   150.0000 </r>
       <r>   -13.1244     0.0000   150.0000 </r>
       <r>   -12.9543     0.0000   150.0000 </r>
       <r>   -12.7842     0.0000   150.0000 </r>
       <r>   -12.6142     0.0000   150.0000 </r>
       <r>   -12.4441     0.0000   150.0000 </r>
       <r>   -12.2740     0.0000   150.0000 </r>
       <r>   -12.1039     0.0000   150.0000 </r>
       <r>   -11.9338     0.0000   150.0000 </r>
       <r>   -11.7637     0.0000   150.0000 </r>
       <r>   -11.5936     0.0000   150.0000 </r>
       <r>   -11.4235     0.0000   150.0000 </r>
       <r>   -11.2534     0.0000   150.0000 </r>
       <r>   -11.0833     0.0000   150.0000 </r>
       <r>   -10.9132     0.0000   150.0000 </r>
       <r>   -10.7431     0.0000   150.0000 </r>
       <r>   -10.5731     0.0000   150.0000 </r>
       <r>   -10.4030     0.0000   150.0000 </r>
       <r>   -10.2329     0.0000   150.0000 </r>
       <r>   -10.0628     0.0000   150.0000 </r>
       <r>    -9.8927     0.0000   150.0000 </r>
       <r>    -9.7226     0.0000   150.0000 </r>
       <r>    -9.5525     0.0000   150.0000 </r>
       <r>    -9.3824     0.0000   150.0000 </r>
       <r>    -9.2123     0.0000   150.0000 </r>
       <r>    -9.0422     0.0000   150.0000 </r>
       <r>    -8.8721     0.0000   150.0000 </r>
       <r>    -8.7020     0.0001   150.0000 </r>
       <r>    -8.5320     0.1001   150.0170 </r>
       <r>    -8.3619     3.2806   150.5750 </r>
       <r>    -8.1918     7.6262   151.8722 </r>
       <r>    -8.0217     7.2500   153.1054 </r>
       <r>    -7.8516     6.8762   154.2749 </r>
       <r>    -7.6815    10.2233   156.0138 </r>
       <r>    -7.5114    10.5820   157.8137 </r>
       <r>    -7.3413    12.6588   159.9669 </r>
       <r>    -7.1712    21.2731   163.5853 </r>
       <r>    -7.0011    18.1178   166.6670 </r>
       <r>    -6.8310    21.4933   170.3228 </r>
       <r>    -6.6609    19.4236   173.6266 </r>
       <r>    -6.4909     4.3130   174.3602 </r>
       <r>    -6.3208     8.8395   175.8637 </r>
       <r>    -6.1507     0.8005   175.9999 </r>
       <r>    -5.9806     0.0006   176.0000 </r>
       <r>    -5.8105     0.0000   176.0000 </r>
       <r>    -5.6404     0.0000   176.0000 </r>
       <r>    -5.4703     0.0004   176.0001 </r>
       <r>    -5.3002     0.2012   176.0343 </r>
       <r>    -5.1301     3.1375   176.5680 </r>
       <r>    -4.9600     6.3086   177.6410 </r>
       <r>    -4.7899     2.1915   178.0138 </r>
       <r>    -4.6198     4.8475   178.8383 </r>
       <r>    -4.4498    10.0217   180.5429 </r>
       <r>    -4.2797     7.8241   181.8737 </r>
       <r>    -4.1096    10.2140   183.6110 </r>
       <r>    -3.9395    13.3712   185.8853 </r>
       <r>    -3.7694    20.5404   189.3791 </r>
       <r>    -3.5993    21.9035   193.1047 </r>
       <r>    -3.4292    21.8208   196.8162 </r>
       <r>    -3.2591    19.8119   200.1861 </r>
       <r>    -3.0890    20.8263   203.7285 </r>
       <r>    -2.9189    15.8222   206.4197 </r>
       <r>    -2.7488    13.9826   208.7980 </r>
       <r>    -2.5787    15.6701   211.4634 </r>
       <r>    -2.4087     8.9121   212.9792 </r>
       <r>    -2.2386     4.1693   213.6884 </r>
       <r>    -2.0685     1.7475   213.9856 </r>
       <r>    -1.8984     0.0844   214.0000 </r>
       <r>    -1.7283     0.0001   214.0000 </r>
       <r>    -1.5582     0.0000   214.0000 </r>
       <r>    -1.3881     0.0000   214.0000 </r>
       <r>    -1.2180     0.0000   214.0000 </r>
       <r>    -1.0479     0.0000   214.0000 </r>
       <r>    -0.8778     0.0000   214.0000 </r>
       <r>    -0.7077     0.0000   214.0000 </r>
       <r>    -0.5376     0.0000   214.0000 </r>
       <r>    -0.3676     0.0019   214.0003 </r>
       <r>    -0.1975     0.2853   214.0489 </r>
       <r>    -0.0274     1.0721   214.2312 </r>
       <r>     0.1427     3.6774   214.8567 </r>
       <r>     0.3128     8.8587   216.3635 </r>
       <r>     0.4829     9.6309   218.0016 </r>
       <r>     0.6530    10.6787   219.8180 </r>
       <r>     0.8231    13.6374   222.1376 </r>
       <r>     0.9932    17.4519   225.1060 </r>
       <r>     1.1633    20.5011   228.5931 </r>
       <r>     1.3334    27.1959   233.2189 </r>
       <r>     1.5035    27.1461   237.8362 </r>
       <r>     1.6735    25.5994   242.1904 </r>
       <r>     1.8436    26.6591   246.7249 </r>
       <r>     2.0137    32.2026   252.2023 </r>
       <r>     2.1838    34.6142   258.0899 </r>
       <r>     2.3539    37.4022   264.4517 </r>
       <r>     2.5240    39.9566   271.2480 </r>
       <r>     2.6941    46.4596   279.1504 </r>
       <r>     2.8642    52.6654   288.1084 </r>
       <r>     3.0343    56.3138   297.6869 </r>
       <r>     3.2044    59.5066   307.8084 </r>
       <r>     3.3745    58.9949   317.8430 </r>
       <r>     3.5446    59.7802   328.0111 </r>
       <r>     3.7146    56.8573   337.6821 </r>
       <r>     3.8847    52.9856   346.6945 </r>
       <r>     4.0548    50.3864   355.2648 </r>
       <r>     4.2249    46.0576   363.0988 </r>
       <r>     4.3950    43.4574   370.4905 </r>
       <r>     4.5651    37.6703   376.8979 </r>
       <r>     4.7352    34.7526   382.8091 </r>
       <r>     4.9053    29.7196   387.8641 </r>
       <r>     5.0754    27.6078   392.5600 </r>
       <r>     5.2455    23.8158   396.6108 </r>
       <r>     5.4156    20.3215   400.0674 </r>
       <r>     5.5857    16.3286   402.8447 </r>
       <r>     5.7557    12.5183   404.9740 </r>
       <r>     5.9258     6.7550   406.1229 </r>
       <r>     6.0959    10.7223   407.9467 </r>
       <r>     6.2660    15.3664   410.5604 </r>
       <r>     6.4361    17.0535   413.4611 </r>
       <r>     6.6062    14.5751   415.9402 </r>
       <r>     6.7763    20.0556   419.3515 </r>
       <r>     6.9464    23.4158   423.3343 </r>
       <r>     7.1165    20.4407   426.8111 </r>
       <r>     7.2866    19.6996   430.1618 </r>
       <r>     7.4567    24.5378   434.3355 </r>
       <r>     7.6268    29.1063   439.2862 </r>
       <r>     7.7968    28.9285   444.2067 </r>
       <r>     7.9669    23.9810   448.2857 </r>
       <r>     8.1370    23.6814   452.3137 </r>
       <r>     8.3071    29.7313   457.3708 </r>
       <r>     8.4772    36.0553   463.5035 </r>
       <r>     8.6473    41.1941   470.5103 </r>
       <r>     8.8174    44.2726   478.0407 </r>
       <r>     8.9875    45.7810   485.8276 </r>
       <r>     9.1576    48.9276   494.1498 </r>
       <r>     9.3277    50.0868   502.6692 </r>
       <r>     9.4978    51.4791   511.4253 </r>
       <r>     9.6679    50.5844   520.0293 </r>
       <r>     9.8379    48.7252   528.3171 </r>
       <r>    10.0080    49.6187   536.7568 </r>
       <r>    10.1781    50.5348   545.3524 </r>
       <r>    10.3482    44.6684   552.9501 </r>
       <r>    10.5183    32.4138   558.4634 </r>
       <r>    10.6884     8.8244   559.9644 </r>
       <r>    10.8585     0.2094   560.0000 </r>
       <r>    11.0286     0.0001   560.0000 </r>
       <r>    11.1987     0.0000   560.0000 </r>
       <r>    11.3688     0.0000   560.0000 </r>
       <r>    11.5389     0.0000   560.0000 </r>
       <r>    11.7090     0.0000   560.0000 </r>
       <r>    11.8790     0.0000   560.0000 </r>
       <r>    12.0491     0.0000   560.0000 </r>
       <r>    12.2192     0.0000   560.0000 </r>
       <r>    12.3893     0.0000   560.0000 </r>
       <r>    12.5594     0.0000   560.0000 </r>
       <r>    12.7295     0.0000   560.0000 </r>
       <r>    12.8996     0.0000   560.0000 </r>
      </set>
     </set>
    </array>
   </total>
  </dos>
 </calculation>
 <structure name="finalpos" >
  <crystal>
   <varray name="basis" >
    <v>       8.81385724       0.02357698      -0.01416797 </v>
    <v>       0.03012110       8.81404952       0.00536935 </v>
    <v>       0.01747285      -0.00986874       8.79997533 </v>
   </varray>
   <i name="volume">    683.62930201 </i>
   <varray name="rec_basis" >
    <v>       0.11345838      -0.00038759      -0.00022571 </v>
    <v>      -0.00030329       0.11345619       0.00012784 </v>
    <v>       0.00018285      -0.00006985       0.11363624 </v>
   </varray>
  </crystal>
  <varray name="positions" >
   <v>       0.00079746       0.99696533       0.99674028 </v>
   <v>       0.26887288       0.00239886       0.24273808 </v>
   <v>       0.24540718       0.49477338       0.24620864 </v>
   <v>       0.50066549       0.49962829       0.00231735 </v>
   <v>       0.50594766       0.24740669       0.74208488 </v>
   <v>       0.99752037       0.50216099       0.50108585 </v>
   <v>       0.49661636       0.75913376       0.74931910 </v>
   <v>       0.99180719       0.24020747       0.24967080 </v>
   <v>       0.75435480       0.74649796       0.01202066 </v>
   <v>       0.00169751       0.25004353       0.75114552 </v>
   <v>       0.75230827       0.24432949       0.49763836 </v>
   <v>       0.00012253       0.75089878       0.74958027 </v>
   <v>       0.24944210       0.49534590       0.75034360 </v>
   <v>       0.25966192       0.24227694       0.98962750 </v>
   <v>       0.51089098       0.25439971       0.25236213 </v>
   <v>       0.73195179       0.99272971       0.25934559 </v>
   <v>       0.74120901       0.24105446       0.99979338 </v>
   <v>       0.24681182       0.74716838       0.99639516 </v>
   <v>       0.25103731       0.24596514       0.50639310 </v>
   <v>       0.25093179       0.75137910       0.50223685 </v>
   <v>       0.24734135       0.24812447       0.24750443 </v>
   <v>       0.26121153       0.00081906       0.98939801 </v>
   <v>       0.00047038       0.25467330       0.00010353 </v>
   <v>       0.74726156       0.24045344       0.24642125 </v>
   <v>       0.73969905       0.99758270       0.00582915 </v>
   <v>       0.51134619       0.00040744       0.27868125 </v>
   <v>       0.99109709       0.49936180       0.24197291 </v>
   <v>       0.49905449       0.76435383       0.00876038 </v>
   <v>       0.98845946       0.00420830       0.73992937 </v>
   <v>       0.75758945       0.24898338       0.75009704 </v>
   <v>       0.76336529       0.00498305       0.49318212 </v>
   <v>       0.50105639       0.24608470       0.48920855 </v>
   <v>       0.52589306       0.00247705       0.74144308 </v>
   <v>       0.99838318       0.00047442       0.25311066 </v>
   <v>       0.50090693       0.23774711       0.00391978 </v>
   <v>       0.25355457       0.74974381       0.24915989 </v>
   <v>       0.23991948       0.50069357       0.99314287 </v>
   <v>       0.00274956       0.74056781       0.00431118 </v>
   <v>       0.74789721       0.74621379       0.25343574 </v>
   <v>       0.76336693       0.49339836       0.00585600 </v>
   <v>       0.50003490       0.50229769       0.25299434 </v>
   <v>       0.24825618       0.24763795       0.74903642 </v>
   <v>       0.25492035       0.99968359       0.51266485 </v>
   <v>       0.00362558       0.24645488       0.49994108 </v>
   <v>       0.24209510       0.75658845       0.75121413 </v>
   <v>       0.25664797       0.50196989       0.50259558 </v>
   <v>       0.99869161       0.75946789       0.49949553 </v>
   <v>       0.99988310       0.50119704       0.75555614 </v>
   <v>       0.75226839       0.75466078       0.75010186 </v>
   <v>       0.74295433       0.49510257       0.50709839 </v>
   <v>       0.49801081       0.76566817       0.48683967 </v>
   <v>       0.50409117       0.50308629       0.74156101 </v>
   <v>       0.51402035       0.01186827       0.96314854 </v>
   <v>       0.99704582       0.51482201       0.97967313 </v>
   <v>       0.47568200       0.73619254       0.25650132 </v>
   <v>       0.22682161       0.01503946       0.75162353 </v>
   <v>       0.46742554       0.99484347       0.51895663 </v>
   <v>       0.73972120       0.97010544       0.78159800 </v>
   <v>       0.01710652       0.76731295       0.25518251 </v>
   <v>       0.73896305       0.49413834       0.25392432 </v>
   <v>       0.02183977       0.00381185       0.49548547 </v>
   <v>       0.50278598       0.51932437       0.48867215 </v>
   <v>       0.75474606       0.51629305       0.76362028 </v>
   <v>       0.74368538       0.73631755       0.49000099 </v>
  </varray>
 </structure>
</modeling>
