HECN                                    
           1
     8.812854    0.023593   -0.014113
     0.030132    8.814560    0.005371
     0.017525   -0.009867    8.799420
   Zr   Ta   Ti   N    C    Cr   W 
     7     6     7    13    19     6     6
Direct configuration=     1
   0.00080765  0.99696967  0.99673047
   0.26889453  0.00241397  0.24276121
   0.24539941  0.49475619  0.24621750
   0.50066473  0.49963069  0.00231673
   0.50595199  0.24741187  0.74207228
   0.99752541  0.50215587  0.50107187
   0.49660771  0.75912207  0.74932079
   0.99181456  0.24020107  0.24966839
   0.75435289  0.74652016  0.01202305
   0.00168771  0.25003882  0.75114984
   0.75230086  0.24437121  0.49766080
   0.00012492  0.75090628  0.74958114
   0.24943486  0.49535344  0.75033904
   0.25967389  0.24225988  0.98961975
   0.51090543  0.25439027  0.25237557
   0.73193427  0.99272110  0.25938243
   0.74121141  0.24105120  0.99977459
   0.24681064  0.74717309  0.99638732
   0.25103700  0.24597198  0.50640144
   0.25093019  0.75137471  0.50225186
   0.24732898  0.24812093  0.24750103
   0.26119930  0.00082237  0.98941252
   0.00047420  0.25466364  0.00009590
   0.74728248  0.24048203  0.24642491
   0.73970656  0.99758978  0.00584471
   0.51134306  0.00042326  0.27864968
   0.99110136  0.49934843  0.24198598
   0.49905761  0.76434216  0.00875327
   0.98846210  0.00420504  0.73992503
   0.75758822  0.24897915  0.75009107
   0.76337955  0.00501386  0.49313799
   0.50106556  0.24608109  0.48920644
   0.52589866  0.00246830  0.74144558
   0.99838985  0.00049252  0.25310417
   0.50091514  0.23773881  0.00391380
   0.25355753  0.74973401  0.24916014
   0.23992218  0.50069309  0.99314102
   0.00274799  0.74055953  0.00431787
   0.74789627  0.74623097  0.25343228
   0.76336401  0.49340136  0.00586796
   0.50000835  0.50227913  0.25297291
   0.24825934  0.24762973  0.74903572
   0.25493651  0.99967871  0.51267191
   0.00362245  0.24645902  0.49994072
   0.24209091  0.75658883  0.75121533
   0.25665399  0.50196607  0.50259215
   0.99868570  0.75947274  0.49949016
   0.99987863  0.50119089  0.75554507
   0.75226883  0.75467716  0.75010051
   0.74295757  0.49510623  0.50710603
   0.49800725  0.76566148  0.48683726
   0.50409543  0.50308403  0.74155625
   0.51405213  0.01186421  0.96316589
   0.99704075  0.51483618  0.97967877
   0.47566160  0.73617244  0.25648931
   0.22677342  0.01504195  0.75157556
   0.46742632  0.99481528  0.51894441
   0.73970023  0.97011396  0.78162368
   0.01711069  0.76728041  0.25519257
   0.73896034  0.49420077  0.25392011
   0.02183532  0.00380364  0.49549982
   0.50278201  0.51928749  0.48869452
   0.75474718  0.51627106  0.76363023
   0.74369475  0.73633447  0.49000386
HECN                                    
           1
     8.814405    0.023577   -0.014175
     0.030123    8.814051    0.005372
     0.017468   -0.009866    8.800365
   Zr   Ta   Ti   N    C    Cr   W 
     7     6     7    13    19     6     6
Direct configuration=     2
   0.00079537  0.99696372  0.99674167
   0.26886775  0.00239525  0.24273461
   0.24540861  0.49477643  0.24620677
   0.50066554  0.49962766  0.00231681
   0.50594725  0.24740463  0.74208745
   0.99751981  0.50216231  0.50108861
   0.49661936  0.75913695  0.74931900
   0.99180713  0.24020766  0.24967072
   0.75435436  0.74649625  0.01201925
   0.00169846  0.25004357  0.75114522
   0.75230925  0.24432482  0.49763605
   0.00012138  0.75089814  0.74957992
   0.24944219  0.49534452  0.75034421
   0.25966052  0.24227829  0.98962862
   0.51088889  0.25440110  0.25236058
   0.73195509  0.99273025  0.25934232
   0.74120971  0.24105413  0.99979428
   0.24681270  0.74716796  0.99639640
   0.25103758  0.24596410  0.50639204
   0.25093167  0.75137953  0.50223545
   0.24734367  0.24812490  0.24750490
   0.26121367  0.00081882  0.98939639
   0.00047001  0.25467437  0.00010490
   0.74725869  0.24045004  0.24642108
   0.73969883  0.99758209  0.00582856
   0.51134729  0.00040598  0.27868511
   0.99109612  0.49936394  0.24197092
   0.49905366  0.76435531  0.00876165
   0.98845833  0.00420905  0.73992947
   0.75758941  0.24898476  0.75009808
   0.76336301  0.00497929  0.49318790
   0.50105461  0.24608573  0.48920861
   0.52589132  0.00247877  0.74144283
   0.99838256  0.00046985  0.25311189
   0.50090591  0.23774881  0.00392085
   0.25355420  0.74974563  0.24915987
   0.23991887  0.50069370  0.99314332
   0.00275023  0.74056999  0.00431036
   0.74789705  0.74621168  0.25343627
   0.76336727  0.49339825  0.00585429
   0.50003966  0.50230052  0.25299916
   0.24825583  0.24763986  0.74903650
   0.25491728  0.99968428  0.51266395
   0.00362660  0.24645393  0.49994088
   0.24209614  0.75658804  0.75121397
   0.25664674  0.50197027  0.50259642
   0.99869280  0.75946700  0.49949664
   0.99988374  0.50119826  0.75555780
   0.75226833  0.75465873  0.75010101
   0.74295447  0.49510294  0.50709733
   0.49801129  0.76566829  0.48683952
   0.50409079  0.50308624  0.74156179
   0.51401831  0.01186873  0.96314697
   0.99704642  0.51482240  0.97967379
   0.47568209  0.73619022  0.25650087
   0.22682366  0.01503963  0.75162511
   0.46742831  0.99484345  0.51895714
   0.73972524  0.97010314  0.78159500
   0.01710540  0.76731971  0.25518099
   0.73896337  0.49413180  0.25392465
   0.02183933  0.00381349  0.49548361
   0.50278646  0.51932997  0.48866852
   0.75474612  0.51629707  0.76361922
   0.74368465  0.73631356  0.49000207
HECN                                    
           1
     8.814066    0.023580   -0.014161
     0.030125    8.814162    0.005372
     0.017480   -0.009867    8.800158
   Zr   Ta   Ti   N    C    Cr   W 
     7     6     7    13    19     6     6
Direct configuration=     3
   0.00079806  0.99696502  0.99673923
   0.26887360  0.00239934  0.24274042
   0.24540660  0.49477200  0.24620911
   0.50066536  0.49962833  0.00231679
   0.50594828  0.24740621  0.74208413
   0.99752103  0.50216090  0.50108495
   0.49661682  0.75913370  0.74931939
   0.99180875  0.24020622  0.24967021
   0.75435404  0.74650147  0.01202008
   0.00169611  0.25004254  0.75114623
   0.75230742  0.24433495  0.49764145
   0.00012216  0.75089992  0.74958019
   0.24944059  0.49534646  0.75034308
   0.25966344  0.24227427  0.98962668
   0.51089250  0.25439874  0.25236385
   0.73195055  0.99272825  0.25935108
   0.74121008  0.24105349  0.99978998
   0.24681225  0.74716908  0.99639441
   0.25103745  0.24596582  0.50639410
   0.25093135  0.75137847  0.50223904
   0.24734047  0.24812404  0.24750405
   0.26121053  0.00081960  0.98939991
   0.00047092  0.25467203  0.00010293
   0.74726388  0.24045703  0.24642192
   0.73970052  0.99758377  0.00583209
   0.51134637  0.00040975  0.27867737
   0.99109726  0.49936055  0.24197421
   0.49905452  0.76435244  0.00875982
   0.98845916  0.00420817  0.73992850
   0.75758915  0.24898354  0.75009655
   0.76336662  0.00498684  0.49317700
   0.50105700  0.24608472  0.48920814
   0.52589293  0.00247648  0.74144343
   0.99838415  0.00047480  0.25311020
   0.50090793  0.23774662  0.00391931
   0.25355493  0.74974309  0.24915993
   0.23991959  0.50069356  0.99314282
   0.00274974  0.74056771  0.00431200
   0.74789688  0.74621589  0.25343540
   0.76336655  0.49339893  0.00585728
   0.50003282  0.50229585  0.25299343
   0.24825659  0.24763765  0.74903633
   0.25492148  0.99968306  0.51266569
   0.00362569  0.24645504  0.49994085
   0.24209500  0.75658821  0.75121427
   0.25664833  0.50196935  0.50259549
   0.99869125  0.75946825  0.49949523
   0.99988262  0.50119665  0.75555502
   0.75226844  0.75466276  0.75010090
   0.74295514  0.49510366  0.50709923
   0.49801041  0.76566680  0.48683903
   0.50409180  0.50308575  0.74156058
   0.51402570  0.01186774  0.96315110
   0.99704518  0.51482541  0.97967488
   0.47567761  0.73618634  0.25649835
   0.22681269  0.01504014  0.75161429
   0.46742788  0.99483729  0.51895436
   0.73971978  0.97010551  0.78160126
   0.01710656  0.76731113  0.25518352
   0.73896271  0.49414686  0.25392366
   0.02183845  0.00381134  0.49548715
   0.50278549  0.51932069  0.48867420
   0.75474635  0.51629139  0.76362163
   0.74368686  0.73631813  0.49000246
HECN                                    
           1
     8.813709    0.023584   -0.014147
     0.030127    8.814279    0.005372
     0.017493   -0.009867    8.799941
   Zr   Ta   Ti   N    C    Cr   W 
     7     6     7    13    19     6     6
Direct configuration=     4
   0.00080088  0.99696639  0.99673665
   0.26887976  0.00240365  0.24274654
   0.24540448  0.49476735  0.24621158
   0.50066518  0.49962902  0.00231677
   0.50594937  0.24740788  0.74208064
   0.99752232  0.50215942  0.50108110
   0.49661414  0.75913028  0.74931980
   0.99181046  0.24020470  0.24966967
   0.75435370  0.74650697  0.01202096
   0.00169364  0.25004144  0.75114729
   0.75230549  0.24434563  0.49764715
   0.00012297  0.75090179  0.74958047
   0.24943890  0.49534852  0.75034189
   0.25966651  0.24227003  0.98962464
   0.51089631  0.25439624  0.25236730
   0.73194576  0.99272615  0.25936031
   0.74121048  0.24105282  0.99978545
   0.24681177  0.74717026  0.99639233
   0.25103732  0.24596763  0.50639626
   0.25093101  0.75137737  0.50224281
   0.24733709  0.24812312  0.24750316
   0.26120723  0.00082041  0.98940362
   0.00047189  0.25466956  0.00010086
   0.74726936  0.24046439  0.24642280
   0.73970229  0.99758554  0.00583580
   0.51134540  0.00041373  0.27866922
   0.99109847  0.49935699  0.24197767
   0.49905543  0.76434941  0.00875789
   0.98846002  0.00420725  0.73992748
   0.75758888  0.24898224  0.75009494
   0.76337043  0.00499479  0.49316552
   0.50105952  0.24608365  0.48920764
   0.52589461  0.00247407  0.74144406
   0.99838583  0.00048002  0.25310843
   0.50091005  0.23774432  0.00391769
   0.25355569  0.74974042  0.24915999
   0.23992035  0.50069343  0.99314229
   0.00274922  0.74056530  0.00431373
   0.74789670  0.74622033  0.25343448
   0.76336581  0.49339964  0.00586042
   0.50002562  0.50229093  0.25298739
   0.24825740  0.24763532  0.74903615
   0.25492590  0.99968178  0.51266752
   0.00362474  0.24645621  0.49994081
   0.24209379  0.75658839  0.75121458
   0.25664999  0.50196839  0.50259450
   0.99868961  0.75946957  0.49949374
   0.99988145  0.50119495  0.75555209
   0.75226855  0.75466700  0.75010079
   0.74295586  0.49510442  0.50710123
   0.49800948  0.76566524  0.48683851
   0.50409287  0.50308525  0.74155930
   0.51403347  0.01186670  0.96315546
   0.99704388  0.51482858  0.97967602
   0.47567290  0.73618225  0.25649569
   0.22680113  0.01504067  0.75160289
   0.46742742  0.99483081  0.51895143
   0.73971403  0.97010800  0.78160786
   0.01710777  0.76730208  0.25518618
   0.73896201  0.49416273  0.25392261
   0.02183753  0.00380907  0.49549088
   0.50278447  0.51931092  0.48868018
   0.75474660  0.51628541  0.76362416
   0.74368918  0.73632294  0.49000287
HECN                                    
           1
     8.813857    0.023577   -0.014168
     0.030121    8.814050    0.005369
     0.017473   -0.009869    8.799975
   Zr   Ta   Ti   N    C    Cr   W 
     7     6     7    13    19     6     6
Direct configuration=     5
   0.00079746  0.99696533  0.99674028
   0.26887288  0.00239886  0.24273808
   0.24540718  0.49477338  0.24620864
   0.50066549  0.49962829  0.00231735
   0.50594766  0.24740669  0.74208488
   0.99752037  0.50216099  0.50108585
   0.49661636  0.75913376  0.74931910
   0.99180719  0.24020747  0.24967080
   0.75435480  0.74649796  0.01202066
   0.00169751  0.25004353  0.75114552
   0.75230827  0.24432949  0.49763836
   0.00012253  0.75089878  0.74958027
   0.24944210  0.49534590  0.75034360
   0.25966192  0.24227694  0.98962750
   0.51089098  0.25439971  0.25236213
   0.73195179  0.99272971  0.25934559
   0.74120901  0.24105446  0.99979338
   0.24681182  0.74716838  0.99639516
   0.25103731  0.24596514  0.50639310
   0.25093179  0.75137910  0.50223685
   0.24734135  0.24812447  0.24750443
   0.26121153  0.00081906  0.98939801
   0.00047038  0.25467330  0.00010353
   0.74726156  0.24045344  0.24642125
   0.73969905  0.99758270  0.00582915
   0.51134619  0.00040744  0.27868125
   0.99109709  0.49936180  0.24197291
   0.49905449  0.76435383  0.00876038
   0.98845946  0.00420830  0.73992937
   0.75758945  0.24898338  0.75009704
   0.76336529  0.00498305  0.49318212
   0.50105639  0.24608470  0.48920855
   0.52589306  0.00247705  0.74144308
   0.99838318  0.00047442  0.25311066
   0.50090693  0.23774711  0.00391978
   0.25355457  0.74974381  0.24915989
   0.23991948  0.50069357  0.99314287
   0.00274956  0.74056781  0.00431118
   0.74789721  0.74621379  0.25343574
   0.76336693  0.49339836  0.00585600
   0.50003490  0.50229769  0.25299434
   0.24825618  0.24763795  0.74903642
   0.25492035  0.99968359  0.51266485
   0.00362558  0.24645488  0.49994108
   0.24209510  0.75658845  0.75121413
   0.25664797  0.50196989  0.50259558
   0.99869161  0.75946789  0.49949553
   0.99988310  0.50119704  0.75555614
   0.75226839  0.75466078  0.75010186
   0.74295433  0.49510257  0.50709839
   0.49801081  0.76566817  0.48683967
   0.50409117  0.50308629  0.74156101
   0.51402035  0.01186827  0.96314854
   0.99704582  0.51482201  0.97967313
   0.47568200  0.73619254  0.25650132
   0.22682161  0.01503946  0.75162353
   0.46742554  0.99484347  0.51895663
   0.73972120  0.97010544  0.78159800
   0.01710652  0.76731295  0.25518251
   0.73896305  0.49413834  0.25392432
   0.02183977  0.00381185  0.49548547
   0.50278598  0.51932437  0.48867215
   0.75474606  0.51629305  0.76362028
   0.74368538  0.73631755  0.49000099
