 running on   24 total cores
 distrk:  each k-point on   24 cores,    1 groups
 distr:  one band on    1 cores,   24 groups
 using from now: INCAR     
 vasp.5.4.4.18Apr17-6-g9f103f2a35 (build Oct 18 2021 20:38:43) complex          
  
 POSCAR found type information on POSCAR  Ti Ta Hf N  C  W  Nb
 POSCAR found :  7 types and      64 ions
 scaLAPACK will be used

 ----------------------------------------------------------------------------- 
|                                                                             |
|           W    W    AA    RRRRR   N    N  II  N    N   GGGG   !!!           |
|           W    W   A  A   R    R  NN   N  II  NN   N  G    G  !!!           |
|           W    W  A    A  R    R  N N  N  II  N N  N  G       !!!           |
|           W WW W  AAAAAA  RRRRR   N  N N  II  N  N N  G  GGG   !            |
|           WW  WW  A    A  R   R   N   NN  II  N   NN  G    G                |
|           W    W  A    A  R    R  N    N  II  N    N   GGGG   !!!           |
|                                                                             |
|      For optimal performance we recommend to set                            |
|        NCORE= 4 - approx SQRT( number of cores)                             |
|      NCORE specifies how many cores store one orbital (NPAR=cpu/NCORE).     |
|      This setting can  greatly improve the performance of VASP for DFT.     |
|      The default,   NCORE=1            might be grossly inefficient         |
|      on modern multi-core architectures or massively parallel machines.     |
|      Do your own testing !!!!                                               |
|      Unfortunately you need to use the default for GW and RPA calculations. |
|      (for HF NCORE is supported but not extensively tested yet)             |
|                                                                             |
 ----------------------------------------------------------------------------- 


 ----------------------------------------------------------------------------- 
|                                                                             |
|  ADVICE TO THIS USER RUNNING 'VASP/VAMP'   (HEAR YOUR MASTER'S VOICE ...):  |
|                                                                             |
|      You have a (more or less) 'large supercell' and for larger cells       |
|      it might be more efficient to use real space projection operators      |
|      So try LREAL= Auto  in the INCAR   file.                               |
|      Mind: If you want to do a very accurate calculations keep the          |
|      reciprocal projection scheme          (i.e. LREAL=.FALSE.)             |
|                                                                             |
 ----------------------------------------------------------------------------- 

 LDA part: xc-table for Pade appr. of Perdew
 POSCAR, INCAR and KPOINTS ok, starting setup
 FFT: planning ...
 WAVECAR not read
 entering main loop
       N       E                     dE             d eps       ncg     rms          rms(c)
DAV:   1     0.453984581074E+04    0.45398E+04   -0.22328E+05  9144   0.131E+03
DAV:   2     0.727006878328E+02   -0.44671E+04   -0.43683E+04 10104   0.515E+02
DAV:   3    -0.566961538319E+03   -0.63966E+03   -0.62259E+03 14856   0.156E+02
DAV:   4    -0.629556822410E+03   -0.62595E+02   -0.60834E+02 13872   0.488E+01
DAV:   5    -0.641975888494E+03   -0.12419E+02   -0.12158E+02 17472   0.196E+01    0.654E+01
RMM:   6    -0.553695090134E+03    0.88281E+02   -0.16394E+03 12454   0.542E+01    0.561E+01
RMM:   7    -0.486570659831E+03    0.67124E+02   -0.17393E+02 11802   0.369E+01    0.221E+01
RMM:   8    -0.482791817939E+03    0.37788E+01   -0.88305E+01 12986   0.110E+01    0.117E+01
RMM:   9    -0.483525076192E+03   -0.73326E+00   -0.31595E+01 12930   0.965E+00    0.127E+01
RMM:  10    -0.483526971162E+03   -0.18950E-02   -0.23271E+01 13182   0.505E+00    0.102E+01
RMM:  11    -0.483253863469E+03    0.27311E+00   -0.98679E+00 12865   0.549E+00    0.908E+00
RMM:  12    -0.483080458272E+03    0.17341E+00   -0.56862E+00 12903   0.254E+00    0.579E+00
RMM:  13    -0.483046391053E+03    0.34067E-01   -0.28586E+00 13014   0.231E+00    0.409E+00
RMM:  14    -0.483090821775E+03   -0.44431E-01   -0.21769E+00 13058   0.140E+00    0.272E+00
RMM:  15    -0.483146168612E+03   -0.55347E-01   -0.13229E+00 12964   0.137E+00    0.306E+00
RMM:  16    -0.483202623671E+03   -0.56455E-01   -0.10064E+00 13381   0.892E-01    0.212E+00
RMM:  17    -0.483254331867E+03   -0.51708E-01   -0.69386E-01 13139   0.905E-01    0.182E+00
RMM:  18    -0.483283762355E+03   -0.29430E-01   -0.52676E-01 13314   0.750E-01    0.112E+00
RMM:  19    -0.483315073901E+03   -0.31312E-01   -0.44813E-01 13200   0.516E-01    0.804E-01
RMM:  20    -0.483338202579E+03   -0.23129E-01   -0.31610E-01 13122   0.414E-01    0.599E-01
RMM:  21    -0.483359173774E+03   -0.20971E-01   -0.28079E-01 12879   0.342E-01    0.388E-01
RMM:  22    -0.483377658421E+03   -0.18485E-01   -0.20715E-01 12826   0.293E-01    0.360E-01
RMM:  23    -0.483394068850E+03   -0.16410E-01   -0.17543E-01 12880   0.257E-01    0.262E-01
RMM:  24    -0.483407607888E+03   -0.13539E-01   -0.13951E-01 12460   0.185E-01    0.240E-01
RMM:  25    -0.483418878427E+03   -0.11271E-01   -0.11735E-01 12407   0.168E-01    0.252E-01
RMM:  26    -0.483427555556E+03   -0.86771E-02   -0.94347E-02 12698   0.149E-01    0.174E-01
RMM:  27    -0.483435590002E+03   -0.80344E-02   -0.82764E-02 12084   0.129E-01    0.147E-01
RMM:  28    -0.483442061638E+03   -0.64716E-02   -0.67032E-02 11916   0.117E-01    0.778E-02
RMM:  29    -0.483447892957E+03   -0.58313E-02   -0.59109E-02 11098   0.100E-01    0.883E-02
RMM:  30    -0.483452598268E+03   -0.47053E-02   -0.48317E-02 10862   0.814E-02    0.487E-02
RMM:  31    -0.483456756955E+03   -0.41587E-02   -0.42413E-02 10805   0.730E-02    0.454E-02
RMM:  32    -0.483460213920E+03   -0.34570E-02   -0.35216E-02 10707   0.673E-02    0.352E-02
RMM:  33    -0.483463277334E+03   -0.30634E-02   -0.31068E-02 10967   0.645E-02    0.223E-02
RMM:  34    -0.483465845805E+03   -0.25685E-02   -0.25879E-02 10954   0.633E-02    0.258E-02
RMM:  35    -0.483468102574E+03   -0.22568E-02   -0.22806E-02 10210   0.538E-02    0.303E-02
RMM:  36    -0.483469989398E+03   -0.18868E-02   -0.19219E-02  9962   0.456E-02    0.140E-02
RMM:  37    -0.483471667382E+03   -0.16780E-02   -0.16963E-02  9540   0.415E-02    0.107E-02
WARNING in EDDRMM: call to ZHEGV failed, returncode =   6  3      9
WARNING in EDDRMM: call to ZHEGV failed, returncode =   8  4      9
RMM:  38    -0.483473092177E+03   -0.14248E-02   -0.14397E-02  9472   0.377E-02    0.822E-03
RMM:  39    -0.483474344153E+03   -0.12520E-02   -0.12647E-02  8775   0.348E-02    0.748E-03
RMM:  40    -0.483475414269E+03   -0.10701E-02   -0.10830E-02  8863   0.319E-02    0.520E-03
RMM:  41    -0.483476355014E+03   -0.94074E-03   -0.94991E-03  8878   0.300E-02    0.435E-03
RMM:  42    -0.483477163715E+03   -0.80870E-03   -0.81701E-03  8089   0.275E-02    0.320E-03
RMM:  43    -0.483477875080E+03   -0.71136E-03   -0.71908E-03  7029   0.255E-02    0.644E-03
RMM:  44    -0.483478488804E+03   -0.61372E-03   -0.62092E-03  7400   0.241E-02    0.699E-03
RMM:  45    -0.483479029444E+03   -0.54064E-03   -0.54566E-03  6490   0.227E-02    0.107E-02
RMM:  46    -0.483479497900E+03   -0.46846E-03   -0.47311E-03  6433   0.204E-02    0.130E-02
RMM:  47    -0.483479908679E+03   -0.41078E-03   -0.41542E-03  6133   0.200E-02    0.153E-02
RMM:  48    -0.483480263038E+03   -0.35436E-03   -0.35985E-03  6167   0.182E-02    0.154E-02
RMM:  49    -0.483480575580E+03   -0.31254E-03   -0.31682E-03  5892   0.179E-02    0.164E-02
RMM:  50    -0.483480846000E+03   -0.27042E-03   -0.27571E-03  6744   0.168E-02    0.153E-02
RMM:  51    -0.483481087903E+03   -0.24190E-03   -0.24255E-03  5909   0.167E-02    0.191E-02
RMM:  52    -0.483481291289E+03   -0.20339E-03   -0.21025E-03  6812   0.153E-02    0.158E-02
RMM:  53    -0.483481474839E+03   -0.18355E-03   -0.19007E-03  7421   0.159E-02    0.108E-02
RMM:  54    -0.483481635146E+03   -0.16031E-03   -0.16323E-03  6894   0.159E-02    0.996E-03
RMM:  55    -0.483481777753E+03   -0.14261E-03   -0.14453E-03  5938   0.139E-02    0.107E-02
RMM:  56    -0.483481900845E+03   -0.12309E-03   -0.12577E-03  6334   0.143E-02    0.979E-03
RMM:  57    -0.483482011501E+03   -0.11066E-03   -0.11193E-03  5482   0.130E-02    0.112E-02
RMM:  58    -0.483482107223E+03   -0.95723E-04   -0.97064E-04  5237   0.123E-02    0.121E-02
RMM:  59    -0.483482192769E+03   -0.85546E-04   -0.86920E-04  5077   0.117E-02    0.127E-02
RMM:  60    -0.483482267430E+03   -0.74661E-04   -0.75954E-04  5068   0.110E-02
   1 F= -.48348227E+03 E0= -.48325877E+03  d E =-.483482E+03
 curvature:   0.00 expect dE= 0.000E+00 dE for cont linesearch  0.000E+00
 trial: gam= 0.00000 g(F)=  0.800E+00 g(S)=  0.340E+03 ort = 0.000E+00 (trialstep = 0.100E+01)
 search vector abs. value=  0.340E+03
 bond charge predicted
       N       E                     dE             d eps       ncg     rms          rms(c)
DAV:   1    -0.363163797871E+04   -0.31482E+04   -0.10799E+05  9768   0.115E+03    0.349E+02
RMM:   2    -0.137670474363E+04    0.22549E+04   -0.71799E+03 13386   0.289E+02    0.185E+02
RMM:   3    -0.537110971808E+03    0.83959E+03   -0.31943E+03 10055   0.216E+02    0.369E+01
RMM:   4    -0.566227774442E+03   -0.29117E+02   -0.59458E+02 12442   0.706E+01    0.221E+01
RMM:   5    -0.562100361349E+03    0.41274E+01   -0.11086E+02 14848   0.267E+01    0.124E+01
RMM:   6    -0.569199988214E+03   -0.70996E+01   -0.64608E+01 14822   0.161E+01    0.121E+01
RMM:   7    -0.571085231964E+03   -0.18852E+01   -0.23985E+01 15138   0.127E+01    0.631E+00
RMM:   8    -0.573717336056E+03   -0.26321E+01   -0.19213E+01 15738   0.789E+00    0.588E+00
RMM:   9    -0.574859622782E+03   -0.11423E+01   -0.98036E+00 15640   0.604E+00    0.558E+00
RMM:  10    -0.575927101602E+03   -0.10675E+01   -0.61622E+00 15633   0.486E+00    0.415E+00
RMM:  11    -0.576964418248E+03   -0.10373E+01   -0.56446E+00 15575   0.425E+00    0.206E+00
RMM:  12    -0.577108030976E+03   -0.14361E+00   -0.31537E+00 15520   0.366E+00    0.473E-01
RMM:  13    -0.577253980933E+03   -0.14595E+00   -0.18208E+00 15669   0.237E+00    0.824E-01
RMM:  14    -0.577322087161E+03   -0.68106E-01   -0.90411E-01 15659   0.203E+00    0.869E-01
RMM:  15    -0.577367876211E+03   -0.45789E-01   -0.58035E-01 15557   0.130E+00    0.527E-01
RMM:  16    -0.577387899198E+03   -0.20023E-01   -0.27562E-01 15617   0.118E+00    0.232E-01
RMM:  17    -0.577402631956E+03   -0.14733E-01   -0.17838E-01 15615   0.757E-01    0.155E-01
RMM:  18    -0.577409365229E+03   -0.67333E-02   -0.86137E-02 15636   0.689E-01    0.742E-02
RMM:  19    -0.577414593569E+03   -0.52283E-02   -0.60294E-02 15728   0.433E-01    0.369E-02
RMM:  20    -0.577417002217E+03   -0.24086E-02   -0.29310E-02 15323   0.424E-01    0.750E-02
RMM:  21    -0.577418914869E+03   -0.19127E-02   -0.21647E-02 15495   0.263E-01    0.612E-02
RMM:  22    -0.577419795121E+03   -0.88025E-03   -0.10482E-02 15426   0.256E-01    0.366E-02
RMM:  23    -0.577420536208E+03   -0.74109E-03   -0.82135E-03 15502   0.162E-01    0.752E-03
RMM:  24    -0.577420860968E+03   -0.32476E-03   -0.38505E-03 15349   0.160E-01    0.980E-03
RMM:  25    -0.577421156487E+03   -0.29552E-03   -0.32453E-03 15163   0.102E-01    0.121E-02
RMM:  26    -0.577421289012E+03   -0.13252E-03   -0.15288E-03 14938   0.102E-01    0.265E-02
RMM:  27    -0.577421409297E+03   -0.12029E-03   -0.13269E-03 14748   0.630E-02    0.163E-02
RMM:  28    -0.577421461272E+03   -0.51975E-04   -0.61240E-04 14198   0.658E-02    0.162E-02
RMM:  29    -0.577421515501E+03   -0.54228E-04   -0.58205E-04 13725   0.413E-02    0.231E-02
RMM:  30    -0.577421540038E+03   -0.24537E-04   -0.26503E-04 12809   0.434E-02    0.396E-02
RMM:  31    -0.577421562041E+03   -0.22003E-04   -0.24580E-04 11869   0.280E-02    0.398E-02
WARNING in EDDRMM: call to ZHEGV failed, returncode =   8  4      9
RMM:  32    -0.577421571019E+03   -0.89783E-05   -0.11001E-04 10316   0.303E-02    0.429E-02
RMM:  33    -0.577421580586E+03   -0.95670E-05   -0.11050E-04  9507   0.220E-02    0.438E-02
RMM:  34    -0.577421583885E+03   -0.32984E-05   -0.49555E-05  8442   0.230E-02
   2 F= -.57742158E+03 E0= -.57736468E+03  d E =-.939393E+02
 trial-energy change:  -93.939316  1 .order  105.374645 -340.484896  551.234187
 step:   0.6757(harm=  0.3818)  dis= 0.02303  next Energy=  -660.005642 (dE=-0.177E+03)
 bond charge predicted
       N       E                     dE             d eps       ncg     rms          rms(c)
DAV:   1    -0.110251572611E+04   -0.52509E+03   -0.12608E+04 10776   0.406E+02    0.183E+02
RMM:   2    -0.112761102398E+04   -0.25095E+02   -0.27766E+03 12154   0.137E+02    0.845E+01
RMM:   3    -0.837727367001E+03    0.28988E+03   -0.68337E+02 13140   0.708E+01    0.591E+01
RMM:   4    -0.744967779440E+03    0.92760E+02   -0.15617E+02 13186   0.302E+01    0.433E+01
RMM:   5    -0.669297644138E+03    0.75670E+02   -0.20609E+02 13308   0.295E+01    0.169E+01
RMM:   6    -0.702209932668E+03   -0.32912E+02   -0.33015E+02 13467   0.328E+01    0.395E+01
RMM:   7    -0.670848035082E+03    0.31362E+02   -0.28875E+01 12695   0.167E+01    0.120E+01
RMM:   8    -0.668962391877E+03    0.18856E+01   -0.18816E+01 13344   0.935E+00    0.597E+00
RMM:   9    -0.668898781565E+03    0.63610E-01   -0.59919E+00 13384   0.624E+00    0.419E+00
RMM:  10    -0.669406058093E+03   -0.50728E+00   -0.39421E+00 15000   0.275E+00    0.498E+00
RMM:  11    -0.669072903235E+03    0.33315E+00   -0.18772E+00 14274   0.288E+00    0.251E+00
RMM:  12    -0.669136715604E+03   -0.63812E-01   -0.18822E+00 14223   0.227E+00    0.147E+00
RMM:  13    -0.669314530421E+03   -0.17781E+00   -0.10467E+00 14496   0.234E+00    0.258E+00
RMM:  14    -0.669243344449E+03    0.71186E-01   -0.47087E-01 14661   0.105E+00    0.121E+00
RMM:  15    -0.669234333464E+03    0.90110E-02   -0.26616E-01 14490   0.874E-01    0.591E-01
RMM:  16    -0.669240721570E+03   -0.63881E-02   -0.15838E-01 14861   0.618E-01    0.330E-01
RMM:  17    -0.669248170217E+03   -0.74486E-02   -0.10600E-01 15209   0.501E-01    0.173E-01
RMM:  18    -0.669252882662E+03   -0.47124E-02   -0.63844E-02 15279   0.367E-01    0.847E-02
RMM:  19    -0.669255658190E+03   -0.27755E-02   -0.36450E-02 15432   0.260E-01    0.590E-02
RMM:  20    -0.669257937005E+03   -0.22788E-02   -0.27379E-02 14973   0.214E-01    0.603E-02
RMM:  21    -0.669259245282E+03   -0.13083E-02   -0.16543E-02 14814   0.169E-01    0.360E-02
RMM:  22    -0.669260171144E+03   -0.92586E-03   -0.11233E-02 14622   0.141E-01    0.184E-02
RMM:  23    -0.669260775472E+03   -0.60433E-03   -0.72881E-03 14490   0.113E-01    0.198E-02
RMM:  24    -0.669261210549E+03   -0.43508E-03   -0.51940E-03 14178   0.948E-02    0.137E-02
RMM:  25    -0.669261484600E+03   -0.27405E-03   -0.33806E-03 14072   0.778E-02    0.703E-03
RMM:  26    -0.669261683847E+03   -0.19925E-03   -0.23769E-03 13772   0.641E-02    0.997E-03
RMM:  27    -0.669261813736E+03   -0.12989E-03   -0.15783E-03 13539   0.527E-02    0.106E-02
RMM:  28    -0.669261913991E+03   -0.10025E-03   -0.11292E-03 13172   0.443E-02    0.340E-02
RMM:  29    -0.669261972687E+03   -0.58696E-04   -0.74345E-04 12671   0.368E-02    0.248E-02
RMM:  30    -0.669262013991E+03   -0.41304E-04   -0.53210E-04 11979   0.313E-02    0.147E-02
RMM:  31    -0.669262041838E+03   -0.27847E-04   -0.35145E-04 11013   0.269E-02    0.118E-02
RMM:  32    -0.669262061279E+03   -0.19441E-04   -0.24061E-04 10268   0.234E-02    0.119E-02
RMM:  33    -0.669262074310E+03   -0.13031E-04   -0.16134E-04  9532   0.202E-02    0.136E-02
RMM:  34    -0.669262082731E+03   -0.84215E-05   -0.11193E-04  9182   0.182E-02    0.122E-02
RMM:  35    -0.669262087504E+03   -0.47730E-05   -0.75850E-05  8656   0.167E-02
   3 F= -.66926209E+03 E0= -.66918038E+03  d E =-.185780E+03
 curvature:  -0.15 expect dE=-0.117E+01 dE for cont linesearch -0.996E+00
 ZBRENT: interpolating
 opt :   0.7016  next Energy=  -669.882903 (dE=-0.186E+03)
 bond charge predicted
       N       E                     dE             d eps       ncg     rms          rms(c)
DAV:   1    -0.672494124335E+03   -0.32320E+01   -0.73358E+01 10776   0.299E+01    0.908E+00
RMM:   2    -0.671222170914E+03    0.12720E+01   -0.10343E+01 12655   0.884E+00    0.550E+00
RMM:   3    -0.670800281615E+03    0.42189E+00   -0.21020E+00 12854   0.356E+00    0.466E+00
RMM:   4    -0.670392635428E+03    0.40765E+00   -0.98025E-01 12697   0.262E+00    0.201E+00
RMM:   5    -0.670345497850E+03    0.47138E-01   -0.38172E-01 12805   0.156E+00    0.128E+00
RMM:   6    -0.670322258767E+03    0.23239E-01   -0.94282E-02 13123   0.859E-01    0.502E-01
RMM:   7    -0.670321378457E+03    0.88031E-03   -0.30056E-02 14094   0.374E-01    0.311E-01
RMM:   8    -0.670322191958E+03   -0.81350E-03   -0.91646E-03 13701   0.237E-01    0.209E-01
RMM:   9    -0.670323362801E+03   -0.11708E-02   -0.55009E-03 14580   0.133E-01    0.157E-01
RMM:  10    -0.670324450375E+03   -0.10876E-02   -0.36388E-03 14256   0.117E-01    0.123E-01
RMM:  11    -0.670325120647E+03   -0.67027E-03   -0.33490E-03 14265   0.865E-02    0.864E-02
RMM:  12    -0.670325357915E+03   -0.23727E-03   -0.17415E-03 13804   0.668E-02    0.531E-02
RMM:  13    -0.670325520762E+03   -0.16285E-03   -0.12598E-03 13319   0.519E-02    0.313E-02
RMM:  14    -0.670325567739E+03   -0.46977E-04   -0.73181E-04 12426   0.424E-02    0.162E-02
RMM:  15    -0.670325594140E+03   -0.26401E-04   -0.44179E-04 11787   0.334E-02    0.158E-02
RMM:  16    -0.670325613983E+03   -0.19843E-04   -0.28347E-04 11004   0.282E-02    0.908E-03
RMM:  17    -0.670325626862E+03   -0.12879E-04   -0.16743E-04  9662   0.227E-02    0.512E-03
RMM:  18    -0.670325635387E+03   -0.85251E-05   -0.11400E-04  9205   0.203E-02    0.411E-03
RMM:  19    -0.670325641284E+03   -0.58971E-05   -0.76161E-05  8595   0.178E-02
   4 F= -.67032564E+03 E0= -.67024626E+03  d E =-.186843E+03
 curvature:  -0.09 expect dE=-0.207E+00 dE for cont linesearch -0.837E-01
 ZBRENT: interpolating
 opt :   0.7162  next Energy=  -670.457682 (dE=-0.187E+03)
 bond charge predicted
       N       E                     dE             d eps       ncg     rms          rms(c)
DAV:   1    -0.671162488091E+03   -0.83685E+00   -0.23340E+01 11016   0.170E+01    0.513E+00
RMM:   2    -0.670774750908E+03    0.38774E+00   -0.33076E+00 12698   0.501E+00    0.314E+00
RMM:   3    -0.670624926167E+03    0.14982E+00   -0.66226E-01 12825   0.201E+00    0.262E+00
RMM:   4    -0.670507963698E+03    0.11696E+00   -0.31186E-01 12717   0.149E+00    0.128E+00
RMM:   5    -0.670486630068E+03    0.21334E-01   -0.12099E-01 12822   0.880E-01    0.710E-01
RMM:   6    -0.670479704915E+03    0.69252E-02   -0.30952E-02 13091   0.498E-01    0.291E-01
RMM:   7    -0.670479342185E+03    0.36273E-03   -0.95519E-03 14068   0.219E-01    0.172E-01
RMM:   8    -0.670479638446E+03   -0.29626E-03   -0.30871E-03 13942   0.137E-01    0.115E-01
RMM:   9    -0.670480050179E+03   -0.41173E-03   -0.18752E-03 13750   0.772E-02    0.883E-02
RMM:  10    -0.670480395957E+03   -0.34578E-03   -0.11494E-03 13312   0.663E-02    0.706E-02
RMM:  11    -0.670480651315E+03   -0.25536E-03   -0.10629E-03 13056   0.504E-02    0.488E-02
RMM:  12    -0.670480753498E+03   -0.10218E-03   -0.59107E-04 12227   0.415E-02    0.291E-02
RMM:  13    -0.670480814296E+03   -0.60798E-04   -0.42075E-04 11690   0.339E-02    0.168E-02
RMM:  14    -0.670480833398E+03   -0.19102E-04   -0.24504E-04 10827   0.282E-02    0.931E-03
RMM:  15    -0.670480843201E+03   -0.98031E-05   -0.14811E-04  9794   0.230E-02    0.865E-03
RMM:  16    -0.670480850364E+03   -0.71629E-05   -0.94211E-05  8867   0.204E-02
   5 F= -.67048085E+03 E0= -.67040273E+03  d E =-.186999E+03
 curvature:  -0.15 expect dE=-0.209E+00 dE for cont linesearch -0.125E-03
 ZBRENT: interpolating
 opt :   0.7158  next Energy=  -670.480968 (dE=-0.187E+03)
 bond charge predicted
       N       E                     dE             d eps       ncg     rms          rms(c)
DAV:   1    -0.670481709782E+03   -0.86658E-03   -0.21205E-02 11856   0.509E-01    0.159E-01
RMM:   2    -0.670481406418E+03    0.30336E-03   -0.33314E-03 12878   0.155E-01    0.992E-02
RMM:   3    -0.670481244023E+03    0.16240E-03   -0.76991E-04 12693   0.644E-02    0.836E-02
RMM:   4    -0.670481139611E+03    0.10441E-03   -0.31918E-04 12044   0.489E-02    0.468E-02
RMM:   5    -0.670481101351E+03    0.38260E-04   -0.13151E-04 10775   0.291E-02    0.214E-02
RMM:   6    -0.670481090003E+03    0.11348E-04   -0.31795E-05  6106   0.206E-02    0.101E-02
RMM:   7    -0.670481086391E+03    0.36125E-05   -0.13697E-05  5298   0.168E-02
   6 F= -.67048109E+03 E0= -.67040294E+03  d E =-.186999E+03
 curvature:  -0.14 expect dE=-0.196E+00 dE for cont linesearch -0.271E-07
 trial: gam= 0.00423 g(F)=  0.135E+01 g(S)=  0.786E-01 ort =-0.822E-02 (trialstep = 0.943E+00)
 search vector abs. value=  0.144E+01
 bond charge predicted
       N       E                     dE             d eps       ncg     rms          rms(c)
DAV:   1    -0.669044982853E+03    0.14361E+01   -0.20662E+02  9408   0.424E+01    0.351E+00
RMM:   2    -0.671686491420E+03   -0.26415E+01   -0.30186E+01 13867   0.137E+01    0.212E+00
RMM:   3    -0.671461352016E+03    0.22514E+00   -0.15654E+00 13241   0.470E+00    0.151E+00
RMM:   4    -0.671454235672E+03    0.71163E-02   -0.56260E-01 14175   0.177E+00    0.106E+00
RMM:   5    -0.671450850442E+03    0.33852E-02   -0.26102E-01 13469   0.101E+00    0.841E-01
RMM:   6    -0.671446046932E+03    0.48035E-02   -0.11111E-01 13570   0.765E-01    0.309E-01
RMM:   7    -0.671449070033E+03   -0.30231E-02   -0.54994E-02 14295   0.388E-01    0.237E-01
RMM:   8    -0.671451431634E+03   -0.23616E-02   -0.37044E-02 13885   0.295E-01    0.125E-01
RMM:   9    -0.671452644966E+03   -0.12133E-02   -0.16451E-02 14603   0.218E-01    0.891E-02
RMM:  10    -0.671453571059E+03   -0.92609E-03   -0.11270E-02 14362   0.148E-01    0.625E-02
RMM:  11    -0.671454067126E+03   -0.49607E-03   -0.59878E-03 13792   0.118E-01    0.345E-02
RMM:  12    -0.671454415100E+03   -0.34797E-03   -0.40428E-03 12922   0.898E-02    0.163E-02
RMM:  13    -0.671454604451E+03   -0.18935E-03   -0.22734E-03 12274   0.687E-02    0.111E-02
RMM:  14    -0.671454745366E+03   -0.14092E-03   -0.16041E-03 12154   0.546E-02    0.911E-03
RMM:  15    -0.671454819313E+03   -0.73947E-04   -0.90098E-04 11604   0.436E-02    0.582E-03
RMM:  16    -0.671454875668E+03   -0.56355E-04   -0.65017E-04 11558   0.365E-02    0.269E-03
RMM:  17    -0.671454906841E+03   -0.31173E-04   -0.37750E-04 10791   0.293E-02    0.253E-03
RMM:  18    -0.671454929310E+03   -0.22469E-04   -0.26200E-04 10448   0.245E-02    0.159E-03
RMM:  19    -0.671454942145E+03   -0.12835E-04   -0.15808E-04  9808   0.207E-02    0.970E-04
RMM:  20    -0.671454950404E+03   -0.82587E-05   -0.10094E-04  9360   0.179E-02    0.745E-04
RMM:  21    -0.671454954841E+03   -0.44376E-05   -0.58190E-05  8534   0.158E-02
   7 F= -.67145495E+03 E0= -.67138461E+03  d E =-.973868E+00
 trial-energy change:   -0.973868  1 .order   -0.956646   -1.351695   -0.561598
 step:   1.4982(harm=  1.6135)  dis= 0.07940  next Energy=  -671.623723 (dE=-0.114E+01)
 bond charge predicted
       N       E                     dE             d eps       ncg     rms          rms(c)
DAV:   1    -0.670790092445E+03    0.66486E+00   -0.71297E+01  9408   0.250E+01    0.208E+00
RMM:   2    -0.671707736630E+03   -0.91764E+00   -0.10514E+01 13827   0.805E+00    0.131E+00
RMM:   3    -0.671628303788E+03    0.79433E-01   -0.55699E-01 13167   0.282E+00    0.952E-01
RMM:   4    -0.671622126423E+03    0.61774E-02   -0.19904E-01 14156   0.106E+00    0.621E-01
RMM:   5    -0.671621004001E+03    0.11224E-02   -0.93700E-02 13448   0.607E-01    0.483E-01
RMM:   6    -0.671619150803E+03    0.18532E-02   -0.39542E-02 13504   0.464E-01    0.169E-01
RMM:   7    -0.671620303377E+03   -0.11526E-02   -0.19639E-02 14212   0.233E-01    0.136E-01
RMM:   8    -0.671621129686E+03   -0.82631E-03   -0.13008E-02 13990   0.175E-01    0.695E-02
RMM:   9    -0.671621568908E+03   -0.43922E-03   -0.57788E-03 13549   0.129E-01    0.539E-02
RMM:  10    -0.671621897144E+03   -0.32824E-03   -0.39564E-03 12962   0.894E-02    0.390E-02
RMM:  11    -0.671622071867E+03   -0.17472E-03   -0.21113E-03 12419   0.714E-02    0.186E-02
RMM:  12    -0.671622193762E+03   -0.12190E-03   -0.14102E-03 12001   0.565E-02    0.982E-03
RMM:  13    -0.671622260037E+03   -0.66275E-04   -0.79641E-04 11448   0.425E-02    0.615E-03
RMM:  14    -0.671622308777E+03   -0.48740E-04   -0.56048E-04 11351   0.356E-02    0.571E-03
RMM:  15    -0.671622334348E+03   -0.25570E-04   -0.31826E-04 10655   0.279E-02    0.333E-03
WARNING in EDDRMM: call to ZHEGV failed, returncode =   6  3      6
RMM:  16    -0.671622353116E+03   -0.18769E-04   -0.22234E-04 10409   0.240E-02    0.153E-03
RMM:  17    -0.671622363075E+03   -0.99588E-05   -0.12681E-04  9632   0.198E-02    0.131E-03
RMM:  18    -0.671622369355E+03   -0.62802E-05   -0.78656E-05  9190   0.171E-02
   8 F= -.67162237E+03 E0= -.67155863E+03  d E =-.114128E+01
 curvature:  -0.79 expect dE=-0.518E+00 dE for cont linesearch -0.336E-04
 trial: gam= 0.44475 g(F)=  0.366E+00 g(S)=  0.293E+00 ort =-0.784E-02 (trialstep = 0.105E+01)
 search vector abs. value=  0.936E+00
 bond charge predicted
       N       E                     dE             d eps       ncg     rms          rms(c)
DAV:   1    -0.670238707555E+03    0.13837E+01   -0.17435E+02 10152   0.444E+01    0.629E+00
RMM:   2    -0.672312988249E+03   -0.20743E+01   -0.32866E+01 13643   0.153E+01    0.388E+00
RMM:   3    -0.672057042026E+03    0.25595E+00   -0.31774E+00 13361   0.621E+00    0.328E+00
RMM:   4    -0.671931628091E+03    0.12541E+00   -0.98241E-01 13971   0.229E+00    0.172E+00
RMM:   5    -0.671894061384E+03    0.37567E-01   -0.32108E-01 13290   0.169E+00    0.112E+00
RMM:   6    -0.671882594376E+03    0.11467E-01   -0.21218E-01 13598   0.884E-01    0.385E-01
RMM:   7    -0.671884548344E+03   -0.19540E-02   -0.69518E-02 14002   0.640E-01    0.230E-01
RMM:   8    -0.671887784826E+03   -0.32365E-02   -0.48057E-02 14744   0.310E-01    0.147E-01
RMM:   9    -0.671889298414E+03   -0.15136E-02   -0.22234E-02 14741   0.261E-01    0.105E-01
RMM:  10    -0.671890520051E+03   -0.12216E-02   -0.14943E-02 14662   0.171E-01    0.794E-02
RMM:  11    -0.671891148810E+03   -0.62876E-03   -0.80572E-03 14233   0.144E-01    0.527E-02
RMM:  12    -0.671891605586E+03   -0.45678E-03   -0.55030E-03 14023   0.106E-01    0.305E-02
RMM:  13    -0.671891834913E+03   -0.22933E-03   -0.31690E-03 13157   0.854E-02    0.198E-02
RMM:  14    -0.671892010598E+03   -0.17568E-03   -0.21436E-03 12583   0.645E-02    0.137E-02
RMM:  15    -0.671892109479E+03   -0.98882E-04   -0.12313E-03 12127   0.527E-02    0.775E-03
RMM:  16    -0.671892175682E+03   -0.66202E-04   -0.81408E-04 11806   0.416E-02    0.483E-03
RMM:  17    -0.671892218930E+03   -0.43248E-04   -0.52942E-04 11485   0.344E-02    0.290E-03
RMM:  18    -0.671892246994E+03   -0.28064E-04   -0.34005E-04 10983   0.281E-02    0.198E-03
RMM:  19    -0.671892265111E+03   -0.18117E-04   -0.21689E-04 10590   0.232E-02    0.154E-03
RMM:  20    -0.671892276070E+03   -0.10959E-04   -0.13168E-04  9823   0.198E-02    0.136E-03
RMM:  21    -0.671892282504E+03   -0.64335E-05   -0.82560E-05  9359   0.171E-02
   9 F= -.67189228E+03 E0= -.67183746E+03  d E =-.269913E+00
 trial-energy change:   -0.269913  1 .order   -0.256297   -0.690485    0.177891
 step:   0.8535(harm=  0.8382)  dis= 0.04219  next Energy=  -671.909120 (dE=-0.287E+00)
 bond charge predicted
       N       E                     dE             d eps       ncg     rms          rms(c)
DAV:   1    -0.671850131304E+03    0.42145E-01   -0.62272E+00 10032   0.840E+00    0.119E+00
RMM:   2    -0.671923483575E+03   -0.73352E-01   -0.11831E+00 13641   0.291E+00    0.721E-01
RMM:   3    -0.671915151091E+03    0.83325E-02   -0.10897E-01 13086   0.124E+00    0.622E-01
WARNING in EDDRMM: call to ZHEGV failed, returncode =   6  3      6
RMM:   4    -0.671909883413E+03    0.52677E-02   -0.34849E-02 13718   0.435E-01    0.305E-01
RMM:   5    -0.671908772067E+03    0.11113E-02   -0.11679E-02 13055   0.344E-01    0.199E-01
RMM:   6    -0.671908457605E+03    0.31446E-03   -0.69487E-03 13503   0.165E-01    0.750E-02
RMM:   7    -0.671908511396E+03   -0.53791E-04   -0.22433E-03 13504   0.117E-01    0.412E-02
RMM:   8    -0.671908636078E+03   -0.12468E-03   -0.16218E-03 12633   0.584E-02    0.265E-02
RMM:   9    -0.671908691231E+03   -0.55154E-04   -0.70783E-04 11676   0.521E-02    0.184E-02
RMM:  10    -0.671908734517E+03   -0.43286E-04   -0.47252E-04 10913   0.339E-02    0.124E-02
RMM:  11    -0.671908759017E+03   -0.24500E-04   -0.25982E-04 10915   0.299E-02    0.963E-03
WARNING in EDDRMM: call to ZHEGV failed, returncode =   6  3      6
RMM:  12    -0.671908776302E+03   -0.17286E-04   -0.16232E-04 10214   0.228E-02    0.570E-03
RMM:  13    -0.671908784216E+03   -0.79137E-05   -0.89237E-05  9875   0.194E-02
  10 F= -.67190878E+03 E0= -.67185286E+03  d E =-.286415E+00
 curvature:  -0.60 expect dE=-0.257E+00 dE for cont linesearch -0.108E-05
 trial: gam= 0.57419 g(F)=  0.259E+00 g(S)=  0.172E+00 ort =-0.130E-02 (trialstep = 0.101E+01)
 search vector abs. value=  0.738E+00
 bond charge predicted
       N       E                     dE             d eps       ncg     rms          rms(c)
DAV:   1    -0.670397156595E+03    0.15116E+01   -0.12239E+02  9408   0.360E+01    0.341E+00
RMM:   2    -0.672204514532E+03   -0.18074E+01   -0.21887E+01 13649   0.117E+01    0.190E+00
RMM:   3    -0.672064852869E+03    0.13966E+00   -0.15492E+00 12777   0.515E+00    0.133E+00
RMM:   4    -0.672074228192E+03   -0.93753E-02   -0.56314E-01 14176   0.159E+00    0.803E-01
RMM:   5    -0.672071056118E+03    0.31721E-02   -0.15856E-01 13340   0.117E+00    0.495E-01
RMM:   6    -0.672074469720E+03   -0.34136E-02   -0.98072E-02 13647   0.551E-01    0.223E-01
RMM:   7    -0.672077211595E+03   -0.27419E-02   -0.41305E-02 14516   0.399E-01    0.126E-01
RMM:   8    -0.672079446464E+03   -0.22349E-02   -0.25724E-02 14904   0.227E-01    0.953E-02
RMM:   9    -0.672080621055E+03   -0.11746E-02   -0.13782E-02 14244   0.187E-01    0.670E-02
RMM:  10    -0.672081437205E+03   -0.81615E-03   -0.88007E-03 13783   0.129E-01    0.485E-02
RMM:  11    -0.672081897254E+03   -0.46005E-03   -0.50857E-03 13405   0.106E-01    0.289E-02
RMM:  12    -0.672082167471E+03   -0.27022E-03   -0.30815E-03 12817   0.798E-02    0.153E-02
RMM:  13    -0.672082338980E+03   -0.17151E-03   -0.19904E-03 12486   0.641E-02    0.110E-02
RMM:  14    -0.672082440131E+03   -0.10115E-03   -0.12119E-03 11887   0.502E-02    0.542E-03
RMM:  15    -0.672082508687E+03   -0.68556E-04   -0.79334E-04 11700   0.410E-02    0.390E-03
RMM:  16    -0.672082549783E+03   -0.41096E-04   -0.48319E-04 11202   0.326E-02    0.261E-03
RMM:  17    -0.672082577917E+03   -0.28135E-04   -0.32328E-04 10749   0.272E-02    0.177E-03
RMM:  18    -0.672082593692E+03   -0.15775E-04   -0.19421E-04 10003   0.227E-02    0.134E-03
RMM:  19    -0.672082603847E+03   -0.10155E-04   -0.12513E-04  9618   0.195E-02    0.664E-04
RMM:  20    -0.672082609298E+03   -0.54508E-05   -0.71439E-05  8846   0.168E-02
  11 F= -.67208261E+03 E0= -.67203001E+03  d E =-.173825E+00
 trial-energy change:   -0.173825  1 .order   -0.159744   -0.436590    0.117102
 step:   0.8232(harm=  0.7996)  dis= 0.03256  next Energy=  -672.093534 (dE=-0.185E+00)
 bond charge predicted
       N       E                     dE             d eps       ncg     rms          rms(c)
DAV:   1    -0.672031966837E+03    0.50637E-01   -0.43270E+00  9408   0.681E+00    0.648E-01
RMM:   2    -0.672096684054E+03   -0.64717E-01   -0.78964E-01 13632   0.226E+00    0.363E-01
RMM:   3    -0.672093059883E+03    0.36242E-02   -0.60024E-02 12867   0.999E-01    0.270E-01
RMM:   4    -0.672093401106E+03   -0.34122E-03   -0.21131E-02 14287   0.301E-01    0.164E-01
RMM:   5    -0.672093212668E+03    0.18844E-03   -0.55077E-03 13258   0.228E-01    0.110E-01
RMM:   6    -0.672093231434E+03   -0.18766E-04   -0.36478E-03 13426   0.108E-01    0.396E-02
RMM:   7    -0.672093314183E+03   -0.82749E-04   -0.14367E-03 12930   0.833E-02    0.233E-02
RMM:   8    -0.672093390199E+03   -0.76016E-04   -0.96640E-04 11751   0.452E-02    0.193E-02
RMM:   9    -0.672093423705E+03   -0.33506E-04   -0.47406E-04 11171   0.402E-02    0.135E-02
RMM:  10    -0.672093446359E+03   -0.22654E-04   -0.30356E-04 10591   0.279E-02    0.966E-03
RMM:  11    -0.672093458668E+03   -0.12309E-04   -0.19109E-04 10597   0.255E-02    0.490E-03
RMM:  12    -0.672093464396E+03   -0.57282E-05   -0.10000E-04  9586   0.199E-02    0.262E-03
RMM:  13    -0.672093469629E+03   -0.52334E-05   -0.64754E-05  9193   0.169E-02
  12 F= -.67209347E+03 E0= -.67204059E+03  d E =-.184685E+00
 curvature:  -0.68 expect dE=-0.164E+00 dE for cont linesearch -0.185E-05
 trial: gam= 0.41884 g(F)=  0.145E+00 g(S)=  0.970E-01 ort = 0.142E-02 (trialstep = 0.976E+00)
 search vector abs. value=  0.373E+00
 bond charge predicted
       N       E                     dE             d eps       ncg     rms          rms(c)
DAV:   1    -0.671742430058E+03    0.35103E+00   -0.57877E+01  9072   0.224E+01    0.277E+00
RMM:   2    -0.672264628590E+03   -0.52220E+00   -0.76511E+00 13404   0.722E+00    0.152E+00
RMM:   3    -0.672208794906E+03    0.55834E-01   -0.66202E-01 13174   0.317E+00    0.112E+00
RMM:   4    -0.672195718114E+03    0.13077E-01   -0.24399E-01 14205   0.109E+00    0.540E-01
RMM:   5    -0.672194044152E+03    0.16740E-02   -0.81502E-02 13731   0.750E-01    0.288E-01
RMM:   6    -0.672196192333E+03   -0.21482E-02   -0.46549E-02 14207   0.358E-01    0.134E-01
RMM:   7    -0.672197573435E+03   -0.13811E-02   -0.20693E-02 14378   0.256E-01    0.920E-02
RMM:   8    -0.672198709465E+03   -0.11360E-02   -0.13874E-02 14110   0.167E-01    0.611E-02
RMM:   9    -0.672199247043E+03   -0.53758E-03   -0.69433E-03 13526   0.135E-01    0.381E-02
RMM:  10    -0.672199659227E+03   -0.41218E-03   -0.47750E-03 13236   0.962E-02    0.246E-02
RMM:  11    -0.672199876306E+03   -0.21708E-03   -0.26667E-03 12629   0.788E-02    0.151E-02
RMM:  12    -0.672200027687E+03   -0.15138E-03   -0.17667E-03 12248   0.610E-02    0.108E-02
RMM:  13    -0.672200118203E+03   -0.90516E-04   -0.10737E-03 11984   0.491E-02    0.700E-03
WARNING in EDDRMM: call to ZHEGV failed, returncode =   6  3      6
WARNING in EDDRMM: call to ZHEGV failed, returncode =   6  3      7
RMM:  14    -0.672200178492E+03   -0.60288E-04   -0.70492E-04 11630   0.396E-02    0.381E-03
RMM:  15    -0.672200215639E+03   -0.37148E-04   -0.43799E-04 11062   0.323E-02    0.237E-03
RMM:  16    -0.672200239972E+03   -0.24333E-04   -0.28822E-04 10714   0.266E-02    0.226E-03
RMM:  17    -0.672200255123E+03   -0.15151E-04   -0.18448E-04 10105   0.225E-02    0.119E-03
RMM:  18    -0.672200264223E+03   -0.91002E-05   -0.11361E-04  9560   0.190E-02    0.112E-03
RMM:  19    -0.672200269373E+03   -0.51501E-05   -0.67154E-05  8791   0.166E-02
  13 F= -.67220027E+03 E0= -.67214797E+03  d E =-.106800E+00
 trial-energy change:   -0.106800  1 .order   -0.107718   -0.236766    0.021330
 step:   0.8936(harm=  0.8952)  dis= 0.02638  next Energy=  -672.201169 (dE=-0.108E+00)
 bond charge predicted
       N       E                     dE             d eps       ncg     rms          rms(c)
DAV:   1    -0.672197995198E+03    0.22690E-02   -0.41082E-01  9744   0.189E+00    0.233E-01
RMM:   2    -0.672201651879E+03   -0.36567E-02   -0.53564E-02 13409   0.601E-01    0.130E-01
RMM:   3    -0.672201220910E+03    0.43097E-03   -0.42556E-03 13010   0.258E-01    0.927E-02
RMM:   4    -0.672201107982E+03    0.11293E-03   -0.15308E-03 13754   0.874E-02    0.453E-02
RMM:   5    -0.672201096827E+03    0.11155E-04   -0.48978E-04 12637   0.632E-02    0.251E-02
WARNING in EDDRMM: call to ZHEGV failed, returncode =   6  3      6
RMM:   6    -0.672201106730E+03   -0.99027E-05   -0.25348E-04 11199   0.299E-02    0.114E-02
RMM:   7    -0.672201116314E+03   -0.95838E-05   -0.11929E-04 10102   0.246E-02    0.832E-03
WARNING in EDDRMM: call to ZHEGV failed, returncode =   8  4      9
RMM:   8    -0.672201122276E+03   -0.59619E-05   -0.69944E-05  9089   0.169E-02
  14 F= -.67220112E+03 E0= -.67214871E+03  d E =-.107653E+00
 curvature:  -0.69 expect dE=-0.552E-01 dE for cont linesearch -0.189E-05
 trial: gam= 0.29822 g(F)=  0.641E-01 g(S)=  0.163E-01 ort = 0.101E-02 (trialstep = 0.959E+00)
 search vector abs. value=  0.114E+00
 bond charge predicted
       N       E                     dE             d eps       ncg     rms          rms(c)
DAV:   1    -0.672064276663E+03    0.13684E+00   -0.18115E+01  8736   0.112E+01    0.897E-01
RMM:   2    -0.672262768320E+03   -0.19849E+00   -0.22338E+00 13377   0.365E+00    0.507E-01
RMM:   3    -0.672258245396E+03    0.45229E-02   -0.14330E-01 13007   0.139E+00    0.400E-01
RMM:   4    -0.672258802649E+03   -0.55725E-03   -0.47516E-02 13847   0.516E-01    0.265E-01
RMM:   5    -0.672258533007E+03    0.26964E-03   -0.18788E-02 13448   0.280E-01    0.190E-01
RMM:   6    -0.672258460888E+03    0.72118E-04   -0.86582E-03 13542   0.195E-01    0.670E-02
RMM:   7    -0.672258655458E+03   -0.19457E-03   -0.36719E-03 13318   0.109E-01    0.371E-02
RMM:   8    -0.672258854296E+03   -0.19884E-03   -0.25239E-03 12784   0.734E-02    0.266E-02
RMM:   9    -0.672258935084E+03   -0.80788E-04   -0.10751E-03 11669   0.559E-02    0.181E-02
RMM:  10    -0.672258997197E+03   -0.62114E-04   -0.70311E-04 11301   0.394E-02    0.126E-02
RMM:  11    -0.672259032384E+03   -0.35187E-04   -0.39384E-04 10899   0.330E-02    0.652E-03
RMM:  12    -0.672259055966E+03   -0.23582E-04   -0.26285E-04 10580   0.256E-02    0.398E-03
RMM:  13    -0.672259068695E+03   -0.12729E-04   -0.15366E-04  9861   0.219E-02    0.265E-03
RMM:  14    -0.672259076030E+03   -0.73344E-05   -0.92514E-05  9335   0.183E-02
  15 F= -.67225908E+03 E0= -.67220647E+03  d E =-.579538E-01
 trial-energy change:   -0.057954  1 .order   -0.057492   -0.077351   -0.037632
 step:   1.7650(harm=  1.8684)  dis= 0.04217  next Energy=  -672.275148 (dE=-0.740E-01)
 bond charge predicted
       N       E                     dE             d eps       ncg     rms          rms(c)
DAV:   1    -0.672137358443E+03    0.12171E+00   -0.12769E+01  8736   0.943E+00    0.754E-01
RMM:   2    -0.672278197244E+03   -0.14084E+00   -0.15878E+00 13370   0.307E+00    0.420E-01
RMM:   3    -0.672274599879E+03    0.35974E-02   -0.10191E-01 13014   0.117E+00    0.333E-01
RMM:   4    -0.672275215713E+03   -0.61583E-03   -0.34381E-02 13854   0.438E-01    0.224E-01
RMM:   5    -0.672275068703E+03    0.14701E-03   -0.13834E-02 13468   0.239E-01    0.159E-01
RMM:   6    -0.672275045744E+03    0.22959E-04   -0.64782E-03 13545   0.166E-01    0.545E-02
RMM:   7    -0.672275198599E+03   -0.15286E-03   -0.27543E-03 13007   0.953E-02    0.315E-02
RMM:   8    -0.672275352803E+03   -0.15420E-03   -0.18997E-03 12498   0.639E-02    0.237E-02
RMM:   9    -0.672275414878E+03   -0.62075E-04   -0.82415E-04 11471   0.499E-02    0.156E-02
RMM:  10    -0.672275465089E+03   -0.50211E-04   -0.56423E-04 11174   0.352E-02    0.108E-02
WARNING in EDDRMM: call to ZHEGV failed, returncode =   6  3      6
RMM:  11    -0.672275492347E+03   -0.27258E-04   -0.30689E-04 10637   0.301E-02    0.517E-03
RMM:  12    -0.672275510954E+03   -0.18607E-04   -0.20811E-04 10228   0.237E-02    0.314E-03
RMM:  13    -0.672275520623E+03   -0.96693E-05   -0.11959E-04  9616   0.197E-02    0.233E-03
RMM:  14    -0.672275525842E+03   -0.52190E-05   -0.67396E-05  9046   0.168E-02
  16 F= -.67227553E+03 E0= -.67222263E+03  d E =-.744036E-01
 curvature:  -1.30 expect dE=-0.912E-01 dE for cont linesearch -0.941E-06
 trial: gam= 0.82455 g(F)=  0.586E-01 g(S)=  0.113E-01 ort = 0.287E-03 (trialstep = 0.864E+00)
 search vector abs. value=  0.148E+00
 bond charge predicted
       N       E                     dE             d eps       ncg     rms          rms(c)
DAV:   1    -0.672083857076E+03    0.19166E+00   -0.18757E+01  9072   0.112E+01    0.126E+00
RMM:   2    -0.672322759482E+03   -0.23890E+00   -0.29285E+00 13079   0.399E+00    0.704E-01
RMM:   3    -0.672320501219E+03    0.22583E-02   -0.22528E-01 12786   0.173E+00    0.569E-01
RMM:   4    -0.672320307021E+03    0.19420E-03   -0.75390E-02 14046   0.492E-01    0.345E-01
RMM:   5    -0.672318824383E+03    0.14826E-02   -0.18240E-02 13234   0.392E-01    0.245E-01
RMM:   6    -0.672318376809E+03    0.44757E-03   -0.13076E-02 13557   0.202E-01    0.881E-02
RMM:   7    -0.672318505898E+03   -0.12909E-03   -0.38567E-03 13704   0.154E-01    0.573E-02
RMM:   8    -0.672318697208E+03   -0.19131E-03   -0.28642E-03 13478   0.712E-02    0.357E-02
RMM:   9    -0.672318774114E+03   -0.76906E-04   -0.12042E-03 12360   0.636E-02    0.252E-02
RMM:  10    -0.672318843208E+03   -0.69094E-04   -0.86926E-04 11714   0.399E-02    0.180E-02
RMM:  11    -0.672318867846E+03   -0.24638E-04   -0.42387E-04 11379   0.362E-02    0.909E-03
RMM:  12    -0.672318887903E+03   -0.20056E-04   -0.27577E-04 10635   0.271E-02    0.569E-03
WARNING in EDDRMM: call to ZHEGV failed, returncode =   6  3      8
RMM:  13    -0.672318901059E+03   -0.13156E-04   -0.16571E-04 10181   0.227E-02    0.445E-03
RMM:  14    -0.672318907772E+03   -0.67136E-05   -0.90115E-05  9188   0.192E-02
  17 F= -.67231891E+03 E0= -.67226576E+03  d E =-.433819E-01
 trial-energy change:   -0.043382  1 .order   -0.042278   -0.060610   -0.023945
 step:   1.3072(harm=  1.4283)  dis= 0.04313  next Energy=  -672.325197 (dE=-0.497E-01)
 bond charge predicted
       N       E                     dE             d eps       ncg     rms          rms(c)
DAV:   1    -0.672264144041E+03    0.54757E-01   -0.49272E+00  9072   0.573E+00    0.647E-01
RMM:   2    -0.672327333867E+03   -0.63190E-01   -0.77365E-01 13063   0.203E+00    0.360E-01
RMM:   3    -0.672326337052E+03    0.99682E-03   -0.58259E-02 12826   0.879E-01    0.288E-01
RMM:   4    -0.672326324271E+03    0.12781E-04   -0.19657E-02 13943   0.253E-01    0.176E-01
RMM:   5    -0.672325951079E+03    0.37319E-03   -0.49701E-03 13216   0.205E-01    0.126E-01
RMM:   6    -0.672325844290E+03    0.10679E-03   -0.35365E-03 13493   0.106E-01    0.450E-02
RMM:   7    -0.672325881265E+03   -0.36975E-04   -0.10994E-03 12874   0.805E-02    0.289E-02
RMM:   8    -0.672325930868E+03   -0.49603E-04   -0.78010E-04 12056   0.394E-02    0.182E-02
RMM:   9    -0.672325952873E+03   -0.22005E-04   -0.35799E-04 11216   0.355E-02    0.126E-02
RMM:  10    -0.672325968260E+03   -0.15387E-04   -0.23029E-04  9999   0.245E-02    0.870E-03
RMM:  11    -0.672325974917E+03   -0.66567E-05   -0.13263E-04  9927   0.221E-02    0.453E-03
RMM:  12    -0.672325979180E+03   -0.42630E-05   -0.74539E-05  8985   0.185E-02
  18 F= -.67232598E+03 E0= -.67227279E+03  d E =-.504533E-01
 curvature:  -1.44 expect dE=-0.109E+00 dE for cont linesearch -0.672E-04
 trial: gam= 0.86191 g(F)=  0.395E-01 g(S)=  0.364E-01 ort = 0.263E-02 (trialstep = 0.740E+00)
 search vector abs. value=  0.190E+00
 bond charge predicted
       N       E                     dE             d eps       ncg     rms          rms(c)
DAV:   1    -0.672141274805E+03    0.18470E+00   -0.17472E+01  9072   0.114E+01    0.140E+00
RMM:   2    -0.672366827642E+03   -0.22555E+00   -0.29188E+00 13245   0.411E+00    0.769E-01
RMM:   3    -0.672358988486E+03    0.78392E-02   -0.22240E-01 12907   0.175E+00    0.625E-01
RMM:   4    -0.672357296906E+03    0.16916E-02   -0.73821E-02 13981   0.529E-01    0.366E-01
RMM:   5    -0.672355779237E+03    0.15177E-02   -0.19212E-02 12980   0.447E-01    0.252E-01
RMM:   6    -0.672355414887E+03    0.36435E-03   -0.12876E-02 13606   0.204E-01    0.946E-02
RMM:   7    -0.672355545395E+03   -0.13051E-03   -0.36803E-03 13878   0.161E-01    0.522E-02
RMM:   8    -0.672355839144E+03   -0.29375E-03   -0.31959E-03 13667   0.721E-02    0.399E-02
RMM:   9    -0.672355918229E+03   -0.79086E-04   -0.10814E-03 12455   0.639E-02    0.281E-02
RMM:  10    -0.672356011680E+03   -0.93451E-04   -0.85439E-04 11723   0.426E-02    0.192E-02
WARNING in EDDRMM: call to ZHEGV failed, returncode =   6  3      8
WARNING in EDDRMM: call to ZHEGV failed, returncode =   8  4      6
RMM:  11    -0.672356055206E+03   -0.43526E-04   -0.40208E-04 11783   0.373E-02    0.110E-02
RMM:  12    -0.672356080106E+03   -0.24900E-04   -0.26292E-04 10750   0.282E-02    0.693E-03
RMM:  13    -0.672356092107E+03   -0.12001E-04   -0.14708E-04 10327   0.230E-02    0.542E-03
RMM:  14    -0.672356098521E+03   -0.64139E-05   -0.82647E-05  9281   0.192E-02
  19 F= -.67235610E+03 E0= -.67230363E+03  d E =-.301193E-01
 trial-energy change:   -0.030119  1 .order   -0.029005   -0.057906   -0.000104
 step:   0.7414(harm=  0.7415)  dis= 0.02476  next Energy=  -672.356099 (dE=-0.301E-01)
 bond charge predicted
       N       E                     dE             d eps       ncg     rms          rms(c)
DAV:   1    -0.672356113442E+03   -0.21335E-04   -0.21338E-04 10944   0.256E-02    0.425E-03
RMM:   2    -0.672356115063E+03   -0.16211E-05   -0.17161E-05  5505   0.138E-02
  20 F= -.67235612E+03 E0= -.67230365E+03  d E =-.301359E-01
 curvature:  -0.89 expect dE=-0.318E-01 dE for cont linesearch -0.157E-05
 trial: gam= 0.36426 g(F)=  0.280E-01 g(S)=  0.755E-02 ort = 0.578E-03 (trialstep = 0.740E+00)
 search vector abs. value=  0.613E-01
 bond charge predicted
       N       E                     dE             d eps       ncg     rms          rms(c)
DAV:   1    -0.672314182965E+03    0.41930E-01   -0.55602E+00  9360   0.690E+00    0.596E-01
RMM:   2    -0.672375633748E+03   -0.61451E-01   -0.72693E-01 13481   0.219E+00    0.315E-01
RMM:   3    -0.672374369557E+03    0.12642E-02   -0.57806E-02 13144   0.890E-01    0.268E-01
RMM:   4    -0.672374793722E+03   -0.42417E-03   -0.19399E-02 14255   0.305E-01    0.166E-01
RMM:   5    -0.672374722963E+03    0.70759E-04   -0.57951E-03 13354   0.195E-01    0.116E-01
RMM:   6    -0.672374731891E+03   -0.89286E-05   -0.38512E-03 13626   0.113E-01    0.398E-02
RMM:   7    -0.672374808320E+03   -0.76429E-04   -0.13795E-03 12992   0.840E-02    0.233E-02
RMM:   8    -0.672374890407E+03   -0.82087E-04   -0.10169E-03 12001   0.450E-02    0.184E-02
RMM:   9    -0.672374918171E+03   -0.27764E-04   -0.43250E-04 11468   0.384E-02    0.133E-02
RMM:  10    -0.672374940665E+03   -0.22494E-04   -0.30052E-04 10783   0.281E-02    0.854E-03
WARNING in EDDRMM: call to ZHEGV failed, returncode =   8  4      8
RMM:  11    -0.672374950465E+03   -0.98001E-05   -0.16256E-04 10532   0.244E-02    0.444E-03
RMM:  12    -0.672374957001E+03   -0.65356E-05   -0.97003E-05  9412   0.197E-02
  21 F= -.67237496E+03 E0= -.67232235E+03  d E =-.188419E-01
 trial-energy change:   -0.018842  1 .order   -0.018709   -0.026510   -0.010907
 step:   1.2179(harm=  1.2581)  dis= 0.01274  next Energy=  -672.378509 (dE=-0.224E-01)
 bond charge predicted
       N       E                     dE             d eps       ncg     rms          rms(c)
DAV:   1    -0.672353533750E+03    0.21417E-01   -0.23114E+00  9072   0.445E+00    0.384E-01
RMM:   2    -0.672379184172E+03   -0.25650E-01   -0.30322E-01 13479   0.141E+00    0.204E-01
RMM:   3    -0.672378572276E+03    0.61190E-03   -0.24259E-02 13126   0.575E-01    0.173E-01
RMM:   4    -0.672378769296E+03   -0.19702E-03   -0.83841E-03 14253   0.202E-01    0.107E-01
RMM:   5    -0.672378753941E+03    0.15354E-04   -0.25858E-03 13296   0.127E-01    0.743E-02
RMM:   6    -0.672378767623E+03   -0.13682E-04   -0.17303E-03 13449   0.761E-02    0.258E-02
RMM:   7    -0.672378805093E+03   -0.37470E-04   -0.66147E-04 12275   0.565E-02    0.153E-02
RMM:   8    -0.672378838734E+03   -0.33640E-04   -0.44474E-04 10938   0.336E-02    0.118E-02
WARNING in EDDRMM: call to ZHEGV failed, returncode =   8  4      6
RMM:   9    -0.672378852849E+03   -0.14116E-04   -0.21571E-04 10842   0.278E-02    0.858E-03
WARNING in EDDRMM: call to ZHEGV failed, returncode =   8  4      6
RMM:  10    -0.672378861651E+03   -0.88018E-05   -0.13502E-04  9898   0.214E-02    0.538E-03
RMM:  11    -0.672378866298E+03   -0.46472E-05   -0.81898E-05  9580   0.189E-02
  22 F= -.67237887E+03 E0= -.67232618E+03  d E =-.227512E-01
 curvature:  -1.07 expect dE=-0.181E-01 dE for cont linesearch -0.210E-04
 trial: gam= 0.38096 g(F)=  0.118E-01 g(S)=  0.508E-02 ort = 0.110E-02 (trialstep = 0.836E+00)
 search vector abs. value=  0.266E-01
 bond charge predicted
       N       E                     dE             d eps       ncg     rms          rms(c)
DAV:   1    -0.672360034124E+03    0.18828E-01   -0.29930E+00  8784   0.541E+00    0.677E-01
RMM:   2    -0.672390629018E+03   -0.30595E-01   -0.44543E-01 13321   0.182E+00    0.397E-01
RMM:   3    -0.672389050048E+03    0.15790E-02   -0.46222E-02 13388   0.765E-01    0.339E-01
RMM:   4    -0.672387912798E+03    0.11372E-02   -0.14044E-02 14038   0.274E-01    0.172E-01
RMM:   5    -0.672387711451E+03    0.20135E-03   -0.43971E-03 13421   0.202E-01    0.115E-01
RMM:   6    -0.672387668466E+03    0.42985E-04   -0.27272E-03 13683   0.100E-01    0.414E-02
RMM:   7    -0.672387727327E+03   -0.58862E-04   -0.10557E-03 13036   0.737E-02    0.225E-02
RMM:   8    -0.672387791567E+03   -0.64240E-04   -0.69293E-04 11844   0.421E-02    0.166E-02
RMM:   9    -0.672387820786E+03   -0.29218E-04   -0.32210E-04 11428   0.353E-02    0.116E-02
RMM:  10    -0.672387846792E+03   -0.26006E-04   -0.22116E-04 10676   0.259E-02    0.678E-03
RMM:  11    -0.672387861033E+03   -0.14241E-04   -0.12890E-04 10418   0.225E-02    0.430E-03
RMM:  12    -0.672387867455E+03   -0.64221E-05   -0.69251E-05  9272   0.181E-02
  23 F= -.67238787E+03 E0= -.67233513E+03  d E =-.900116E-02
 trial-energy change:   -0.009001  1 .order   -0.008945   -0.014470   -0.003420
 step:   1.0848(harm=  1.0947)  dis= 0.01014  next Energy=  -672.388378 (dE=-0.951E-02)
 bond charge predicted
       N       E                     dE             d eps       ncg     rms          rms(c)
DAV:   1    -0.672385846619E+03    0.20144E-02   -0.26518E-01  9384   0.161E+00    0.200E-01
RMM:   2    -0.672388586127E+03   -0.27395E-02   -0.39758E-02 13305   0.542E-01    0.116E-01
RMM:   3    -0.672388452539E+03    0.13359E-03   -0.42173E-03 13349   0.229E-01    0.996E-02
RMM:   4    -0.672388371001E+03    0.81537E-04   -0.13369E-03 13786   0.842E-02    0.501E-02
RMM:   5    -0.672388362636E+03    0.83655E-05   -0.43508E-04 12580   0.625E-02    0.343E-02
RMM:   6    -0.672388367090E+03   -0.44543E-05   -0.28575E-04 12166   0.342E-02    0.126E-02
RMM:   7    -0.672388377491E+03   -0.10401E-04   -0.13325E-04 11087   0.265E-02    0.696E-03
RMM:   8    -0.672388383486E+03   -0.59946E-05   -0.60265E-05  8846   0.188E-02
  24 F= -.67238838E+03 E0= -.67233562E+03  d E =-.951719E-02
 curvature:  -0.84 expect dE=-0.115E-01 dE for cont linesearch -0.401E-09
 trial: gam= 0.83924 g(F)=  0.567E-02 g(S)=  0.797E-02 ort =-0.356E-05 (trialstep = 0.728E+00)
 search vector abs. value=  0.324E-01
 bond charge predicted
       N       E                     dE             d eps       ncg     rms          rms(c)
DAV:   1    -0.672364692838E+03    0.23685E-01   -0.27768E+00  8736   0.503E+00    0.544E-01
RMM:   2    -0.672395114520E+03   -0.30422E-01   -0.39897E-01 13293   0.168E+00    0.295E-01
RMM:   3    -0.672394303180E+03    0.81134E-03   -0.37596E-02 13181   0.705E-01    0.252E-01
RMM:   4    -0.672394037254E+03    0.26593E-03   -0.11715E-02 14351   0.239E-01    0.139E-01
RMM:   5    -0.672393905033E+03    0.13222E-03   -0.32543E-03 13177   0.167E-01    0.955E-02
RMM:   6    -0.672393861859E+03    0.43174E-04   -0.22231E-03 13631   0.889E-02    0.356E-02
RMM:   7    -0.672393904399E+03   -0.42540E-04   -0.86192E-04 12774   0.656E-02    0.212E-02
RMM:   8    -0.672393947719E+03   -0.43319E-04   -0.58250E-04 11551   0.373E-02    0.170E-02
RMM:   9    -0.672393964014E+03   -0.16296E-04   -0.26859E-04 11047   0.310E-02    0.120E-02
RMM:  10    -0.672393975600E+03   -0.11585E-04   -0.18556E-04 10217   0.243E-02    0.735E-03
RMM:  11    -0.672393980763E+03   -0.51639E-05   -0.11030E-04 10105   0.208E-02    0.361E-03
RMM:  12    -0.672393984125E+03   -0.33616E-05   -0.58392E-05  8872   0.176E-02
  25 F= -.67239398E+03 E0= -.67234097E+03  d E =-.560064E-02
 trial-energy change:   -0.005601  1 .order   -0.005441   -0.009929   -0.000953
 step:   0.7973(harm=  0.8054)  dis= 0.00791  next Energy=  -672.394030 (dE=-0.565E-02)
 bond charge predicted
       N       E                     dE             d eps       ncg     rms          rms(c)
DAV:   1    -0.672393778275E+03    0.20249E-03   -0.25058E-02  9600   0.478E-01    0.508E-02
RMM:   2    -0.672394066555E+03   -0.28828E-03   -0.37179E-03 13223   0.159E-01    0.272E-02
RMM:   3    -0.672394055272E+03    0.11282E-04   -0.38907E-04 12666   0.689E-02    0.222E-02
RMM:   4    -0.672394055132E+03    0.14015E-06   -0.14119E-04 11331   0.280E-02    0.119E-02
RMM:   5    -0.672394054488E+03    0.64460E-06   -0.52116E-05  9676   0.221E-02
  26 F= -.67239405E+03 E0= -.67234102E+03  d E =-.567100E-02
 curvature:  -0.95 expect dE=-0.382E-02 dE for cont linesearch -0.145E-06
 trial: gam= 0.27112 g(F)=  0.308E-02 g(S)=  0.961E-03 ort = 0.704E-04 (trialstep = 0.742E+00)
 search vector abs. value=  0.646E-02
 bond charge predicted
       N       E                     dE             d eps       ncg     rms          rms(c)
DAV:   1    -0.672390385168E+03    0.36700E-02   -0.60015E-01  8736   0.222E+00    0.218E-01
RMM:   2    -0.672396536946E+03   -0.61518E-02   -0.76471E-02 13420   0.730E-01    0.111E-01
RMM:   3    -0.672396263329E+03    0.27362E-03   -0.62131E-03 13074   0.294E-01    0.979E-02
RMM:   4    -0.672396244673E+03    0.18656E-04   -0.19556E-03 13623   0.107E-01    0.540E-02
RMM:   5    -0.672396245413E+03   -0.74065E-06   -0.72202E-04 12903   0.701E-02    0.401E-02
RMM:   6    -0.672396248478E+03   -0.30645E-05   -0.41827E-04 12395   0.403E-02    0.128E-02
RMM:   7    -0.672396260989E+03   -0.12511E-04   -0.16900E-04 11157   0.295E-02    0.718E-03
RMM:   8    -0.672396271149E+03   -0.10160E-04   -0.10998E-04  9557   0.193E-02    0.515E-03
RMM:   9    -0.672396275911E+03   -0.47621E-05   -0.51970E-05  9217   0.159E-02
  27 F= -.67239628E+03 E0= -.67234340E+03  d E =-.222142E-02
 trial-energy change:   -0.002221  1 .order   -0.002167   -0.003011   -0.001322
 step:   1.1856(harm=  1.3229)  dis= 0.00357  next Energy=  -672.396683 (dE=-0.263E-02)
 bond charge predicted
       N       E                     dE             d eps       ncg     rms          rms(c)
DAV:   1    -0.672394647098E+03    0.16241E-02   -0.21465E-01  8736   0.133E+00    0.130E-01
RMM:   2    -0.672396870676E+03   -0.22236E-02   -0.27575E-02 13398   0.437E-01    0.661E-02
RMM:   3    -0.672396765951E+03    0.10473E-03   -0.23141E-03 13044   0.177E-01    0.571E-02
RMM:   4    -0.672396767181E+03   -0.12301E-05   -0.74972E-04 13059   0.661E-02    0.315E-02
RMM:   5    -0.672396773785E+03   -0.66042E-05   -0.29638E-04 12131   0.482E-02    0.241E-02
RMM:   6    -0.672396778394E+03   -0.46092E-05   -0.17268E-04 11157   0.273E-02    0.766E-03
RMM:   7    -0.672396785217E+03   -0.68225E-05   -0.80257E-05 10114   0.208E-02
  28 F= -.67239679E+03 E0= -.67234401E+03  d E =-.273073E-02
 curvature:  -0.99 expect dE=-0.161E-02 dE for cont linesearch -0.237E-04
 ZBRENT: extrapolating
 opt :   1.3107  next Energy=  -672.396810 (dE=-0.276E-02)
 bond charge predicted
       N       E                     dE             d eps       ncg     rms          rms(c)
DAV:   1    -0.672396637480E+03    0.14091E-03   -0.17165E-02  9408   0.376E-01    0.367E-02
RMM:   2    -0.672396827626E+03   -0.19015E-03   -0.23215E-03 13376   0.124E-01    0.190E-02
RMM:   3    -0.672396818680E+03    0.89464E-05   -0.22286E-04 12364   0.518E-02    0.160E-02
RMM:   4    -0.672396821839E+03   -0.31595E-05   -0.84652E-05 10400   0.222E-02
  29 F= -.67239682E+03 E0= -.67234408E+03  d E =-.276735E-02
 curvature:  -1.03 expect dE=-0.184E-02 dE for cont linesearch -0.209E-09
 trial: gam= 0.44511 g(F)=  0.112E-02 g(S)=  0.666E-03 ort =-0.114E-05 (trialstep = 0.856E+00)
 search vector abs. value=  0.306E-02
 bond charge predicted
       N       E                     dE             d eps       ncg     rms          rms(c)
DAV:   1    -0.672394165565E+03    0.26531E-02   -0.37507E-01  8736   0.178E+00    0.192E-01
RMM:   2    -0.672398254344E+03   -0.40888E-02   -0.52113E-02 13529   0.600E-01    0.106E-01
RMM:   3    -0.672398033830E+03    0.22051E-03   -0.41754E-03 13219   0.241E-01    0.861E-02
RMM:   4    -0.672397984319E+03    0.49511E-04   -0.13262E-03 13552   0.850E-02    0.495E-02
RMM:   5    -0.672397965342E+03    0.18977E-04   -0.47081E-04 12694   0.615E-02    0.337E-02
RMM:   6    -0.672397960260E+03    0.50822E-05   -0.28494E-04 12069   0.328E-02    0.131E-02
RMM:   7    -0.672397965823E+03   -0.55631E-05   -0.12967E-04 10917   0.261E-02    0.771E-03
RMM:   8    -0.672397968712E+03   -0.28895E-05   -0.68184E-05  8931   0.177E-02
  30 F= -.67239797E+03 E0= -.67234531E+03  d E =-.114687E-02
 trial-energy change:   -0.001147  1 .order   -0.001021   -0.001528   -0.000513
 step:   1.0788(harm=  1.2888)  dis= 0.00165  next Energy=  -672.398038 (dE=-0.122E-02)
 bond charge predicted
       N       E                     dE             d eps       ncg     rms          rms(c)
DAV:   1    -0.672397817317E+03    0.14851E-03   -0.25562E-02  9408   0.464E-01    0.503E-02
RMM:   2    -0.672398113444E+03   -0.29613E-03   -0.37082E-03 13492   0.157E-01    0.285E-02
RMM:   3    -0.672398093267E+03    0.20177E-04   -0.33599E-04 12661   0.641E-02    0.234E-02
RMM:   4    -0.672398090582E+03    0.26858E-05   -0.12472E-04 11155   0.264E-02    0.131E-02
RMM:   5    -0.672398089579E+03    0.10022E-05   -0.55996E-05  9356   0.213E-02
  31 F= -.67239809E+03 E0= -.67234545E+03  d E =-.126774E-02
 curvature:  -0.85 expect dE=-0.740E-03 dE for cont linesearch -0.258E-04
 ZBRENT: increasing intervall
 opt :   1.5250  next Energy=  -672.398095 (dE=-0.127E-02)
 bond charge predicted
       N       E                     dE             d eps       ncg     rms          rms(c)
DAV:   1    -0.672397071312E+03    0.10193E-02   -0.10166E-01  8784   0.923E-01    0.101E-01
RMM:   2    -0.672398190545E+03   -0.11192E-02   -0.14283E-02 13500   0.312E-01    0.570E-02
RMM:   3    -0.672398123014E+03    0.67531E-04   -0.12093E-03 13124   0.128E-01    0.467E-02
RMM:   4    -0.672398107712E+03    0.15302E-04   -0.40158E-04 12610   0.465E-02    0.259E-02
RMM:   5    -0.672398102916E+03    0.47967E-05   -0.15424E-04 11399   0.376E-02    0.177E-02
WARNING in EDDRMM: call to ZHEGV failed, returncode =   6  3     11
RMM:   6    -0.672398101077E+03    0.18386E-05   -0.90254E-05 10067   0.203E-02
  32 F= -.67239810E+03 E0= -.67234549E+03  d E =-.127924E-02
 curvature:  -0.16 expect dE=-0.315E-03 dE for cont linesearch -0.721E-05
 ZBRENT: bracketing found
 ZBRENT: interpolating
 opt :   1.2808  next Energy=  -672.398120 (dE=-0.130E-02)
 bond charge predicted
       N       E                     dE             d eps       ncg     rms          rms(c)
DAV:   1    -0.672397842238E+03    0.26068E-03   -0.30646E-02  9312   0.507E-01    0.551E-02
RMM:   2    -0.672398158850E+03   -0.31661E-03   -0.41088E-03 13335   0.170E-01    0.309E-02
RMM:   3    -0.672398143728E+03    0.15121E-04   -0.30311E-04 11763   0.700E-02    0.253E-02
RMM:   4    -0.672398137733E+03    0.59957E-05   -0.82040E-05 10291   0.227E-02
  33 F= -.67239814E+03 E0= -.67234552E+03  d E =-.131589E-02
 curvature:  -0.69 expect dE=-0.113E-02 dE for cont linesearch -0.105E-05
 trial: gam= 0.99792 g(F)=  0.748E-03 g(S)=  0.881E-03 ort = 0.683E-04 (trialstep = 0.598E+00)
 search vector abs. value=  0.482E-02
 bond charge predicted
       N       E                     dE             d eps       ncg     rms          rms(c)
DAV:   1    -0.672395313056E+03    0.28307E-02   -0.28789E-01  9072   0.163E+00    0.171E-01
RMM:   2    -0.672398804607E+03   -0.34916E-02   -0.44274E-02 13389   0.554E-01    0.861E-02
RMM:   3    -0.672398726486E+03    0.78120E-04   -0.36677E-03 12898   0.232E-01    0.792E-02
RMM:   4    -0.672398700244E+03    0.26242E-04   -0.10315E-03 13444   0.751E-02    0.438E-02
RMM:   5    -0.672398690703E+03    0.95411E-05   -0.31602E-04 12268   0.561E-02    0.313E-02
RMM:   6    -0.672398690642E+03    0.61591E-07   -0.22256E-04 11936   0.310E-02    0.105E-02
WARNING in EDDRMM: call to ZHEGV failed, returncode =   6  3      8
RMM:   7    -0.672398697256E+03   -0.66147E-05   -0.81562E-05 10590   0.244E-02
  34 F= -.67239870E+03 E0= -.67234625E+03  d E =-.559524E-03
 trial-energy change:   -0.000560  1 .order   -0.000629   -0.001016   -0.000243
 step:   0.7866(harm=  0.7866)  dis= 0.00186  next Energy=  -672.398805 (dE=-0.668E-03)
 bond charge predicted
       N       E                     dE             d eps       ncg     rms          rms(c)
DAV:   1    -0.672398392077E+03    0.29856E-03   -0.28591E-02  9744   0.513E-01    0.531E-02
RMM:   2    -0.672398763577E+03   -0.37150E-03   -0.46083E-03 13399   0.176E-01    0.271E-02
RMM:   3    -0.672398752778E+03    0.10799E-04   -0.42223E-04 12636   0.741E-02    0.228E-02
RMM:   4    -0.672398757006E+03   -0.42281E-05   -0.14363E-04 11323   0.275E-02    0.127E-02
RMM:   5    -0.672398760348E+03   -0.33419E-05   -0.55891E-05  9589   0.227E-02
  35 F= -.67239876E+03 E0= -.67234637E+03  d E =-.622615E-03
 curvature:  -1.12 expect dE=-0.879E-03 dE for cont linesearch -0.239E-05
 trial: gam= 0.31196 g(F)=  0.595E-03 g(S)=  0.193E-03 ort = 0.101E-03 (trialstep = 0.636E+00)
 search vector abs. value=  0.132E-02
 bond charge predicted
       N       E                     dE             d eps       ncg     rms          rms(c)
DAV:   1    -0.672398229752E+03    0.52725E-03   -0.86848E-02  9408   0.896E-01    0.862E-02
RMM:   2    -0.672399287251E+03   -0.10575E-02   -0.12949E-02 13613   0.282E-01    0.499E-02
RMM:   3    -0.672399206206E+03    0.81045E-04   -0.94770E-04 12798   0.118E-01    0.401E-02
RMM:   4    -0.672399203554E+03    0.26526E-05   -0.36065E-04 12299   0.428E-02    0.227E-02
RMM:   5    -0.672399200858E+03    0.26959E-05   -0.13164E-04 11062   0.358E-02    0.148E-02
RMM:   6    -0.672399201179E+03   -0.32064E-06   -0.75522E-05  9833   0.193E-02
  36 F= -.67239920E+03 E0= -.67234686E+03  d E =-.440830E-03
 trial-energy change:   -0.000441  1 .order   -0.000401   -0.000521   -0.000281
 step:   1.3790(harm=  1.3790)  dis= 0.00181  next Energy=  -672.399325 (dE=-0.565E-03)
 bond charge predicted
       N       E                     dE             d eps       ncg     rms          rms(c)
DAV:   1    -0.672398035464E+03    0.11654E-02   -0.11846E-01  9408   0.105E+00    0.101E-01
RMM:   2    -0.672399486583E+03   -0.14511E-02   -0.17796E-02 13587   0.329E-01    0.572E-02
RMM:   3    -0.672399369224E+03    0.11736E-03   -0.13042E-03 12807   0.139E-01    0.449E-02
RMM:   4    -0.672399370491E+03   -0.12671E-05   -0.51111E-04 12522   0.499E-02    0.262E-02
RMM:   5    -0.672399368043E+03    0.24484E-05   -0.18715E-04 11426   0.411E-02    0.173E-02
RMM:   6    -0.672399368497E+03   -0.45382E-06   -0.10610E-04 10267   0.217E-02    0.640E-03
RMM:   7    -0.672399371624E+03   -0.31277E-05   -0.58054E-05  9387   0.179E-02
  37 F= -.67239937E+03 E0= -.67234711E+03  d E =-.611276E-03
 curvature:  -1.11 expect dE=-0.614E-03 dE for cont linesearch -0.548E-06
 trial: gam= 0.86572 g(F)=  0.286E-03 g(S)=  0.267E-03 ort =-0.255E-04 (trialstep = 0.691E+00)
 search vector abs. value=  0.150E-02
 bond charge predicted
       N       E                     dE             d eps       ncg     rms          rms(c)
DAV:   1    -0.672398228294E+03    0.11402E-02   -0.11255E-01  9408   0.104E+00    0.854E-02
RMM:   2    -0.672399713235E+03   -0.14849E-02   -0.17178E-02 13741   0.317E-01    0.464E-02
RMM:   3    -0.672399624131E+03    0.89104E-04   -0.11695E-03 12580   0.129E-01    0.364E-02
RMM:   4    -0.672399637107E+03   -0.12976E-04   -0.42636E-04 12492   0.473E-02    0.236E-02
RMM:   5    -0.672399639347E+03   -0.22406E-05   -0.15930E-04 10956   0.358E-02    0.161E-02
RMM:   6    -0.672399642656E+03   -0.33084E-05   -0.93690E-05 10259   0.217E-02
  38 F= -.67239964E+03 E0= -.67234747E+03  d E =-.271032E-03
 trial-energy change:   -0.000271  1 .order   -0.000254   -0.000367   -0.000140
 step:   1.1194(harm=  1.1194)  dis= 0.00155  next Energy=  -672.399669 (dE=-0.297E-03)
 bond charge predicted
       N       E                     dE             d eps       ncg     rms          rms(c)
DAV:   1    -0.672399136458E+03    0.50289E-03   -0.43059E-02  9552   0.645E-01    0.531E-02
RMM:   2    -0.672399723509E+03   -0.58705E-03   -0.67597E-03 13721   0.197E-01    0.285E-02
RMM:   3    -0.672399685237E+03    0.38272E-04   -0.48972E-04 12309   0.812E-02    0.217E-02
RMM:   4    -0.672399694779E+03   -0.95417E-05   -0.19550E-04 11707   0.319E-02    0.146E-02
RMM:   5    -0.672399697706E+03   -0.29273E-05   -0.77148E-05 10032   0.241E-02
  39 F= -.67239970E+03 E0= -.67234758E+03  d E =-.326082E-03
 curvature:  -1.58 expect dE=-0.464E-03 dE for cont linesearch -0.486E-07
 trial: gam= 0.37500 g(F)=  0.223E-03 g(S)=  0.712E-04 ort =-0.679E-05 (trialstep = 0.777E+00)
 search vector abs. value=  0.499E-03
 bond charge predicted
       N       E                     dE             d eps       ncg     rms          rms(c)
DAV:   1    -0.672399338411E+03    0.35637E-03   -0.48454E-02  9504   0.683E-01    0.813E-02
RMM:   2    -0.672399934126E+03   -0.59572E-03   -0.80367E-03 13461   0.228E-01    0.457E-02
RMM:   3    -0.672399878031E+03    0.56095E-04   -0.69781E-04 12929   0.100E-01    0.356E-02
RMM:   4    -0.672399868909E+03    0.91216E-05   -0.25334E-04 11819   0.346E-02    0.191E-02
RMM:   5    -0.672399866222E+03    0.26874E-05   -0.92298E-05 10794   0.301E-02
  40 F= -.67239987E+03 E0= -.67234779E+03  d E =-.168516E-03
 trial-energy change:   -0.000169  1 .order   -0.000137   -0.000226   -0.000048
 step:   0.9838(harm=  0.9838)  dis= 0.00084  next Energy=  -672.399841 (dE=-0.143E-03)
 reached required accuracy - stopping structural energy minimisation
