<?xml version="1.0" encoding="ISO-8859-1"?>
<modeling>
 <generator>
  <i name="program" type="string">vasp </i>
  <i name="version" type="string">5.4.4.18Apr17-6-g9f103f2a35  </i>
  <i name="subversion" type="string">(build Oct 18 2021 20:38:43) complex            parallel </i>
  <i name="platform" type="string">LinuxIFC </i>
  <i name="date" type="string">2024 05 30 </i>
  <i name="time" type="string">10:51:36 </i>
 </generator>
 <incar>
  <i type="string" name="SYSTEM">HECN</i>
  <i type="int" name="ISTART">     0</i>
  <i type="string" name="PREC">normal</i>
  <i type="string" name="ALGO">Fast</i>
  <i type="int" name="ICHARG">     2</i>
  <i type="int" name="NELM">    60</i>
  <i type="int" name="IBRION">     2</i>
  <i name="EDIFF">      0.00001000</i>
  <i name="EDIFFG">     -0.01000000</i>
  <i type="int" name="NSW">   100</i>
  <i type="int" name="ISIF">     3</i>
  <i name="ENCUT">    400.00000000</i>
  <i name="POTIM">      0.50000000</i>
  <i type="logical" name="LREAL"> F  </i>
  <i type="int" name="ISMEAR">     0</i>
  <i name="SIGMA">      0.10000000</i>
  <i type="logical" name="LWAVE"> F  </i>
  <i type="logical" name="LCHARG"> F  </i>
  <v type="int" name="KPOINT_BSE">    -1     0     0     0</v>
  <i type="int" name="NELM">    60</i>
 </incar>
 <structure name="primitive_cell" >
  <crystal>
   <varray name="basis" >
    <v>      11.23999977       0.00000000       0.00000000 </v>
    <v>       0.00000000      11.23999977       0.00000000 </v>
    <v>       0.00000000       0.00000000      11.23999977 </v>
   </varray>
   <i name="volume">   1420.03453724 </i>
   <varray name="rec_basis" >
    <v>       0.08896797       0.00000000       0.00000000 </v>
    <v>       0.00000000       0.08896797       0.00000000 </v>
    <v>       0.00000000       0.00000000       0.08896797 </v>
   </varray>
  </crystal>
  <varray name="positions" >
   <v>       0.00000000       0.00000000       0.00000000 </v>
   <v>      -0.24999996       0.00000000       0.00000000 </v>
   <v>       0.00000000       0.00000000      -0.24999996 </v>
   <v>       0.00000000      -0.24999996       0.00000000 </v>
   <v>       0.25000000       0.00000000       0.00000000 </v>
   <v>       0.00000000       0.25000000       0.00000000 </v>
   <v>       0.00000000       0.00000000       0.25000000 </v>
   <v>      -0.24999996      -0.24999996       0.00000000 </v>
   <v>       0.00000000      -0.24999996      -0.24999996 </v>
   <v>      -0.24999996       0.00000000      -0.24999996 </v>
   <v>       0.00000000       0.25000000      -0.24999996 </v>
   <v>      -0.24999996       0.00000000       0.25000000 </v>
   <v>      -0.24999996       0.25000000       0.00000000 </v>
   <v>       0.25000000      -0.24999996       0.00000000 </v>
   <v>       0.25000000       0.00000000      -0.24999996 </v>
   <v>       0.00000000      -0.24999996       0.25000000 </v>
   <v>       0.25000000       0.00000000       0.25000000 </v>
   <v>       0.00000000       0.25000000       0.25000000 </v>
   <v>       0.25000000       0.25000000       0.00000000 </v>
   <v>      -0.24999996      -0.24999996      -0.24999996 </v>
   <v>      -0.24999996       0.25000000      -0.24999996 </v>
   <v>       0.25000000      -0.24999996      -0.24999996 </v>
   <v>      -0.24999996      -0.24999996       0.25000000 </v>
   <v>      -0.24999996       0.25000000       0.25000000 </v>
   <v>       0.25000000      -0.24999996       0.25000000 </v>
   <v>       0.25000000       0.25000000      -0.24999996 </v>
   <v>       0.25000000       0.25000000       0.25000000 </v>
   <v>      -0.50000000       0.00000000       0.00000000 </v>
   <v>       0.00000000      -0.50000000       0.00000000 </v>
   <v>       0.00000000       0.00000000      -0.50000000 </v>
   <v>      -0.50000000      -0.24999996       0.00000000 </v>
   <v>      -0.24999996       0.00000000      -0.50000000 </v>
   <v>      -0.50000000       0.00000000      -0.24999996 </v>
   <v>      -0.24999996      -0.50000000       0.00000000 </v>
   <v>       0.00000000      -0.24999996      -0.50000000 </v>
   <v>       0.00000000      -0.50000000      -0.24999996 </v>
   <v>      -0.50000000       0.00000000       0.25000000 </v>
   <v>       0.00000000      -0.50000000       0.25000000 </v>
   <v>      -0.50000000       0.25000000       0.00000000 </v>
   <v>       0.25000000      -0.50000000       0.00000000 </v>
   <v>       0.25000000       0.00000000      -0.50000000 </v>
   <v>       0.00000000       0.25000000      -0.50000000 </v>
   <v>      -0.24999996      -0.24999996      -0.50000000 </v>
   <v>      -0.50000000      -0.24999996      -0.24999996 </v>
   <v>      -0.24999996      -0.50000000      -0.24999996 </v>
   <v>      -0.50000000       0.25000000      -0.24999996 </v>
   <v>      -0.24999996       0.25000000      -0.50000000 </v>
   <v>       0.25000000      -0.50000000      -0.24999996 </v>
   <v>       0.25000000      -0.24999996      -0.50000000 </v>
   <v>      -0.50000000      -0.24999996       0.25000000 </v>
   <v>      -0.24999996      -0.50000000       0.25000000 </v>
   <v>       0.25000000      -0.50000000       0.25000000 </v>
   <v>      -0.50000000       0.25000000       0.25000000 </v>
   <v>       0.25000000       0.25000000      -0.50000000 </v>
   <v>      -0.50000000      -0.50000000       0.00000000 </v>
   <v>       0.00000000      -0.50000000      -0.50000000 </v>
   <v>      -0.50000000       0.00000000      -0.50000000 </v>
   <v>      -0.24999996      -0.50000000      -0.50000000 </v>
   <v>      -0.50000000      -0.24999996      -0.50000000 </v>
   <v>      -0.50000000      -0.50000000      -0.24999996 </v>
   <v>      -0.50000000       0.25000000      -0.50000000 </v>
   <v>      -0.50000000      -0.50000000       0.25000000 </v>
   <v>       0.25000000      -0.50000000      -0.50000000 </v>
   <v>      -0.50000000      -0.50000000      -0.50000000 </v>
  </varray>
 </structure>
 <varray name="primitive_index" >
  <v type="int" >        1 </v>
  <v type="int" >       25 </v>
  <v type="int" >       29 </v>
  <v type="int" >       38 </v>
  <v type="int" >       22 </v>
  <v type="int" >       23 </v>
  <v type="int" >       34 </v>
  <v type="int" >        9 </v>
  <v type="int" >       12 </v>
  <v type="int" >       58 </v>
  <v type="int" >       10 </v>
  <v type="int" >       16 </v>
  <v type="int" >       17 </v>
  <v type="int" >       18 </v>
  <v type="int" >       56 </v>
  <v type="int" >       59 </v>
  <v type="int" >        2 </v>
  <v type="int" >        8 </v>
  <v type="int" >       14 </v>
  <v type="int" >       49 </v>
  <v type="int" >       30 </v>
  <v type="int" >       45 </v>
  <v type="int" >       39 </v>
  <v type="int" >       24 </v>
  <v type="int" >       36 </v>
  <v type="int" >       42 </v>
  <v type="int" >       21 </v>
  <v type="int" >       53 </v>
  <v type="int" >       54 </v>
  <v type="int" >       61 </v>
  <v type="int" >       28 </v>
  <v type="int" >       31 </v>
  <v type="int" >       33 </v>
  <v type="int" >       40 </v>
  <v type="int" >       47 </v>
  <v type="int" >       48 </v>
  <v type="int" >       26 </v>
  <v type="int" >       27 </v>
  <v type="int" >       35 </v>
  <v type="int" >       37 </v>
  <v type="int" >       43 </v>
  <v type="int" >       44 </v>
  <v type="int" >       64 </v>
  <v type="int" >        7 </v>
  <v type="int" >       63 </v>
  <v type="int" >        5 </v>
  <v type="int" >       11 </v>
  <v type="int" >       13 </v>
  <v type="int" >       20 </v>
  <v type="int" >       55 </v>
  <v type="int" >       60 </v>
  <v type="int" >        3 </v>
  <v type="int" >       15 </v>
  <v type="int" >       19 </v>
  <v type="int" >        4 </v>
  <v type="int" >        6 </v>
  <v type="int" >       57 </v>
  <v type="int" >       50 </v>
  <v type="int" >       51 </v>
  <v type="int" >       52 </v>
  <v type="int" >       32 </v>
  <v type="int" >       41 </v>
  <v type="int" >       46 </v>
  <v type="int" >       62 </v>
 </varray>
 <kpoints>
  <generation param="Gamma">
   <v type="int" name="divisions">       3        3        3 </v>
   <v name="usershift">      0.00000000       0.00000000       0.00000000 </v>
   <v name="genvec1">      0.33333333       0.00000000       0.00000000 </v>
   <v name="genvec2">      0.00000000       0.33333333       0.00000000 </v>
   <v name="genvec3">      0.00000000       0.00000000       0.33333333 </v>
   <v name="shift">      0.00000000       0.00000000       0.00000000 </v>
  </generation>
  <varray name="kpointlist" >
   <v>       0.00000000       0.00000000       0.00000000 </v>
   <v>       0.33333333       0.00000000       0.00000000 </v>
   <v>       0.00000000       0.33333333       0.00000000 </v>
   <v>       0.33333333       0.33333333       0.00000000 </v>
   <v>      -0.33333333       0.33333333       0.00000000 </v>
   <v>       0.00000000       0.00000000       0.33333333 </v>
   <v>       0.33333333       0.00000000       0.33333333 </v>
   <v>      -0.33333333       0.00000000       0.33333333 </v>
   <v>       0.00000000       0.33333333       0.33333333 </v>
   <v>       0.33333333       0.33333333       0.33333333 </v>
   <v>      -0.33333333       0.33333333       0.33333333 </v>
   <v>       0.00000000      -0.33333333       0.33333333 </v>
   <v>       0.33333333      -0.33333333       0.33333333 </v>
   <v>      -0.33333333      -0.33333333       0.33333333 </v>
  </varray>
  <varray name="weights" >
   <v>       0.03703704 </v>
   <v>       0.07407407 </v>
   <v>       0.07407407 </v>
   <v>       0.07407407 </v>
   <v>       0.07407407 </v>
   <v>       0.07407407 </v>
   <v>       0.07407407 </v>
   <v>       0.07407407 </v>
   <v>       0.07407407 </v>
   <v>       0.07407407 </v>
   <v>       0.07407407 </v>
   <v>       0.07407407 </v>
   <v>       0.07407407 </v>
   <v>       0.07407407 </v>
  </varray>
 </kpoints>
 <parameters>
  <separator name="general" >
   <i type="string" name="SYSTEM">HECN</i>
   <i type="logical" name="LCOMPAT"> F  </i>
  </separator>
  <separator name="electronic" >
   <i type="string" name="PREC">normal</i>
   <i name="ENMAX">    400.00000000</i>
   <i name="ENAUG">    644.87300000</i>
   <i name="EDIFF">      0.00001000</i>
   <i type="int" name="IALGO">    68</i>
   <i type="int" name="IWAVPR">    11</i>
   <i type="int" name="NBANDS">   312</i>
   <i name="NELECT">    511.00000000</i>
   <i type="int" name="TURBO">     0</i>
   <i type="int" name="IRESTART">     0</i>
   <i type="int" name="NREBOOT">     0</i>
   <i type="int" name="NMIN">     0</i>
   <i name="EREF">      0.00000000</i>
   <separator name="electronic smearing" >
    <i type="int" name="ISMEAR">     0</i>
    <i name="SIGMA">      0.10000000</i>
    <i name="KSPACING">      0.50000000</i>
    <i type="logical" name="KGAMMA"> T  </i>
   </separator>
   <separator name="electronic projectors" >
    <i type="logical" name="LREAL"> F  </i>
    <v name="ROPT">      0.00000000      0.00000000      0.00000000      0.00000000      0.00000000      0.00000000      0.00000000</v>
    <i type="int" name="LMAXPAW">  -100</i>
    <i type="int" name="LMAXMIX">     2</i>
    <i type="logical" name="NLSPLINE"> F  </i>
   </separator>
   <separator name="electronic startup" >
    <i type="int" name="ISTART">     0</i>
    <i type="int" name="ICHARG">     2</i>
    <i type="int" name="INIWAV">     1</i>
   </separator>
   <separator name="electronic spin" >
    <i type="int" name="ISPIN">     1</i>
    <i type="logical" name="LNONCOLLINEAR"> F  </i>
    <v name="MAGMOM">      1.00000000      1.00000000      1.00000000      1.00000000      1.00000000      1.00000000      1.00000000      1.00000000      1.00000000      1.00000000      1.00000000      1.00000000      1.00000000      1.00000000      1.00000000      1.00000000      1.00000000      1.00000000      1.00000000      1.00000000
      1.00000000      1.00000000      1.00000000      1.00000000      1.00000000      1.00000000      1.00000000      1.00000000      1.00000000      1.00000000      1.00000000      1.00000000      1.00000000      1.00000000      1.00000000      1.00000000      1.00000000      1.00000000      1.00000000      1.00000000
      1.00000000      1.00000000      1.00000000      1.00000000      1.00000000      1.00000000      1.00000000      1.00000000      1.00000000      1.00000000      1.00000000      1.00000000      1.00000000      1.00000000      1.00000000      1.00000000      1.00000000      1.00000000      1.00000000      1.00000000
      1.00000000      1.00000000      1.00000000      1.00000000</v>
    <i name="NUPDOWN">     -1.00000000</i>
    <i type="logical" name="LSORBIT"> F  </i>
    <v name="SAXIS">      0.00000000      0.00000000      1.00000000</v>
    <i type="logical" name="LSPIRAL"> F  </i>
    <v name="QSPIRAL">      0.00000000      0.00000000      0.00000000</v>
    <i type="logical" name="LZEROZ"> F  </i>
   </separator>
   <separator name="electronic exchange-correlation" >
    <i type="logical" name="LASPH"> F  </i>
    <i type="logical" name="LMETAGGA"> F  </i>
   </separator>
   <separator name="electronic convergence" >
    <i type="int" name="NELM">    60</i>
    <i type="int" name="NELMDL">    -5</i>
    <i type="int" name="NELMIN">     2</i>
    <i name="ENINI">    400.00000000</i>
    <separator name="electronic convergence detail" >
     <i type="logical" name="LDIAG"> T  </i>
     <i type="logical" name="LSUBROT"> F  </i>
     <i name="WEIMIN">      0.00100000</i>
     <i name="EBREAK">      0.00000001</i>
     <i name="DEPER">      0.30000000</i>
     <i type="int" name="NRMM">     4</i>
     <i name="TIME">      0.40000000</i>
    </separator>
   </separator>
   <separator name="electronic mixer" >
    <i name="AMIX">      0.40000000</i>
    <i name="BMIX">      1.00000000</i>
    <i name="AMIN">      0.10000000</i>
    <i name="AMIX_MAG">      1.60000000</i>
    <i name="BMIX_MAG">      1.00000000</i>
    <separator name="electronic mixer details" >
     <i type="int" name="IMIX">     4</i>
     <i type="logical" name="MIXFIRST"> F  </i>
     <i type="int" name="MAXMIX">   -45</i>
     <i name="WC">    100.00000000</i>
     <i type="int" name="INIMIX">     1</i>
     <i type="int" name="MIXPRE">     1</i>
     <i type="int" name="MREMOVE">     5</i>
    </separator>
   </separator>
   <separator name="electronic dipolcorrection" >
    <i type="logical" name="LDIPOL"> F  </i>
    <i type="logical" name="LMONO"> F  </i>
    <i type="int" name="IDIPOL">     0</i>
    <i name="EPSILON">      1.00000000</i>
    <v name="DIPOL">   -100.00000000   -100.00000000   -100.00000000</v>
    <i name="EFIELD">      0.00000000</i>
   </separator>
  </separator>
  <separator name="grids" >
   <i type="int" name="NGX">    56</i>
   <i type="int" name="NGY">    56</i>
   <i type="int" name="NGZ">    56</i>
   <i type="int" name="NGXF">   112</i>
   <i type="int" name="NGYF">   112</i>
   <i type="int" name="NGZF">   112</i>
   <i type="logical" name="ADDGRID"> F  </i>
  </separator>
  <separator name="ionic" >
   <i type="int" name="NSW">   100</i>
   <i type="int" name="IBRION">     2</i>
   <i type="int" name="MDALGO">     0</i>
   <i type="int" name="ISIF">     3</i>
   <i name="PSTRESS">      0.00000000</i>
   <i name="EDIFFG">     -0.01000000</i>
   <i type="int" name="NFREE">     1</i>
   <i name="POTIM">      0.50000000</i>
   <i name="SMASS">     -3.00000000</i>
   <i name="SCALEE">      1.00000000</i>
  </separator>
  <separator name="ionic md" >
   <i name="TEBEG">      0.00010000</i>
   <i name="TEEND">      0.00010000</i>
   <i type="int" name="NBLOCK">     1</i>
   <i type="int" name="KBLOCK">   100</i>
   <i type="int" name="NPACO">   256</i>
   <i name="APACO">     16.00000000</i>
  </separator>
  <separator name="symmetry" >
   <i type="int" name="ISYM">     2</i>
   <i name="SYMPREC">      0.00001000</i>
  </separator>
  <separator name="dos" >
   <i type="int" name="LORBIT">     0</i>
   <v name="RWIGS">     -1.00000000     -1.00000000     -1.00000000     -1.00000000     -1.00000000     -1.00000000     -1.00000000</v>
   <i type="int" name="NEDOS">   301</i>
   <i name="EMIN">     10.00000000</i>
   <i name="EMAX">    -10.00000000</i>
   <i name="EFERMI">      0.00000000</i>
  </separator>
  <separator name="writing" >
   <i type="int" name="NWRITE">     2</i>
   <i type="logical" name="LWAVE"> F  </i>
   <i type="logical" name="LDOWNSAMPLE"> F  </i>
   <i type="logical" name="LCHARG"> F  </i>
   <i type="logical" name="LPARD"> F  </i>
   <i type="logical" name="LVTOT"> F  </i>
   <i type="logical" name="LVHAR"> F  </i>
   <i type="logical" name="LELF"> F  </i>
   <i type="logical" name="LOPTICS"> F  </i>
   <v name="STM">      0.00000000      0.00000000      0.00000000      0.00000000      0.00000000      0.00000000      0.00000000</v>
  </separator>
  <separator name="performance" >
   <i type="int" name="NPAR">    24</i>
   <i type="int" name="NSIM">     4</i>
   <i type="int" name="NBLK">    -1</i>
   <i type="logical" name="LPLANE"> T  </i>
   <i type="logical" name="LSCALAPACK"> T  </i>
   <i type="logical" name="LSCAAWARE"> F  </i>
   <i type="logical" name="LSCALU"> F  </i>
   <i type="logical" name="LASYNC"> F  </i>
   <i type="logical" name="LORBITALREAL"> F  </i>
  </separator>
  <separator name="miscellaneous" >
   <i type="int" name="IDIOT">     3</i>
   <i type="int" name="ISPECIAL">     0</i>
   <i type="logical" name="LMUSIC"> F  </i>
   <v name="POMASS">     47.88000000    180.94800000    178.49000000     14.00100000     12.01100000    183.85000000     92.91000000</v>
   <v name="DARWINR">      0.00000000      0.00000000      0.00000000      0.00000000      0.00000000      0.00000000      0.00000000</v>
   <v name="DARWINV">      1.00000000      1.00000000      1.00000000      1.00000000      1.00000000      1.00000000      1.00000000</v>
   <i type="logical" name="LCORR"> T  </i>
  </separator>
  <i type="logical" name="GGA_COMPAT"> T  </i>
  <i type="logical" name="LBERRY"> F  </i>
  <i type="int" name="ICORELEVEL">     0</i>
  <i type="logical" name="LDAU"> F  </i>
  <i type="int" name="I_CONSTRAINED_M">     0</i>
  <separator name="electronic exchange-correlation" >
   <i type="string" name="GGA">--</i>
   <i type="int" name="VOSKOWN">     0</i>
   <i type="logical" name="LHFCALC"> F  </i>
   <i type="string" name="PRECFOCK"></i>
   <i type="logical" name="LSYMGRAD"> F  </i>
   <i type="logical" name="LHFONE"> F  </i>
   <i type="logical" name="LRHFCALC"> F  </i>
   <i type="logical" name="LTHOMAS"> F  </i>
   <i type="logical" name="LMODELHF"> F  </i>
   <i name="ENCUT4O">     -1.00000000</i>
   <i type="int" name="EXXOEP">     0</i>
   <i type="int" name="FOURORBIT">     0</i>
   <i name="AEXX">      0.00000000</i>
   <i name="HFALPHA">      0.00000000</i>
   <i name="MCALPHA">      0.00000000</i>
   <i name="ALDAX">      1.00000000</i>
   <i name="AGGAX">      1.00000000</i>
   <i name="ALDAC">      1.00000000</i>
   <i name="AGGAC">      1.00000000</i>
   <i type="int" name="NKREDX">     1</i>
   <i type="int" name="NKREDY">     1</i>
   <i type="int" name="NKREDZ">     1</i>
   <i type="logical" name="SHIFTRED"> F  </i>
   <i type="logical" name="ODDONLY"> F  </i>
   <i type="logical" name="EVENONLY"> F  </i>
   <i type="int" name="LMAXFOCK">     0</i>
   <i type="int" name="NMAXFOCKAE">     0</i>
   <i type="logical" name="LFOCKAEDFT"> F  </i>
   <i name="HFSCREEN">      0.00000000</i>
   <i name="HFSCREENC">      0.00000000</i>
   <i type="int" name="NBANDSGWLOW">     0</i>
  </separator>
  <separator name="vdW DFT" >
   <i type="logical" name="LUSE_VDW"> F  </i>
   <i name="Zab_VDW">     -0.84910000</i>
   <i name="PARAM1">      0.12340000</i>
   <i name="PARAM2">      1.00000000</i>
   <i name="PARAM3">      0.00000000</i>
  </separator>
  <separator name="model GW" >
   <i type="int" name="MODEL_GW">     0</i>
   <i name="MODEL_EPS0">     13.31282379</i>
   <i name="MODEL_ALPHA">      1.00000000</i>
  </separator>
  <separator name="linear response parameters" >
   <i type="logical" name="LEPSILON"> F  </i>
   <i type="logical" name="LRPA"> F  </i>
   <i type="logical" name="LNABLA"> F  </i>
   <i type="logical" name="LVEL"> F  </i>
   <i type="int" name="KINTER">     0</i>
   <i name="CSHIFT">      0.10000000</i>
   <i name="OMEGAMAX">     -1.00000000</i>
   <i name="DEG_THRESHOLD">      0.00200000</i>
   <i name="RTIME">     -0.10000000</i>
   <i name="WPLASMAI">      0.00000000</i>
   <v name="DFIELD">      0.00000000      0.00000000      0.00000000</v>
   <v name="WPLASMA">      0.00000000      0.00000000      0.00000000      0.00000000      0.00000000      0.00000000      0.00000000      0.00000000      0.00000000</v>
  </separator>
  <separator name="orbital magnetization" >
   <i type="logical" name="NUCIND"> F  </i>
   <v name="MAGPOS">      0.00000000      0.00000000      0.00000000</v>
   <i type="logical" name="LNICSALL"> T  </i>
   <i type="logical" name="ORBITALMAG"> F  </i>
   <i type="logical" name="LMAGBLOCH"> F  </i>
   <i type="logical" name="LCHIMAG"> F  </i>
   <i type="logical" name="LGAUGE"> T  </i>
   <i type="int" name="MAGATOM">     0</i>
   <v name="MAGDIPOL">      0.00000000      0.00000000      0.00000000</v>
   <v name="AVECCONST">      0.00000000      0.00000000      0.00000000</v>
  </separator>
  <separator name="response functions" >
   <i type="logical" name="LADDER"> F  </i>
   <i type="logical" name="LRPAFORCE"> F  </i>
   <i type="logical" name="LFXC"> F  </i>
   <i type="logical" name="LHARTREE"> T  </i>
   <i type="int" name="IBSE">     0</i>
   <v type="int" name="KPOINT">    -1     0     0     0</v>
   <i type="logical" name="LTCTE"> F  </i>
   <i type="logical" name="LTETE"> F  </i>
   <i type="logical" name="LTRIPLET"> F  </i>
   <i type="logical" name="LFXCEPS"> F  </i>
   <i type="logical" name="LFXHEG"> F  </i>
   <i type="int" name="NATURALO">     2</i>
   <i type="logical" name="L2ORDER"> F  </i>
   <i type="logical" name="LMP2LT"> F  </i>
   <i type="logical" name="LUSEW"> F  </i>
   <i name="ENCUTGW">     -2.00000000</i>
   <i name="ENCUTGWSOFT">     -2.00000000</i>
   <i name="ENCUTLF">     -1.00000000</i>
   <i type="int" name="LMAXMP2">    -1</i>
   <i name="SCISSOR">      0.00000000</i>
   <i type="int" name="NOMEGA">     0</i>
   <i type="int" name="NOMEGAR">     0</i>
   <i type="int" name="NBANDSGW">    -1</i>
   <i type="int" name="NBANDSO">    -1</i>
   <i type="int" name="NBANDSV">    -1</i>
   <i type="int" name="NELM">    60</i>
   <i type="int" name="NELMHF">     1</i>
   <i type="int" name="DIM">     3</i>
   <i type="int" name="ANTIRES">     0</i>
   <i name="OMEGAMAX">    -30.00000000</i>
   <i name="OMEGAMIN">    -30.00000000</i>
   <i name="OMEGATL">   -200.00000000</i>
   <i type="int" name="OMEGAGRID">   140</i>
   <i name="CSHIFT">     -0.10000000</i>
   <i type="logical" name="SELFENERGY"> F  </i>
   <i type="logical" name="LSPECTRAL"> F  </i>
   <i type="logical" name="LSPECTRALGW"> F  </i>
   <i type="logical" name="LSINGLES"> F  </i>
   <i type="logical" name="LFERMIGW"> F  </i>
   <i type="logical" name="ODDONLYGW"> F  </i>
   <i type="logical" name="EVENONLYGW"> F  </i>
   <i type="int" name="NKREDLFX">     1</i>
   <i type="int" name="NKREDLFY">     1</i>
   <i type="int" name="NKREDLFZ">     1</i>
   <i type="int" name="MAXMEM">  2800</i>
   <i type="int" name="TELESCOPE">     0</i>
   <i type="int" name="TAUPAR">     1</i>
   <i type="int" name="OMEGAPAR">    -1</i>
   <i name="LAMBDA">      1.00000000</i>
  </separator>
  <separator name="External order field" >
   <i name="OFIELD_KAPPA">      0.00000000</i>
   <v name="OFIELD_K">      0.00000000      0.00000000      0.00000000</v>
   <i name="OFIELD_Q6_NEAR">      0.00000000</i>
   <i name="OFIELD_Q6_FAR">      0.00000000</i>
   <i name="OFIELD_A">      0.00000000</i>
  </separator>
 </parameters>
 <atominfo>
  <atoms>      64 </atoms>
  <types>       7 </types>
  <array name="atoms" >
   <dimension dim="1">ion</dimension>
   <field type="string">element</field>
   <field type="int">atomtype</field>
   <set>
    <rc><c>Ti</c><c>   1</c></rc>
    <rc><c>Ti</c><c>   1</c></rc>
    <rc><c>Ti</c><c>   1</c></rc>
    <rc><c>Ti</c><c>   1</c></rc>
    <rc><c>Ti</c><c>   1</c></rc>
    <rc><c>Ti</c><c>   1</c></rc>
    <rc><c>Ti</c><c>   1</c></rc>
    <rc><c>Ta</c><c>   2</c></rc>
    <rc><c>Ta</c><c>   2</c></rc>
    <rc><c>Ta</c><c>   2</c></rc>
    <rc><c>Ta</c><c>   2</c></rc>
    <rc><c>Ta</c><c>   2</c></rc>
    <rc><c>Ta</c><c>   2</c></rc>
    <rc><c>Hf</c><c>   3</c></rc>
    <rc><c>Hf</c><c>   3</c></rc>
    <rc><c>Hf</c><c>   3</c></rc>
    <rc><c>Hf</c><c>   3</c></rc>
    <rc><c>Hf</c><c>   3</c></rc>
    <rc><c>Hf</c><c>   3</c></rc>
    <rc><c>Hf</c><c>   3</c></rc>
    <rc><c>N </c><c>   4</c></rc>
    <rc><c>N </c><c>   4</c></rc>
    <rc><c>N </c><c>   4</c></rc>
    <rc><c>N </c><c>   4</c></rc>
    <rc><c>N </c><c>   4</c></rc>
    <rc><c>N </c><c>   4</c></rc>
    <rc><c>N </c><c>   4</c></rc>
    <rc><c>N </c><c>   4</c></rc>
    <rc><c>N </c><c>   4</c></rc>
    <rc><c>N </c><c>   4</c></rc>
    <rc><c>N </c><c>   4</c></rc>
    <rc><c>N </c><c>   4</c></rc>
    <rc><c>N </c><c>   4</c></rc>
    <rc><c>C </c><c>   5</c></rc>
    <rc><c>C </c><c>   5</c></rc>
    <rc><c>C </c><c>   5</c></rc>
    <rc><c>C </c><c>   5</c></rc>
    <rc><c>C </c><c>   5</c></rc>
    <rc><c>C </c><c>   5</c></rc>
    <rc><c>C </c><c>   5</c></rc>
    <rc><c>C </c><c>   5</c></rc>
    <rc><c>C </c><c>   5</c></rc>
    <rc><c>C </c><c>   5</c></rc>
    <rc><c>C </c><c>   5</c></rc>
    <rc><c>C </c><c>   5</c></rc>
    <rc><c>C </c><c>   5</c></rc>
    <rc><c>C </c><c>   5</c></rc>
    <rc><c>C </c><c>   5</c></rc>
    <rc><c>C </c><c>   5</c></rc>
    <rc><c>C </c><c>   5</c></rc>
    <rc><c>C </c><c>   5</c></rc>
    <rc><c>C </c><c>   5</c></rc>
    <rc><c>W </c><c>   6</c></rc>
    <rc><c>W </c><c>   6</c></rc>
    <rc><c>W </c><c>   6</c></rc>
    <rc><c>W </c><c>   6</c></rc>
    <rc><c>W </c><c>   6</c></rc>
    <rc><c>W </c><c>   6</c></rc>
    <rc><c>Nb</c><c>   7</c></rc>
    <rc><c>Nb</c><c>   7</c></rc>
    <rc><c>Nb</c><c>   7</c></rc>
    <rc><c>Nb</c><c>   7</c></rc>
    <rc><c>Nb</c><c>   7</c></rc>
    <rc><c>Nb</c><c>   7</c></rc>
   </set>
  </array>
  <array name="atomtypes" >
   <dimension dim="1">type</dimension>
   <field type="int">atomspertype</field>
   <field type="string">element</field>
   <field>mass</field>
   <field>valence</field>
   <field type="string">pseudopotential</field>
   <set>
    <rc><c>   7</c><c>Ti</c><c>     47.88000000</c><c>     12.00000000</c><c> PAW_PBE Ti_sv 07Sep2000                </c></rc>
    <rc><c>   6</c><c>Ta</c><c>    180.94800000</c><c>     11.00000000</c><c> PAW_PBE Ta_pv 07Sep2000                </c></rc>
    <rc><c>   7</c><c>Hf</c><c>    178.49000000</c><c>     10.00000000</c><c> PAW_PBE Hf_pv 06Sep2000                </c></rc>
    <rc><c>  13</c><c>N </c><c>     14.00100000</c><c>      5.00000000</c><c> PAW_PBE N 08Apr2002                    </c></rc>
    <rc><c>  19</c><c>C </c><c>     12.01100000</c><c>      4.00000000</c><c> PAW_PBE C 08Apr2002                    </c></rc>
    <rc><c>   6</c><c>W </c><c>    183.85000000</c><c>     12.00000000</c><c> PAW_PBE W_pv 06Sep2000                 </c></rc>
    <rc><c>   6</c><c>Nb</c><c>     92.91000000</c><c>     13.00000000</c><c> PAW_PBE Nb_sv 17Jan2003                </c></rc>
   </set>
  </array>
 </atominfo>
 <structure name="initialpos" >
  <crystal>
   <varray name="basis" >
    <v>      11.23999977       0.00000000       0.00000000 </v>
    <v>       0.00000000      11.23999977       0.00000000 </v>
    <v>       0.00000000       0.00000000      11.23999977 </v>
   </varray>
   <i name="volume">   1420.03453724 </i>
   <varray name="rec_basis" >
    <v>       0.08896797       0.00000000       0.00000000 </v>
    <v>       0.00000000       0.08896797       0.00000000 </v>
    <v>       0.00000000       0.00000000       0.08896797 </v>
   </varray>
  </crystal>
  <varray name="positions" >
   <v>       0.00000000       0.00000000       0.00000000 </v>
   <v>       0.25000000       0.00000000       0.25000000 </v>
   <v>       0.25000000       0.50000000       0.25000000 </v>
   <v>       0.50000000       0.50000000       0.00000000 </v>
   <v>       0.50000000       0.25000000       0.75000004 </v>
   <v>       0.00000000       0.50000000       0.50000000 </v>
   <v>       0.50000000       0.75000004       0.75000004 </v>
   <v>       0.00000000       0.25000000       0.25000000 </v>
   <v>       0.75000004       0.75000004       0.00000000 </v>
   <v>       0.00000000       0.25000000       0.75000004 </v>
   <v>       0.75000004       0.25000000       0.50000000 </v>
   <v>       0.00000000       0.75000004       0.75000004 </v>
   <v>       0.25000000       0.50000000       0.75000004 </v>
   <v>       0.25000000       0.25000000       0.00000000 </v>
   <v>       0.50000000       0.25000000       0.25000000 </v>
   <v>       0.75000004       0.00000000       0.25000000 </v>
   <v>       0.75000004       0.25000000       0.00000000 </v>
   <v>       0.25000000       0.75000004       0.00000000 </v>
   <v>       0.25000000       0.25000000       0.50000000 </v>
   <v>       0.25000000       0.75000004       0.50000000 </v>
   <v>       0.25000000       0.25000000       0.25000000 </v>
   <v>       0.25000000       0.00000000       0.00000000 </v>
   <v>       0.00000000       0.25000000       0.00000000 </v>
   <v>       0.75000004       0.25000000       0.25000000 </v>
   <v>       0.75000004       0.00000000       0.00000000 </v>
   <v>       0.50000000       0.00000000       0.25000000 </v>
   <v>       0.00000000       0.50000000       0.25000000 </v>
   <v>       0.50000000       0.75000004       0.00000000 </v>
   <v>       0.00000000       0.00000000       0.75000004 </v>
   <v>       0.75000004       0.25000000       0.75000004 </v>
   <v>       0.75000004       0.00000000       0.50000000 </v>
   <v>       0.50000000       0.25000000       0.50000000 </v>
   <v>       0.50000000       0.00000000       0.75000004 </v>
   <v>       0.00000000       0.00000000       0.25000000 </v>
   <v>       0.50000000       0.25000000       0.00000000 </v>
   <v>       0.25000000       0.75000004       0.25000000 </v>
   <v>       0.25000000       0.50000000       0.00000000 </v>
   <v>       0.00000000       0.75000004       0.00000000 </v>
   <v>       0.75000004       0.75000004       0.25000000 </v>
   <v>       0.75000004       0.50000000       0.00000000 </v>
   <v>       0.50000000       0.50000000       0.25000000 </v>
   <v>       0.25000000       0.25000000       0.75000004 </v>
   <v>       0.25000000       0.00000000       0.50000000 </v>
   <v>       0.00000000       0.25000000       0.50000000 </v>
   <v>       0.25000000       0.75000004       0.75000004 </v>
   <v>       0.25000000       0.50000000       0.50000000 </v>
   <v>       0.00000000       0.75000004       0.50000000 </v>
   <v>       0.00000000       0.50000000       0.75000004 </v>
   <v>       0.75000004       0.75000004       0.75000004 </v>
   <v>       0.75000004       0.50000000       0.50000000 </v>
   <v>       0.50000000       0.75000004       0.50000000 </v>
   <v>       0.50000000       0.50000000       0.75000004 </v>
   <v>       0.50000000       0.00000000       0.00000000 </v>
   <v>       0.00000000       0.50000000       0.00000000 </v>
   <v>       0.50000000       0.75000004       0.25000000 </v>
   <v>       0.25000000       0.00000000       0.75000004 </v>
   <v>       0.50000000       0.00000000       0.50000000 </v>
   <v>       0.75000004       0.00000000       0.75000004 </v>
   <v>       0.00000000       0.75000004       0.25000000 </v>
   <v>       0.75000004       0.50000000       0.25000000 </v>
   <v>       0.00000000       0.00000000       0.50000000 </v>
   <v>       0.50000000       0.50000000       0.50000000 </v>
   <v>       0.75000004       0.50000000       0.75000004 </v>
   <v>       0.75000004       0.75000004       0.50000000 </v>
  </varray>
 </structure>
 <calculation>
  <scstep>
   <time name="dav">   87.42   89.65</time>
   <time name="total">   87.48   89.72</time>
   <energy>
    <i name="alphaZ">   2191.02009080 </i>
    <i name="ewald"> -33420.33344935 </i>
    <i name="hartreedc"> -10678.55733937 </i>
    <i name="XCdc">   1691.40372628 </i>
    <i name="pawpsdc">  28336.56030777 </i>
    <i name="pawaedc"> -27860.30268255 </i>
    <i name="eentropy">     -0.09209521 </i>
    <i name="bandstr">  -2249.20973363 </i>
    <i name="atom">  46529.35698601 </i>
    <i name="e_fr_energy">   4539.84581074 </i>
    <i name="e_wo_entrp">   4539.93790595 </i>
    <i name="e_0_energy">   4539.89185835 </i>
   </energy>
  </scstep>
  <scstep>
   <time name="dav">   94.65   96.28</time>
   <time name="total">   94.65   96.29</time>
   <energy>
    <i name="e_fr_energy">     72.70068783 </i>
    <i name="e_wo_entrp">     72.90025765 </i>
    <i name="e_0_energy">     72.80047274 </i>
   </energy>
  </scstep>
  <scstep>
   <time name="dav">  132.28  132.97</time>
   <time name="total">  132.28  132.97</time>
   <energy>
    <i name="e_fr_energy">   -566.96153832 </i>
    <i name="e_wo_entrp">   -566.76243172 </i>
    <i name="e_0_energy">   -566.86198502 </i>
   </energy>
  </scstep>
  <scstep>
   <time name="dav">  124.69  125.21</time>
   <time name="total">  124.69  125.22</time>
   <energy>
    <i name="e_fr_energy">   -629.55682241 </i>
    <i name="e_wo_entrp">   -629.35668277 </i>
    <i name="e_0_energy">   -629.45675259 </i>
   </energy>
  </scstep>
  <scstep>
   <time name="dav">  152.72  154.25</time>
   <time name="total">  153.42  154.95</time>
   <energy>
    <i name="e_fr_energy">   -641.97588849 </i>
    <i name="e_wo_entrp">   -641.75808474 </i>
    <i name="e_0_energy">   -641.86698662 </i>
   </energy>
  </scstep>
  <scstep>
   <time name="diag">    3.04    3.06</time>
   <time name="diis">   90.88   91.26</time>
   <time name="orth">    0.72    0.72</time>
   <time name="total">   95.37   95.77</time>
   <energy>
    <i name="e_fr_energy">   -553.69509013 </i>
    <i name="e_wo_entrp">   -553.36439307 </i>
    <i name="e_0_energy">   -553.52974160 </i>
   </energy>
  </scstep>
  <scstep>
   <time name="diag">    3.03    3.03</time>
   <time name="diis">   87.14   87.48</time>
   <time name="orth">    0.73    0.73</time>
   <time name="total">   91.62   91.98</time>
   <energy>
    <i name="e_fr_energy">   -486.57065983 </i>
    <i name="e_wo_entrp">   -486.27191371 </i>
    <i name="e_0_energy">   -486.42128677 </i>
   </energy>
  </scstep>
  <scstep>
   <time name="diag">    3.01    3.07</time>
   <time name="diis">   92.99   93.46</time>
   <time name="orth">    0.72    0.72</time>
   <time name="total">   97.46   98.00</time>
   <energy>
    <i name="e_fr_energy">   -482.79181794 </i>
    <i name="e_wo_entrp">   -482.40850198 </i>
    <i name="e_0_energy">   -482.60015996 </i>
   </energy>
  </scstep>
  <scstep>
   <time name="diag">    3.04    3.06</time>
   <time name="diis">   90.59   94.35</time>
   <time name="orth">    0.71    0.72</time>
   <time name="total">   95.08   98.90</time>
   <energy>
    <i name="e_fr_energy">   -483.52507619 </i>
    <i name="e_wo_entrp">   -483.20351331 </i>
    <i name="e_0_energy">   -483.36429475 </i>
   </energy>
  </scstep>
  <scstep>
   <time name="diag">    3.02    3.03</time>
   <time name="diis">   95.08   95.39</time>
   <time name="orth">    0.72    0.73</time>
   <time name="total">   99.59   99.92</time>
   <energy>
    <i name="e_fr_energy">   -483.52697116 </i>
    <i name="e_wo_entrp">   -483.13021300 </i>
    <i name="e_0_energy">   -483.32859208 </i>
   </energy>
  </scstep>
  <scstep>
   <time name="diag">    3.05    3.05</time>
   <time name="diis">   92.61   92.99</time>
   <time name="orth">    0.74    0.74</time>
   <time name="total">   97.17   97.56</time>
   <energy>
    <i name="e_fr_energy">   -483.25386347 </i>
    <i name="e_wo_entrp">   -482.81845808 </i>
    <i name="e_0_energy">   -483.03616078 </i>
   </energy>
  </scstep>
  <scstep>
   <time name="diag">    3.04    3.05</time>
   <time name="diis">   92.73   93.11</time>
   <time name="orth">    0.72    0.72</time>
   <time name="total">   97.28   97.67</time>
   <energy>
    <i name="e_fr_energy">   -483.08045827 </i>
    <i name="e_wo_entrp">   -482.67379135 </i>
    <i name="e_0_energy">   -482.87712481 </i>
   </energy>
  </scstep>
  <scstep>
   <time name="diag">    3.03    3.04</time>
   <time name="diis">   93.21   93.56</time>
   <time name="orth">    0.72    0.72</time>
   <time name="total">   97.73   98.09</time>
   <energy>
    <i name="e_fr_energy">   -483.04639105 </i>
    <i name="e_wo_entrp">   -482.63736441 </i>
    <i name="e_0_energy">   -482.84187773 </i>
   </energy>
  </scstep>
  <scstep>
   <time name="diag">    3.04    3.06</time>
   <time name="diis">   94.58   95.08</time>
   <time name="orth">    0.71    0.72</time>
   <time name="total">   99.12   99.64</time>
   <energy>
    <i name="e_fr_energy">   -483.09082177 </i>
    <i name="e_wo_entrp">   -482.67872207 </i>
    <i name="e_0_energy">   -482.88477192 </i>
   </energy>
  </scstep>
  <scstep>
   <time name="diag">    3.02    3.06</time>
   <time name="diis">   91.30   93.46</time>
   <time name="orth">    0.76    0.77</time>
   <time name="total">   95.84   98.06</time>
   <energy>
    <i name="e_fr_energy">   -483.14616861 </i>
    <i name="e_wo_entrp">   -482.71430615 </i>
    <i name="e_0_energy">   -482.93023738 </i>
   </energy>
  </scstep>
  <scstep>
   <time name="diag">    3.06    3.07</time>
   <time name="diis">   95.86   96.28</time>
   <time name="orth">    0.72    0.72</time>
   <time name="total">  100.42  100.85</time>
   <energy>
    <i name="e_fr_energy">   -483.20262367 </i>
    <i name="e_wo_entrp">   -482.78308487 </i>
    <i name="e_0_energy">   -482.99285427 </i>
   </energy>
  </scstep>
  <scstep>
   <time name="diag">    3.04    3.04</time>
   <time name="diis">   94.65   95.23</time>
   <time name="orth">    0.72    0.72</time>
   <time name="total">   99.19   99.78</time>
   <energy>
    <i name="e_fr_energy">   -483.25433187 </i>
    <i name="e_wo_entrp">   -482.82949817 </i>
    <i name="e_0_energy">   -483.04191502 </i>
   </energy>
  </scstep>
  <scstep>
   <time name="diag">    3.05    3.05</time>
   <time name="diis">   94.71   95.06</time>
   <time name="orth">    0.72    0.72</time>
   <time name="total">   99.24   99.61</time>
   <energy>
    <i name="e_fr_energy">   -483.28376235 </i>
    <i name="e_wo_entrp">   -482.86023548 </i>
    <i name="e_0_energy">   -483.07199892 </i>
   </energy>
  </scstep>
  <scstep>
   <time name="diag">    3.07    3.07</time>
   <time name="diis">   95.94   96.32</time>
   <time name="orth">    0.72    0.72</time>
   <time name="total">  100.51  100.89</time>
   <energy>
    <i name="e_fr_energy">   -483.31507390 </i>
    <i name="e_wo_entrp">   -482.89045849 </i>
    <i name="e_0_energy">   -483.10276620 </i>
   </energy>
  </scstep>
  <scstep>
   <time name="diag">    3.05    3.06</time>
   <time name="diis">   92.51   94.33</time>
   <time name="orth">    0.72    0.72</time>
   <time name="total">   97.06   98.88</time>
   <energy>
    <i name="e_fr_energy">   -483.33820258 </i>
    <i name="e_wo_entrp">   -482.90880754 </i>
    <i name="e_0_energy">   -483.12350506 </i>
   </energy>
  </scstep>
  <scstep>
   <time name="diag">    3.04    3.05</time>
   <time name="diis">   91.77   92.86</time>
   <time name="orth">    0.72    0.72</time>
   <time name="total">   96.32   97.42</time>
   <energy>
    <i name="e_fr_energy">   -483.35917377 </i>
    <i name="e_wo_entrp">   -482.92658153 </i>
    <i name="e_0_energy">   -483.14287765 </i>
   </energy>
  </scstep>
  <scstep>
   <time name="diag">    3.07    3.07</time>
   <time name="diis">   92.93   93.41</time>
   <time name="orth">    0.72    0.72</time>
   <time name="total">   97.50   97.99</time>
   <energy>
    <i name="e_fr_energy">   -483.37765842 </i>
    <i name="e_wo_entrp">   -482.94315243 </i>
    <i name="e_0_energy">   -483.16040543 </i>
   </energy>
  </scstep>
  <scstep>
   <time name="diag">    3.03    3.03</time>
   <time name="diis">   93.20   93.72</time>
   <time name="orth">    0.72    0.72</time>
   <time name="total">   97.74   98.27</time>
   <energy>
    <i name="e_fr_energy">   -483.39406885 </i>
    <i name="e_wo_entrp">   -482.95872016 </i>
    <i name="e_0_energy">   -483.17639450 </i>
   </energy>
  </scstep>
  <scstep>
   <time name="diag">    3.04    3.08</time>
   <time name="diis">   89.60   90.06</time>
   <time name="orth">    0.72    0.72</time>
   <time name="total">   94.14   94.65</time>
   <energy>
    <i name="e_fr_energy">   -483.40760789 </i>
    <i name="e_wo_entrp">   -482.97191745 </i>
    <i name="e_0_energy">   -483.18976267 </i>
   </energy>
  </scstep>
  <scstep>
   <time name="diag">    3.10    3.12</time>
   <time name="diis">   90.09   90.51</time>
   <time name="orth">    0.72    0.72</time>
   <time name="total">   94.69   95.13</time>
   <energy>
    <i name="e_fr_energy">   -483.41887843 </i>
    <i name="e_wo_entrp">   -482.98143050 </i>
    <i name="e_0_energy">   -483.20015447 </i>
   </energy>
  </scstep>
  <scstep>
   <time name="diag">    3.07    3.08</time>
   <time name="diis">   91.39   91.83</time>
   <time name="orth">    0.72    0.72</time>
   <time name="total">   95.96   96.47</time>
   <energy>
    <i name="e_fr_energy">   -483.42755556 </i>
    <i name="e_wo_entrp">   -482.98963813 </i>
    <i name="e_0_energy">   -483.20859684 </i>
   </energy>
  </scstep>
  <scstep>
   <time name="diag">    3.07    3.17</time>
   <time name="diis">   88.12   88.99</time>
   <time name="orth">    0.72    0.72</time>
   <time name="total">   92.72   93.69</time>
   <energy>
    <i name="e_fr_energy">   -483.43559000 </i>
    <i name="e_wo_entrp">   -482.99712758 </i>
    <i name="e_0_energy">   -483.21635879 </i>
   </energy>
  </scstep>
  <scstep>
   <time name="diag">    3.03    3.04</time>
   <time name="diis">   87.33   87.75</time>
   <time name="orth">    0.72    0.72</time>
   <time name="total">   91.87   92.30</time>
   <energy>
    <i name="e_fr_energy">   -483.44206164 </i>
    <i name="e_wo_entrp">   -483.00297968 </i>
    <i name="e_0_energy">   -483.22252066 </i>
   </energy>
  </scstep>
  <scstep>
   <time name="diag">    3.05    3.06</time>
   <time name="diis">   81.35   81.70</time>
   <time name="orth">    0.72    0.72</time>
   <time name="total">   85.90   86.27</time>
   <energy>
    <i name="e_fr_energy">   -483.44789296 </i>
    <i name="e_wo_entrp">   -483.00794386 </i>
    <i name="e_0_energy">   -483.22791841 </i>
   </energy>
  </scstep>
  <scstep>
   <time name="diag">    3.05    3.05</time>
   <time name="diis">   79.71   80.08</time>
   <time name="orth">    0.75    0.76</time>
   <time name="total">   84.30   84.67</time>
   <energy>
    <i name="e_fr_energy">   -483.45259827 </i>
    <i name="e_wo_entrp">   -483.01205977 </i>
    <i name="e_0_energy">   -483.23232902 </i>
   </energy>
  </scstep>
  <scstep>
   <time name="diag">    3.11    3.12</time>
   <time name="diis">   79.44   80.36</time>
   <time name="orth">    0.71    0.72</time>
   <time name="total">   84.05   85.02</time>
   <energy>
    <i name="e_fr_energy">   -483.45675695 </i>
    <i name="e_wo_entrp">   -483.01558554 </i>
    <i name="e_0_energy">   -483.23617125 </i>
   </energy>
  </scstep>
  <scstep>
   <time name="diag">    3.06    3.09</time>
   <time name="diis">   77.64   79.16</time>
   <time name="orth">    0.72    0.72</time>
   <time name="total">   82.21   83.77</time>
   <energy>
    <i name="e_fr_energy">   -483.46021392 </i>
    <i name="e_wo_entrp">   -483.01856540 </i>
    <i name="e_0_energy">   -483.23938966 </i>
   </energy>
  </scstep>
  <scstep>
   <time name="diag">    3.00    3.07</time>
   <time name="diis">   80.85   81.41</time>
   <time name="orth">    0.72    0.72</time>
   <time name="total">   85.34   86.00</time>
   <energy>
    <i name="e_fr_energy">   -483.46327733 </i>
    <i name="e_wo_entrp">   -483.02115460 </i>
    <i name="e_0_energy">   -483.24221597 </i>
   </energy>
  </scstep>
  <scstep>
   <time name="diag">    3.04    3.05</time>
   <time name="diis">   80.41   80.82</time>
   <time name="orth">    0.72    0.72</time>
   <time name="total">   84.98   85.41</time>
   <energy>
    <i name="e_fr_energy">   -483.46584580 </i>
    <i name="e_wo_entrp">   -483.02321994 </i>
    <i name="e_0_energy">   -483.24453287 </i>
   </energy>
  </scstep>
  <scstep>
   <time name="diag">    3.05    3.06</time>
   <time name="diis">   75.28   75.79</time>
   <time name="orth">    0.72    0.72</time>
   <time name="total">   79.84   80.36</time>
   <energy>
    <i name="e_fr_energy">   -483.46810257 </i>
    <i name="e_wo_entrp">   -483.02502939 </i>
    <i name="e_0_energy">   -483.24656598 </i>
   </energy>
  </scstep>
  <scstep>
   <time name="diag">    3.01    3.08</time>
   <time name="diis">   73.32   73.79</time>
   <time name="orth">    0.72    0.72</time>
   <time name="total">   77.83   78.40</time>
   <energy>
    <i name="e_fr_energy">   -483.46998940 </i>
    <i name="e_wo_entrp">   -483.02653852 </i>
    <i name="e_0_energy">   -483.24826396 </i>
   </energy>
  </scstep>
  <scstep>
   <time name="diag">    3.04    3.05</time>
   <time name="diis">   70.19   70.54</time>
   <time name="orth">    0.71    0.72</time>
   <time name="total">   74.73   75.13</time>
   <energy>
    <i name="e_fr_energy">   -483.47166738 </i>
    <i name="e_wo_entrp">   -483.02785392 </i>
    <i name="e_0_energy">   -483.24976065 </i>
   </energy>
  </scstep>
  <scstep>
   <time name="diag">    3.04    3.05</time>
   <time name="diis">   69.79   70.30</time>
   <time name="orth">    0.71    0.71</time>
   <time name="total">   74.33   74.86</time>
   <energy>
    <i name="e_fr_energy">   -483.47309218 </i>
    <i name="e_wo_entrp">   -483.02900604 </i>
    <i name="e_0_energy">   -483.25104911 </i>
   </energy>
  </scstep>
  <scstep>
   <time name="diag">    3.04    3.05</time>
   <time name="diis">   64.73   64.98</time>
   <time name="orth">    0.78    0.79</time>
   <time name="total">   69.40   69.66</time>
   <energy>
    <i name="e_fr_energy">   -483.47434415 </i>
    <i name="e_wo_entrp">   -483.02998687 </i>
    <i name="e_0_energy">   -483.25216551 </i>
   </energy>
  </scstep>
  <scstep>
   <time name="diag">    3.11    3.13</time>
   <time name="diis">   65.44   65.78</time>
   <time name="orth">    0.71    0.71</time>
   <time name="total">   70.06   70.42</time>
   <energy>
    <i name="e_fr_energy">   -483.47541427 </i>
    <i name="e_wo_entrp">   -483.03078614 </i>
    <i name="e_0_energy">   -483.25310021 </i>
   </energy>
  </scstep>
  <scstep>
   <time name="diag">    3.04    3.04</time>
   <time name="diis">   65.85   66.13</time>
   <time name="orth">    0.74    0.74</time>
   <time name="total">   70.42   70.71</time>
   <energy>
    <i name="e_fr_energy">   -483.47635501 </i>
    <i name="e_wo_entrp">   -483.03152787 </i>
    <i name="e_0_energy">   -483.25394144 </i>
   </energy>
  </scstep>
  <scstep>
   <time name="diag">    2.99    3.06</time>
   <time name="diis">   59.55   59.96</time>
   <time name="orth">    0.72    0.73</time>
   <time name="total">   64.09   64.59</time>
   <energy>
    <i name="e_fr_energy">   -483.47716372 </i>
    <i name="e_wo_entrp">   -483.03209360 </i>
    <i name="e_0_energy">   -483.25462866 </i>
   </energy>
  </scstep>
  <scstep>
   <time name="diag">    3.07    3.09</time>
   <time name="diis">   54.89   55.17</time>
   <time name="orth">    0.71    0.71</time>
   <time name="total">   59.48   59.77</time>
   <energy>
    <i name="e_fr_energy">   -483.47787508 </i>
    <i name="e_wo_entrp">   -483.03255019 </i>
    <i name="e_0_energy">   -483.25521264 </i>
   </energy>
  </scstep>
  <scstep>
   <time name="diag">    3.05    3.06</time>
   <time name="diis">   56.00   56.39</time>
   <time name="orth">    0.72    0.72</time>
   <time name="total">   60.56   60.96</time>
   <energy>
    <i name="e_fr_energy">   -483.47848880 </i>
    <i name="e_wo_entrp">   -483.03297871 </i>
    <i name="e_0_energy">   -483.25573375 </i>
   </energy>
  </scstep>
  <scstep>
   <time name="diag">    3.06    3.07</time>
   <time name="diis">   50.23   51.65</time>
   <time name="orth">    0.72    0.72</time>
   <time name="total">   54.80   56.22</time>
   <energy>
    <i name="e_fr_energy">   -483.47902944 </i>
    <i name="e_wo_entrp">   -483.03332905 </i>
    <i name="e_0_energy">   -483.25617924 </i>
   </energy>
  </scstep>
  <scstep>
   <time name="diag">    3.03    3.04</time>
   <time name="diis">   53.17   53.37</time>
   <time name="orth">    0.72    0.72</time>
   <time name="total">   57.68   57.92</time>
   <energy>
    <i name="e_fr_energy">   -483.47949790 </i>
    <i name="e_wo_entrp">   -483.03365101 </i>
    <i name="e_0_energy">   -483.25657446 </i>
   </energy>
  </scstep>
  <scstep>
   <time name="diag">    3.05    3.05</time>
   <time name="diis">   52.73   52.94</time>
   <time name="orth">    0.72    0.72</time>
   <time name="total">   57.30   57.51</time>
   <energy>
    <i name="e_fr_energy">   -483.47990868 </i>
    <i name="e_wo_entrp">   -483.03389922 </i>
    <i name="e_0_energy">   -483.25690395 </i>
   </energy>
  </scstep>
  <scstep>
   <time name="diag">    3.07    3.08</time>
   <time name="diis">   54.05   54.16</time>
   <time name="orth">    0.71    0.72</time>
   <time name="total">   58.64   58.76</time>
   <energy>
    <i name="e_fr_energy">   -483.48026304 </i>
    <i name="e_wo_entrp">   -483.03412876 </i>
    <i name="e_0_energy">   -483.25719590 </i>
   </energy>
  </scstep>
  <scstep>
   <time name="diag">    3.06    3.06</time>
   <time name="diis">   53.06   53.16</time>
   <time name="orth">    0.72    0.72</time>
   <time name="total">   57.63   57.73</time>
   <energy>
    <i name="e_fr_energy">   -483.48057558 </i>
    <i name="e_wo_entrp">   -483.03432056 </i>
    <i name="e_0_energy">   -483.25744807 </i>
   </energy>
  </scstep>
  <scstep>
   <time name="diag">    3.05    3.05</time>
   <time name="diis">   53.44   53.55</time>
   <time name="orth">    0.72    0.72</time>
   <time name="total">   58.00   58.11</time>
   <energy>
    <i name="e_fr_energy">   -483.48084600 </i>
    <i name="e_wo_entrp">   -483.03448896 </i>
    <i name="e_0_energy">   -483.25766748 </i>
   </energy>
  </scstep>
  <scstep>
   <time name="diag">    3.04    3.05</time>
   <time name="diis">   51.93   52.09</time>
   <time name="orth">    0.72    0.72</time>
   <time name="total">   56.48   56.65</time>
   <energy>
    <i name="e_fr_energy">   -483.48108790 </i>
    <i name="e_wo_entrp">   -483.03461317 </i>
    <i name="e_0_energy">   -483.25785053 </i>
   </energy>
  </scstep>
  <scstep>
   <time name="diag">    3.04    3.04</time>
   <time name="diis">   54.12   54.20</time>
   <time name="orth">    0.72    0.72</time>
   <time name="total">   58.67   58.75</time>
   <energy>
    <i name="e_fr_energy">   -483.48129129 </i>
    <i name="e_wo_entrp">   -483.03475117 </i>
    <i name="e_0_energy">   -483.25802123 </i>
   </energy>
  </scstep>
  <scstep>
   <time name="diag">    3.05    3.05</time>
   <time name="diis">   56.60   56.85</time>
   <time name="orth">    0.71    0.72</time>
   <time name="total">   61.16   61.42</time>
   <energy>
    <i name="e_fr_energy">   -483.48147484 </i>
    <i name="e_wo_entrp">   -483.03488900 </i>
    <i name="e_0_energy">   -483.25818192 </i>
   </energy>
  </scstep>
  <scstep>
   <time name="diag">    3.05    3.05</time>
   <time name="diis">   52.45   54.03</time>
   <time name="orth">    0.72    0.72</time>
   <time name="total">   57.02   58.59</time>
   <energy>
    <i name="e_fr_energy">   -483.48163515 </i>
    <i name="e_wo_entrp">   -483.03497966 </i>
    <i name="e_0_energy">   -483.25830740 </i>
   </energy>
  </scstep>
  <scstep>
   <time name="diag">    3.04    3.04</time>
   <time name="diis">   51.19   51.40</time>
   <time name="orth">    0.73    0.73</time>
   <time name="total">   55.75   55.97</time>
   <energy>
    <i name="e_fr_energy">   -483.48177775 </i>
    <i name="e_wo_entrp">   -483.03505025 </i>
    <i name="e_0_energy">   -483.25841400 </i>
   </energy>
  </scstep>
  <scstep>
   <time name="diag">    3.12    3.17</time>
   <time name="diis">   53.33   53.43</time>
   <time name="orth">    0.72    0.72</time>
   <time name="total">   57.96   58.12</time>
   <energy>
    <i name="e_fr_energy">   -483.48190084 </i>
    <i name="e_wo_entrp">   -483.03511964 </i>
    <i name="e_0_energy">   -483.25851024 </i>
   </energy>
  </scstep>
  <scstep>
   <time name="diag">    3.03    3.08</time>
   <time name="diis">   50.92   51.06</time>
   <time name="orth">    0.71    0.71</time>
   <time name="total">   55.47   55.67</time>
   <energy>
    <i name="e_fr_energy">   -483.48201150 </i>
    <i name="e_wo_entrp">   -483.03516421 </i>
    <i name="e_0_energy">   -483.25858785 </i>
   </energy>
  </scstep>
  <scstep>
   <time name="diag">    3.11    3.12</time>
   <time name="diis">   51.53   51.67</time>
   <time name="orth">    0.73    0.73</time>
   <time name="total">   56.18   56.34</time>
   <energy>
    <i name="e_fr_energy">   -483.48210722 </i>
    <i name="e_wo_entrp">   -483.03520210 </i>
    <i name="e_0_energy">   -483.25865466 </i>
   </energy>
  </scstep>
  <scstep>
   <time name="diag">    3.07    3.08</time>
   <time name="diis">   51.29   51.41</time>
   <time name="orth">    0.72    0.72</time>
   <time name="total">   55.83   56.02</time>
   <energy>
    <i name="e_fr_energy">   -483.48219277 </i>
    <i name="e_wo_entrp">   -483.03523859 </i>
    <i name="e_0_energy">   -483.25871568 </i>
   </energy>
  </scstep>
  <scstep>
   <time name="diag">    3.05    3.06</time>
   <time name="diis">   51.60   51.86</time>
   <time name="orth">    0.72    0.72</time>
   <time name="total">   55.42   55.69</time>
   <energy>
    <i name="alphaZ">   2191.02009080 </i>
    <i name="ewald"> -33420.33344935 </i>
    <i name="hartreedc">  -9860.80604045 </i>
    <i name="XCdc">   1663.71961526 </i>
    <i name="pawpsdc">  26295.29028595 </i>
    <i name="pawaedc"> -25883.77579687 </i>
    <i name="eentropy">     -0.44699967 </i>
    <i name="bandstr">  -7997.50695911 </i>
    <i name="atom">  46529.35698601 </i>
    <i name="e_fr_energy">   -483.48226743 </i>
    <i name="e_wo_entrp">   -483.03526776 </i>
    <i name="e_0_energy">   -483.25876759 </i>
   </energy>
  </scstep>
  <structure>
   <crystal>
    <varray name="basis" >
     <v>      11.23999977       0.00000000       0.00000000 </v>
     <v>       0.00000000      11.23999977       0.00000000 </v>
     <v>       0.00000000       0.00000000      11.23999977 </v>
    </varray>
    <i name="volume">   1420.03453724 </i>
    <varray name="rec_basis" >
     <v>       0.08896797       0.00000000       0.00000000 </v>
     <v>       0.00000000       0.08896797       0.00000000 </v>
     <v>       0.00000000       0.00000000       0.08896797 </v>
    </varray>
   </crystal>
   <varray name="positions" >
    <v>       0.00000000       0.00000000       0.00000000 </v>
    <v>       0.25000000       0.00000000       0.25000000 </v>
    <v>       0.25000000       0.50000000       0.25000000 </v>
    <v>       0.50000000       0.50000000       0.00000000 </v>
    <v>       0.50000000       0.25000000       0.75000004 </v>
    <v>       0.00000000       0.50000000       0.50000000 </v>
    <v>       0.50000000       0.75000004       0.75000004 </v>
    <v>       0.00000000       0.25000000       0.25000000 </v>
    <v>       0.75000004       0.75000004       0.00000000 </v>
    <v>       0.00000000       0.25000000       0.75000004 </v>
    <v>       0.75000004       0.25000000       0.50000000 </v>
    <v>       0.00000000       0.75000004       0.75000004 </v>
    <v>       0.25000000       0.50000000       0.75000004 </v>
    <v>       0.25000000       0.25000000       0.00000000 </v>
    <v>       0.50000000       0.25000000       0.25000000 </v>
    <v>       0.75000004       0.00000000       0.25000000 </v>
    <v>       0.75000004       0.25000000       0.00000000 </v>
    <v>       0.25000000       0.75000004       0.00000000 </v>
    <v>       0.25000000       0.25000000       0.50000000 </v>
    <v>       0.25000000       0.75000004       0.50000000 </v>
    <v>       0.25000000       0.25000000       0.25000000 </v>
    <v>       0.25000000       0.00000000       0.00000000 </v>
    <v>       0.00000000       0.25000000       0.00000000 </v>
    <v>       0.75000004       0.25000000       0.25000000 </v>
    <v>       0.75000004       0.00000000       0.00000000 </v>
    <v>       0.50000000       0.00000000       0.25000000 </v>
    <v>       0.00000000       0.50000000       0.25000000 </v>
    <v>       0.50000000       0.75000004       0.00000000 </v>
    <v>       0.00000000       0.00000000       0.75000004 </v>
    <v>       0.75000004       0.25000000       0.75000004 </v>
    <v>       0.75000004       0.00000000       0.50000000 </v>
    <v>       0.50000000       0.25000000       0.50000000 </v>
    <v>       0.50000000       0.00000000       0.75000004 </v>
    <v>       0.00000000       0.00000000       0.25000000 </v>
    <v>       0.50000000       0.25000000       0.00000000 </v>
    <v>       0.25000000       0.75000004       0.25000000 </v>
    <v>       0.25000000       0.50000000       0.00000000 </v>
    <v>       0.00000000       0.75000004       0.00000000 </v>
    <v>       0.75000004       0.75000004       0.25000000 </v>
    <v>       0.75000004       0.50000000       0.00000000 </v>
    <v>       0.50000000       0.50000000       0.25000000 </v>
    <v>       0.25000000       0.25000000       0.75000004 </v>
    <v>       0.25000000       0.00000000       0.50000000 </v>
    <v>       0.00000000       0.25000000       0.50000000 </v>
    <v>       0.25000000       0.75000004       0.75000004 </v>
    <v>       0.25000000       0.50000000       0.50000000 </v>
    <v>       0.00000000       0.75000004       0.50000000 </v>
    <v>       0.00000000       0.50000000       0.75000004 </v>
    <v>       0.75000004       0.75000004       0.75000004 </v>
    <v>       0.75000004       0.50000000       0.50000000 </v>
    <v>       0.50000000       0.75000004       0.50000000 </v>
    <v>       0.50000000       0.50000000       0.75000004 </v>
    <v>       0.50000000       0.00000000       0.00000000 </v>
    <v>       0.00000000       0.50000000       0.00000000 </v>
    <v>       0.50000000       0.75000004       0.25000000 </v>
    <v>       0.25000000       0.00000000       0.75000004 </v>
    <v>       0.50000000       0.00000000       0.50000000 </v>
    <v>       0.75000004       0.00000000       0.75000004 </v>
    <v>       0.00000000       0.75000004       0.25000000 </v>
    <v>       0.75000004       0.50000000       0.25000000 </v>
    <v>       0.00000000       0.00000000       0.50000000 </v>
    <v>       0.50000000       0.50000000       0.50000000 </v>
    <v>       0.75000004       0.50000000       0.75000004 </v>
    <v>       0.75000004       0.75000004       0.50000000 </v>
   </varray>
  </structure>
  <varray name="forces" >
   <v>       0.00498590      -0.41936717       0.18798123 </v>
   <v>      -0.19126379      -0.47168578       0.33591491 </v>
   <v>       0.27489964       0.45906837      -0.02722829 </v>
   <v>       0.04603484      -0.24047031      -0.01418250 </v>
   <v>      -0.23843867       0.01159960       0.20388259 </v>
   <v>      -0.08480296       0.07142453       0.30384771 </v>
   <v>       0.06226674      -0.09308249      -0.32540268 </v>
   <v>      -0.13620394      -0.47773215       0.62258550 </v>
   <v>       0.41871342      -0.49343538      -0.00570874 </v>
   <v>       0.32451153       0.36651418      -0.64619748 </v>
   <v>       0.59470233       0.50682473       0.25575472 </v>
   <v>      -0.11162595      -0.35162752      -0.09421514 </v>
   <v>       0.09512362       0.03819221       0.03514668 </v>
   <v>       0.20559578       0.16030445      -0.47135055 </v>
   <v>       0.02623561       0.26869475      -0.19983526 </v>
   <v>       0.08470162      -0.55016482       0.06932493 </v>
   <v>      -0.25347616       0.31006038      -0.25648367 </v>
   <v>      -0.16688689      -0.13746376      -0.00228667 </v>
   <v>      -0.31364982      -0.12197103       0.45860514 </v>
   <v>       0.04471028       0.11653065       0.00625663 </v>
   <v>       0.09631210      -0.01149793      -0.06806539 </v>
   <v>       0.31411537       0.02290689      -0.22792027 </v>
   <v>       0.02126750       0.16720274       0.00950430 </v>
   <v>      -0.12502840      -0.39359574      -0.09491500 </v>
   <v>      -0.30755713       0.09041067       0.20878103 </v>
   <v>       0.54901994       0.32794041      -0.03289647 </v>
   <v>      -0.24395299      -0.37238227      -0.29065144 </v>
   <v>      -0.01595495       0.32703180       0.20378044 </v>
   <v>      -0.05476637       0.05613157      -0.15333794 </v>
   <v>       0.36832554      -0.12013695       0.07531457 </v>
   <v>      -0.03883552       0.32792835      -0.21920701 </v>
   <v>      -0.01441909      -0.03047196      -0.49697279 </v>
   <v>       0.04823281       0.03530481       0.02279862 </v>
   <v>      -0.46933593       0.38061215       0.24088051 </v>
   <v>       0.05092869      -0.57808056       0.46365378 </v>
   <v>       0.16230154       0.01637394      -0.08563804 </v>
   <v>      -0.45359845      -0.02579752      -0.40291666 </v>
   <v>      -0.19341850      -0.36062577      -0.28866644 </v>
   <v>      -0.15267168       0.20087998      -0.28009394 </v>
   <v>       0.40772905       0.11237494       0.05399375 </v>
   <v>       0.33474255       0.00327389       0.28543857 </v>
   <v>      -0.51038279       0.05039818       0.07329072 </v>
   <v>       0.20353627       0.06865031       0.46286578 </v>
   <v>      -0.19665627      -0.26009159       0.01468138 </v>
   <v>      -0.47432689      -0.07381668       0.08368905 </v>
   <v>       0.27845627      -0.07716480       0.42441186 </v>
   <v>       0.06160563       0.25601737       0.33142301 </v>
   <v>       0.17103839      -0.04894031       0.46528191 </v>
   <v>       0.47262339       0.23765477       0.27474130 </v>
   <v>      -0.25430481      -0.29717630      -0.03886487 </v>
   <v>      -0.03454109       0.21769179      -0.43183659 </v>
   <v>      -0.19149041      -0.00130740      -0.32796431 </v>
   <v>       0.08329808       0.47159967      -0.14636981 </v>
   <v>      -0.10133008       0.53831979      -0.52386560 </v>
   <v>       0.09156987      -0.54983672       0.57050877 </v>
   <v>       0.06615089      -0.02957280      -0.54633734 </v>
   <v>      -0.53874481      -0.65397163       0.15113165 </v>
   <v>      -0.10681913      -0.62884074      -0.06332001 </v>
   <v>      -0.07050567       0.42500313       0.05135417 </v>
   <v>      -0.37607488       0.70643233       0.04543009 </v>
   <v>       0.43649373      -0.06482575      -0.23063166 </v>
   <v>       0.13649448       0.56147140       0.06348922 </v>
   <v>      -0.08372374       0.54550244      -0.03264571 </v>
   <v>      -0.03193561      -0.52119332      -0.02973625 </v>
  </varray>
  <varray name="stress" >
   <v>    -436.66163410       0.00210998       0.13014926 </v>
   <v>       0.00210985    -438.91686394       0.09391737 </v>
   <v>       0.13014992       0.09391696    -436.26784087 </v>
  </varray>
  <energy>
   <i name="e_fr_energy">   -483.48226743 </i>
   <i name="e_wo_entrp">   -483.25876759 </i>
   <i name="e_0_energy">     -0.44699967 </i>
  </energy>
  <time name="totalsc"> 5098.27 5137.72</time>
 </calculation>
 <calculation>
  <scstep>
   <time name="dav">   92.58   94.39</time>
   <time name="total">   93.31   95.11</time>
   <energy>
    <i name="alphaZ">   6177.57054552 </i>
    <i name="ewald"> -47223.63129288 </i>
    <i name="hartreedc"> -13916.83655818 </i>
    <i name="XCdc">   2424.43193832 </i>
    <i name="pawpsdc">  26295.32738168 </i>
    <i name="pawaedc"> -25883.81357861 </i>
    <i name="eentropy">     -0.05458215 </i>
    <i name="bandstr">   1966.01118159 </i>
    <i name="atom">  46529.35698601 </i>
    <i name="e_fr_energy">  -3631.63797871 </i>
    <i name="e_wo_entrp">  -3631.58339656 </i>
    <i name="e_0_energy">  -3631.61068763 </i>
   </energy>
  </scstep>
  <scstep>
   <time name="diag">    3.07    3.09</time>
   <time name="diis">   97.89   98.16</time>
   <time name="orth">    0.72    0.72</time>
   <time name="total">  102.40  102.69</time>
   <energy>
    <i name="e_fr_energy">  -1376.70474363 </i>
    <i name="e_wo_entrp">  -1376.55497480 </i>
    <i name="e_0_energy">  -1376.62985921 </i>
   </energy>
  </scstep>
  <scstep>
   <time name="diag">    3.05    3.05</time>
   <time name="diis">   73.83   74.04</time>
   <time name="orth">    0.72    0.73</time>
   <time name="total">   78.33   78.54</time>
   <energy>
    <i name="e_fr_energy">   -537.11097181 </i>
    <i name="e_wo_entrp">   -536.99316752 </i>
    <i name="e_0_energy">   -537.05206966 </i>
   </energy>
  </scstep>
  <scstep>
   <time name="diag">    3.11    3.15</time>
   <time name="diis">   91.51   91.72</time>
   <time name="orth">    0.72    0.72</time>
   <time name="total">   96.07   96.32</time>
   <energy>
    <i name="e_fr_energy">   -566.22777444 </i>
    <i name="e_wo_entrp">   -566.14981585 </i>
    <i name="e_0_energy">   -566.18879515 </i>
   </energy>
  </scstep>
  <scstep>
   <time name="diag">    3.05    3.05</time>
   <time name="diis">  106.79  107.31</time>
   <time name="orth">    0.71    0.71</time>
   <time name="total">  111.27  111.79</time>
   <energy>
    <i name="e_fr_energy">   -562.10036135 </i>
    <i name="e_wo_entrp">   -561.99140296 </i>
    <i name="e_0_energy">   -562.04588215 </i>
   </energy>
  </scstep>
  <scstep>
   <time name="diag">    3.09    3.11</time>
   <time name="diis">  107.39  108.12</time>
   <time name="orth">    0.72    0.72</time>
   <time name="total">  111.92  112.66</time>
   <energy>
    <i name="e_fr_energy">   -569.19998821 </i>
    <i name="e_wo_entrp">   -569.09334359 </i>
    <i name="e_0_energy">   -569.14666590 </i>
   </energy>
  </scstep>
  <scstep>
   <time name="diag">    3.06    3.06</time>
   <time name="diis">  109.69  109.93</time>
   <time name="orth">    0.72    0.72</time>
   <time name="total">  114.19  114.44</time>
   <energy>
    <i name="e_fr_energy">   -571.08523196 </i>
    <i name="e_wo_entrp">   -570.97391525 </i>
    <i name="e_0_energy">   -571.02957361 </i>
   </energy>
  </scstep>
  <scstep>
   <time name="diag">    3.08    3.08</time>
   <time name="diis">  112.89  113.17</time>
   <time name="orth">    0.72    0.72</time>
   <time name="total">  117.41  117.70</time>
   <energy>
    <i name="e_fr_energy">   -573.71733606 </i>
    <i name="e_wo_entrp">   -573.60167556 </i>
    <i name="e_0_energy">   -573.65950581 </i>
   </energy>
  </scstep>
  <scstep>
   <time name="diag">    3.05    3.05</time>
   <time name="diis">  111.57  111.84</time>
   <time name="orth">    0.72    0.72</time>
   <time name="total">  116.06  116.34</time>
   <energy>
    <i name="e_fr_energy">   -574.85962278 </i>
    <i name="e_wo_entrp">   -574.74593161 </i>
    <i name="e_0_energy">   -574.80277720 </i>
   </energy>
  </scstep>
  <scstep>
   <time name="diag">    3.07    3.07</time>
   <time name="diis">  112.46  112.89</time>
   <time name="orth">    0.71    0.71</time>
   <time name="total">  116.96  117.38</time>
   <energy>
    <i name="e_fr_energy">   -575.92710160 </i>
    <i name="e_wo_entrp">   -575.81284273 </i>
    <i name="e_0_energy">   -575.86997217 </i>
   </energy>
  </scstep>
  <scstep>
   <time name="diag">    3.04    3.04</time>
   <time name="diis">  111.88  112.17</time>
   <time name="orth">    0.72    0.72</time>
   <time name="total">  116.36  116.65</time>
   <energy>
    <i name="e_fr_energy">   -576.96441825 </i>
    <i name="e_wo_entrp">   -576.84926009 </i>
    <i name="e_0_energy">   -576.90683917 </i>
   </energy>
  </scstep>
  <scstep>
   <time name="diag">    3.05    3.05</time>
   <time name="diis">  111.66  111.92</time>
   <time name="orth">    0.72    0.72</time>
   <time name="total">  116.15  116.41</time>
   <energy>
    <i name="e_fr_energy">   -577.10803098 </i>
    <i name="e_wo_entrp">   -576.99446792 </i>
    <i name="e_0_energy">   -577.05124945 </i>
   </energy>
  </scstep>
  <scstep>
   <time name="diag">    3.04    3.06</time>
   <time name="diis">  111.32  111.85</time>
   <time name="orth">    0.72    0.72</time>
   <time name="total">  115.80  116.36</time>
   <energy>
    <i name="e_fr_energy">   -577.25398093 </i>
    <i name="e_wo_entrp">   -577.14006316 </i>
    <i name="e_0_energy">   -577.19702205 </i>
   </energy>
  </scstep>
  <scstep>
   <time name="diag">    3.06    3.06</time>
   <time name="diis">  109.36  112.74</time>
   <time name="orth">    0.72    0.72</time>
   <time name="total">  113.85  117.24</time>
   <energy>
    <i name="e_fr_energy">   -577.32208716 </i>
    <i name="e_wo_entrp">   -577.20827075 </i>
    <i name="e_0_energy">   -577.26517896 </i>
   </energy>
  </scstep>
  <scstep>
   <time name="diag">    3.05    3.05</time>
   <time name="diis">  113.13  113.39</time>
   <time name="orth">    0.74    0.74</time>
   <time name="total">  117.68  117.95</time>
   <energy>
    <i name="e_fr_energy">   -577.36787621 </i>
    <i name="e_wo_entrp">   -577.25400339 </i>
    <i name="e_0_energy">   -577.31093980 </i>
   </energy>
  </scstep>
  <scstep>
   <time name="diag">    3.06    3.07</time>
   <time name="diis">  111.13  112.40</time>
   <time name="orth">    0.72    0.72</time>
   <time name="total">  115.64  116.92</time>
   <energy>
    <i name="e_fr_energy">   -577.38789920 </i>
    <i name="e_wo_entrp">   -577.27406921 </i>
    <i name="e_0_energy">   -577.33098421 </i>
   </energy>
  </scstep>
  <scstep>
   <time name="diag">    3.07    3.08</time>
   <time name="diis">  111.57  111.97</time>
   <time name="orth">    0.72    0.73</time>
   <time name="total">  116.08  116.49</time>
   <energy>
    <i name="e_fr_energy">   -577.40263196 </i>
    <i name="e_wo_entrp">   -577.28881343 </i>
    <i name="e_0_energy">   -577.34572269 </i>
   </energy>
  </scstep>
  <scstep>
   <time name="diag">    3.03    3.07</time>
   <time name="diis">  112.02  112.56</time>
   <time name="orth">    0.72    0.72</time>
   <time name="total">  116.48  117.07</time>
   <energy>
    <i name="e_fr_energy">   -577.40936523 </i>
    <i name="e_wo_entrp">   -577.29553739 </i>
    <i name="e_0_energy">   -577.35245131 </i>
   </energy>
  </scstep>
  <scstep>
   <time name="diag">    3.04    3.04</time>
   <time name="diis">  111.69  112.24</time>
   <time name="orth">    0.72    0.72</time>
   <time name="total">  116.17  116.72</time>
   <energy>
    <i name="e_fr_energy">   -577.41459357 </i>
    <i name="e_wo_entrp">   -577.30077341 </i>
    <i name="e_0_energy">   -577.35768349 </i>
   </energy>
  </scstep>
  <scstep>
   <time name="diag">    3.05    3.06</time>
   <time name="diis">  110.52  110.78</time>
   <time name="orth">    0.74    0.74</time>
   <time name="total">  115.03  115.30</time>
   <energy>
    <i name="e_fr_energy">   -577.41700222 </i>
    <i name="e_wo_entrp">   -577.30318500 </i>
    <i name="e_0_energy">   -577.36009361 </i>
   </energy>
  </scstep>
  <scstep>
   <time name="diag">    3.05    3.05</time>
   <time name="diis">  109.55  111.88</time>
   <time name="orth">    0.71    0.71</time>
   <time name="total">  114.03  116.36</time>
   <energy>
    <i name="e_fr_energy">   -577.41891487 </i>
    <i name="e_wo_entrp">   -577.30510497 </i>
    <i name="e_0_energy">   -577.36200992 </i>
   </energy>
  </scstep>
  <scstep>
   <time name="diag">    3.09    3.10</time>
   <time name="diis">  113.17  113.55</time>
   <time name="orth">    0.72    0.72</time>
   <time name="total">  117.69  118.09</time>
   <energy>
    <i name="e_fr_energy">   -577.41979512 </i>
    <i name="e_wo_entrp">   -577.30598993 </i>
    <i name="e_0_energy">   -577.36289252 </i>
   </energy>
  </scstep>
  <scstep>
   <time name="diag">    3.06    3.07</time>
   <time name="diis">  111.13  112.30</time>
   <time name="orth">    0.71    0.71</time>
   <time name="total">  115.63  116.81</time>
   <energy>
    <i name="e_fr_energy">   -577.42053621 </i>
    <i name="e_wo_entrp">   -577.30673258 </i>
    <i name="e_0_energy">   -577.36363439 </i>
   </energy>
  </scstep>
  <scstep>
   <time name="diag">    3.05    3.06</time>
   <time name="diis">  111.06  111.50</time>
   <time name="orth">    0.72    0.72</time>
   <time name="total">  115.55  116.00</time>
   <energy>
    <i name="e_fr_energy">   -577.42086097 </i>
    <i name="e_wo_entrp">   -577.30705985 </i>
    <i name="e_0_energy">   -577.36396041 </i>
   </energy>
  </scstep>
  <scstep>
   <time name="diag">    3.04    3.05</time>
   <time name="diis">  109.69  110.07</time>
   <time name="orth">    0.72    0.72</time>
   <time name="total">  114.17  114.57</time>
   <energy>
    <i name="e_fr_energy">   -577.42115649 </i>
    <i name="e_wo_entrp">   -577.30735877 </i>
    <i name="e_0_energy">   -577.36425763 </i>
   </energy>
  </scstep>
  <scstep>
   <time name="diag">    3.09    3.10</time>
   <time name="diis">  108.66  109.04</time>
   <time name="orth">    0.71    0.71</time>
   <time name="total">  113.18  113.58</time>
   <energy>
    <i name="e_fr_energy">   -577.42128901 </i>
    <i name="e_wo_entrp">   -577.30748822 </i>
    <i name="e_0_energy">   -577.36438862 </i>
   </energy>
  </scstep>
  <scstep>
   <time name="diag">    3.05    3.05</time>
   <time name="diis">  107.88  108.05</time>
   <time name="orth">    0.79    0.82</time>
   <time name="total">  112.48  112.68</time>
   <energy>
    <i name="e_fr_energy">   -577.42140930 </i>
    <i name="e_wo_entrp">   -577.30761021 </i>
    <i name="e_0_energy">   -577.36450975 </i>
   </energy>
  </scstep>
  <scstep>
   <time name="diag">    3.13    3.14</time>
   <time name="diis">  103.43  103.66</time>
   <time name="orth">    0.72    0.72</time>
   <time name="total">  108.02  108.26</time>
   <energy>
    <i name="e_fr_energy">   -577.42146127 </i>
    <i name="e_wo_entrp">   -577.30766284 </i>
    <i name="e_0_energy">   -577.36456206 </i>
   </energy>
  </scstep>
  <scstep>
   <time name="diag">    3.08    3.08</time>
   <time name="diis">  100.33  100.53</time>
   <time name="orth">    0.72    0.72</time>
   <time name="total">  104.85  105.05</time>
   <energy>
    <i name="e_fr_energy">   -577.42151550 </i>
    <i name="e_wo_entrp">   -577.30771686 </i>
    <i name="e_0_energy">   -577.36461618 </i>
   </energy>
  </scstep>
  <scstep>
   <time name="diag">    3.07    3.07</time>
   <time name="diis">   93.11   93.45</time>
   <time name="orth">    0.72    0.72</time>
   <time name="total">   97.62   97.96</time>
   <energy>
    <i name="e_fr_energy">   -577.42154004 </i>
    <i name="e_wo_entrp">   -577.30773965 </i>
    <i name="e_0_energy">   -577.36463985 </i>
   </energy>
  </scstep>
  <scstep>
   <time name="diag">    3.07    3.10</time>
   <time name="diis">   87.15   87.44</time>
   <time name="orth">    0.72    0.72</time>
   <time name="total">   91.66   91.98</time>
   <energy>
    <i name="e_fr_energy">   -577.42156204 </i>
    <i name="e_wo_entrp">   -577.30776193 </i>
    <i name="e_0_energy">   -577.36466198 </i>
   </energy>
  </scstep>
  <scstep>
   <time name="diag">    3.07    3.10</time>
   <time name="diis">   75.40   75.74</time>
   <time name="orth">    0.72    0.72</time>
   <time name="total">   79.92   80.28</time>
   <energy>
    <i name="e_fr_energy">   -577.42157102 </i>
    <i name="e_wo_entrp">   -577.30777080 </i>
    <i name="e_0_energy">   -577.36467091 </i>
   </energy>
  </scstep>
  <scstep>
   <time name="diag">    3.04    3.04</time>
   <time name="diis">   70.19   70.34</time>
   <time name="orth">    0.72    0.72</time>
   <time name="total">   74.67   74.82</time>
   <energy>
    <i name="e_fr_energy">   -577.42158059 </i>
    <i name="e_wo_entrp">   -577.30778041 </i>
    <i name="e_0_energy">   -577.36468050 </i>
   </energy>
  </scstep>
  <scstep>
   <time name="diag">    3.05    3.05</time>
   <time name="diis">   63.40   63.51</time>
   <time name="orth">    0.71    0.71</time>
   <time name="total">   67.22   67.33</time>
   <energy>
    <i name="alphaZ">   6177.57054552 </i>
    <i name="ewald"> -47223.63129288 </i>
    <i name="hartreedc">  -5065.37123177 </i>
    <i name="XCdc">   1910.16386786 </i>
    <i name="pawpsdc">  34737.51504971 </i>
    <i name="pawaedc"> -34287.90682402 </i>
    <i name="eentropy">     -0.11380014 </i>
    <i name="bandstr">  -3355.00488416 </i>
    <i name="atom">  46529.35698601 </i>
    <i name="e_fr_energy">   -577.42158388 </i>
    <i name="e_wo_entrp">   -577.30778375 </i>
    <i name="e_0_energy">   -577.36468381 </i>
   </energy>
  </scstep>
  <structure>
   <crystal>
    <varray name="basis" >
     <v>       7.96092831       0.00001584       0.00097734 </v>
     <v>       0.00001584       7.94399286       0.00070526 </v>
     <v>       0.00097735       0.00070526       7.96388546 </v>
    </varray>
    <i name="volume">    503.64851001 </i>
    <varray name="rec_basis" >
     <v>       0.12561349      -0.00000025      -0.00001542 </v>
     <v>      -0.00000025       0.12588128      -0.00001115 </v>
     <v>      -0.00001542      -0.00001115       0.12556685 </v>
    </varray>
   </crystal>
   <varray name="positions" >
    <v>       0.00002140      -0.00179995       0.00080683 </v>
    <v>       0.24917909      -0.00202450       0.25144176 </v>
    <v>       0.25117988       0.50197034       0.24988313 </v>
    <v>       0.50019758       0.49896789      -0.00006087 </v>
    <v>       0.49897661       0.25004979       0.75087512 </v>
    <v>      -0.00036398       0.50030656       0.50130413 </v>
    <v>       0.50026725       0.74960053       0.74860340 </v>
    <v>      -0.00058459       0.24794955       0.25267217 </v>
    <v>       0.75179718       0.74788219      -0.00002450 </v>
    <v>       0.00139282       0.25157310       0.74722653 </v>
    <v>       0.75255253       0.25217532       0.50109771 </v>
    <v>      -0.00047910       0.74849084       0.74959567 </v>
    <v>       0.25040828       0.50016392       0.75015089 </v>
    <v>       0.25088243       0.25068803      -0.00202306 </v>
    <v>       0.50011260       0.25115325       0.24914230 </v>
    <v>       0.75036359      -0.00236134       0.25029755 </v>
    <v>       0.74891211       0.25133080      -0.00110084 </v>
    <v>       0.24928371       0.74941004      -0.00000981 </v>
    <v>       0.24865380       0.24947649       0.50196836 </v>
    <v>       0.25019190       0.75050020       0.50002685 </v>
    <v>       0.25041338       0.24995065       0.24970786 </v>
    <v>       0.25134820       0.00009832      -0.00097825 </v>
    <v>       0.00009128       0.25071764       0.00004079 </v>
    <v>       0.74946341       0.24831067       0.24959262 </v>
    <v>       0.74867999       0.00038805       0.00089610 </v>
    <v>       0.50235642       0.00140754       0.24985881 </v>
    <v>      -0.00104706       0.49840172       0.24875251 </v>
    <v>       0.49993152       0.75140368       0.00087464 </v>
    <v>      -0.00023506       0.00024092       0.74934191 </v>
    <v>       0.75158091       0.24948437       0.75032330 </v>
    <v>       0.74983336       0.00140749       0.49905915 </v>
    <v>       0.49993811       0.24986921       0.49786697 </v>
[...]
      </set>
     </set>
    </set>
   </array>
  </eigenvalues>
  <separator name="orbital magnetization" >
   <v name="MAGDIPOLOUT">      0.00000000      0.00000000      0.00000000</v>
  </separator>
  <dos>
   <i name="efermi">      9.04786972 </i>
   <total>
    <array>
     <dimension dim="1">gridpoints</dimension>
     <dimension dim="2">spin</dimension>
     <field>energy</field>
     <field>total</field>
     <field>integrated</field>
     <set>
      <set comment="spin 1">
       <r>   -51.6517     0.0000     0.0000 </r>
       <r>   -51.4296     0.0000     0.0000 </r>
       <r>   -51.2075     0.0000     0.0000 </r>
       <r>   -50.9854     0.0000     0.0000 </r>
       <r>   -50.7633     0.0000     0.0000 </r>
       <r>   -50.5411     0.0000     0.0000 </r>
       <r>   -50.3190     0.0000     0.0000 </r>
       <r>   -50.0969     0.0000     0.0000 </r>
       <r>   -49.8748     0.0000     0.0000 </r>
       <r>   -49.6527     0.0000     0.0000 </r>
       <r>   -49.4306     0.0000     0.0000 </r>
       <r>   -49.2084     0.0000     0.0000 </r>
       <r>   -48.9863     0.0000     0.0000 </r>
       <r>   -48.7642     0.2075     0.0461 </r>
       <r>   -48.5421    12.7492     2.8779 </r>
       <r>   -48.3200    32.9671    10.2004 </r>
       <r>   -48.0979    14.4873    13.4183 </r>
       <r>   -47.8758     2.6181    13.9998 </r>
       <r>   -47.6536     0.0010    14.0000 </r>
       <r>   -47.4315     0.0000    14.0000 </r>
       <r>   -47.2094     0.0000    14.0000 </r>
       <r>   -46.9873     0.0003    14.0001 </r>
       <r>   -46.7652     3.0992    14.6884 </r>
       <r>   -46.5431    43.3484    24.3168 </r>
       <r>   -46.3209     7.5732    25.9989 </r>
       <r>   -46.0988     0.0048    26.0000 </r>
       <r>   -45.8767     0.0000    26.0000 </r>
       <r>   -45.6546     0.0000    26.0000 </r>
       <r>   -45.4325     0.0000    26.0000 </r>
       <r>   -45.2104     0.0000    26.0000 </r>
       <r>   -44.9882     0.0000    26.0000 </r>
       <r>   -44.7661     0.0000    26.0000 </r>
       <r>   -44.5440     0.0000    26.0000 </r>
       <r>   -44.3219     0.0000    26.0000 </r>
       <r>   -44.0998     0.0000    26.0000 </r>
       <r>   -43.8777     0.0000    26.0000 </r>
       <r>   -43.6556     0.0000    26.0000 </r>
       <r>   -43.4334     0.0000    26.0000 </r>
       <r>   -43.2113     0.0000    26.0000 </r>
       <r>   -42.9892     0.0000    26.0000 </r>
       <r>   -42.7671     0.0000    26.0000 </r>
       <r>   -42.5450     0.0000    26.0000 </r>
       <r>   -42.3229     0.0000    26.0000 </r>
       <r>   -42.1007     0.0000    26.0000 </r>
       <r>   -41.8786     0.0000    26.0000 </r>
       <r>   -41.6565     0.0000    26.0000 </r>
       <r>   -41.4344     0.0000    26.0000 </r>
       <r>   -41.2123     0.0000    26.0000 </r>
       <r>   -40.9902     0.0000    26.0000 </r>
       <r>   -40.7680     0.0000    26.0000 </r>
       <r>   -40.5459     0.0000    26.0000 </r>
       <r>   -40.3238     0.0000    26.0000 </r>
       <r>   -40.1017     0.0000    26.0000 </r>
       <r>   -39.8796     0.0000    26.0000 </r>
       <r>   -39.6575     0.0000    26.0000 </r>
       <r>   -39.4354     0.0000    26.0000 </r>
       <r>   -39.2132     0.0000    26.0000 </r>
       <r>   -38.9911     0.0000    26.0000 </r>
       <r>   -38.7690     0.0000    26.0000 </r>
       <r>   -38.5469     0.0000    26.0000 </r>
       <r>   -38.3248     0.0000    26.0000 </r>
       <r>   -38.1027     0.0000    26.0000 </r>
       <r>   -37.8805     0.0000    26.0000 </r>
       <r>   -37.6584     0.0000    26.0000 </r>
       <r>   -37.4363     0.0000    26.0000 </r>
       <r>   -37.2142     0.0000    26.0000 </r>
       <r>   -36.9921     0.0000    26.0000 </r>
       <r>   -36.7700     0.0000    26.0000 </r>
       <r>   -36.5478     0.0000    26.0000 </r>
       <r>   -36.3257     0.0000    26.0000 </r>
       <r>   -36.1036     0.0000    26.0000 </r>
       <r>   -35.8815     0.0000    26.0000 </r>
       <r>   -35.6594     0.0000    26.0000 </r>
       <r>   -35.4373     0.0000    26.0000 </r>
       <r>   -35.2152     0.0000    26.0000 </r>
       <r>   -34.9930     0.0000    26.0000 </r>
       <r>   -34.7709     0.0000    26.0000 </r>
       <r>   -34.5488     0.0000    26.0000 </r>
       <r>   -34.3267     0.0000    26.0000 </r>
       <r>   -34.1046     0.0000    26.0000 </r>
       <r>   -33.8825     0.0000    26.0000 </r>
       <r>   -33.6603     0.0000    26.0000 </r>
       <r>   -33.4382     0.0000    26.0000 </r>
       <r>   -33.2161     0.0000    26.0000 </r>
       <r>   -32.9940     0.0000    26.0000 </r>
       <r>   -32.7719     0.0000    26.0000 </r>
       <r>   -32.5498     0.0000    26.0000 </r>
       <r>   -32.3276     0.0000    26.0000 </r>
       <r>   -32.1055     0.0000    26.0000 </r>
       <r>   -31.8834     0.0000    26.0000 </r>
       <r>   -31.6613     0.0000    26.0000 </r>
       <r>   -31.4392     0.0000    26.0000 </r>
       <r>   -31.2171     0.0000    26.0000 </r>
       <r>   -30.9950     0.0000    26.0000 </r>
       <r>   -30.7728     0.5335    26.1185 </r>
       <r>   -30.5507    19.1575    30.3737 </r>
       <r>   -30.3286    48.8048    41.2140 </r>
       <r>   -30.1065    67.6953    56.2502 </r>
       <r>   -29.8844    25.8449    61.9908 </r>
       <r>   -29.6623     0.0416    62.0000 </r>
       <r>   -29.4401     0.0000    62.0000 </r>
       <r>   -29.2180     0.0000    62.0000 </r>
       <r>   -28.9959     0.0000    62.0000 </r>
       <r>   -28.7738     0.0000    62.0000 </r>
       <r>   -28.5517     0.0000    62.0000 </r>
       <r>   -28.3296     0.0000    62.0000 </r>
       <r>   -28.1074     0.0000    62.0000 </r>
       <r>   -27.8853     0.0000    62.0000 </r>
       <r>   -27.6632     0.0000    62.0000 </r>
       <r>   -27.4411     0.0000    62.0000 </r>
       <r>   -27.2190     0.0000    62.0000 </r>
       <r>   -26.9969     0.0000    62.0000 </r>
       <r>   -26.7748     0.0164    62.0036 </r>
       <r>   -26.5526     8.4381    63.8779 </r>
       <r>   -26.3305    50.7383    75.1477 </r>
       <r>   -26.1084    67.1673    90.0666 </r>
       <r>   -25.8863    27.4305    96.1593 </r>
       <r>   -25.6642     8.2798    97.9984 </r>
       <r>   -25.4421     0.0072    98.0000 </r>
       <r>   -25.2199     0.1852    98.0411 </r>
       <r>   -24.9978    18.3772   102.1230 </r>
       <r>   -24.7757    83.7133   120.7171 </r>
       <r>   -24.5536    63.6681   134.8588 </r>
       <r>   -24.3315    22.7704   139.9164 </r>
       <r>   -24.1094     0.3763   140.0000 </r>
       <r>   -23.8872     0.0000   140.0000 </r>
       <r>   -23.6651     0.0000   140.0000 </r>
       <r>   -23.4430     0.0000   140.0000 </r>
       <r>   -23.2209     0.1246   140.0277 </r>
       <r>   -22.9988    19.1725   144.2862 </r>
       <r>   -22.7767    68.8105   159.5701 </r>
       <r>   -22.5545    64.4144   173.8775 </r>
       <r>   -22.3324    12.1674   176.5801 </r>
       <r>   -22.1103    31.8777   183.6607 </r>
       <r>   -21.8882    41.3385   192.8426 </r>
       <r>   -21.6661    16.4962   196.5067 </r>
       <r>   -21.4440    57.0831   209.1857 </r>
       <r>   -21.2219    13.6151   212.2099 </r>
       <r>   -20.9997    22.8249   217.2796 </r>
       <r>   -20.7776     3.2428   217.9999 </r>
       <r>   -20.5555     0.0004   218.0000 </r>
       <r>   -20.3334     0.0000   218.0000 </r>
       <r>   -20.1113     0.0000   218.0000 </r>
       <r>   -19.8892     0.0000   218.0000 </r>
       <r>   -19.6670     0.0000   218.0000 </r>
       <r>   -19.4449     0.0000   218.0000 </r>
       <r>   -19.2228     0.0000   218.0000 </r>
       <r>   -19.0007     0.0000   218.0000 </r>
       <r>   -18.7786     0.0000   218.0000 </r>
       <r>   -18.5565     0.0000   218.0000 </r>
       <r>   -18.3343     0.0000   218.0000 </r>
       <r>   -18.1122     0.0000   218.0000 </r>
       <r>   -17.8901     0.0000   218.0000 </r>
       <r>   -17.6680     0.0000   218.0000 </r>
       <r>   -17.4459     0.0000   218.0000 </r>
       <r>   -17.2238     0.0000   218.0000 </r>
       <r>   -17.0017     0.0000   218.0000 </r>
       <r>   -16.7795     0.0000   218.0000 </r>
       <r>   -16.5574     0.0000   218.0000 </r>
       <r>   -16.3353     0.0000   218.0000 </r>
       <r>   -16.1132     0.0000   218.0000 </r>
       <r>   -15.8911     0.0000   218.0000 </r>
       <r>   -15.6690     0.0000   218.0000 </r>
       <r>   -15.4468     0.0000   218.0000 </r>
       <r>   -15.2247     0.0000   218.0000 </r>
       <r>   -15.0026     0.0000   218.0000 </r>
       <r>   -14.7805     0.0000   218.0000 </r>
       <r>   -14.5584     0.0000   218.0000 </r>
       <r>   -14.3363     0.0000   218.0000 </r>
       <r>   -14.1141     0.0000   218.0000 </r>
       <r>   -13.8920     0.0000   218.0000 </r>
       <r>   -13.6699     0.0000   218.0000 </r>
       <r>   -13.4478     0.0000   218.0000 </r>
       <r>   -13.2257     0.0000   218.0000 </r>
       <r>   -13.0036     0.0000   218.0000 </r>
       <r>   -12.7815     0.0000   218.0000 </r>
       <r>   -12.5593     0.0000   218.0000 </r>
       <r>   -12.3372     0.0000   218.0000 </r>
       <r>   -12.1151     0.0000   218.0000 </r>
       <r>   -11.8930     0.0000   218.0000 </r>
       <r>   -11.6709     0.0000   218.0000 </r>
       <r>   -11.4488     0.0000   218.0000 </r>
       <r>   -11.2266     0.0000   218.0000 </r>
       <r>   -11.0045     0.0000   218.0000 </r>
       <r>   -10.7824     0.0000   218.0000 </r>
       <r>   -10.5603     0.0000   218.0000 </r>
       <r>   -10.3382     0.0000   218.0000 </r>
       <r>   -10.1161     0.0000   218.0000 </r>
       <r>    -9.8939     0.0000   218.0000 </r>
       <r>    -9.6718     0.0000   218.0000 </r>
       <r>    -9.4497     0.0000   218.0000 </r>
       <r>    -9.2276     0.0000   218.0000 </r>
       <r>    -9.0055     0.0000   218.0000 </r>
       <r>    -8.7834     0.0000   218.0000 </r>
       <r>    -8.5613     0.0000   218.0000 </r>
       <r>    -8.3391     0.0000   218.0000 </r>
       <r>    -8.1170     0.0000   218.0000 </r>
       <r>    -7.8949     0.0922   218.0205 </r>
       <r>    -7.6728     3.8580   218.8774 </r>
       <r>    -7.4507     5.0065   219.9894 </r>
       <r>    -7.2286     6.1877   221.3638 </r>
       <r>    -7.0064     5.5328   222.5927 </r>
       <r>    -6.7843    12.0056   225.2594 </r>
       <r>    -6.5622    11.7575   227.8709 </r>
       <r>    -6.3401    16.7491   231.5911 </r>
       <r>    -6.1180    23.3745   236.7830 </r>
       <r>    -5.8959    26.8038   242.7365 </r>
       <r>    -5.6737     5.6834   243.9989 </r>
       <r>    -5.4516     0.0049   244.0000 </r>
       <r>    -5.2295     0.0000   244.0000 </r>
       <r>    -5.0074     0.0000   244.0000 </r>
       <r>    -4.7853     0.0000   244.0000 </r>
       <r>    -4.5632     0.0000   244.0000 </r>
       <r>    -4.3411     0.0000   244.0000 </r>
       <r>    -4.1189     0.0002   244.0000 </r>
       <r>    -3.8968     0.3975   244.0883 </r>
       <r>    -3.6747     5.8236   245.3819 </r>
       <r>    -3.4526     4.0103   246.2726 </r>
       <r>    -3.2305     8.0177   248.0535 </r>
       <r>    -3.0084     9.5364   250.1716 </r>
       <r>    -2.7862    17.8375   254.1336 </r>
       <r>    -2.5641    23.6313   259.3825 </r>
       <r>    -2.3420    21.7909   264.2226 </r>
       <r>    -2.1199    24.2478   269.6085 </r>
       <r>    -1.8978    18.0509   273.6179 </r>
       <r>    -1.6757    16.8440   277.3592 </r>
       <r>    -1.4535    13.2601   280.3045 </r>
       <r>    -1.2314     7.1396   281.8903 </r>
       <r>    -1.0093     0.4913   281.9994 </r>
       <r>    -0.7872     0.0028   282.0000 </r>
       <r>    -0.5651     0.0000   282.0000 </r>
       <r>    -0.3430     0.0000   282.0000 </r>
       <r>    -0.1209     0.0000   282.0000 </r>
       <r>     0.1013     0.0000   282.0000 </r>
       <r>     0.3234     0.0000   282.0000 </r>
       <r>     0.5455     0.1259   282.0280 </r>
       <r>     0.7676     1.4213   282.3437 </r>
       <r>     0.9897     5.6769   283.6046 </r>
       <r>     1.2118     9.7241   285.7645 </r>
       <r>     1.4340     9.9397   287.9722 </r>
       <r>     1.6561    11.6526   290.5605 </r>
       <r>     1.8782    16.5555   294.2377 </r>
       <r>     2.1003    22.7024   299.2803 </r>
       <r>     2.3224    26.4366   305.1522 </r>
       <r>     2.5445    26.1172   310.9533 </r>
       <r>     2.7667    26.2354   316.7806 </r>
       <r>     2.9888    32.7216   324.0486 </r>
       <r>     3.2109    32.4169   331.2489 </r>
       <r>     3.4330    35.8820   339.2188 </r>
       <r>     3.6551    40.5395   348.2233 </r>
       <r>     3.8772    49.0600   359.1203 </r>
       <r>     4.0993    57.8962   371.9799 </r>
       <r>     4.3215    62.8380   385.9373 </r>
       <r>     4.5436    61.6015   399.6199 </r>
       <r>     4.7657    58.7115   412.6607 </r>
       <r>     4.9878    56.8856   425.2959 </r>
       <r>     5.2099    48.2596   436.0151 </r>
       <r>     5.4320    39.7750   444.8498 </r>
       <r>     5.6542    30.8421   451.7003 </r>
       <r>     5.8763    28.9074   458.1211 </r>
       <r>     6.0984    27.1298   464.1470 </r>
       <r>     6.3205    13.9271   467.2405 </r>
       <r>     6.5426    18.4568   471.3400 </r>
       <r>     6.7647    10.0653   473.5757 </r>
       <r>     6.9869    10.1648   475.8334 </r>
       <r>     7.2090    13.3036   478.7884 </r>
       <r>     7.4311    14.1218   481.9250 </r>
       <r>     7.6532    14.0954   485.0559 </r>
       <r>     7.8753    18.2896   489.1183 </r>
       <r>     8.0974    17.3080   492.9627 </r>
       <r>     8.3195    15.2712   496.3546 </r>
       <r>     8.5417    14.9565   499.6767 </r>
       <r>     8.7638    21.6564   504.4869 </r>
       <r>     8.9859    23.3173   509.6661 </r>
       <r>     9.2080    20.0417   514.1176 </r>
       <r>     9.4301    23.5218   519.3422 </r>
       <r>     9.6522    26.1566   525.1520 </r>
       <r>     9.8744    30.3249   531.8876 </r>
       <r>    10.0965    38.8152   540.5091 </r>
       <r>    10.3186    40.5104   549.5071 </r>
       <r>    10.5407    45.9664   559.7170 </r>
       <r>    10.7628    47.8197   570.3385 </r>
       <r>    10.9849    53.8099   582.2906 </r>
       <r>    11.2071    52.6456   593.9840 </r>
       <r>    11.4292    51.0620   605.3257 </r>
       <r>    11.6513    47.4423   615.8633 </r>
       <r>    11.8734    30.1237   622.5543 </r>
       <r>    12.0955     6.4653   623.9904 </r>
       <r>    12.3176     0.0434   624.0000 </r>
       <r>    12.5397     0.0000   624.0000 </r>
       <r>    12.7619     0.0000   624.0000 </r>
       <r>    12.9840     0.0000   624.0000 </r>
       <r>    13.2061     0.0000   624.0000 </r>
       <r>    13.4282     0.0000   624.0000 </r>
       <r>    13.6503     0.0000   624.0000 </r>
       <r>    13.8724     0.0000   624.0000 </r>
       <r>    14.0946     0.0000   624.0000 </r>
       <r>    14.3167     0.0000   624.0000 </r>
       <r>    14.5388     0.0000   624.0000 </r>
       <r>    14.7609     0.0000   624.0000 </r>
       <r>    14.9830     0.0000   624.0000 </r>
      </set>
     </set>
    </array>
   </total>
  </dos>
 </calculation>
 <structure name="finalpos" >
  <crystal>
   <varray name="basis" >
    <v>       8.87589775       0.00586279       0.01957095 </v>
    <v>       0.00592980       8.94041267      -0.01391414 </v>
    <v>       0.01958566      -0.01381030       8.90326680 </v>
   </varray>
   <i name="volume">    706.50606759 </i>
   <varray name="rec_basis" >
    <v>       0.11266526      -0.00007511      -0.00024796 </v>
    <v>      -0.00007426       0.11185198       0.00017366 </v>
    <v>      -0.00024777       0.00017497       0.11231914 </v>
   </varray>
  </crystal>
  <varray name="positions" >
   <v>       0.00380533      -0.01587917       0.00512345 </v>
   <v>       0.24763126      -0.00744059       0.25507024 </v>
   <v>       0.25551884       0.50796858       0.24753514 </v>
   <v>       0.49858698       0.48637735      -0.00422004 </v>
   <v>       0.49146963       0.24557171       0.75557620 </v>
   <v>       0.00025444       0.49907222       0.50945107 </v>
   <v>       0.50183115       0.75033823       0.74244641 </v>
   <v>       0.00018191       0.24430350       0.26058276 </v>
   <v>       0.74951505       0.74830060       0.00291315 </v>
   <v>       0.00670393       0.24934482       0.74002979 </v>
   <v>       0.75508486       0.26163371       0.50519582 </v>
   <v>      -0.00151712       0.74800216       0.75211734 </v>
   <v>       0.25367009       0.49713632       0.75257187 </v>
   <v>       0.24517754       0.24658744       0.00028915 </v>
   <v>       0.49857691       0.25318358       0.24722396 </v>
   <v>       0.75002928      -0.00541889       0.25345828 </v>
   <v>       0.75424053       0.25179540      -0.00667339 </v>
   <v>       0.25975056       0.75456722      -0.00064356 </v>
   <v>       0.25116226       0.25053840       0.49879467 </v>
   <v>       0.24605971       0.74791459       0.50158877 </v>
   <v>       0.24878313       0.24930785       0.24862201 </v>
   <v>       0.25620351       0.00121863      -0.00023735 </v>
   <v>       0.00049901       0.24932571       0.00004518 </v>
   <v>       0.75105929       0.24725213       0.25128485 </v>
   <v>       0.75713261      -0.00013803       0.00611124 </v>
   <v>       0.49729148      -0.00173052       0.23929736 </v>
   <v>       0.00186092       0.49135196       0.24537049 </v>
   <v>       0.50625556       0.75813265       0.00079750 </v>
   <v>      -0.00785810       0.00255671       0.75525056 </v>
   <v>       0.75007438       0.24443124       0.74675911 </v>
   <v>       0.74022415       0.00544813       0.50620020 </v>
   <v>       0.50552216       0.24265176       0.50108381 </v>
   <v>       0.49899196       0.00235549       0.73339081 </v>
   <v>       0.00318237       0.00099403       0.24688638 </v>
   <v>       0.50068354       0.25462045      -0.00430905 </v>
   <v>       0.25407106       0.74919329       0.24977021 </v>
   <v>       0.24894646       0.50198837       0.00381325 </v>
   <v>       0.00221231       0.75370087      -0.00121379 </v>
   <v>       0.74801421       0.74817558       0.24937611 </v>
   <v>       0.75058345       0.50330170       0.00171859 </v>
   <v>       0.49612972       0.50375996       0.24726717 </v>
   <v>       0.25413715       0.25139366       0.75010935 </v>
   <v>       0.24800464      -0.00156360       0.49581760 </v>
   <v>      -0.00040929       0.25408335       0.50054619 </v>
   <v>       0.25161084       0.75316801       0.75093922 </v>
   <v>       0.24814620       0.49918076       0.49663013 </v>
   <v>      -0.00360282       0.74742762       0.50323981 </v>
   <v>       0.00049453       0.49939071       0.75074848 </v>
   <v>       0.74579887       0.75313071       0.75244682 </v>
   <v>       0.75487339       0.49865952       0.49989925 </v>
   <v>       0.49956940       0.74958891       0.50628439 </v>
   <v>       0.49938626       0.50053395       0.75152607 </v>
   <v>       0.51019703       0.01684735      -0.01534566 </v>
   <v>       0.00348617       0.51852421      -0.00801987 </v>
   <v>       0.49985343       0.74318475       0.26476096 </v>
   <v>       0.24656381       0.00578288       0.74310364 </v>
   <v>       0.48024149      -0.01599854       0.49337858 </v>
   <v>       0.73286609      -0.01628248       0.76967571 </v>
   <v>       0.00167721       0.75373305       0.24920699 </v>
   <v>       0.74230688       0.50623454       0.25073773 </v>
   <v>       0.00905481       0.00183932       0.49730883 </v>
   <v>       0.50045643       0.50860803       0.50285520 </v>
   <v>       0.74573200       0.51303834       0.75174613 </v>
   <v>       0.75195980       0.73770052       0.49668943 </v>
  </varray>
 </structure>
</modeling>
