HECN                                    
           1
    11.240000    0.000000    0.000000
     0.000000   11.240000    0.000000
     0.000000    0.000000   11.240000
   Ti   Ta   Hf   N    C    W    Nb
   7   6   7  13  19   6   6
Direct configuration=     1
   0.00000000  0.00000000  0.00000000
   0.25000000  0.00000000  0.25000000
   0.25000000  0.50000000  0.25000000
   0.50000000  0.50000000  0.00000000
   0.50000000  0.25000000  0.75000004
   0.00000000  0.50000000  0.50000000
   0.50000000  0.75000004  0.75000004
   0.00000000  0.25000000  0.25000000
   0.75000004  0.75000004  0.00000000
   0.00000000  0.25000000  0.75000004
   0.75000004  0.25000000  0.50000000
   0.00000000  0.75000004  0.75000004
   0.25000000  0.50000000  0.75000004
   0.25000000  0.25000000  0.00000000
   0.50000000  0.25000000  0.25000000
   0.75000004  0.00000000  0.25000000
   0.75000004  0.25000000  0.00000000
   0.25000000  0.75000004  0.00000000
   0.25000000  0.25000000  0.50000000
   0.25000000  0.75000004  0.50000000
   0.25000000  0.25000000  0.25000000
   0.25000000  0.00000000  0.00000000
   0.00000000  0.25000000  0.00000000
   0.75000004  0.25000000  0.25000000
   0.75000004  0.00000000  0.00000000
   0.50000000  0.00000000  0.25000000
   0.00000000  0.50000000  0.25000000
   0.50000000  0.75000004  0.00000000
   0.00000000  0.00000000  0.75000004
   0.75000004  0.25000000  0.75000004
   0.75000004  0.00000000  0.50000000
   0.50000000  0.25000000  0.50000000
   0.50000000  0.00000000  0.75000004
   0.00000000  0.00000000  0.25000000
   0.50000000  0.25000000  0.00000000
   0.25000000  0.75000004  0.25000000
   0.25000000  0.50000000  0.00000000
   0.00000000  0.75000004  0.00000000
   0.75000004  0.75000004  0.25000000
   0.75000004  0.50000000  0.00000000
   0.50000000  0.50000000  0.25000000
   0.25000000  0.25000000  0.75000004
   0.25000000  0.00000000  0.50000000
   0.00000000  0.25000000  0.50000000
   0.25000000  0.75000004  0.75000004
   0.25000000  0.50000000  0.50000000
   0.00000000  0.75000004  0.50000000
   0.00000000  0.50000000  0.75000004
   0.75000004  0.75000004  0.75000004
   0.75000004  0.50000000  0.50000000
   0.50000000  0.75000004  0.50000000
   0.50000000  0.50000000  0.75000004
   0.50000000  0.00000000  0.00000000
   0.00000000  0.50000000  0.00000000
   0.50000000  0.75000004  0.25000000
   0.25000000  0.00000000  0.75000004
   0.50000000  0.00000000  0.50000000
   0.75000004  0.00000000  0.75000004
   0.00000000  0.75000004  0.25000000
   0.75000004  0.50000000  0.25000000
   0.00000000  0.00000000  0.50000000
   0.50000000  0.50000000  0.50000000
   0.75000004  0.50000000  0.75000004
   0.75000004  0.75000004  0.50000000
HECN                                    
           1
     7.960928    0.000016    0.000977
     0.000016    7.943993    0.000705
     0.000977    0.000705    7.963885
   Ti   Ta   Hf   N    C    W    Nb
   7   6   7  13  19   6   6
Direct configuration=     2
   0.00002140 -0.00179995  0.00080683
   0.24917909 -0.00202450  0.25144176
   0.25117988  0.50197034  0.24988313
   0.50019758  0.49896789 -0.00006087
   0.49897661  0.25004979  0.75087512
  -0.00036398  0.50030656  0.50130413
   0.50026725  0.74960053  0.74860340
  -0.00058459  0.24794955  0.25267217
   0.75179718  0.74788219 -0.00002450
   0.00139282  0.25157310  0.74722653
   0.75255253  0.25217532  0.50109771
  -0.00047910  0.74849084  0.74959567
   0.25040828  0.50016392  0.75015089
   0.25088243  0.25068803 -0.00202306
   0.50011260  0.25115325  0.24914230
   0.75036359 -0.00236134  0.25029755
   0.74891211  0.25133080 -0.00110084
   0.24928371  0.74941004 -0.00000981
   0.24865380  0.24947649  0.50196836
   0.25019190  0.75050020  0.50002685
   0.25041338  0.24995065  0.24970786
   0.25134820  0.00009832 -0.00097825
   0.00009128  0.25071764  0.00004079
   0.74946341  0.24831067  0.24959262
   0.74867999  0.00038805  0.00089610
   0.50235642  0.00140754  0.24985881
  -0.00104706  0.49840172  0.24875251
   0.49993152  0.75140368  0.00087464
  -0.00023506  0.00024092  0.74934191
   0.75158091  0.24948437  0.75032330
   0.74983336  0.00140749  0.49905915
   0.49993811  0.24986921  0.49786697
   0.50020702  0.00015153  0.75009789
  -0.00201441  0.00163361  0.25103387
   0.50021859  0.24751885  0.00199003
   0.25069661  0.75007032  0.24963244
   0.24805313  0.49988928 -0.00172934
  -0.00083016  0.74845222 -0.00123897
   0.74934477  0.75086223  0.24879782
   0.75175004  0.50048232  0.00023174
   0.50143673  0.50001405  0.25122512
   0.24780941  0.25021631  0.75031461
   0.25087359  0.00029465  0.50198664
  -0.00084406  0.24888367  0.50006301
   0.24796416  0.74968322  0.75035924
   0.25119515  0.49966880  0.50182160
   0.00026441  0.75109888  0.50142248
   0.00073411  0.49978995  0.75199706
   0.75202857  0.75102007  0.75117925
   0.74890855  0.49872450  0.49983319
   0.49985175  0.75093439  0.49814654
   0.49917811  0.49999439  0.74859240
   0.50035752  0.00202413 -0.00062823
  -0.00043491  0.50231050 -0.00224846
   0.50039302  0.74764011  0.25244865
   0.25028392 -0.00012693  0.74765513
   0.49768768 -0.00280688  0.50064866
   0.74954157 -0.00269902  0.74972827
  -0.00030261  0.75182418  0.25022041
   0.74838591  0.50303204  0.25019499
   0.00187345 -0.00027824  0.49901012
   0.50058584  0.50240986  0.50027250
   0.74964070  0.50234132  0.74985992
   0.74986297  0.74776305  0.49987237
HECN                                    
           1
     9.024322    0.000011    0.000660
     0.000011    9.012879    0.000477
     0.000660    0.000477    9.026320
   Ti   Ta   Hf   N    C    W    Nb
   7   6   7  13  19   6   6
Direct configuration=     3
   0.00001165 -0.00097401  0.00043747
   0.24955504 -0.00109550  0.25078173
   0.25063964  0.50106625  0.24993677
   0.50010711  0.49944147 -0.00003304
   0.49944524  0.25002698  0.75047454
  -0.00019725  0.50016595  0.50070722
   0.50014481  0.74978379  0.74924265
  -0.00031678  0.24889051  0.25144899
   0.75097432  0.74885397 -0.00001327
   0.00075493  0.25085117  0.74849612
   0.75138388  0.25117722  0.50059552
  -0.00025976  0.74918332  0.74978066
   0.25022135  0.50008871  0.75008188
   0.25047827  0.25037225 -0.00109702
   0.50006100  0.25062405  0.24953492
   0.75019714 -0.00127782  0.25016128
   0.74941018  0.25072011 -0.00059699
   0.24961168  0.74968076 -0.00000539
   0.24927030  0.24971678  0.50106734
   0.25010404  0.75027070  0.50001459
   0.25022409  0.24997328  0.24984159
   0.25073084  0.00005317 -0.00053042
   0.00004949  0.25038835  0.00002216
   0.74970910  0.24908580  0.24977898
   0.74928446  0.00021003  0.00048589
   0.50127747  0.00076169  0.24992362
  -0.00056771  0.49913504  0.24932337
   0.49996293  0.75075966  0.00047437
  -0.00012747  0.00013035  0.74964313
   0.75085709  0.24972098  0.75017541
   0.74990963  0.00076162  0.49948983
   0.49996633  0.24992914  0.49884326
   0.50011224  0.00008200  0.75005313
  -0.00109201  0.00088407  0.25056062
   0.50011861  0.24865741  0.00107910
   0.25037763  0.75003806  0.24980071
   0.24894445  0.49994001 -0.00093793
  -0.00045012  0.74916239 -0.00067200
   0.74964473  0.75046657  0.24934806
   0.75094877  0.50026102  0.00012579
   0.50077896  0.50000766  0.25066446
   0.24881244  0.25011707  0.75017052
   0.25047371  0.00015953  0.50107741
  -0.00045758  0.24939590  0.50003408
   0.24889634  0.74982860  0.75019471
   0.25064802  0.49982085  0.50098790
   0.00014343  0.75059474  0.50077147
   0.00039809  0.49988641  0.75108305
   0.75109983  0.75055208  0.75063968
   0.74940831  0.49930976  0.49990943
   0.49991953  0.75050559  0.49899490
   0.49955435  0.49999691  0.74923664
   0.50019379  0.00109533 -0.00034058
  -0.00023590  0.50125023 -0.00121926
   0.50021320  0.74872307  0.25132782
   0.25015379 -0.00006878  0.74872842
   0.49874646 -0.00151892  0.50035152
   0.74975147 -0.00146058  0.74985253
  -0.00016404  0.75098718  0.25011959
   0.74912499  0.50164080  0.25010577
   0.00101559 -0.00015061  0.49946328
   0.50031762  0.50130411  0.50014791
   0.74980523  0.50126700  0.74992413
   0.74992572  0.74878949  0.49993069
HECN                                    
           1
     8.939314    0.000011    0.000686
     0.000011    8.927432    0.000495
     0.000686    0.000495    8.941389
   Ti   Ta   Hf   N    C    W    Nb
   7   6   7  13  19   6   6
Direct configuration=     4
   0.00001233 -0.00103220  0.00046352
   0.24952853 -0.00116096  0.25082828
   0.25067774  0.50112995  0.24993299
   0.50011349  0.49940810 -0.00003501
   0.49941220  0.25002858  0.75050279
  -0.00020900  0.50017586  0.50074932
   0.50015344  0.74977087  0.74919756
  -0.00033566  0.24882421  0.25153526
   0.75103234  0.74878550 -0.00001406
   0.00079991  0.25090203  0.74840658
   0.75146629  0.25124755  0.50063094
  -0.00027523  0.74913453  0.74976761
   0.25023453  0.50009401  0.75008675
   0.25050677  0.25039450 -0.00116233
   0.50006464  0.25066133  0.24950723
   0.75020888 -0.00135417  0.25017089
   0.74937506  0.25076314 -0.00063253
   0.24958855  0.74966169 -0.00000570
   0.24922683  0.24969986  0.50113088
   0.25011023  0.75028687  0.50001546
   0.25023743  0.24997169  0.24983216
   0.25077437  0.00005635 -0.00056200
   0.00005244  0.25041156  0.00002347
   0.74969177  0.24903118  0.24976583
   0.74924183  0.00022257  0.00051482
   0.50135356  0.00080719  0.24991905
  -0.00060152  0.49908337  0.24928310
   0.49996071  0.75080503  0.00050260
  -0.00013506  0.00013814  0.74962189
   0.75090814  0.24970431  0.75018584
   0.74990425  0.00080713  0.49945945
   0.49996434  0.24992491  0.49877440
   0.50011892  0.00008690  0.75005628
  -0.00115705  0.00093688  0.25059400
   0.50012567  0.24857719  0.00114334
   0.25040012  0.75004033  0.24978885
   0.24888160  0.49993643 -0.00099375
  -0.00047693  0.74911235 -0.00071199
   0.74962358  0.75049444  0.24930925
   0.75100528  0.50027661  0.00013327
   0.50082535  0.50000811  0.25070400
   0.24874171  0.25012406  0.75018068
   0.25050191  0.00016905  0.50114154
  -0.00048484  0.24935981  0.50003612
   0.24883060  0.74981836  0.75020631
   0.25068661  0.49981014  0.50104670
   0.00015196  0.75063026  0.50081739
   0.00042179  0.49987962  0.75114751
   0.75116532  0.75058505  0.75067774
   0.74937306  0.49926852  0.49990405
   0.49991474  0.75053580  0.49893507
   0.49952782  0.49999673  0.74919120
   0.50020533  0.00116077 -0.00036087
  -0.00024994  0.50132494 -0.00129185
   0.50022589  0.74864677  0.25140687
   0.25016296 -0.00007288  0.74865272
   0.49867180 -0.00160967  0.50037248
   0.74973667 -0.00154784  0.74984376
  -0.00017381  0.75104616  0.25012670
   0.74907287  0.50173882  0.25011207
   0.00107609 -0.00015960  0.49943132
   0.50033653  0.50138202  0.50015670
   0.74979362  0.50134270  0.74991961
   0.74992130  0.74871717  0.49992657
HECN                                    
           1
     8.891536    0.000011    0.000700
     0.000011    8.879407    0.000505
     0.000700    0.000505    8.893654
   Ti   Ta   Hf   N    C    W    Nb
   7   6   7  13  19   6   6
Direct configuration=     5
   0.00001273 -0.00106522  0.00047830
   0.24951349 -0.00119810  0.25085469
   0.25069936  0.50116610  0.24993085
   0.50011711  0.49938917 -0.00003612
   0.49939345  0.25002950  0.75051882
  -0.00021567  0.50018148  0.50077320
   0.50015834  0.74976355  0.74917198
  -0.00034637  0.24878659  0.25158421
   0.75106527  0.74874665 -0.00001451
   0.00082543  0.25093090  0.74835577
   0.75151306  0.25128745  0.50065104
  -0.00028400  0.74910684  0.74976021
   0.25024201  0.50009702  0.75008951
   0.25052294  0.25040712 -0.00119939
   0.50006670  0.25068249  0.24949152
   0.75021554 -0.00139749  0.25017634
   0.74935513  0.25078756 -0.00065269
   0.24957543  0.74965086 -0.00000588
   0.24920216  0.24969025  0.50116694
   0.25011375  0.75029605  0.50001595
   0.25024501  0.24997078  0.24982681
   0.25079908  0.00005815 -0.00057992
   0.00005411  0.25042472  0.00002422
   0.74968194  0.24900019  0.24975837
   0.74921765  0.00022969  0.00053124
   0.50139673  0.00083301  0.24991646
  -0.00062070  0.49905405  0.24926025
   0.49995946  0.75083078  0.00051862
  -0.00013936  0.00014256  0.74960983
   0.75093710  0.24969485  0.75019176
   0.74990119  0.00083295  0.49944222
   0.49996321  0.24992252  0.49873533
   0.50012271  0.00008968  0.75005808
  -0.00119396  0.00096685  0.25061293
   0.50012967  0.24853167  0.00117979
   0.25041288  0.75004162  0.24978211
   0.24884593  0.49993440 -0.00102542
  -0.00049213  0.74908395 -0.00073468
   0.74961157  0.75051026  0.24928723
   0.75103734  0.50028546  0.00013751
   0.50085167  0.50000836  0.25072644
   0.24870158  0.25012803  0.75018644
   0.25051791  0.00017446  0.50117793
  -0.00050030  0.24933933  0.50003727
   0.24879331  0.74981255  0.75021289
   0.25070850  0.49980406  0.50108007
   0.00015680  0.75065042  0.50084344
   0.00043524  0.49987576  0.75118409
   0.75120248  0.75060377  0.75069933
   0.74935307  0.49924512  0.49990099
   0.49991203  0.75055294  0.49890112
   0.49951276  0.49999662  0.74916542
   0.50021188  0.00119791 -0.00037238
  -0.00025791  0.50136732 -0.00133303
   0.50023309  0.74860347  0.25145172
   0.25016817 -0.00007521  0.74860977
   0.49862944 -0.00166116  0.50038436
   0.74972827 -0.00159736  0.74983878
  -0.00017936  0.75107962  0.25013074
   0.74904330  0.50179445  0.25011564
   0.00111041 -0.00016470  0.49941319
   0.50034727  0.50142623  0.50016169
   0.74978704  0.50138565  0.74991704
   0.74991879  0.74867613  0.49992424
HECN                                    
           1
     8.892964    0.000011    0.000700
     0.000011    8.880842    0.000505
     0.000700    0.000505    8.895080
   Ti   Ta   Hf   N    C    W    Nb
   7   6   7  13  19   6   6
Direct configuration=     6
   0.00001271 -0.00106423  0.00047785
   0.24951394 -0.00119698  0.25085390
   0.25069871  0.50116501  0.24993091
   0.50011700  0.49938974 -0.00003609
   0.49939401  0.25002947  0.75051834
  -0.00021547  0.50018131  0.50077249
   0.50015819  0.74976377  0.74917275
  -0.00034605  0.24878772  0.25158274
   0.75106428  0.74874781 -0.00001450
   0.00082466  0.25093003  0.74835730
   0.75151165  0.25128625  0.50065044
  -0.00028374  0.74910767  0.74976043
   0.25024178  0.50009693  0.75008943
   0.25052246  0.25040674 -0.00119828
   0.50006664  0.25068186  0.24949199
   0.75021534 -0.00139619  0.25017618
   0.74935573  0.25078682 -0.00065208
   0.24957582  0.74965119 -0.00000587
   0.24920290  0.24969054  0.50116585
   0.25011364  0.75029577  0.50001594
   0.25024478  0.24997081  0.24982697
   0.25079833  0.00005810 -0.00057938
   0.00005406  0.25042433  0.00002420
   0.74968224  0.24900112  0.24975860
   0.74921837  0.00022948  0.00053074
   0.50139543  0.00083224  0.24991654
  -0.00062012  0.49905493  0.24926094
   0.49995949  0.75083001  0.00051814
  -0.00013923  0.00014242  0.74961020
   0.75093623  0.24969513  0.75019158
   0.74990129  0.00083217  0.49944274
   0.49996324  0.24992259  0.49873650
   0.50012260  0.00008960  0.75005802
  -0.00119285  0.00096595  0.25061236
   0.50012955  0.24853303  0.00117870
   0.25041250  0.75004158  0.24978232
   0.24884700  0.49993446 -0.00102447
  -0.00049168  0.74908481 -0.00073400
   0.74961194  0.75050978  0.24928790
   0.75103638  0.50028519  0.00013738
   0.50085088  0.50000836  0.25072577
   0.24870278  0.25012791  0.75018627
   0.25051743  0.00017430  0.50117683
  -0.00049984  0.24933995  0.50003724
   0.24879443  0.74981272  0.75021269
   0.25070785  0.49980424  0.50107906
   0.00015666  0.75064981  0.50084266
   0.00043483  0.49987588  0.75118299
   0.75120137  0.75060320  0.75069868
   0.74935367  0.49924582  0.49990109
   0.49991211  0.75055243  0.49890214
   0.49951322  0.49999663  0.74916619
   0.50021169  0.00119679 -0.00037203
  -0.00025767  0.50136605 -0.00133180
   0.50023287  0.74860477  0.25145038
   0.25016801 -0.00007514  0.74861106
   0.49863071 -0.00165961  0.50038401
   0.74972852 -0.00159587  0.74983893
  -0.00017919  0.75107861  0.25013061
   0.74904419  0.50179278  0.25011553
   0.00110938 -0.00016455  0.49941374
   0.50034694  0.50142490  0.50016154
   0.74978724  0.50138436  0.74991711
   0.74991886  0.74867736  0.49992431
HECN                                    
           1
     8.861531    0.002801   -0.000135
     0.002797    8.924939    0.002266
    -0.000134    0.002274    8.857787
   Ti   Ta   Hf   N    C    W    Nb
   7   6   7  13  19   6   6
Direct configuration=     7
   0.00049255 -0.00447386  0.00285844
   0.24845371 -0.00328482  0.25243197
   0.25302668  0.50371631  0.24940062
   0.49991366  0.49630185 -0.00071601
   0.49825007  0.24914729  0.75168616
  -0.00080930  0.49991110  0.50324920
   0.50099000  0.74917338  0.74703388
  -0.00012228  0.24521787  0.25567935
   0.75173046  0.74704191 -0.00037033
   0.00120500  0.25243130  0.74469005
   0.75454666  0.25491153  0.50262211
  -0.00146204  0.74728799  0.74977672
   0.25243703  0.49960951  0.75096017
   0.25020997  0.24746418 -0.00074052
   0.49822029  0.25240474  0.24898156
   0.75047191 -0.00354929  0.24957466
   0.74907662  0.25044979 -0.00304403
   0.25140160  0.75173232  0.00067148
   0.24900857  0.24900934  0.50073380
   0.25109954  0.75110166  0.49934317
   0.24931001  0.25022972  0.24903874
   0.25006529 -0.00024907  0.00110306
   0.00070021  0.24823373  0.00001112
   0.74999543  0.24851080  0.25039305
   0.75075335 -0.00103045 -0.00121107
   0.49802654  0.00006767  0.24958014
   0.00187133  0.49713667  0.25093277
   0.50126036  0.74951387 -0.00146419
  -0.00004252  0.00026879  0.75260241
   0.74820903  0.24900086  0.74929813
   0.74893391  0.00191449  0.50092333
   0.50145152  0.24943765  0.50208530
   0.50002025  0.00017625  0.74998570
   0.00297656  0.00211361  0.24783731
   0.50024654  0.24916714 -0.00309455
   0.25207519  0.74981249  0.24933064
   0.24932455  0.50051958  0.00238366
  -0.00271401  0.75100910 -0.00182049
   0.74839749  0.74879977  0.24850006
   0.74954250  0.50314382  0.00055867
   0.49819087  0.50371663  0.24854138
   0.25127382  0.24935876  0.75082425
   0.25272825 -0.00007398  0.50016837
  -0.00237179  0.25253900  0.50031808
   0.25090277  0.75098081  0.75075381
   0.24857704  0.49983611  0.49803581
  -0.00170069  0.74796017  0.50239501
   0.00028338  0.49984700  0.74942513
   0.74850040  0.75219563  0.75136373
   0.75229548  0.49880782  0.49975892
   0.50145414  0.75220594  0.50052072
   0.49970674  0.50033637  0.75076267
   0.49979064  0.00682540 -0.00109513
  -0.00049069  0.50540683 -0.00539565
   0.50038925  0.74404078  0.25509256
   0.25018458  0.00034589  0.74582947
   0.49365328 -0.00592409  0.50146669
   0.74924384 -0.00605082  0.75075325
   0.00023554  0.75414523  0.25020889
   0.74651170  0.50569344  0.24978226
   0.00457875  0.00006359  0.49716969
   0.50034527  0.50473284  0.50136441
   0.74767058  0.50448057  0.75067003
   0.74950330  0.74515014  0.49949013
HECN                                    
           1
     8.843031    0.004442   -0.000626
     0.004436    8.950891    0.003303
    -0.000625    0.003315    8.835839
   Ti   Ta   Hf   N    C    W    Nb
   7   6   7  13  19   6   6
Direct configuration=     8
   0.00077670 -0.00647098  0.00426580
   0.24782800 -0.00450748  0.25336480
   0.25440112  0.50521004  0.24908704
   0.49979410  0.49449365 -0.00111751
   0.49757467  0.24863074  0.75237639
  -0.00115984  0.49975267  0.50471295
   0.50148127  0.74882774  0.74576991
   0.00001077  0.24312678  0.25810090
   0.75212421  0.74604282 -0.00058040
   0.00142915  0.25331084  0.74252254
   0.75633862  0.25703377  0.50378712
  -0.00215762  0.74622257  0.74978650
   0.25373371  0.49932357  0.75147496
   0.25002598  0.24574096 -0.00046966
   0.49712947  0.25341409  0.24867958
   0.75062380 -0.00481016  0.24921942
   0.74891171  0.25025275 -0.00445765
   0.25247959  0.75295065  0.00107166
   0.24889389  0.24861050  0.50047853
   0.25168163  0.75157351  0.49894552
   0.24875783  0.25038161  0.24857280
   0.24963249 -0.00042902  0.00209738
   0.00108224  0.24695076  0.00000368
   0.75018053  0.24822353  0.25076809
   0.75166006 -0.00176836 -0.00224026
   0.49603695 -0.00037942  0.24938123
   0.00334326  0.49601265  0.25192119
   0.50202879  0.74874311 -0.00263554
   0.00001475  0.00034242  0.75437081
   0.74659839  0.24859489  0.74877003
   0.74836244  0.00254832  0.50179818
   0.50233080  0.24915299  0.50406460
   0.49995979  0.00022702  0.74994294
   0.00543871  0.00278526  0.24619733
   0.50031528  0.24953896 -0.00562012
   0.25305721  0.74967807  0.24906381
   0.24960669  0.50086175  0.00439784
  -0.00402697  0.75213654 -0.00246296
   0.74768049  0.74779868  0.24803458
   0.74865970  0.50481811  0.00080724
   0.49661903  0.50588901  0.24724981
   0.25279249  0.24890778  0.75120153
   0.25403398 -0.00021967  0.49957251
  -0.00347797  0.25441275  0.50048358
   0.25214781  0.75166441  0.75107359
   0.24731838  0.49985553  0.49623711
  -0.00279708  0.74638523  0.50331267
   0.00019384  0.49983033  0.74838621
   0.74690491  0.75312861  0.75175644
   0.75403303  0.49855079  0.49967512
   0.50236466  0.75317380  0.50147720
   0.49982106  0.50053510  0.75170617
   0.49954089  0.01012178 -0.00152316
  -0.00062929  0.50777370 -0.00779789
   0.50048265  0.74136756  0.25724564
   0.25019414  0.00059278  0.74418549
   0.49071438 -0.00842065  0.50210678
   0.74895845 -0.00865974  0.75129410
   0.00047992  0.75594102  0.25025482
   0.74501524  0.50797825  0.24958470
   0.00662764  0.00019681  0.49584361
   0.50034374  0.50666989  0.50207493
   0.74641993  0.50629406  0.75111453
   0.74925849  0.74308466  0.49923392
HECN                                    
           1
     8.911505    0.001867    0.003342
     0.001865    8.949949   -0.002260
     0.003342   -0.002211    8.924375
   Ti   Ta   Hf   N    C    W    Nb
   7   6   7  13  19   6   6
Direct configuration=     9
   0.00129317 -0.01135969  0.00580107
   0.24733106 -0.00600465  0.25464135
   0.25510078  0.50783466  0.24866951
   0.49929659  0.48956778 -0.00272493
   0.49451795  0.24727635  0.75338340
  -0.00017575  0.50032049  0.50715762
   0.50139132  0.74891529  0.74357978
   0.00006305  0.24157260  0.26022672
   0.75096394  0.74550078  0.00024943
   0.00345736  0.25459245  0.74126695
   0.75594732  0.26130959  0.50428549
  -0.00196099  0.74414416  0.75018884
   0.25510451  0.49823734  0.75228254
   0.24768445  0.24440601 -0.00022494
   0.49737700  0.25589057  0.24867364
   0.74998056 -0.00647921  0.24926304
   0.75091065  0.25085785 -0.00556373
   0.25407072  0.75398840 -0.00000116
   0.24898169  0.24987379  0.50059479
   0.25015846  0.75045343  0.50035490
   0.24825005  0.25050914  0.24860733
   0.24945243 -0.00055506  0.00343067
   0.00043327  0.24636447  0.00009044
   0.75058077  0.24756611  0.25118884
   0.75266468 -0.00180113 -0.00248347
   0.49453766 -0.00062527  0.24884377
   0.00390816  0.49352141  0.25137526
   0.50349751  0.75050010 -0.00330298
  -0.00015215  0.00121392  0.75606774
   0.74547273  0.24754436  0.74761958
   0.74674209  0.00433840  0.50288186
   0.50444726  0.24772076  0.50527625
   0.50026413  0.00024745  0.74930830
   0.00623639  0.00211739  0.24487246
   0.50033150  0.25217368 -0.00659179
   0.25434421  0.74973644  0.24931513
   0.24855900  0.50105146  0.00553399
  -0.00246404  0.75331706 -0.00246272
   0.74759811  0.74835113  0.24774809
   0.74811831  0.50389129  0.00145395
   0.49517379  0.50555074  0.24632924
   0.25419601  0.24947852  0.75070789
   0.25343059 -0.00054095  0.49705149
  -0.00143558  0.25489589  0.50035745
   0.25310352  0.75197378  0.75082590
   0.24689390  0.49985795  0.49516972
  -0.00313956  0.74631246  0.50322527
   0.00050390  0.49943546  0.74730618
   0.74530272  0.75309699  0.75123499
   0.75500979  0.49829190  0.49920444
   0.50234655  0.75326173  0.50372188
   0.49921040  0.50081696  0.75266169
   0.50029003  0.01594395 -0.00330062
  -0.00024924  0.51303453 -0.01067556
   0.50014330  0.73762092  0.26079475
   0.24926351  0.00194691  0.74272013
   0.48727115 -0.01272816  0.50274113
   0.74849912 -0.01372875  0.75272177
   0.00108068  0.75831043  0.25032954
   0.74318526  0.50882714  0.24916010
   0.00947859 -0.00005865  0.49531214
   0.50030896  0.51045816  0.50211234
   0.74500964  0.51072208  0.75186688
   0.75080776  0.73913961  0.49754496
HECN                                    
           1
     8.898470    0.002357    0.002586
     0.002354    8.950129   -0.001201
     0.002587   -0.001159    8.907521
   Ti   Ta   Hf   N    C    W    Nb
   7   6   7  13  19   6   6
Direct configuration=    10
   0.00119601 -0.01042921  0.00551235
   0.24742512 -0.00571975  0.25440090
   0.25496844  0.50733501  0.24874795
   0.49939070  0.49050576 -0.00242144
   0.49509550  0.24753425  0.75319351
  -0.00036146  0.50021205  0.50669690
   0.50140812  0.74889888  0.74399253
   0.00005344  0.24186823  0.25982626
   0.75118320  0.74560394  0.00009300
   0.00307407  0.25434850  0.74150361
   0.75602104  0.26049554  0.50419102
  -0.00199799  0.74453978  0.75011327
   0.25484571  0.49844396  0.75213058
   0.24812684  0.24466025 -0.00027110
   0.49733010  0.25541910  0.24867448
   0.75010216 -0.00616144  0.24925496
   0.75053294  0.25074268 -0.00535517
   0.25377002  0.75379088  0.00020104
   0.24896505  0.24963327  0.50057273
   0.25044635  0.75066658  0.50008929
   0.24834597  0.25048488  0.24860076
   0.24948656 -0.00053121  0.00317939
   0.00055590  0.24647611  0.00007411
   0.75050524  0.24769119  0.25110965
   0.75247489 -0.00179492 -0.00243755
   0.49482084 -0.00057832  0.24894496
   0.00380154  0.49399571  0.25147849
   0.50321993  0.75016561 -0.00317727
  -0.00012053  0.00104782  0.75574781
   0.74568532  0.24774455  0.74783643
   0.74704815  0.00399758  0.50267727
   0.50404766  0.24799317  0.50504824
   0.50020658  0.00024362  0.74942793
   0.00608564  0.00224465  0.24512230
   0.50032821  0.25167221 -0.00640898
   0.25410112  0.74972523  0.24926787
   0.24875699  0.50101527  0.00531975
  -0.00275933  0.75309223 -0.00246277
   0.74761361  0.74824599  0.24780201
   0.74822068  0.50406769  0.00133213
   0.49544672  0.50561533  0.24650265
   0.25393083  0.24936985  0.75080097
   0.25354437 -0.00047946  0.49752660
  -0.00182141  0.25480381  0.50038133
   0.25292296  0.75191486  0.75087262
   0.24697399  0.49985764  0.49537085
  -0.00307487  0.74632634  0.50324172
   0.00044526  0.49951074  0.74750981
   0.74560532  0.75310316  0.75133314
   0.75482526  0.49834119  0.49929326
   0.50235016  0.75324473  0.50329882
   0.49932581  0.50076322  0.75248152
   0.50014806  0.01483572 -0.00296626
  -0.00032156  0.51203332 -0.01013380
   0.50020790  0.73833379  0.26012627
   0.24943910  0.00168934  0.74299606
   0.48792184 -0.01190800  0.50262180
   0.74858628 -0.01276388  0.75245326
   0.00096708  0.75785931  0.25031523
   0.74353085  0.50866568  0.24923987
   0.00894004 -0.00001011  0.49541258
   0.50031532  0.50973697  0.50210484
   0.74527585  0.50987908  0.75172444
   0.75051519  0.73989076  0.49786387
HECN                                    
           1
     8.868437   -0.001432    0.008289
    -0.001453    8.909850   -0.007756
     0.008294   -0.007683    8.891148
   Ti   Ta   Hf   N    C    W    Nb
   7   6   7  13  19   6   6
Direct configuration=    11
   0.00120392 -0.01482650  0.00583877
   0.24774883 -0.00655550  0.25516688
   0.25421058  0.50894166  0.24831941
   0.49866251  0.48585806 -0.00412401
   0.49124415  0.24616245  0.75410042
   0.00119929  0.50103696  0.50847864
   0.50083640  0.74966779  0.74239166
   0.00022036  0.24247727  0.26056026
   0.74990573  0.74620991  0.00149632
   0.00604738  0.25486821  0.74119544
   0.75518261  0.26391567  0.50376435
  -0.00159628  0.74301174  0.75061836
   0.25516144  0.49705637  0.75285470
   0.24544882  0.24507844  0.00012493
   0.49827188  0.25683706  0.24876576
   0.74884424 -0.00613646  0.24984746
   0.75297299  0.25130200 -0.00578607
   0.25568111  0.75374088 -0.00110348
   0.25008640  0.25138994  0.50046032
   0.24795430  0.74886081  0.50169640
   0.24829683  0.25036384  0.24904885
   0.25031814 -0.00031212  0.00365259
  -0.00059985  0.24693459 -0.00008623
   0.75086909  0.24712701  0.25138921
   0.75260248 -0.00109758 -0.00171082
   0.49511558 -0.00060835  0.24830232
   0.00283221  0.49186340  0.24930472
   0.50452584  0.75361015 -0.00254668
  -0.00073462  0.00221123  0.75599518
   0.74653680  0.24641648  0.74680001
   0.74519090  0.00574556  0.50374315
   0.50591686  0.24611719  0.50432571
   0.50096540  0.00018291  0.74822055
   0.00433360  0.00106904  0.24577316
   0.50014849  0.25502912 -0.00479148
   0.25497122  0.74995185  0.24965789
   0.24691001  0.50110251  0.00448924
  -0.00012260  0.75321980 -0.00197663
   0.74784109  0.74915928  0.24769368
   0.74870425  0.50187758  0.00161805
   0.49532873  0.50334290  0.24655939
   0.25379933  0.25052696  0.75026776
   0.25180450 -0.00066628  0.49557543
   0.00016568  0.25378507  0.50051555
   0.25265041  0.75186871  0.75063684
   0.24783170  0.49996639  0.49594326
  -0.00259033  0.74749954  0.50264375
   0.00074544  0.49928018  0.74767982
   0.74559185  0.75201444  0.75054204
   0.75461726  0.49849079  0.49897116
   0.50149556  0.75226958  0.50475044
   0.49873700  0.50097205  0.75234681
   0.50200834  0.01879146 -0.00533529
   0.00060451  0.51644946 -0.01173489
   0.49971143  0.73740402  0.26306370
   0.24814477  0.00391161  0.74182150
   0.48550534 -0.01462244  0.50277646
   0.74756590 -0.01802518  0.75474902
   0.00186101  0.75807509  0.25049879
   0.74265752  0.50695439  0.24885197
   0.01021508 -0.00052713  0.49554748
   0.50029727  0.51201253  0.50185698
   0.74458003  0.51436115  0.75224969
   0.75276394  0.73700511  0.49565407
HECN                                    
           1
     8.874089   -0.000719    0.007216
    -0.000736    8.917430   -0.006523
     0.007220   -0.006455    8.894229
   Ti   Ta   Hf   N    C    W    Nb
   7   6   7  13  19   6   6
Direct configuration=    12
   0.00120282 -0.01399532  0.00577784
   0.24768787 -0.00639765  0.25502263
   0.25435350  0.50863807  0.24839989