       N       E                     dE             d eps       ncg     rms          rms(c)
DAV:   1     0.316018852918E+04    0.31602E+04   -0.21132E+05  9072   0.126E+03
DAV:   2    -0.180322695278E+03   -0.33405E+04   -0.32511E+04  8976   0.368E+02
DAV:   3    -0.605808123275E+03   -0.42549E+03   -0.41329E+03 12096   0.967E+01
DAV:   4    -0.639151254750E+03   -0.33343E+02   -0.32011E+02 12744   0.278E+01
DAV:   5    -0.642159019016E+03   -0.30078E+01   -0.28996E+01 14400   0.677E+00    0.710E+01
RMM:   6    -0.641519063127E+03    0.63996E+00   -0.23185E+03 11332   0.763E+01    0.836E+01
RMM:   7    -0.497446009332E+03    0.14407E+03   -0.61509E+02 11028   0.363E+01    0.291E+01
RMM:   8    -0.508991103156E+03   -0.11545E+02   -0.18064E+02 11717   0.133E+01    0.512E+01
RMM:   9    -0.488565403552E+03    0.20426E+02   -0.42918E+01 12074   0.790E+00    0.288E+01
RMM:  10    -0.486248972005E+03    0.23164E+01   -0.19591E+01 11535   0.420E+00    0.282E+01
RMM:  11    -0.486992417278E+03   -0.74345E+00   -0.21049E+01 11543   0.471E+00    0.340E+01
RMM:  12    -0.482843790114E+03    0.41486E+01   -0.98273E+00 11654   0.336E+00    0.200E+01
RMM:  13    -0.482616754906E+03    0.22704E+00   -0.69591E+00 11607   0.337E+00    0.222E+01
RMM:  14    -0.481240017632E+03    0.13767E+01   -0.43172E+00 11590   0.255E+00    0.144E+01
RMM:  15    -0.482942339871E+03   -0.17023E+01   -0.71822E+00 11501   0.284E+00    0.278E+01
RMM:  16    -0.479989042125E+03    0.29533E+01   -0.22707E+00 11166   0.213E+00    0.106E+01
RMM:  17    -0.479820262696E+03    0.16878E+00   -0.92179E-01 11813   0.100E+00    0.915E+00
RMM:  18    -0.479630640061E+03    0.18962E+00   -0.83141E-01 11789   0.803E-01    0.450E+00
RMM:  19    -0.479608665850E+03    0.21974E-01   -0.37474E-01 12056   0.492E-01    0.434E+00
RMM:  20    -0.479748918334E+03   -0.14025E+00   -0.32949E-01 11801   0.617E-01    0.871E+00
RMM:  21    -0.479581605960E+03    0.16731E+00   -0.15937E-01 11702   0.494E-01    0.316E+00
RMM:  22    -0.479596233093E+03   -0.14627E-01   -0.13372E-01 12051   0.316E-01    0.325E+00
RMM:  23    -0.479607954235E+03   -0.11721E-01   -0.86767E-02 11790   0.371E-01    0.394E+00
RMM:  24    -0.479574534690E+03    0.33420E-01   -0.60267E-02 11915   0.254E-01    0.216E+00
RMM:  25    -0.479578566350E+03   -0.40317E-02   -0.49374E-02 11959   0.181E-01    0.221E+00
RMM:  26    -0.479565863594E+03    0.12703E-01   -0.32429E-02 11825   0.132E-01    0.140E+00
RMM:  27    -0.479561790064E+03    0.40735E-02   -0.19412E-02 11845   0.101E-01    0.668E-01
RMM:  28    -0.479561411288E+03    0.37878E-03   -0.10939E-02 11367   0.672E-02    0.164E-01
RMM:  29    -0.479561792199E+03   -0.38091E-03   -0.64670E-03 11016   0.399E-02    0.189E-01
RMM:  30    -0.479562039468E+03   -0.24727E-03   -0.38738E-03 11152   0.310E-02    0.134E-01
RMM:  31    -0.479562242632E+03   -0.20316E-03   -0.26762E-03 10131   0.205E-02    0.366E-02
RMM:  32    -0.479562363191E+03   -0.12056E-03   -0.14408E-03  6505   0.114E-02    0.313E-02
RMM:  33    -0.479562445582E+03   -0.82391E-04   -0.93891E-04  9248   0.118E-02    0.219E-02
RMM:  34    -0.479562501360E+03   -0.55778E-04   -0.57868E-04  7329   0.924E-03    0.274E-02
RMM:  35    -0.479562531977E+03   -0.30616E-04   -0.38819E-04  5643   0.615E-03    0.112E-02
RMM:  36    -0.479562551050E+03   -0.19073E-04   -0.23192E-04  5369   0.550E-03    0.882E-03
RMM:  37    -0.479562566110E+03   -0.15060E-04   -0.16299E-04  5076   0.505E-03    0.669E-03
RMM:  38    -0.479562575459E+03   -0.93487E-05   -0.99130E-05  4474   0.431E-03
   1 F= -.47956258E+03 E0= -.47929694E+03  d E =-.479563E+03
       N       E                     dE             d eps       ncg     rms          rms(c)
DAV:   1    -0.324919621503E+04   -0.27696E+04   -0.72728E+04  8400   0.830E+02    0.325E+02
RMM:   2    -0.118793002556E+04    0.20613E+04   -0.53052E+03 11334   0.191E+02    0.154E+02
RMM:   3    -0.601845123287E+03    0.58608E+03   -0.14008E+03  8236   0.103E+02    0.494E+01
RMM:   4    -0.591297618754E+03    0.10548E+02   -0.35218E+02  9516   0.424E+01    0.401E+01
RMM:   5    -0.600522102642E+03   -0.92245E+01   -0.15895E+02 12849   0.249E+01    0.362E+01
RMM:   6    -0.569509904175E+03    0.31012E+02   -0.63814E+01 11801   0.178E+01    0.114E+01
RMM:   7    -0.572321257536E+03   -0.28114E+01   -0.19323E+01 13522   0.728E+00    0.137E+01
RMM:   8    -0.572232029554E+03    0.89228E-01   -0.13706E+01 13775   0.641E+00    0.101E+01
RMM:   9    -0.572492694238E+03   -0.26066E+00   -0.53506E+00 13033   0.437E+00    0.772E+00
RMM:  10    -0.573290874216E+03   -0.79818E+00   -0.39118E+00 13623   0.322E+00    0.737E+00
RMM:  11    -0.573362922526E+03   -0.72048E-01   -0.32162E+00 12447   0.377E+00    0.461E+00
RMM:  12    -0.573276215377E+03    0.86707E-01   -0.99313E-01 13698   0.160E+00    0.276E+00
RMM:  13    -0.573244364213E+03    0.31851E-01   -0.51046E-01 13408   0.127E+00    0.171E+00
RMM:  14    -0.573210135870E+03    0.34228E-01   -0.19985E-01 13611   0.817E-01    0.813E-01
RMM:  15    -0.573205623919E+03    0.45120E-02   -0.38463E-02 13623   0.330E-01    0.615E-01
RMM:  16    -0.573200999224E+03    0.46247E-02   -0.13569E-02 13446   0.216E-01    0.215E-01
RMM:  17    -0.573200292798E+03    0.70643E-03   -0.41538E-03 13669   0.103E-01    0.155E-01
RMM:  18    -0.573200032004E+03    0.26079E-03   -0.13268E-03 13156   0.766E-02    0.974E-02
RMM:  19    -0.573199924854E+03    0.10715E-03   -0.43738E-04 13455   0.386E-02    0.482E-02
RMM:  20    -0.573199906031E+03    0.18824E-04   -0.18494E-04 12543   0.238E-02    0.201E-02
RMM:  21    -0.573199911265E+03   -0.52340E-05   -0.59203E-05  6585   0.134E-02
   2 F= -.57319991E+03 E0= -.57313886E+03  d E =-.936373E+02
       N       E                     dE             d eps       ncg     rms          rms(c)
DAV:   1    -0.113895800257E+04   -0.56576E+03   -0.89686E+03  9120   0.297E+02    0.191E+02
RMM:   2    -0.142782157557E+04   -0.28886E+03   -0.18804E+03  9483   0.950E+01    0.114E+02
RMM:   3    -0.869515406050E+03    0.55831E+03   -0.85919E+02 12356   0.512E+01    0.697E+01
RMM:   4    -0.723595277223E+03    0.14592E+03   -0.23421E+02 11897   0.265E+01    0.510E+01
RMM:   5    -0.665615088740E+03    0.57980E+02   -0.15264E+02 11169   0.223E+01    0.224E+01
RMM:   6    -0.665522435081E+03    0.92654E-01   -0.95554E+01 10925   0.136E+01    0.370E+01
RMM:   7    -0.658352427587E+03    0.71700E+01   -0.23121E+01 10806   0.921E+00    0.297E+01
RMM:   8    -0.654435623351E+03    0.39168E+01   -0.14949E+01 12234   0.590E+00    0.164E+01
RMM:   9    -0.651470920559E+03    0.29647E+01   -0.82805E+00 10884   0.558E+00    0.103E+01
RMM:  10    -0.651740508799E+03   -0.26959E+00   -0.34459E+00 12611   0.289E+00    0.124E+01
RMM:  11    -0.651044859731E+03    0.69565E+00   -0.19777E+00 12225   0.233E+00    0.549E+00
RMM:  12    -0.651057537378E+03   -0.12678E-01   -0.56886E-01 13443   0.933E-01    0.531E+00
RMM:  13    -0.650934998609E+03    0.12254E+00   -0.25181E-01 12242   0.848E-01    0.343E+00
RMM:  14    -0.651054986794E+03   -0.11999E+00   -0.77339E-01 11705   0.147E+00    0.360E+00
RMM:  15    -0.651153723046E+03   -0.98736E-01   -0.29195E-01 12507   0.879E-01    0.446E+00
RMM:  16    -0.651061037131E+03    0.92686E-01   -0.22332E-01 12088   0.779E-01    0.135E+00
RMM:  17    -0.651117095685E+03   -0.56059E-01   -0.20481E-01 11878   0.799E-01    0.307E+00
RMM:  18    -0.651066803763E+03    0.50292E-01   -0.47408E-02 12390   0.335E-01    0.170E+00
RMM:  19    -0.651045617093E+03    0.21187E-01   -0.76022E-02 11634   0.456E-01    0.562E-01
RMM:  20    -0.651043794478E+03    0.18226E-02   -0.12132E-02 12542   0.126E-01    0.264E-01
RMM:  21    -0.651049720892E+03   -0.59264E-02   -0.10778E-02 11984   0.156E-01    0.867E-01
RMM:  22    -0.651043615926E+03    0.61050E-02   -0.60765E-03 10616   0.153E-01    0.218E-01
RMM:  23    -0.651044312196E+03   -0.69627E-03   -0.91415E-03 11169   0.131E-01    0.307E-01
RMM:  24    -0.651043513688E+03    0.79851E-03   -0.49432E-04 10386   0.414E-02    0.136E-01
RMM:  25    -0.651043388228E+03    0.12546E-03   -0.26854E-04 10404   0.242E-02    0.897E-02
RMM:  26    -0.651043329658E+03    0.58569E-04   -0.29368E-04 10091   0.249E-02    0.206E-02
RMM:  27    -0.651043325102E+03    0.45566E-05   -0.23621E-05  5673   0.987E-03
   3 F= -.65104333E+03 E0= -.65095452E+03  d E =-.171481E+03
       N       E                     dE             d eps       ncg     rms          rms(c)
DAV:   1    -0.654459078288E+03   -0.34157E+01   -0.48503E+01  9792   0.208E+01    0.143E+01
RMM:   2    -0.682292547983E+03   -0.27833E+02   -0.77593E+01  9070   0.173E+01    0.566E+01
RMM:   3    -0.652554178196E+03    0.29738E+02   -0.14021E+01  8799   0.846E+00    0.569E+00
RMM:   4    -0.652486219955E+03    0.67958E-01   -0.24693E+00 10538   0.222E+00    0.788E+00
RMM:   5    -0.652057708833E+03    0.42851E+00   -0.77891E-01  9490   0.170E+00    0.423E+00
RMM:   6    -0.651918713052E+03    0.13900E+00   -0.37268E-01 10555   0.111E+00    0.224E+00
RMM:   7    -0.651933945520E+03   -0.15232E-01   -0.19954E-01 11614   0.869E-01    0.322E+00
RMM:   8    -0.651865429513E+03    0.68516E-01   -0.72669E-02 11230   0.512E-01    0.727E-01
RMM:   9    -0.651863313368E+03    0.21161E-02   -0.24171E-02 12618   0.228E-01    0.681E-01
RMM:  10    -0.651862641037E+03    0.67233E-03   -0.10148E-02 12251   0.168E-01    0.549E-01
RMM:  11    -0.651861403137E+03    0.12379E-02   -0.42187E-03 12387   0.959E-02    0.259E-01
RMM:  12    -0.651862005897E+03   -0.60276E-03   -0.21302E-03 12350   0.595E-02    0.244E-01
RMM:  13    -0.651863227385E+03   -0.12215E-02   -0.21755E-03 11620   0.758E-02    0.346E-01
RMM:  14    -0.651863158049E+03    0.69337E-04   -0.19983E-03 11879   0.722E-02    0.765E-02
RMM:  15    -0.651863306870E+03   -0.14882E-03   -0.10022E-03 11479   0.396E-02    0.985E-02
RMM:  16    -0.651863292390E+03    0.14481E-04   -0.43129E-04 11083   0.311E-02    0.927E-02
RMM:  17    -0.651863245219E+03    0.47171E-04   -0.16381E-04 10175   0.189E-02    0.283E-02
RMM:  18    -0.651863236891E+03    0.83276E-05   -0.38807E-05  7335   0.101E-02
   4 F= -.65186324E+03 E0= -.65177789E+03  d E =-.172301E+03
       N       E                     dE             d eps       ncg     rms          rms(c)
DAV:   1    -0.652716201309E+03   -0.85296E+00   -0.13660E+01  9792   0.111E+01    0.799E+00
RMM:   2    -0.661655505769E+03   -0.89393E+01   -0.20429E+01  9171   0.882E+00    0.345E+01
RMM:   3    -0.652225322205E+03    0.94302E+01   -0.44192E+00  8843   0.470E+00    0.325E+00
RMM:   4    -0.652167962852E+03    0.57359E-01   -0.79856E-01 10479   0.129E+00    0.439E+00
RMM:   5    -0.652038951987E+03    0.12901E+00   -0.22689E-01  9792   0.868E-01    0.231E+00
RMM:   6    -0.651993308920E+03    0.45643E-01   -0.11138E-01 10282   0.633E-01    0.148E+00
RMM:   7    -0.651990547715E+03    0.27612E-02   -0.58734E-02 11448   0.488E-01    0.153E+00
RMM:   8    -0.651974743163E+03    0.15805E-01   -0.25135E-02 11750   0.285E-01    0.398E-01
RMM:   9    -0.651973365083E+03    0.13781E-02   -0.72711E-03 12338   0.127E-01    0.343E-01
RMM:  10    -0.651973108294E+03    0.25679E-03   -0.28761E-03 11928   0.858E-02    0.266E-01
RMM:  11    -0.651972982768E+03    0.12553E-03   -0.12163E-03 11568   0.515E-02    0.145E-01
RMM:  12    -0.651973083850E+03   -0.10108E-03   -0.50426E-04 11158   0.295E-02    0.123E-01
RMM:  13    -0.651973574291E+03   -0.49044E-03   -0.61737E-04 11525   0.400E-02    0.208E-01
RMM:  14    -0.651973545043E+03    0.29248E-04   -0.57631E-04 11332   0.410E-02    0.531E-02
RMM:  15    -0.651973585945E+03   -0.40902E-04   -0.31619E-04 10832   0.234E-02    0.383E-02
RMM:  16    -0.651973582690E+03    0.32554E-05   -0.13714E-04  9986   0.172E-02    0.262E-02
RMM:  17    -0.651973580110E+03    0.25791E-05   -0.41567E-05  7599   0.114E-02
   5 F= -.65197358E+03 E0= -.65188997E+03  d E =-.172411E+03
       N       E                     dE             d eps       ncg     rms          rms(c)
DAV:   1    -0.651867319663E+03    0.10626E+00   -0.43057E+02  8064   0.639E+01    0.416E+00
RMM:   2    -0.655118263613E+03   -0.32509E+01   -0.31250E+01  8736   0.133E+01    0.835E+00
RMM:   3    -0.654325300964E+03    0.79296E+00   -0.27563E+00 11060   0.461E+00    0.449E+00
RMM:   4    -0.654143329381E+03    0.18197E+00   -0.63817E-01 11778   0.168E+00    0.257E+00
RMM:   5    -0.654126031558E+03    0.17298E-01   -0.28626E-01 11339   0.944E-01    0.305E+00
RMM:   6    -0.654088028955E+03    0.38003E-01   -0.24050E-01 11028   0.813E-01    0.221E+00
RMM:   7    -0.654046430950E+03    0.41598E-01   -0.99170E-02 10543   0.538E-01    0.118E+00
RMM:   8    -0.654038294478E+03    0.81365E-02   -0.38274E-02 10092   0.383E-01    0.112E+00
RMM:   9    -0.654031389716E+03    0.69048E-02   -0.19435E-02 11066   0.233E-01    0.607E-01
RMM:  10    -0.654032224663E+03   -0.83495E-03   -0.11626E-02 11395   0.184E-01    0.704E-01
RMM:  11    -0.654028322081E+03    0.39026E-02   -0.41474E-03 10783   0.118E-01    0.155E-01
RMM:  12    -0.654028241868E+03    0.80213E-04   -0.13865E-03 11509   0.491E-02    0.141E-01
RMM:  13    -0.654028294086E+03   -0.52218E-04   -0.77372E-04 11205   0.449E-02    0.150E-01
RMM:  14    -0.654028167762E+03    0.12632E-03   -0.46852E-04 11204   0.333E-02    0.546E-02
RMM:  15    -0.654028217378E+03   -0.49616E-04   -0.17836E-04 10328   0.227E-02    0.870E-02
RMM:  16    -0.654028168035E+03    0.49343E-04   -0.80273E-05  9467   0.175E-02    0.221E-02
RMM:  17    -0.654028171005E+03   -0.29696E-05   -0.50310E-05  8010   0.100E-02
   6 F= -.65402817E+03 E0= -.65395444E+03  d E =-.205459E+01
       N       E                     dE             d eps       ncg     rms          rms(c)
DAV:   1    -0.653747962662E+03    0.28021E+00   -0.10935E+02  8064   0.323E+01    0.208E+00
RMM:   2    -0.654536398050E+03   -0.78844E+00   -0.78463E+00  8582   0.684E+00    0.384E+00
RMM:   3    -0.654365065471E+03    0.17133E+00   -0.68708E-01 11269   0.226E+00    0.222E+00
RMM:   4    -0.654322574534E+03    0.42491E-01   -0.16062E-01 11872   0.851E-01    0.127E+00
RMM:   5    -0.654316610737E+03    0.59638E-02   -0.68492E-02 11404   0.449E-01    0.146E+00
RMM:   6    -0.654309916836E+03    0.66939E-02   -0.55824E-02 10788   0.416E-01    0.118E+00
RMM:   7    -0.654298078164E+03    0.11839E-01   -0.22903E-02 10124   0.264E-01    0.566E-01
RMM:   8    -0.654297163491E+03    0.91467E-03   -0.97620E-03 10369   0.184E-01    0.643E-01
RMM:   9    -0.654294446677E+03    0.27168E-02   -0.47194E-03 10488   0.119E-01    0.201E-01
RMM:  10    -0.654294154260E+03    0.29242E-03   -0.13437E-03 11961   0.537E-02    0.125E-01
RMM:  11    -0.654294028205E+03    0.12606E-03   -0.49481E-04 10891   0.382E-02    0.795E-02
RMM:  12    -0.654294022409E+03    0.57960E-05   -0.21987E-04 10702   0.219E-02    0.601E-02
RMM:  13    -0.654294032171E+03   -0.97622E-05   -0.14757E-04 10588   0.197E-02    0.578E-02
RMM:  14    -0.654294017030E+03    0.15142E-04   -0.68185E-05  8983   0.152E-02    0.262E-02
RMM:  15    -0.654294019129E+03   -0.20996E-05   -0.23056E-05  5612   0.872E-03
   7 F= -.65429402E+03 E0= -.65422363E+03  d E =-.232044E+01
       N       E                     dE             d eps       ncg     rms          rms(c)
DAV:   1    -0.655423723124E+03   -0.11297E+01   -0.31677E+02  8064   0.666E+01    0.196E+01
RMM:   2    -0.688856166966E+03   -0.33432E+02   -0.79929E+01  9691   0.195E+01    0.369E+01
RMM:   3    -0.657301433358E+03    0.31555E+02   -0.18368E+01  8864   0.974E+00    0.122E+01
RMM:   4    -0.655210612969E+03    0.20908E+01   -0.43472E+00  9269   0.434E+00    0.576E+00
RMM:   5    -0.655145046730E+03    0.65566E-01   -0.35696E+00 10715   0.267E+00    0.634E+00
RMM:   6    -0.655001860893E+03    0.14319E+00   -0.12292E+00 11230   0.178E+00    0.584E+00
RMM:   7    -0.654784207098E+03    0.21765E+00   -0.45142E-01 10588   0.130E+00    0.311E+00
RMM:   8    -0.654750056455E+03    0.34151E-01   -0.26121E-01 11017   0.102E+00    0.244E+00
RMM:   9    -0.654707919094E+03    0.42137E-01   -0.10409E-01 12113   0.547E-01    0.124E+00
RMM:  10    -0.654700607652E+03    0.73114E-02   -0.29918E-02 12462   0.289E-01    0.910E-01
RMM:  11    -0.654696227224E+03    0.43804E-02   -0.15684E-02 11704   0.222E-01    0.439E-01
RMM:  12    -0.654695928368E+03    0.29886E-03   -0.67350E-03 12456   0.108E-01    0.317E-01
RMM:  13    -0.654697779339E+03   -0.18510E-02   -0.46726E-03 12449   0.105E-01    0.373E-01
RMM:  14    -0.654697761178E+03    0.18161E-04   -0.37946E-03 11867   0.109E-01    0.218E-01
RMM:  15    -0.654697895360E+03   -0.13418E-03   -0.27545E-03 11988   0.848E-02    0.196E-01
RMM:  16    -0.654697785465E+03    0.10990E-03   -0.12351E-03 11446   0.549E-02    0.165E-01
RMM:  17    -0.654697617026E+03    0.16844E-03   -0.39288E-04 10924   0.287E-02    0.911E-02
RMM:  18    -0.654697539974E+03    0.77051E-04   -0.20086E-04 10960   0.244E-02    0.281E-02
RMM:  19    -0.654697534364E+03    0.56108E-05   -0.40898E-05  7242   0.942E-03
   8 F= -.65469753E+03 E0= -.65462610E+03  d E =-.403515E+00
       N       E                     dE             d eps       ncg     rms          rms(c)
DAV:   1    -0.654782819056E+03   -0.85279E-01   -0.20011E+01  8064   0.171E+01    0.425E+00
RMM:   2    -0.657202808503E+03   -0.24200E+01   -0.66301E+00  8878   0.566E+00    0.161E+01
RMM:   3    -0.654828796908E+03    0.23740E+01   -0.13560E+00  8661   0.279E+00    0.193E+00
RMM:   4    -0.654801498903E+03    0.27298E-01   -0.26300E-01 10373   0.893E-01    0.200E+00
RMM:   5    -0.654764345091E+03    0.37154E-01   -0.67859E-02  9916   0.499E-01    0.112E+00
RMM:   6    -0.654760428423E+03    0.39167E-02   -0.39079E-02 10205   0.393E-01    0.116E+00
RMM:   7    -0.654754359577E+03    0.60688E-02   -0.25804E-02 10715   0.329E-01    0.690E-01
RMM:   8    -0.654749946601E+03    0.44130E-02   -0.87903E-03 11622   0.172E-01    0.306E-01
RMM:   9    -0.654749449371E+03    0.49723E-03   -0.30130E-03 12055   0.940E-02    0.221E-01
RMM:  10    -0.654749262372E+03    0.18700E-03   -0.13318E-03 11473   0.576E-02    0.119E-01
RMM:  11    -0.654749294583E+03   -0.32211E-04   -0.49029E-04 11305   0.324E-02    0.109E-01
RMM:  12    -0.654749297461E+03   -0.28782E-05   -0.25207E-04 10744   0.256E-02    0.779E-02
RMM:  13    -0.654749384991E+03   -0.87530E-04   -0.20802E-04 10842   0.216E-02    0.599E-02
RMM:  14    -0.654749429882E+03   -0.44891E-04   -0.19084E-04 10838   0.208E-02    0.174E-02
RMM:  15    -0.654749440663E+03   -0.10781E-04   -0.89059E-05  9368   0.143E-02    0.255E-02
RMM:  16    -0.654749435759E+03    0.49032E-05   -0.31787E-05  6942   0.114E-02
   9 F= -.65474944E+03 E0= -.65467829E+03  d E =-.455417E+00
       N       E                     dE             d eps       ncg     rms          rms(c)
DAV:   1    -0.651896668238E+03    0.28528E+01   -0.27476E+02  8064   0.654E+01    0.489E+00
RMM:   2    -0.657224752375E+03   -0.53281E+01   -0.44234E+01  8233   0.144E+01    0.122E+01
RMM:   3    -0.655265792610E+03    0.19590E+01   -0.33102E+00  8588   0.498E+00    0.318E+00
RMM:   4    -0.655220409575E+03    0.45383E-01   -0.69607E-01 11439   0.155E+00    0.280E+00
RMM:   5    -0.655149778915E+03    0.70631E-01   -0.16422E-01  9249   0.879E-01    0.160E+00
RMM:   6    -0.655147609950E+03    0.21690E-02   -0.14534E-01 10874   0.672E-01    0.159E+00
RMM:   7    -0.655127578305E+03    0.20032E-01   -0.68701E-02 11039   0.513E-01    0.117E+00
RMM:   8    -0.655115446606E+03    0.12132E-01   -0.25220E-02 12182   0.284E-01    0.366E-01
RMM:   9    -0.655117068257E+03   -0.16217E-02   -0.11028E-02 12503   0.160E-01    0.507E-01
RMM:  10    -0.655115456033E+03    0.16122E-02   -0.45020E-03 12023   0.116E-01    0.223E-01
RMM:  11    -0.655115370884E+03    0.85148E-04   -0.17647E-03 11863   0.549E-02    0.153E-01
RMM:  12    -0.655115537852E+03   -0.16697E-03   -0.99674E-04 11639   0.446E-02    0.142E-01
RMM:  13    -0.655115647011E+03   -0.10916E-03   -0.73907E-04 11510   0.468E-02    0.113E-01
RMM:  14    -0.655115654798E+03   -0.77869E-05   -0.43394E-04 11361   0.372E-02    0.576E-02
RMM:  15    -0.655115649723E+03    0.50755E-05   -0.22619E-04 10786   0.252E-02    0.553E-02
RMM:  16    -0.655115624809E+03    0.24913E-04   -0.96618E-05 10096   0.179E-02    0.218E-02
RMM:  17    -0.655115617848E+03    0.69611E-05   -0.31731E-05  6355   0.980E-03
  10 F= -.65511562E+03 E0= -.65505001E+03  d E =-.366182E+00
       N       E                     dE             d eps       ncg     rms          rms(c)
DAV:   1    -0.655097854588E+03    0.17770E-01   -0.17251E+00  8736   0.527E+00    0.379E-01
RMM:   2    -0.655128342708E+03   -0.30488E-01   -0.27196E-01  8265   0.116E+00    0.764E-01
RMM:   3    -0.655119680319E+03    0.86624E-02   -0.20370E-02  8588   0.399E-01    0.256E-01
RMM:   4    -0.655119207936E+03    0.47238E-03   -0.38167E-03 11292   0.115E-01    0.173E-01
RMM:   5    -0.655119012428E+03    0.19551E-03   -0.10007E-03  9764   0.627E-02    0.143E-01
RMM:   6    -0.655118948630E+03    0.63798E-04   -0.81477E-04 10517   0.513E-02    0.121E-01
RMM:   7    -0.655118805909E+03    0.14272E-03   -0.36555E-04 10499   0.357E-02    0.819E-02
RMM:   8    -0.655118754151E+03    0.51758E-04   -0.12589E-04  9782   0.211E-02    0.336E-02
RMM:   9    -0.655118750295E+03    0.38560E-05   -0.58964E-05  8694   0.129E-02
  11 F= -.65511875E+03 E0= -.65505275E+03  d E =-.369315E+00
       N       E                     dE             d eps       ncg     rms          rms(c)
DAV:   1    -0.654561862702E+03    0.55689E+00   -0.98610E+01  8064   0.366E+01    0.286E+00
RMM:   2    -0.655594376411E+03   -0.10325E+01   -0.11291E+01  8243   0.772E+00    0.332E+00
RMM:   3    -0.655427558480E+03    0.16682E+00   -0.80674E-01  8841   0.264E+00    0.246E+00
RMM:   4    -0.655361985430E+03    0.65573E-01   -0.20799E-01 11019   0.927E-01    0.113E+00
RMM:   5    -0.655367339367E+03   -0.53539E-02   -0.77884E-02 10614   0.559E-01    0.148E+00
RMM:   6    -0.655347286548E+03    0.20053E-01   -0.37303E-02 10122   0.368E-01    0.526E-01
RMM:   7    -0.655344244198E+03    0.30423E-02   -0.10666E-02 11108   0.184E-01    0.365E-01
RMM:   8    -0.655343752155E+03    0.49204E-03   -0.45747E-03 12062   0.111E-01    0.238E-01
RMM:   9    -0.655343266537E+03    0.48562E-03   -0.14760E-03 11434   0.574E-02    0.114E-01
RMM:  10    -0.655343178335E+03    0.88202E-04   -0.53157E-04 10795   0.361E-02    0.925E-02
RMM:  11    -0.655343142275E+03    0.36060E-04   -0.24312E-04 10431   0.259E-02    0.544E-02
RMM:  12    -0.655343124877E+03    0.17398E-04   -0.10939E-04 10049   0.162E-02    0.299E-02
RMM:  13    -0.655343120093E+03    0.47840E-05   -0.45600E-05  7744   0.122E-02
  12 F= -.65534312E+03 E0= -.65528179E+03  d E =-.224370E+00
       N       E                     dE             d eps       ncg     rms          rms(c)
DAV:   1    -0.655295265444E+03    0.47859E-01   -0.76176E+00  8688   0.102E+01    0.811E-01
RMM:   2    -0.655378621258E+03   -0.83356E-01   -0.87527E-01  8257   0.213E+00    0.111E+00
RMM:   3    -0.655360341466E+03    0.18280E-01   -0.64346E-02  8700   0.740E-01    0.607E-01
RMM:   4    -0.655356154411E+03    0.41871E-02   -0.15751E-02 10984   0.252E-01    0.318E-01
RMM:   5    -0.655356454126E+03   -0.29972E-03   -0.58776E-03 10521   0.151E-01    0.403E-01
RMM:   6    -0.655354954965E+03    0.14992E-02   -0.28324E-03  9918   0.103E-01    0.152E-01
RMM:   7    -0.655354692726E+03    0.26224E-03   -0.83024E-04 10187   0.517E-02    0.932E-02
RMM:   8    -0.655354674243E+03    0.18483E-04   -0.35745E-04 10180   0.321E-02    0.708E-02
RMM:   9    -0.655354620934E+03    0.53309E-04   -0.11490E-04  9528   0.182E-02    0.236E-02
RMM:  10    -0.655354616493E+03    0.44408E-05   -0.32265E-05  6045   0.103E-02
  13 F= -.65535462E+03 E0= -.65529458E+03  d E =-.235866E+00
       N       E                     dE             d eps       ncg     rms          rms(c)
DAV:   1    -0.655200183277E+03    0.15444E+00   -0.50424E+01  8232   0.234E+01    0.210E+00
RMM:   2    -0.655766931645E+03   -0.56675E+00   -0.44813E+00  8441   0.479E+00    0.426E+00
RMM:   3    -0.655498114774E+03    0.26882E+00   -0.39757E-01  8315   0.187E+00    0.112E+00
RMM:   4    -0.655489916112E+03    0.81987E-02   -0.94693E-02 11367   0.557E-01    0.986E-01
RMM:   5    -0.655484507623E+03    0.54085E-02   -0.30178E-02  9533   0.351E-01    0.863E-01
RMM:   6    -0.655480688615E+03    0.38190E-02   -0.21104E-02  9857   0.270E-01    0.542E-01
RMM:   7    -0.655478776032E+03    0.19126E-02   -0.10103E-02 11219   0.180E-01    0.448E-01
RMM:   8    -0.655476842542E+03    0.19335E-02   -0.33946E-03 11593   0.113E-01    0.134E-01
RMM:   9    -0.655476758123E+03    0.84419E-04   -0.12511E-03 11784   0.498E-02    0.972E-02
RMM:  10    -0.655476752581E+03    0.55413E-05   -0.46223E-04 11218   0.346E-02    0.903E-02
RMM:  11    -0.655476704450E+03    0.48132E-04   -0.20063E-04 10710   0.229E-02    0.450E-02
RMM:  12    -0.655476716672E+03   -0.12223E-04   -0.11220E-04 10355   0.161E-02    0.385E-02
RMM:  13    -0.655476705593E+03    0.11079E-04   -0.59532E-05  9337   0.132E-02    0.205E-02
RMM:  14    -0.655476709526E+03   -0.39331E-05   -0.35061E-05  6220   0.125E-02
  14 F= -.65547671E+03 E0= -.65541782E+03  d E =-.122093E+00
       N       E                     dE             d eps       ncg     rms          rms(c)
DAV:   1    -0.655443830462E+03    0.32875E-01   -0.82608E+00  8136   0.947E+00    0.847E-01
RMM:   2    -0.655537713580E+03   -0.93883E-01   -0.73845E-01  8420   0.195E+00    0.177E+00
RMM:   3    -0.655492067120E+03    0.45646E-01   -0.65635E-02  8293   0.753E-01    0.460E-01
RMM:   4    -0.655490746916E+03    0.13202E-02   -0.15609E-02 11248   0.227E-01    0.415E-01
RMM:   5    -0.655489728864E+03    0.10181E-02   -0.50500E-03  9503   0.145E-01    0.345E-01
RMM:   6    -0.655489165374E+03    0.56349E-03   -0.35821E-03  9994   0.110E-01    0.226E-01
RMM:   7    -0.655488808061E+03    0.35731E-03   -0.16828E-03 10988   0.751E-02    0.179E-01
RMM:   8    -0.655488489178E+03    0.31888E-03   -0.53958E-04 10426   0.441E-02    0.488E-02
RMM:   9    -0.655488478401E+03    0.10777E-04   -0.19680E-04 10864   0.208E-02    0.383E-02
RMM:  10    -0.655488475828E+03    0.25724E-05   -0.73260E-05  8662   0.148E-02
  15 F= -.65548848E+03 E0= -.65542987E+03  d E =-.133859E+00
       N       E                     dE             d eps       ncg     rms          rms(c)
DAV:   1    -0.655533781744E+03   -0.45303E-01   -0.54475E+01  8064   0.222E+01    0.417E+00
RMM:   2    -0.657274783982E+03   -0.17410E+01   -0.65864E+00  9049   0.584E+00    0.126E+01
RMM:   3    -0.655637278017E+03    0.16375E+01   -0.12271E+00  9040   0.269E+00    0.222E+00
RMM:   4    -0.655613095811E+03    0.24182E-01   -0.28596E-01 11231   0.941E-01    0.223E+00
RMM:   5    -0.655566051963E+03    0.47044E-01   -0.92824E-02  9311   0.627E-01    0.110E+00
RMM:   6    -0.655561008483E+03    0.50435E-02   -0.55541E-02 10300   0.482E-01    0.981E-01
RMM:   7    -0.655555983685E+03    0.50248E-02   -0.28157E-02 11184   0.338E-01    0.628E-01
RMM:   8    -0.655551212292E+03    0.47714E-02   -0.81193E-03 12186   0.142E-01    0.171E-01
RMM:   9    -0.655551357245E+03   -0.14495E-03   -0.27940E-03 12101   0.783E-02    0.197E-01
RMM:  10    -0.655551194920E+03    0.16233E-03   -0.11699E-03 11538   0.559E-02    0.113E-01
RMM:  11    -0.655551222813E+03   -0.27893E-04   -0.47865E-04 11293   0.325E-02    0.787E-02
RMM:  12    -0.655551328046E+03   -0.10523E-03   -0.32498E-04 10962   0.253E-02    0.581E-02
RMM:  13    -0.655551401277E+03   -0.73231E-04   -0.26419E-04 11034   0.271E-02    0.662E-02
RMM:  14    -0.655551388686E+03    0.12591E-04   -0.14220E-04 10377   0.216E-02    0.277E-02
RMM:  15    -0.655551387155E+03    0.15316E-05   -0.51486E-05  7755   0.115E-02
  16 F= -.65555139E+03 E0= -.65549463E+03  d E =-.629113E-01
       N       E                     dE             d eps       ncg     rms          rms(c)
DAV:   1    -0.655553462257E+03   -0.20736E-02   -0.12572E+00  8688   0.337E+00    0.663E-01
RMM:   2    -0.655596051803E+03   -0.42590E-01   -0.14867E-01  9249   0.873E-01    0.182E+00
RMM:   3    -0.655555106843E+03    0.40945E-01   -0.29999E-02  9098   0.421E-01    0.249E-01
RMM:   4    -0.655555094693E+03    0.12150E-04   -0.66768E-03 11115   0.140E-01    0.360E-01
RMM:   5    -0.655553957883E+03    0.11368E-02   -0.22340E-03  9704   0.946E-02    0.154E-01
RMM:   6    -0.655553746577E+03    0.21131E-03   -0.11681E-03 10742   0.650E-02    0.911E-02
RMM:   7    -0.655553715085E+03    0.31492E-04   -0.45020E-04 10833   0.426E-02    0.100E-01
RMM:   8    -0.655553623379E+03    0.91706E-04   -0.17536E-04  9744   0.258E-02    0.294E-02
RMM:   9    -0.655553614774E+03    0.86049E-05   -0.62381E-05  8762   0.120E-02
  17 F= -.65555361E+03 E0= -.65549662E+03  d E =-.651389E-01
       N       E                     dE             d eps       ncg     rms          rms(c)
DAV:   1    -0.655528613716E+03    0.25010E-01   -0.38373E+01  8064   0.169E+01    0.220E+00
RMM:   2    -0.656010031378E+03   -0.48142E+00   -0.25610E+00  9656   0.351E+00    0.530E+00
RMM:   3    -0.655632981569E+03    0.37705E+00   -0.37566E-01  8544   0.161E+00    0.846E-01
RMM:   4    -0.655630816972E+03    0.21646E-02   -0.91738E-02 11292   0.506E-01    0.105E+00
RMM:   5    -0.655623439710E+03    0.73773E-02   -0.31991E-02 10663   0.342E-01    0.788E-01
RMM:   6    -0.655619024636E+03    0.44151E-02   -0.17690E-02 10671   0.244E-01    0.370E-01
RMM:   7    -0.655618211968E+03    0.81267E-03   -0.68582E-03 12079   0.141E-01    0.320E-01
RMM:   8    -0.655617303860E+03    0.90811E-03   -0.26290E-03 11868   0.949E-02    0.157E-01
RMM:   9    -0.655617135754E+03    0.16811E-03   -0.95486E-04 11297   0.472E-02    0.825E-02
RMM:  10    -0.655617141359E+03   -0.56051E-05   -0.35473E-04 11127   0.277E-02    0.763E-02
RMM:  11    -0.655617122403E+03    0.18955E-04   -0.17871E-04 10582   0.225E-02    0.528E-02
RMM:  12    -0.655617129033E+03   -0.66295E-05   -0.11635E-04 10379   0.172E-02    0.364E-02
RMM:  13    -0.655617115448E+03    0.13585E-04   -0.60202E-05  9364   0.133E-02    0.150E-02
RMM:  14    -0.655617119285E+03   -0.38369E-05   -0.27667E-05  5955   0.118E-02
  18 F= -.65561712E+03 E0= -.65556035E+03  d E =-.635045E-01
       N       E                     dE             d eps       ncg     rms          rms(c)
DAV:   1    -0.655616225836E+03    0.88961E-03   -0.98417E-01  8592   0.271E+00    0.346E-01
RMM:   2    -0.655628080194E+03   -0.11854E-01   -0.65270E-02  9406   0.563E-01    0.850E-01
RMM:   3    -0.655618894484E+03    0.91857E-02   -0.93432E-03  8499   0.251E-01    0.144E-01
RMM:   4    -0.655618865165E+03    0.29319E-04   -0.23427E-03 11276   0.822E-02    0.186E-01
RMM:   5    -0.655618613989E+03    0.25118E-03   -0.81717E-04 10049   0.551E-02    0.118E-01
RMM:   6    -0.655618505257E+03    0.10873E-03   -0.45859E-04 10602   0.384E-02    0.552E-02
RMM:   7    -0.655618486461E+03    0.18796E-04   -0.17184E-04 10518   0.231E-02    0.522E-02
RMM:   8    -0.655618462497E+03    0.23964E-04   -0.61988E-05  8099   0.155E-02    0.245E-02
RMM:   9    -0.655618456878E+03    0.56191E-05   -0.21367E-05  5337   0.941E-03
  19 F= -.65561846E+03 E0= -.65556170E+03  d E =-.648421E-01
       N       E                     dE             d eps       ncg     rms          rms(c)
DAV:   1    -0.655612653923E+03    0.58086E-02   -0.10919E+01  8064   0.979E+00    0.849E-01
RMM:   2    -0.655679518623E+03   -0.66865E-01   -0.71967E-01  8668   0.199E+00    0.112E+00
RMM:   3    -0.655661407789E+03    0.18111E-01   -0.63565E-02  9325   0.723E-01    0.622E-01
RMM:   4    -0.655658030499E+03    0.33773E-02   -0.18768E-02 11224   0.265E-01    0.447E-01
RMM:   5    -0.655656820229E+03    0.12103E-02   -0.72260E-03 10411   0.164E-01    0.391E-01
RMM:   6    -0.655656010738E+03    0.80949E-03   -0.42462E-03 10757   0.110E-01    0.243E-01
RMM:   7    -0.655655427096E+03    0.58364E-03   -0.15860E-03 10371   0.746E-02    0.162E-01
RMM:   8    -0.655655214753E+03    0.21234E-03   -0.50031E-04 10080   0.402E-02    0.687E-02
RMM:   9    -0.655655188264E+03    0.26489E-04   -0.18201E-04  9971   0.211E-02    0.331E-02
RMM:  10    -0.655655173734E+03    0.14530E-04   -0.50841E-05  7846   0.104E-02    0.173E-02
RMM:  11    -0.655655172764E+03    0.97005E-06   -0.20981E-05  5537   0.847E-03
  20 F= -.65565517E+03 E0= -.65559808E+03  d E =-.367159E-01
       N       E                     dE             d eps       ncg     rms          rms(c)
DAV:   1    -0.655643592365E+03    0.11581E-01   -0.50137E+00  8064   0.663E+00    0.575E-01
RMM:   2    -0.655674222313E+03   -0.30630E-01   -0.32972E-01  8683   0.135E+00    0.763E-01
RMM:   3    -0.655665977454E+03    0.82449E-02   -0.29376E-02  9361   0.490E-01    0.423E-01
RMM:   4    -0.655664422769E+03    0.15547E-02   -0.86269E-03 11215   0.180E-01    0.301E-01
RMM:   5    -0.655663867027E+03    0.55574E-03   -0.33494E-03 10455   0.111E-01    0.265E-01
RMM:   6    -0.655663483817E+03    0.38321E-03   -0.19374E-03 10791   0.740E-02    0.161E-01
RMM:   7    -0.655663224959E+03    0.25886E-03   -0.71780E-04  9918   0.500E-02    0.111E-01
RMM:   8    -0.655663126454E+03    0.98505E-04   -0.22570E-04  9662   0.280E-02    0.443E-02
RMM:   9    -0.655663114673E+03    0.11781E-04   -0.75825E-05  9150   0.140E-02    0.198E-02
RMM:  10    -0.655663109396E+03    0.52774E-05   -0.20924E-05  5451   0.746E-03
  21 F= -.65566311E+03 E0= -.65560587E+03  d E =-.446525E-01
       N       E                     dE             d eps       ncg     rms          rms(c)
DAV:   1    -0.655652590691E+03    0.10524E-01   -0.91880E+00  8064   0.993E+00    0.153E+00
RMM:   2    -0.655892269011E+03   -0.23968E+00   -0.11286E+00  9190   0.241E+00    0.411E+00
RMM:   3    -0.655689201967E+03    0.20307E+00   -0.16832E-01  8934   0.105E+00    0.653E-01
RMM:   4    -0.655689924655E+03   -0.72269E-03   -0.40272E-02 10887   0.365E-01    0.927E-01
RMM:   5    -0.655681718020E+03    0.82066E-02   -0.13088E-02  9261   0.245E-01    0.332E-01
RMM:   6    -0.655681834454E+03   -0.11643E-03   -0.79392E-03 10823   0.169E-01    0.366E-01
RMM:   7    -0.655680970058E+03    0.86440E-03   -0.32510E-03 11031   0.114E-01    0.235E-01
RMM:   8    -0.655680410896E+03    0.55916E-03   -0.10569E-03 11396   0.511E-02    0.630E-02
RMM:   9    -0.655680412246E+03   -0.13502E-05   -0.35554E-04 11083   0.282E-02    0.537E-02
RMM:  10    -0.655680422597E+03   -0.10351E-04   -0.14315E-04 10287   0.199E-02    0.459E-02
RMM:  11    -0.655680423924E+03   -0.13269E-05   -0.66264E-05  8987   0.142E-02
  22 F= -.65568042E+03 E0= -.65562389E+03  d E =-.173145E-01
       N       E                     dE             d eps       ncg     rms          rms(c)
DAV:   1    -0.655680378132E+03    0.44465E-04   -0.30395E-02  8832   0.570E-01    0.937E-02
RMM:   2    -0.655681275671E+03   -0.89754E-03   -0.38941E-03  8728   0.140E-01    0.250E-01
RMM:   3    -0.655680507128E+03    0.76854E-03   -0.62248E-04  7779   0.625E-02    0.389E-02
RMM:   4    -0.655680509830E+03   -0.27016E-05   -0.13946E-04  8460   0.221E-02    0.502E-02
RMM:   5    -0.655680492864E+03    0.16965E-04   -0.54842E-05  6550   0.157E-02    0.248E-02
RMM:   6    -0.655680490562E+03    0.23026E-05   -0.23755E-05  5195   0.109E-02
  23 F= -.65568049E+03 E0= -.65562401E+03  d E =-.173812E-01
       N       E                     dE             d eps       ncg     rms          rms(c)
DAV:   1    -0.655657789214E+03    0.22704E-01   -0.85498E+00  8064   0.101E+01    0.159E+00
RMM:   2    -0.655915173051E+03   -0.25738E+00   -0.11628E+00  8906   0.247E+00    0.404E+00
RMM:   3    -0.655696689123E+03    0.21848E+00   -0.17920E-01  8945   0.108E+00    0.533E-01
RMM:   4    -0.655694735254E+03    0.19539E-02   -0.36124E-02 11102   0.338E-01    0.670E-01
RMM:   5    -0.655691631641E+03    0.31036E-02   -0.10986E-02 10095   0.214E-01    0.476E-01
RMM:   6    -0.655689661473E+03    0.19702E-02   -0.63467E-03 10500   0.156E-01    0.198E-01
RMM:   7    -0.655689620985E+03    0.40488E-04   -0.27791E-03 12079   0.960E-02    0.239E-01
RMM:   8    -0.655689142507E+03    0.47848E-03   -0.11138E-03 10589   0.668E-02    0.915E-02
RMM:   9    -0.655689073610E+03    0.68897E-04   -0.41754E-04 11058   0.293E-02    0.431E-02
RMM:  10    -0.655689084151E+03   -0.10541E-04   -0.14153E-04 10185   0.186E-02    0.473E-02
RMM:  11    -0.655689074808E+03    0.93428E-05   -0.67055E-05  9266   0.149E-02
  24 F= -.65568907E+03 E0= -.65563291E+03  d E =-.858425E-02
       N       E                     dE             d eps       ncg     rms          rms(c)
DAV:   1    -0.655688434768E+03    0.64938E-03   -0.30502E-01  8304   0.191E+00    0.296E-01
RMM:   2    -0.655697687657E+03   -0.92529E-02   -0.42382E-02  9053   0.473E-01    0.788E-01
RMM:   3    -0.655689876894E+03    0.78108E-02   -0.65324E-03  9227   0.204E-01    0.116E-01
RMM:   4    -0.655689838380E+03    0.38514E-04   -0.13276E-03 11478   0.666E-02    0.154E-01
RMM:   5    -0.655689640706E+03    0.19767E-03   -0.38967E-04  9067   0.423E-02    0.763E-02
RMM:   6    -0.655689590047E+03    0.50659E-04   -0.24211E-04  9202   0.306E-02    0.417E-02
RMM:   7    -0.655689591924E+03   -0.18767E-05   -0.11207E-04  8845   0.217E-02    0.524E-02
RMM:   8    -0.655689568899E+03    0.23025E-04   -0.37589E-05  5671   0.143E-02    0.166E-02
RMM:   9    -0.655689567709E+03    0.11901E-05   -0.12387E-05  4818   0.923E-03
  25 F= -.65568957E+03 E0= -.65563334E+03  d E =-.907715E-02
       N       E                     dE             d eps       ncg     rms          rms(c)
DAV:   1    -0.655676072884E+03    0.13496E-01   -0.38099E+00  8064   0.673E+00    0.595E-01
RMM:   2    -0.655713848613E+03   -0.37776E-01   -0.35628E-01  8452   0.136E+00    0.101E+00
RMM:   3    -0.655698727408E+03    0.15121E-01   -0.29243E-02  8629   0.504E-01    0.366E-01
RMM:   4    -0.655697679786E+03    0.10476E-02   -0.84261E-03 11022   0.184E-01    0.370E-01
RMM:   5    -0.655696687170E+03    0.99262E-03   -0.33036E-03  9588   0.123E-01    0.215E-01
RMM:   6    -0.655696384161E+03    0.30301E-03   -0.14304E-03 11038   0.664E-02    0.134E-01
RMM:   7    -0.655696217123E+03    0.16704E-03   -0.48301E-04 10536   0.413E-02    0.805E-02
RMM:   8    -0.655696175861E+03    0.41262E-04   -0.18208E-04 10356   0.209E-02    0.347E-02
RMM:   9    -0.655696169699E+03    0.61619E-05   -0.48825E-05  7152   0.112E-02
  26 F= -.65569617E+03 E0= -.65564032E+03  d E =-.660199E-02
       N       E                     dE             d eps       ncg     rms          rms(c)
DAV:   1    -0.655695068036E+03    0.11078E-02   -0.25870E-01  8736   0.175E+00    0.156E-01
RMM:   2    -0.655697688372E+03   -0.26203E-02   -0.24399E-02  8490   0.357E-01    0.269E-01
RMM:   3    -0.655696635570E+03    0.10528E-02   -0.20421E-03  8719   0.132E-01    0.949E-02
RMM:   4    -0.655696576823E+03    0.58747E-04   -0.59701E-04 10953   0.480E-02    0.996E-02
RMM:   5    -0.655696502319E+03    0.74504E-04   -0.23593E-04  8677   0.322E-02    0.530E-02
RMM:   6    -0.655696482815E+03    0.19503E-04   -0.95599E-05  9733   0.175E-02    0.296E-02
RMM:   7    -0.655696475140E+03    0.76751E-05   -0.26787E-05  5470   0.111E-02
  27 F= -.65569648E+03 E0= -.65564074E+03  d E =-.690743E-02
       N       E                     dE             d eps       ncg     rms          rms(c)
DAV:   1    -0.655685935373E+03    0.10547E-01   -0.16503E+00  8064   0.465E+00    0.267E-01
RMM:   2    -0.655702620382E+03   -0.16685E-01   -0.17155E-01  8172   0.923E-01    0.346E-01
RMM:   3    -0.655700491104E+03    0.21293E-02   -0.11663E-02  9180   0.299E-01    0.237E-01
RMM:   4    -0.655700150922E+03    0.34018E-03   -0.25630E-03 11396   0.998E-02    0.147E-01
RMM:   5    -0.655700010160E+03    0.14076E-03   -0.58090E-04  9329   0.467E-02    0.952E-02
RMM:   6    -0.655699971493E+03    0.38667E-04   -0.41408E-04  9944   0.331E-02    0.769E-02
RMM:   7    -0.655699911459E+03    0.60034E-04   -0.16074E-04  9096   0.237E-02    0.506E-02
RMM:   8    -0.655699892401E+03    0.19059E-04   -0.58605E-05  7563   0.147E-02    0.200E-02
RMM:   9    -0.655699890629E+03    0.17713E-05   -0.14267E-05  5040   0.826E-03
  28 F= -.65569989E+03 E0= -.65564453E+03  d E =-.341549E-02
       N       E                     dE             d eps       ncg     rms          rms(c)
DAV:   1    -0.655693471733E+03    0.64207E-02   -0.83780E-01  8160   0.331E+00    0.190E-01
RMM:   2    -0.655701938848E+03   -0.84671E-02   -0.87173E-02  8177   0.658E-01    0.243E-01
RMM:   3    -0.655700886398E+03    0.10525E-02   -0.59469E-03  9111   0.214E-01    0.172E-01
RMM:   4    -0.655700715487E+03    0.17091E-03   -0.13240E-03 11024   0.716E-02    0.108E-01
RMM:   5    -0.655700636819E+03    0.78669E-04   -0.30040E-04  9061   0.341E-02    0.655E-02
RMM:   6    -0.655700616708E+03    0.20111E-04   -0.21286E-04  9365   0.237E-02    0.525E-02
RMM:   7    -0.655700588928E+03    0.27780E-04   -0.76317E-05  7904   0.168E-02    0.343E-02
RMM:   8    -0.655700580535E+03    0.83935E-05   -0.25355E-05  5305   0.107E-02
  29 F= -.65570058E+03 E0= -.65564552E+03  d E =-.410539E-02
       N       E                     dE             d eps       ncg     rms          rms(c)
DAV:   1    -0.655691365620E+03    0.92233E-02   -0.15579E+00  8064   0.457E+00    0.547E-01
RMM:   2    -0.655726001007E+03   -0.34635E-01   -0.21878E-01  8665   0.103E+00    0.129E+00
RMM:   3    -0.655703302815E+03    0.22698E-01   -0.24240E-02  8792   0.410E-01    0.214E-01
RMM:   4    -0.655703088055E+03    0.21476E-03   -0.52116E-03 11314   0.133E-01    0.265E-01
RMM:   5    -0.655702568950E+03    0.51911E-03   -0.14633E-03  9636   0.794E-02    0.168E-01
RMM:   6    -0.655702361304E+03    0.20765E-03   -0.92712E-04 10050   0.568E-02    0.823E-02
RMM:   7    -0.655702277179E+03    0.84125E-04   -0.35440E-04 11151   0.343E-02    0.668E-02
RMM:   8    -0.655702242417E+03    0.34762E-04   -0.12431E-04  9755   0.222E-02    0.365E-02
RMM:   9    -0.655702230943E+03    0.11473E-04   -0.48534E-05  7762   0.115E-02    0.173E-02
RMM:  10    -0.655702228802E+03    0.21415E-05   -0.16339E-05  5051   0.894E-03
  30 F= -.65570223E+03 E0= -.65564726E+03  d E =-.164827E-02
       N       E                     dE             d eps       ncg     rms          rms(c)
DAV:   1    -0.655702218933E+03    0.12011E-04   -0.88619E-04  9408   0.110E-01    0.149E-02
RMM:   2    -0.655702237138E+03   -0.18205E-04   -0.12674E-04  8586   0.254E-02    0.311E-02
RMM:   3    -0.655702224725E+03    0.12413E-04   -0.13944E-05  4777   0.110E-02    0.867E-03
RMM:   4    -0.655702224410E+03    0.31511E-06   -0.54845E-06  4406   0.738E-03
  31 F= -.65570222E+03 E0= -.65564726E+03  d E =-.164388E-02
       N       E                     dE             d eps       ncg     rms          rms(c)
DAV:   1    -0.655695819051E+03    0.64057E-02   -0.96167E-01  8112   0.355E+00    0.389E-01
RMM:   2    -0.655716067615E+03   -0.20249E-01   -0.13423E-01  8532   0.785E-01    0.938E-01
RMM:   3    -0.655703898959E+03    0.12169E-01   -0.13531E-02  8692   0.309E-01    0.164E-01
RMM:   4    -0.655703837718E+03    0.61241E-04   -0.26892E-03 11381   0.963E-02    0.209E-01
RMM:   5    -0.655703497606E+03    0.34011E-03   -0.75619E-04  8996   0.591E-02    0.106E-01
RMM:   6    -0.655703438252E+03    0.59354E-04   -0.52012E-04 10712   0.428E-02    0.656E-02
RMM:   7    -0.655703399546E+03    0.38706E-04   -0.19666E-04 10477   0.267E-02    0.540E-02
RMM:   8    -0.655703376085E+03    0.23461E-04   -0.68716E-05  8952   0.162E-02    0.201E-02
RMM:   9    -0.655703377686E+03   -0.16010E-05   -0.24141E-05  5418   0.914E-03
  32 F= -.65570338E+03 E0= -.65564865E+03  d E =-.115328E-02
       N       E                     dE             d eps       ncg     rms          rms(c)
DAV:   1    -0.655703201463E+03    0.17462E-03   -0.23605E-02  8736   0.558E-01    0.634E-02
RMM:   2    -0.655703732626E+03   -0.53116E-03   -0.33301E-03  8264   0.124E-01    0.155E-01
RMM:   3    -0.655703404246E+03    0.32838E-03   -0.34708E-04  7393   0.487E-02    0.264E-02
RMM:   4    -0.655703406615E+03   -0.23684E-05   -0.68777E-05  6725   0.166E-02
  33 F= -.65570341E+03 E0= -.65564871E+03  d E =-.118220E-02
       N       E                     dE             d eps       ncg     rms          rms(c)
DAV:   1    -0.655702813554E+03    0.59069E-03   -0.17010E-01  8160   0.146E+00    0.116E-01
RMM:   2    -0.655704336060E+03   -0.15225E-02   -0.17959E-02  8274   0.295E-01    0.885E-02
RMM:   3    -0.655704241252E+03    0.94808E-04   -0.13728E-03  9864   0.985E-02    0.119E-01
RMM:   4    -0.655704094795E+03    0.14646E-03   -0.32813E-04  9584   0.405E-02    0.407E-02
RMM:   5    -0.655704108204E+03   -0.13409E-04   -0.12982E-04  8600   0.225E-02    0.618E-02
RMM:   6    -0.655704081120E+03    0.27084E-04   -0.59998E-05  7127   0.154E-02    0.252E-02
RMM:   7    -0.655704072452E+03    0.86680E-05   -0.16994E-05  5067   0.912E-03
  34 F= -.65570407E+03 E0= -.65564950E+03  d E =-.665838E-03
       N       E                     dE             d eps       ncg     rms          rms(c)
DAV:   1    -0.655702970590E+03    0.11105E-02   -0.17901E-01  8112   0.151E+00    0.120E-01
RMM:   2    -0.655704577076E+03   -0.16065E-02   -0.18982E-02  8295   0.303E-01    0.995E-02
RMM:   3    -0.655704471388E+03    0.10569E-03   -0.14527E-03  9867   0.102E-01    0.129E-01
RMM:   4    -0.655704313292E+03    0.15810E-03   -0.37985E-04  9824   0.430E-02    0.522E-02
RMM:   5    -0.655704312651E+03    0.64068E-06   -0.13798E-04  8769   0.234E-02    0.586E-02
RMM:   6    -0.655704289227E+03    0.23424E-04   -0.68752E-05  7810   0.157E-02    0.268E-02
RMM:   7    -0.655704278408E+03    0.10819E-04   -0.19379E-05  5103   0.958E-03    0.141E-02
RMM:   8    -0.655704277675E+03    0.73304E-06   -0.81169E-06  4790   0.802E-03
  35 F= -.65570428E+03 E0= -.65564981E+03  d E =-.871060E-03
       N       E                     dE             d eps       ncg     rms          rms(c)
DAV:   1    -0.655704194184E+03    0.84224E-04   -0.12071E-01  8112   0.124E+00    0.220E-01
RMM:   2    -0.655709056586E+03   -0.48624E-02   -0.21057E-02  8880   0.325E-01    0.581E-01
RMM:   3    -0.655704791465E+03    0.42651E-02   -0.33357E-03  8935   0.143E-01    0.779E-02
RMM:   4    -0.655704799555E+03   -0.80898E-05   -0.70199E-04 10498   0.485E-02    0.119E-01
RMM:   5    -0.655704675822E+03    0.12373E-03   -0.20349E-04  8140   0.299E-02    0.465E-02
RMM:   6    -0.655704653220E+03    0.22602E-04   -0.11233E-04  8560   0.211E-02    0.249E-02
RMM:   7    -0.655704649045E+03    0.41747E-05   -0.43891E-05  6471   0.146E-02
  36 F= -.65570465E+03 E0= -.65565022E+03  d E =-.371370E-03
       N       E                     dE             d eps       ncg     rms          rms(c)
DAV:   1    -0.655704603372E+03    0.49848E-04   -0.23732E-02  8688   0.550E-01    0.974E-02
RMM:   2    -0.655705565610E+03   -0.96224E-03   -0.41276E-03  8532   0.144E-01    0.260E-01
RMM:   3    -0.655704720844E+03    0.84477E-03   -0.64772E-04  7945   0.631E-02    0.348E-02
RMM:   4    -0.655704722070E+03   -0.12257E-05   -0.13705E-04  8295   0.223E-02    0.511E-02
RMM:   5    -0.655704698779E+03    0.23290E-04   -0.39731E-05  5721   0.143E-02    0.215E-02
RMM:   6    -0.655704693611E+03    0.51685E-05   -0.18558E-05  4950   0.105E-02
  37 F= -.65570469E+03 E0= -.65565028E+03  d E =-.415936E-03
       N       E                     dE             d eps       ncg     rms          rms(c)
DAV:   1    -0.655704714605E+03   -0.15826E-04   -0.58208E-02  8208   0.854E-01    0.826E-02
RMM:   2    -0.655705282070E+03   -0.56746E-03   -0.60929E-03  8686   0.180E-01    0.118E-01
RMM:   3    -0.655705089514E+03    0.19256E-03   -0.51611E-04  8647   0.674E-02    0.575E-02
RMM:   4    -0.655705057796E+03    0.31718E-04   -0.15569E-04  9474   0.257E-02    0.492E-02
RMM:   5    -0.655705040957E+03    0.16839E-04   -0.60371E-05  6620   0.171E-02    0.309E-02
RMM:   6    -0.655705033276E+03    0.76805E-05   -0.21417E-05  5088   0.106E-02
  38 F= -.65570503E+03 E0= -.65565066E+03  d E =-.339665E-03
       N       E                     dE             d eps       ncg     rms          rms(c)
DAV:   1    -0.655704781556E+03    0.25940E-03   -0.65840E-02  8112   0.910E-01    0.881E-02
RMM:   2    -0.655705430244E+03   -0.64869E-03   -0.69338E-03  8576   0.192E-01    0.122E-01
RMM:   3    -0.655705207859E+03    0.22238E-03   -0.58954E-04  8430   0.719E-02    0.608E-02
RMM:   4    -0.655705176352E+03    0.31507E-04   -0.18681E-04  9555   0.288E-02    0.565E-02
RMM:   5    -0.655705154465E+03    0.21887E-04   -0.68867E-05  6813   0.177E-02    0.315E-02
RMM:   6    -0.655705146312E+03    0.81532E-05   -0.23463E-05  5151   0.108E-02
  39 F= -.65570515E+03 E0= -.65565081E+03  d E =-.452701E-03
       N       E                     dE             d eps       ncg     rms          rms(c)
DAV:   1    -0.655705058370E+03    0.96095E-04   -0.35841E-02  8208   0.649E-01    0.704E-02
RMM:   2    -0.655705712009E+03   -0.65364E-03   -0.41981E-03  8565   0.144E-01    0.171E-01
RMM:   3    -0.655705308509E+03    0.40350E-03   -0.44424E-04  7866   0.562E-02    0.289E-02
RMM:   4    -0.655705305984E+03    0.25249E-05   -0.88101E-05  7274   0.182E-02
  40 F= -.65570531E+03 E0= -.65565104E+03  d E =-.159672E-03
       N       E                     dE             d eps       ncg     rms          rms(c)
DAV:   1    -0.655703321234E+03    0.19873E-02   -0.32205E-01  8064   0.195E+00    0.214E-01
RMM:   2    -0.655709032099E+03   -0.57109E-02   -0.37565E-02  8578   0.431E-01    0.511E-01
RMM:   3    -0.655705514122E+03    0.35180E-02   -0.39685E-03  8639   0.167E-01    0.981E-02
RMM:   4    -0.655705533357E+03   -0.19235E-04   -0.93189E-04 11182   0.570E-02    0.138E-01
RMM:   5    -0.655705373807E+03    0.15955E-03   -0.28511E-04  7976   0.355E-02    0.530E-02
RMM:   6    -0.655705365991E+03    0.78170E-05   -0.18379E-04  9926   0.260E-02    0.439E-02
RMM:   7    -0.655705357346E+03    0.86444E-05   -0.76864E-05  8569   0.182E-02
  41 F= -.65570536E+03 E0= -.65565131E+03  d E =-.211034E-03
       N       E                     dE             d eps       ncg     rms          rms(c)
DAV:   1    -0.655705126612E+03    0.23938E-03   -0.44479E-02  8112   0.720E-01    0.790E-02
RMM:   2    -0.655705914614E+03   -0.78800E-03   -0.51514E-03  8941   0.161E-01    0.189E-01
RMM:   3    -0.655705428574E+03    0.48604E-03   -0.54894E-04  8661   0.633E-02    0.341E-02
RMM:   4    -0.655705426716E+03    0.18576E-05   -0.11070E-04  9026   0.208E-02    0.454E-02
RMM:   5    -0.655705409375E+03    0.17342E-04   -0.28447E-05  5368   0.129E-02    0.205E-02
RMM:   6    -0.655705405465E+03    0.39093E-05   -0.18290E-05  4914   0.111E-02
  42 F= -.65570541E+03 E0= -.65565130E+03  d E =-.259153E-03
       N       E                     dE             d eps       ncg     rms          rms(c)
DAV:   1    -0.655705409543E+03   -0.16823E-06   -0.19264E-02  8496   0.474E-01    0.646E-02
RMM:   2    -0.655705888573E+03   -0.47903E-03   -0.25543E-03  8483   0.112E-01    0.169E-01
RMM:   3    -0.655705521903E+03    0.36667E-03   -0.31078E-04  7539   0.460E-02    0.263E-02
RMM:   4    -0.655705524556E+03   -0.26523E-05   -0.65488E-05  6803   0.172E-02
  43 F= -.65570552E+03 E0= -.65565145E+03  d E =-.119090E-03
       N       E                     dE             d eps       ncg     rms          rms(c)
DAV:   1    -0.655704704267E+03    0.81764E-03   -0.17245E-01  8064   0.142E+00    0.193E-01
RMM:   2    -0.655708623733E+03   -0.39195E-02   -0.22454E-02  8583   0.334E-01    0.469E-01
RMM:   3    -0.655705725303E+03    0.28984E-02   -0.27137E-03  8611   0.135E-01    0.797E-02
RMM:   4    -0.655705744540E+03   -0.19237E-04   -0.66902E-04 10666   0.480E-02    0.119E-01
RMM:   5    -0.655705620611E+03    0.12393E-03   -0.21369E-04  7858   0.311E-02    0.476E-02
RMM:   6    -0.655705600521E+03    0.20091E-04   -0.11840E-04  9039   0.204E-02    0.272E-02
RMM:   7    -0.655705594786E+03    0.57344E-05   -0.47075E-05  6893   0.148E-02
  44 F= -.65570559E+03 E0= -.65565163E+03  d E =-.189321E-03
       N       E                     dE             d eps       ncg     rms          rms(c)
DAV:   1    -0.655705535952E+03    0.64568E-04   -0.11672E-02  8736   0.372E-01    0.500E-02
RMM:   2    -0.655705800851E+03   -0.26490E-03   -0.15100E-03  9155   0.876E-02    0.122E-01
RMM:   3    -0.655705604089E+03    0.19676E-03   -0.18448E-04  8614   0.356E-02    0.201E-02
RMM:   4    -0.655705603060E+03    0.10294E-05   -0.34837E-05  5660   0.129E-02
  45 F= -.65570560E+03 E0= -.65565161E+03  d E =-.197594E-03
       N       E                     dE             d eps       ncg     rms          rms(c)
DAV:   1    -0.655705412228E+03    0.19186E-03   -0.30532E-02  8160   0.596E-01    0.841E-02
RMM:   2    -0.655706120197E+03   -0.70797E-03   -0.39860E-03  8765   0.142E-01    0.205E-01
RMM:   3    -0.655705590784E+03    0.52941E-03   -0.50093E-04  8252   0.578E-02    0.396E-02
RMM:   4    -0.655705594864E+03   -0.40799E-05   -0.12859E-04  8702   0.221E-02    0.560E-02
RMM:   5    -0.655705567390E+03    0.27474E-04   -0.41989E-05  5757   0.154E-02    0.196E-02
RMM:   6    -0.655705564456E+03    0.29344E-05   -0.20241E-05  4978   0.109E-02
  46 F= -.65570556E+03 E0= -.65565151E+03  d E =-.158990E-03
       N       E                     dE             d eps       ncg     rms          rms(c)
DAV:   1    -0.655705534596E+03    0.32795E-04   -0.11460E-02  8304   0.366E-01    0.497E-02
RMM:   2    -0.655705803024E+03   -0.26843E-03   -0.15032E-03  8995   0.880E-02    0.126E-01
RMM:   3    -0.655705602132E+03    0.20089E-03   -0.18667E-04  8213   0.361E-02    0.183E-02
RMM:   4    -0.655705600147E+03    0.19851E-05   -0.31539E-05  5507   0.125E-02
  47 F= -.65570560E+03 E0= -.65565158E+03  d E =-.194681E-03
       N       E                     dE             d eps       ncg     rms          rms(c)
DAV:   1    -0.655705595249E+03    0.68831E-05   -0.15965E-03  8736   0.137E-01    0.262E-02
RMM:   2    -0.655705654319E+03   -0.59070E-04   -0.25301E-04  7989   0.361E-02    0.736E-02
RMM:   3    -0.655705599725E+03    0.54594E-04   -0.39772E-05  5652   0.167E-02    0.141E-02
RMM:   4    -0.655705598899E+03    0.82606E-06   -0.90549E-06  4703   0.842E-03
  48 F= -.65570560E+03 E0= -.65565159E+03  d E =-.193433E-03
       N       E                     dE             d eps       ncg     rms          rms(c)
DAV:   1    -0.655705597096E+03    0.26291E-05   -0.14954E-04  8856   0.426E-02    0.988E-03
RMM:   2    -0.655705602641E+03   -0.55451E-05   -0.25606E-05  5214   0.123E-02
  49 F= -.65570560E+03 E0= -.65565161E+03  d E =-.197175E-03
       N       E                     dE             d eps       ncg     rms          rms(c)
DAV:   1    -0.655705596179E+03    0.91656E-06   -0.42872E-05  7440   0.264E-02    0.761E-03
RMM:   2    -0.655705603739E+03   -0.75598E-05   -0.14123E-05  4875   0.961E-03
  50 F= -.65570560E+03 E0= -.65565160E+03  d E =-.198273E-03
       N       E                     dE             d eps       ncg     rms          rms(c)
DAV:   1    -0.655705595719E+03    0.45953E-06   -0.21472E-05  6072   0.219E-02    0.477E-03
RMM:   2    -0.655705597487E+03   -0.17673E-05   -0.45889E-06  4136   0.628E-03
  51 F= -.65570560E+03 E0= -.65565160E+03  d E =-.192021E-03
       N       E                     dE             d eps       ncg     rms          rms(c)
DAV:   1    -0.655705595289E+03    0.43043E-06   -0.68367E-06  5040   0.118E-02    0.408E-03
RMM:   2    -0.655705597536E+03   -0.22472E-05   -0.29595E-06  3476   0.504E-03
  52 F= -.65570560E+03 E0= -.65565160E+03  d E =-.192071E-03
       N       E                     dE             d eps       ncg     rms          rms(c)
DAV:   1    -0.655705595093E+03    0.19639E-06   -0.54685E-06  4968   0.109E-02    0.276E-03
RMM:   2    -0.655705595829E+03   -0.73644E-06   -0.11983E-06  3008   0.323E-03
  53 F= -.65570560E+03 E0= -.65565159E+03  d E =-.190364E-03
       N       E                     dE             d eps       ncg     rms          rms(c)
DAV:   1    -0.655705591124E+03    0.39682E-05   -0.86199E-03  8256   0.321E-01    0.207E-02
RMM:   2    -0.655705670333E+03   -0.79209E-04   -0.83079E-04  8193   0.653E-02    0.284E-02
RMM:   3    -0.655705657671E+03    0.12662E-04   -0.53066E-05  5504   0.225E-02    0.193E-02
RMM:   4    -0.655705655071E+03    0.26004E-05   -0.11809E-05  4819   0.105E-02
  54 F= -.65570566E+03 E0= -.65565168E+03  d E =-.592420E-04
       N       E                     dE             d eps       ncg     rms          rms(c)
DAV:   1    -0.655705170256E+03    0.48741E-03   -0.77345E-02  8112   0.961E-01    0.629E-02
RMM:   2    -0.655705852127E+03   -0.68187E-03   -0.74437E-03  8293   0.196E-01    0.685E-02
RMM:   3    -0.655705782604E+03    0.69523E-04   -0.53518E-04  9382   0.651E-02    0.688E-02
RMM:   4    -0.655705743016E+03    0.39588E-04   -0.12398E-04  8609   0.236E-02    0.255E-02
RMM:   5    -0.655705739608E+03    0.34078E-05   -0.36010E-05  5667   0.120E-02
  55 F= -.65570574E+03 E0= -.65565188E+03  d E =-.143779E-03
