HECN                                    
           1
    11.240000    0.000000    0.000000
     0.000000   11.240000    0.000000
     0.000000    0.000000   11.240000
   Zr   Ta   Hf   N    C    Mo   V 
   7   6   7  13  19   6   6
Direct configuration=     1
   0.00000000  0.00000000  0.00000000
   0.25000000  0.00000000  0.25000000
   0.25000000  0.50000000  0.25000000
   0.50000000  0.50000000  0.00000000
   0.50000000  0.25000000  0.75000004
   0.00000000  0.50000000  0.50000000
   0.50000000  0.75000004  0.75000004
   0.00000000  0.25000000  0.25000000
   0.75000004  0.75000004  0.00000000
   0.00000000  0.25000000  0.75000004
   0.75000004  0.25000000  0.50000000
   0.00000000  0.75000004  0.75000004
   0.25000000  0.50000000  0.75000004
   0.25000000  0.25000000  0.00000000
   0.50000000  0.25000000  0.25000000
   0.75000004  0.00000000  0.25000000
   0.75000004  0.25000000  0.00000000
   0.25000000  0.75000004  0.00000000
   0.25000000  0.25000000  0.50000000
   0.25000000  0.75000004  0.50000000
   0.25000000  0.25000000  0.25000000
   0.25000000  0.00000000  0.00000000
   0.00000000  0.25000000  0.00000000
   0.75000004  0.25000000  0.25000000
   0.75000004  0.00000000  0.00000000
   0.50000000  0.00000000  0.25000000
   0.00000000  0.50000000  0.25000000
   0.50000000  0.75000004  0.00000000
   0.00000000  0.00000000  0.75000004
   0.75000004  0.25000000  0.75000004
   0.75000004  0.00000000  0.50000000
   0.50000000  0.25000000  0.50000000
   0.50000000  0.00000000  0.75000004
   0.00000000  0.00000000  0.25000000
   0.50000000  0.25000000  0.00000000
   0.25000000  0.75000004  0.25000000
   0.25000000  0.50000000  0.00000000
   0.00000000  0.75000004  0.00000000
   0.75000004  0.75000004  0.25000000
   0.75000004  0.50000000  0.00000000
   0.50000000  0.50000000  0.25000000
   0.25000000  0.25000000  0.75000004
   0.25000000  0.00000000  0.50000000
   0.00000000  0.25000000  0.50000000
   0.25000000  0.75000004  0.75000004
   0.25000000  0.50000000  0.50000000
   0.00000000  0.75000004  0.50000000
   0.00000000  0.50000000  0.75000004
   0.75000004  0.75000004  0.75000004
   0.75000004  0.50000000  0.50000000
   0.50000000  0.75000004  0.50000000
   0.50000000  0.50000000  0.75000004
   0.50000000  0.00000000  0.00000000
   0.00000000  0.50000000  0.00000000
   0.50000000  0.75000004  0.25000000
   0.25000000  0.00000000  0.75000004
   0.50000000  0.00000000  0.50000000
   0.75000004  0.00000000  0.75000004
   0.00000000  0.75000004  0.25000000
   0.75000004  0.50000000  0.25000000
   0.00000000  0.00000000  0.50000000
   0.50000000  0.50000000  0.50000000
   0.75000004  0.50000000  0.75000004
   0.75000004  0.75000004  0.50000000
HECN                                    
           1
     8.071499   -0.001133    0.000304
    -0.001133    8.060831    0.000611
     0.000304    0.000611    8.063783
   Zr   Ta   Hf   N    C    Mo   V 
   7   6   7  13  19   6   6
Direct configuration=     2
  -0.00015472 -0.00201789  0.00009921
   0.24987930 -0.00275798  0.25180572
   0.25071273  0.50267549  0.24982539
   0.50055025  0.49958302  0.00030847
   0.49915700  0.24956058  0.75040888
  -0.00083656  0.50070102  0.50076806
   0.50049108  0.75039576  0.74847982
  -0.00135349  0.24824109  0.25275565
   0.75202063  0.74752578  0.00010425
   0.00155448  0.25172555  0.74703391
   0.75254743  0.25183808  0.50114414
  -0.00062319  0.74847864  0.74936691
   0.25017497  0.50026027  0.75032471
   0.25086866  0.25099795 -0.00269584
   0.50103387  0.25112884  0.24933316
   0.75027966 -0.00248697  0.25103163
   0.74896632  0.25170426 -0.00102227
   0.24896556  0.74917969 -0.00001554
   0.24874497  0.24918637  0.50258611
   0.25024448  0.75083673  0.50002661
   0.25051013  0.24988188  0.24962613
   0.24827833  0.00024045  0.00190671
   0.00008905  0.24806212 -0.00002678
   0.74958428  0.24704503  0.24971106
   0.75141368  0.00045287  0.00221975
   0.50110331  0.00283316  0.24993953
   0.00177552  0.49658334  0.25128107
   0.49996393  0.74876885 -0.00175429
  -0.00038716  0.00031942  0.75207836
   0.75039632  0.24918846  0.75020941
   0.74935953  0.00318853  0.49783482
   0.50011134  0.24941743  0.49913109
   0.50035438  0.00019861  0.75006184
  -0.00108971  0.00348498  0.24828188
   0.50019068  0.24989520  0.00096586
   0.25095544  0.75015808  0.24962761
   0.25031737  0.49987819 -0.00074649
  -0.00096932  0.75080489 -0.00269699
   0.74890213  0.75219059  0.24724061
   0.75001089  0.50073527  0.00029959
   0.49905877  0.49879718  0.24911737
   0.24872923  0.25164235  0.75033687
   0.25112200  0.00036481  0.49972430
  -0.00099079  0.25093413  0.50011343
   0.24877187  0.74814764  0.75037280
   0.24867195  0.49954971  0.50078589
   0.00144382  0.74887668  0.50321183
   0.00211252  0.49978446  0.75016412
   0.75150437  0.75128318  0.75269927
   0.75096193  0.49675713  0.49972248
   0.49864648  0.75127464  0.49993365
   0.49748495  0.49979341  0.75098240
   0.50055818  0.00178858 -0.00049225
  -0.00077899  0.50207924 -0.00247858
   0.50041924  0.74799436  0.25263702
   0.25041881 -0.00010244  0.74732437
   0.49805505 -0.00268920  0.50060779
   0.74955516 -0.00237480  0.74945671
  -0.00018986  0.75159135  0.25013858
   0.74836714  0.50244573  0.25014728
   0.00139836 -0.00027609  0.49912442
   0.50083831  0.50196050  0.49980428
   0.74995709  0.50187982  0.74993849
   0.74979150  0.74841467  0.49976841
HECN                                    
           1
     9.076476   -0.000774    0.000208
    -0.000774    9.069192    0.000417
     0.000208    0.000417    9.071208
   Zr   Ta   Hf   N    C    Mo   V 
   7   6   7  13  19   6   6
Direct configuration=     3
  -0.00008625 -0.00112542  0.00005528
   0.24993281 -0.00153814  0.25100730
   0.25039776  0.50149215  0.24990269
   0.50030724  0.49976741  0.00017209
   0.49952937  0.24975499  0.75022810
  -0.00046709  0.50039106  0.50042850
   0.50027413  0.75022066  0.74915195
  -0.00075552  0.24901918  0.25153727
   0.75112832  0.74861995  0.00005811
   0.00086773  0.25096220  0.74834535
   0.75142219  0.25102503  0.50063841
  -0.00034785  0.74915153  0.74964676
   0.25009768  0.50014516  0.75018118
   0.25048488  0.25055644 -0.00150394
   0.50057714  0.25062950  0.24962803
   0.75015633 -0.00138703  0.25057546
   0.74942278  0.25095054 -0.00057027
   0.24942251  0.74954257 -0.00000872
   0.24929939  0.24954638  0.50144272
   0.25013644  0.75046667  0.50001488
   0.25028481  0.24993408  0.24979142
   0.24903879  0.00013428  0.00106371
   0.00004984  0.24891918 -0.00001500
   0.74976810  0.24835195  0.24983870
   0.75078930  0.00025257  0.00123842
   0.50061582  0.00158007  0.24996638
   0.00099153  0.49809436  0.25071461
   0.49997991  0.74931331 -0.00097874
  -0.00021614  0.00017825  0.75115952
   0.75022134  0.24954736  0.75011683
   0.74964220  0.00177830  0.49879216
   0.50006218  0.24967505  0.49951522
   0.50019785  0.00011075  0.75003453
  -0.00060864  0.00194368  0.24904158
   0.50010648  0.24994157  0.00053884
   0.25053342  0.75008811  0.24979227
   0.25017719  0.49993202 -0.00041646
  -0.00054128  0.75044890 -0.00150461
   0.74938688  0.75122175  0.24846062
   0.75000606  0.50041009  0.00016717
   0.49947456  0.49932918  0.24950753
   0.24929042  0.25091608  0.75018799
   0.25062640  0.00020338  0.49984622
  -0.00055323  0.25052106  0.50006329
   0.24931444  0.74896699  0.75020792
   0.24925857  0.49974897  0.50043840
   0.00080623  0.74937353  0.50179184
   0.00117946  0.49987966  0.75009161
   0.75083989  0.75071568  0.75150598
   0.75053728  0.49819129  0.49984508
   0.49924423  0.75071101  0.49996300
   0.49859584  0.49988497  0.75054804
   0.50031152  0.00099749 -0.00027455
  -0.00043509  0.50115961 -0.00138272
   0.50023424  0.74888148  0.25147111
   0.25023379 -0.00005725  0.74850732
   0.49891429 -0.00149970  0.50033896
   0.74975180 -0.00132448  0.74969684
  -0.00010610  0.75088757  0.25007736
   0.74908822  0.50136416  0.25008222
   0.00078073 -0.00015410  0.49951154
   0.50046792  0.50109337  0.49989089
   0.74997594  0.50104843  0.74996577
   0.74988370  0.74911584  0.49987074
HECN                                    
           1
     8.999104   -0.000802    0.000215
    -0.000802    8.991559    0.000432
     0.000215    0.000432    8.993647
   Zr   Ta   Hf   N    C    Mo   V 
   7   6   7  13  19   6   6
Direct configuration=     4
  -0.00009094 -0.00118650  0.00005828
   0.24992916 -0.00162161  0.25106194
   0.25041932  0.50157312  0.24989740
   0.50032388  0.49975479  0.00018142
   0.49950388  0.24974168  0.75024047
  -0.00049239  0.50041227  0.50045174
   0.50028898  0.75023264  0.74910595
  -0.00079645  0.24896594  0.25162065
   0.75118941  0.74854508  0.00006127
   0.00091474  0.25101443  0.74825560
   0.75149923  0.25108066  0.50067302
  -0.00036670  0.74910548  0.74962761
   0.25010297  0.50015304  0.75019101
   0.25051115  0.25058665 -0.00158551
   0.50060841  0.25066367  0.24960785
   0.75016478 -0.00146230  0.25060668
   0.74939152  0.25100212 -0.00060121
   0.24939123  0.74951774 -0.00000919
   0.24926144  0.24952175  0.50152097
   0.25014384  0.75049199  0.50001568
   0.25030024  0.24993050  0.24978011
   0.24898672  0.00014155  0.00112141
   0.00005253  0.24886054 -0.00001581
   0.74975552  0.24826251  0.24982996
   0.75083205  0.00026627  0.00130558
   0.50064919  0.00166581  0.24996454
   0.00104521  0.49799096  0.25075338
   0.49997881  0.74927606 -0.00103182
  -0.00022785  0.00018791  0.75122240
   0.75023333  0.24952280  0.75012316
   0.74962284  0.00187480  0.49872665
   0.50006555  0.24965742  0.49948893
   0.50020856  0.00011676  0.75003640
  -0.00064159  0.00204915  0.24898959
   0.50011225  0.24993840  0.00056807
   0.25056231  0.75009290  0.24978100
   0.25018679  0.49992833 -0.00043905
  -0.00057059  0.75047326 -0.00158622
   0.74935369  0.75128805  0.24837712
   0.75000639  0.50043234  0.00017623
   0.49944609  0.49929278  0.24948083
   0.24925199  0.25096578  0.75019818
   0.25066033  0.00021443  0.49983788
  -0.00058319  0.25054933  0.50006673
   0.24927730  0.74891093  0.75021920
   0.24921841  0.49973534  0.50046218
   0.00084988  0.74933953  0.50188902
   0.00124335  0.49987315  0.75009657
   0.75088539  0.75075451  0.75158765
   0.75056635  0.49809315  0.49983669
   0.49920331  0.75074958  0.49996100
   0.49851978  0.49987871  0.75057777
   0.50032840  0.00105162 -0.00028945
  -0.00045864  0.50122254 -0.00145772
   0.50024691  0.74882078  0.25155090
   0.25024645 -0.00006034  0.74842636
   0.49885546 -0.00158109  0.50035735
   0.74973834 -0.00139636  0.74968040
  -0.00011183  0.75093573  0.25008155
   0.74903885  0.50143817  0.25008668
   0.00082301 -0.00016245  0.49948504
   0.50049327  0.50115270  0.49988496
   0.74997465  0.50110532  0.74996390
   0.74987739  0.74906786  0.49986373
HECN                                    
           1
     8.958200   -0.000816    0.000219
    -0.000816    8.950517    0.000440
     0.000219    0.000440    8.952644
   Zr   Ta   Hf   N    C    Mo   V 
   7   6   7  13  19   6   6
Direct configuration=     5
  -0.00009343 -0.00121906  0.00005988
   0.24992720 -0.00166612  0.25109108
   0.25043081  0.50161630  0.24989458
   0.50033275  0.49974806  0.00018640
   0.49949029  0.24973459  0.75024707
  -0.00050588  0.50042358  0.50046413
   0.50029690  0.75023903  0.74908142
  -0.00081828  0.24893755  0.25166511
   0.75122199  0.74850515  0.00006295
   0.00093981  0.25104228  0.74820774
   0.75154030  0.25111033  0.50069148
  -0.00037675  0.74908093  0.74961740
   0.25010579  0.50015724  0.75019625
   0.25052516  0.25060276 -0.00162900
   0.50062508  0.25068189  0.24959709
   0.75016928 -0.00150244  0.25062332
   0.74937486  0.25102962 -0.00061770
   0.24937454  0.74950450 -0.00000944
   0.24924120  0.24950861  0.50156269
   0.25014778  0.75050550  0.50001611
   0.25030847  0.24992860  0.24977408
   0.24895896  0.00014542  0.00115217
   0.00005396  0.24882926 -0.00001624
   0.74974881  0.24821483  0.24982530
   0.75085484  0.00027358  0.00134139
   0.50066698  0.00171153  0.24996357
   0.00107383  0.49793583  0.25077405
   0.49997823  0.74925619 -0.00106012
  -0.00023409  0.00019306  0.75125594
   0.75023971  0.24950971  0.75012654
   0.74961252  0.00192626  0.49869171
   0.50006734  0.24964802  0.49947491
   0.50021428  0.00011997  0.75003739
  -0.00065915  0.00210539  0.24896187
   0.50011532  0.24993670  0.00058365
   0.25057772  0.75009545  0.24977499
   0.25019190  0.49992637 -0.00045109
  -0.00058622  0.75048625 -0.00162973
   0.74933599  0.75132340  0.24833260
   0.75000656  0.50044420  0.00018106
   0.49943092  0.49927337  0.24946659
   0.24923150  0.25099228  0.75020361
   0.25067842  0.00022032  0.49983343
  -0.00059916  0.25056440  0.50006856
   0.24925749  0.74888103  0.75022521
   0.24919700  0.49972807  0.50047486
   0.00087316  0.74932140  0.50194084
   0.00127741  0.49986967  0.75009922
   0.75090964  0.75077522  0.75163120
   0.75058186  0.49804082  0.49983221
   0.49918148  0.75077014  0.49995993
   0.49847923  0.49987537  0.75059362
   0.50033741  0.00108049 -0.00029739
  -0.00047119  0.50125610 -0.00149771
   0.50025366  0.74878841  0.25159345
   0.25025321 -0.00006199  0.74838319
   0.49882410 -0.00162450  0.50036716
   0.74973116 -0.00143468  0.74967164
  -0.00011489  0.75096141  0.25008379
   0.74901252  0.50147764  0.25008905
   0.00084556 -0.00016690  0.49947092
   0.50050679  0.50118434  0.49988180
   0.74997396  0.50113566  0.74996291
   0.74987403  0.74904228  0.49986000
HECN                                    
           1
     8.911413    0.008419    0.000046
     0.008417    8.977204    0.007995
     0.000047    0.008000    8.906638
   Zr   Ta   Hf   N    C    Mo   V 
   7   6   7  13  19   6   6
Direct configuration=     6
  -0.00017460 -0.00425513 -0.00058906
   0.25190187 -0.00409536  0.25292302
   0.25033779  0.50429680  0.25025985
   0.50333273  0.49975313  0.00072858
   0.50117092  0.24593894  0.74714863
  -0.00469786  0.50376205  0.49980539
   0.50329863  0.75306409  0.74585231
  -0.00402348  0.24657967  0.25573747
   0.75387162  0.74431112  0.00129088
   0.00004325  0.25217632  0.74435733
   0.75341022  0.25480376  0.50334350
  -0.00335329  0.74819657  0.74746759
   0.25108478  0.49981050  0.75049772
   0.24881255  0.24768295 -0.00330153
   0.50276430  0.25236452  0.25215287
   0.74893148 -0.00675058  0.25430056
   0.75047256  0.25248774 -0.00310979
   0.24927571  0.75164287  0.00029030
   0.24992801  0.24721210  0.50341885
   0.25027825  0.75266095  0.49969650
   0.24944981  0.25002658  0.24923951
   0.25075498 -0.00016782 -0.00009930
   0.00034971  0.25000305 -0.00029421
   0.75046361  0.25004190  0.25095421
   0.74874161 -0.00103379  0.00168852
   0.50312326  0.00200758  0.25019521
  -0.00442511  0.49780355  0.24843581
   0.50177795  0.75152735  0.00028882
  -0.00068731  0.00041508  0.74564696
   0.75317118  0.25244358  0.74878292
   0.75237991  0.00069044  0.49932117
   0.50252455  0.25262023  0.49752360
   0.50030937  0.00006377  0.74991476
  -0.00295925  0.00105535  0.25531878
   0.50047790  0.24630800  0.00230914
   0.24870634  0.74977424  0.24978161
   0.24603710  0.50082638 -0.00264308
  -0.00343414  0.74692256  0.00013563
   0.75156990  0.74535286  0.25141258
   0.75486838  0.50386373  0.00108567
   0.50682593  0.50259052  0.25730834
   0.24567959  0.25175316  0.75058832
   0.24855686 -0.00010634  0.50482221
  -0.00338935  0.24397545  0.50084799
   0.24541919  0.74827919  0.75039842
   0.25525328  0.49983045  0.50288351
  -0.00558222  0.75660936  0.50085669
  -0.00238653  0.49978039  0.75408951
   0.75486402  0.74824517  0.74863139
   0.74307829  0.50049529  0.49906770
   0.50567505  0.74846242  0.49509861
   0.50104196  0.50008361  0.74308231
   0.50177519  0.00521548 -0.00106335
  -0.00356022  0.50426854 -0.00538635
   0.50143722  0.74442978  0.25711622
   0.25027968  0.00047544  0.74425875
   0.49453213 -0.00699231  0.50114242
   0.74921665 -0.00627363  0.74793029
  -0.00068894  0.75487034  0.25066557
   0.74533257  0.50707381  0.25105729
   0.00360748 -0.00066515  0.49795307
   0.50403000  0.50525759  0.49936519
   0.74916258  0.50547806  0.74981841
   0.74997503  0.74467643  0.49819892
HECN                                    
           1
     8.887893    0.013061   -0.000042
     0.013059    8.990619    0.011792
    -0.000040    0.011801    8.883512
   Zr   Ta   Hf   N    C    Mo   V 
   7   6   7  13  19   6   6
Direct configuration=     7
  -0.00021404 -0.00577650 -0.00091568
   0.25290102 -0.00531470  0.25384974
   0.25028940  0.50564016  0.25044328
   0.50484872  0.49975388  0.00100257
   0.50202214  0.24403701  0.74558464
  -0.00681795  0.50543776  0.49947107
   0.50481400  0.75447982  0.74421950
  -0.00564191  0.24539782  0.25779616
   0.75521275  0.74220717  0.00191314
  -0.00041044  0.25274681  0.74241126
   0.75435327  0.25665281  0.50468199
  -0.00485700  0.74775578  0.74638165
   0.25157969  0.49963608  0.75065020
   0.24794860  0.24622114 -0.00414542
   0.50384447  0.25320566  0.25344359
   0.74830874 -0.00938188  0.25616086
   0.75102649  0.25321904 -0.00436963
   0.24922466  0.75271454  0.00044084
   0.25027629  0.24605994  0.50435774
   0.25034305  0.75374134  0.49953408
   0.24901585  0.25007637  0.24896935
   0.25166272 -0.00032521 -0.00073151
   0.00049855  0.25059132 -0.00043516
   0.75082389  0.25095677  0.25152387
   0.74767441 -0.00168810  0.00186446
   0.50436435  0.00215458  0.25031216
  -0.00720387  0.49774110  0.24725431
   0.50268624  0.75266416  0.00096948
  -0.00091650  0.00052898  0.74281269
   0.75465102  0.25391308  0.74810278
   0.75377902  0.00006934  0.49963978
   0.50376470  0.25410946  0.49653638
   0.50035745  0.00003560  0.74985282
  -0.00412095  0.00052756  0.25853130
   0.50066302  0.24448837  0.00318256
   0.24776084  0.74961423  0.24978507
   0.24393705  0.50128056 -0.00375109
  -0.00487143  0.74513717  0.00102913
   0.75270190  0.74235794  0.25297143
   0.75732345  0.50557470  0.00154136
   0.51056124  0.50424590  0.26126937
   0.24388429  0.25213619  0.75078234
   0.24748499 -0.00027108  0.50734311
  -0.00479590  0.24067417  0.50124460
   0.24347988  0.74797947  0.75048615
   0.25831370  0.49987759  0.50410060
  -0.00884815  0.76026590  0.50030572
  -0.00423795  0.49973585  0.75610576
   0.75686358  0.74697633  0.74711673
   0.73928520  0.50172969  0.49868027
   0.50895763  0.74730448  0.49264327
   0.50233681  0.50018985  0.73928685
   0.50249959  0.00728752 -0.00145212
  -0.00512281  0.50578164 -0.00735256
   0.50203764  0.74224226  0.25990869
   0.25029274  0.00074654  0.74217448
   0.49236605 -0.00968077  0.50153638
   0.74895915 -0.00869791  0.74705245
  -0.00098104  0.75682954  0.25095787
   0.74347006  0.50988012  0.25154412
   0.00500341 -0.00091566  0.49718636
   0.50580828  0.50729749  0.49910246
   0.74875030  0.50765496  0.74974354
   0.75002832  0.74248891  0.49736145
HECN                                    
           1
     8.981290    0.014021    0.001574
     0.014093    9.042664    0.004535
     0.001587    0.004541    9.001876
   Zr   Ta   Hf   N    C    Mo   V 
   7   6   7  13  19   6   6
Direct configuration=     8
  -0.00302898 -0.00782279 -0.00072158
   0.25367792 -0.00334102  0.25543764
   0.24973651  0.50378346  0.25152415
   0.50511879  0.49785432 -0.00021997
   0.50202696  0.24249221  0.74577160
  -0.00859918  0.50647441  0.49952452
   0.50610814  0.75517958  0.74270805
  -0.00690655  0.24123805  0.26200136
   0.75513964  0.74130979  0.00423317
  -0.00158528  0.25271245  0.74021093
   0.75270959  0.26011397  0.50601303
  -0.00514361  0.74734048  0.74581800
   0.25260764  0.49971240  0.74894429
   0.24797071  0.24539304 -0.00214342
   0.50528913  0.25499518  0.25443493
   0.74695052 -0.01378330  0.25907668
   0.75288368  0.25348063 -0.00574529
   0.25030500  0.75288591 -0.00083982
   0.24971470  0.24730984  0.50214000
   0.24911625  0.75217695  0.50114733
   0.24779257  0.25025548  0.24911807
   0.25282309 -0.00074003 -0.00091998
   0.00022517  0.24993395  0.00051466
   0.75220466  0.25065111  0.25211316
   0.74692218 -0.00243497  0.00265445
   0.50545982  0.00266635  0.25037349
  -0.01031249  0.49564147  0.24669911
   0.50439658  0.75488937  0.00102662
  -0.00141741  0.00111531  0.73945731
   0.75572385  0.25497647  0.74803775
   0.75400855  0.00018336  0.50133387
   0.50538412  0.25400597  0.49594700
   0.50028397 -0.00048219  0.74955755
  -0.00350334 -0.00058214  0.26049155
   0.50139401  0.24538404  0.00287563
   0.24626586  0.74949493  0.25002333
   0.24386613  0.50167181 -0.00402855
  -0.00354173  0.74456841  0.00234777
   0.75492468  0.73834382  0.25480054
   0.75655650  0.50410594  0.00250503
   0.51272231  0.50442521  0.26313124
   0.24475585  0.25272926  0.75047193
   0.24522136 -0.00111154  0.50695928
  -0.00339276  0.24014024  0.50085439
   0.24346389  0.74797267  0.75008790
   0.25981291  0.50046120  0.50419301
  -0.01183402  0.76338735  0.49796474
  -0.00668968  0.50000857  0.75408058
   0.75540511  0.74474028  0.74521084
   0.73758935  0.50365115  0.49851501
   0.51125530  0.74633390  0.49313415
   0.50496124  0.50044208  0.73678940
   0.50362232  0.01140623 -0.00292090
  -0.00600520  0.50931266 -0.01038426
   0.50461140  0.73771808  0.26253296
   0.24861742  0.00202879  0.74144663
   0.48856712 -0.01390105  0.50242774
   0.74947335 -0.01345763  0.74550035
  -0.00154185  0.76289716  0.25341502
   0.74074396  0.51687430  0.25346237
   0.00826488 -0.00221779  0.49576890
   0.50869390  0.51342981  0.49940838
   0.74767322  0.51371177  0.74932237
   0.75046091  0.73586395  0.49438469
HECN                                    
           1
     8.957687    0.013778    0.001166
     0.013831    9.029511    0.006369
     0.001176    0.006375    8.971963
   Zr   Ta   Hf   N    C    Mo   V 
   7   6   7  13  19   6   6
Direct configuration=     9
  -0.00232503 -0.00730873 -0.00076969
   0.25348374 -0.00383725  0.25504125
   0.24987478  0.50424976  0.25125494
   0.50505114  0.49833187  0.00008533
   0.50202572  0.24288033  0.74572529
  -0.00815368  0.50621388  0.49951090
   0.50578443  0.75500409  0.74308492
  -0.00659019  0.24228238  0.26095338
   0.75515801  0.74153480  0.00365474
  -0.00129156  0.25272151  0.74075964
   0.75312082  0.25924399  0.50568029
  -0.00507197  0.74744494  0.74595865
   0.25235048  0.49969359  0.74936978
   0.24796525  0.24560071 -0.00264255
   0.50492792  0.25454536  0.25418739
   0.74729022 -0.01267799  0.25835031
   0.75241915  0.25341523 -0.00540217
   0.25003476  0.75284314 -0.00052041
   0.24985509  0.24699622  0.50269282
   0.24942310  0.75256967  0.50074525
   0.24809851  0.25021042  0.24908089
   0.25253287 -0.00063573 -0.00087284
   0.00029357  0.25009892  0.00027790
   0.75185936  0.25072783  0.25196632
   0.74711032 -0.00224748  0.00245755
   0.50518586  0.00253777  0.25035814
  -0.00953512  0.49616908  0.24683786
   0.50396889  0.75433027  0.00101199
  -0.00129227  0.00096866  0.74029399
   0.75545556  0.25470931  0.74805380
   0.75395123  0.00015437  0.50091136
   0.50497909  0.25403213  0.49609409
   0.50030232 -0.00035203  0.74963129
  -0.00365774 -0.00030370  0.26000292
   0.50121120  0.24515906  0.00295203
   0.24663975  0.74952482  0.24996386
   0.24388386  0.50157355 -0.00395943
  -0.00387424  0.74471108  0.00201908
   0.75436875  0.73935212  0.25434528
   0.75674832  0.50447478  0.00226496
   0.51218193  0.50437982  0.26266695
   0.24453788  0.25258033  0.75054926
   0.24578744 -0.00090033  0.50705508
  -0.00374371  0.24027451  0.50095188
   0.24346787  0.74797446  0.75018723
   0.25943799  0.50031457  0.50416991
  -0.01108730  0.76260345  0.49854780
  -0.00607660  0.49994040  0.75458549
   0.75576972  0.74530248  0.74568656
   0.73801352  0.50316834  0.49855576
   0.51068066  0.74657772  0.49301203
   0.50430478  0.50037927  0.73741233
   0.50334157  0.01037166 -0.00255538
  -0.00578456  0.50842603 -0.00962892
   0.50396771  0.73885438  0.26187951
   0.24903641  0.00170671  0.74162782
   0.48951714 -0.01284090  0.50220613
   0.74934455 -0.01226134  0.74588844
  -0.00140132  0.76137205  0.25280095
   0.74142602  0.51511644  0.25298241
   0.00744911 -0.00189024  0.49612282
   0.50797240  0.51188896  0.49933096
   0.74794273  0.51218995  0.74942612
   0.75035241  0.73752921  0.49512846
HECN                                    
           1
     8.924839    0.007133    0.002464
     0.007151    8.985993   -0.004484
     0.002486   -0.004430    8.954590
   Zr   Ta   Hf   N    C    Mo   V 
   7   6   7  13  19   6   6
Direct configuration=    10
  -0.00568587 -0.00880000 -0.00061639
   0.25426121 -0.00222919  0.25576568
   0.24860577  0.50231727  0.25166452
   0.50404300  0.49640160 -0.00167684
   0.50119646  0.24240734  0.74651570
  -0.00906694  0.50635312  0.49941160
   0.50580374  0.75478996  0.74297793
  -0.00786906  0.23785701  0.26494897
   0.75443397  0.74170410  0.00643568
  -0.00071499  0.25223840  0.73857404
   0.75124183  0.26264874  0.50622116
  -0.00496106  0.74725016  0.74600738
   0.25329281  0.49899255  0.74775358
   0.24773327  0.24613132 -0.00130740
   0.50737446  0.25569999  0.25447296
   0.74597464 -0.01570708  0.26161055
   0.75447564  0.25292925 -0.00619550
   0.25160841  0.75206349 -0.00118466
   0.24992770  0.24906782  0.50129590
   0.24788594  0.75044651  0.50161233
   0.24718412  0.25032489  0.24953176
   0.25317340 -0.00075619 -0.00034938
  -0.00003501  0.24869606  0.00148441
   0.75314172  0.24893961  0.25261185
   0.74675305 -0.00282523  0.00377222
   0.50554868  0.00313163  0.25060284
  -0.01096202  0.49249179  0.24705234
   0.50547411  0.75628864  0.00056469
  -0.00208494  0.00181494  0.73871150
   0.75548538  0.25449034  0.74847459
   0.75264281  0.00127575  0.50272077
   0.50608717  0.25216848  0.49626281
   0.50046927 -0.00086519  0.74892275
  -0.00281954 -0.00160992  0.25939268
   0.50208898  0.24774792  0.00235975
   0.24607507  0.74951058  0.25028753
   0.24514583  0.50163393 -0.00369735
  -0.00178866  0.74511520  0.00246919
   0.75617668  0.73736535  0.25476431
   0.75462327  0.50207942  0.00318425
   0.51135192  0.50310651  0.26131379
   0.24628659  0.25321017  0.75007597
   0.24397069 -0.00165123  0.50512838
  -0.00240472  0.24223190  0.50078703
   0.24440386  0.74819419  0.74977022
   0.25859680  0.50087929  0.50332785
  -0.01168009  0.76327775  0.49693675
  -0.00723605  0.50032757  0.75120319
   0.75349889  0.74365576  0.74513675
   0.73976538  0.50421508  0.49857626
   0.51046552  0.74665858  0.49541726
   0.50612610  0.50068577  0.73763113
   0.50502750  0.01419373 -0.00454798
  -0.00574106  0.51188047 -0.01329149
   0.50668104  0.73532794  0.26317319
   0.24648161  0.00390380  0.74110759
   0.48534125 -0.01632669  0.50301687
   0.75010314 -0.01780436  0.74504383
  -0.00146539  0.76853633  0.25634457
   0.73936780  0.52127762  0.25530963
   0.01149790 -0.00351777  0.49477975
   0.51020728  0.51845859  0.50001715
   0.74685989  0.51961420  0.74886017
   0.75055454  0.73008513  0.49147209
HECN                                    
           1
     8.927444    0.007660    0.002361
     0.007681    8.989445   -0.003623
     0.002382   -0.003573    8.955968
   Zr   Ta   Hf   N    C    Mo   V 
   7   6   7  13  19   6   6
Direct configuration=    11
  -0.00541820 -0.00868095 -0.00062847
   0.25419922 -0.00235749  0.25570796
   0.24870692  0.50247135  0.25163214
   0.50412336  0.49655569 -0.00153661
   0.50126252  0.24244501  0.74645291
  -0.00899424  0.50634209  0.49941947
   0.50580221  0.75480704  0.74298645
  -0.00776693  0.23820945  0.26463181
   0.75449164  0.74169038  0.00621462
  -0.00076089  0.25227708  0.73874781
   0.75139124  0.26237740  0.50617782
  -0.00496988  0.74726568  0.74600353
   0.25321781  0.49904853  0.74788211
   0.24775172  0.24608891 -0.00141358
   0.50717961  0.25560779  0.25445018
   0.74607961 -0.01546586  0.26135170
   0.75431193  0.25296794 -0.00613237
   0.25148316  0.75212560 -0.00113177
   0.24992178  0.24890282  0.50140673
   0.24800846  0.75061576  0.50154360
   0.24725692  0.25031577  0.24949591
   0.25312241 -0.00074667 -0.00039097
  -0.00000876  0.24880779  0.00138864
   0.75303974  0.24908202  0.25256073
   0.74678155 -0.00277928  0.00366778
   0.50551976  0.00308425  0.25058334
  -0.01084819  0.49278498  0.24703564
   0.50535415  0.75613249  0.00060007
  -0.00202189  0.00174768  0.73883719
   0.75548302  0.25450775  0.74844116
   0.75274694  0.00118627  0.50257683
   0.50599906  0.25231695  0.49624959
   0.50045600 -0.00082423  0.74897911
  -0.00288620 -0.00150579  0.25944132
   0.50201893  0.24754157  0.00240658
   0.24612003  0.74951172  0.25026180
   0.24504535  0.50162901 -0.00371817
  -0.00195473  0.74508282  0.00243340
   0.75603286  0.73752357  0.25473121
   0.75479262  0.50227039  0.00311139
   0.51141806  0.50320819  0.26142145
   0.24614732  0.25315991  0.75011354
   0.24411536 -0.00159108  0.50528157
  -0.00251145  0.24207581  0.50079996
   0.24432932  0.74817666  0.74980335
   0.25866373  0.50083440  0.50339472
  -0.01163295  0.76322419  0.49706472
  -0.00714380  0.50029709  0.75147197
   0.75367978  0.74378720  0.74518058
   0.73962583  0.50413154  0.49857455
   0.51048267  0.74665191  0.49522608
   0.50598107  0.50066121  0.73761373
   0.50489302  0.01388916 -0.00438995
  -0.00574477  0.51160546 -0.01300072
   0.50646523  0.73560875  0.26307074
   0.24668488  0.00372887  0.74114870
   0.48567395 -0.01604867  0.50295272
   0.75004306 -0.01736248  0.74511150
  -0.00146067  0.76796492  0.25606223
   0.73953134  0.52078640  0.25512404
   0.01117562 -0.00338814  0.49488670
   0.51002896  0.51793472  0.49996201
   0.74694566  0.51902252  0.74890442
   0.75053884  0.73067884  0.49176342
HECN                                    
           1
     8.913764    0.001017    0.000907
     0.000934    9.045054   -0.006990
     0.000931   -0.006959    8.934256
   Zr   Ta   Hf   N    C    Mo   V 
   7   6   7  13  19   6   6
Direct configuration=    12
  -0.00635736 -0.00863308 -0.00119027
   0.25526332 -0.00288204  0.25417510
   0.24651762  0.50246163  0.25063352