       N       E                     dE             d eps       ncg     rms          rms(c)
DAV:   1     0.417529091990E+04    0.41753E+04   -0.20211E+05  8624   0.137E+03
DAV:   2    -0.128955409422E+03   -0.43042E+04   -0.41332E+04  8624   0.453E+02
DAV:   3    -0.724322161276E+03   -0.59537E+03   -0.57543E+03 12572   0.143E+02
DAV:   4    -0.779621207664E+03   -0.55299E+02   -0.54859E+02 15428   0.468E+01
DAV:   5    -0.782215366575E+03   -0.25942E+01   -0.25899E+01 13552   0.792E+00    0.610E+01
RMM:   6    -0.656408629191E+03    0.12581E+03   -0.69835E+02 12170   0.399E+01    0.196E+01
RMM:   7    -0.652191077932E+03    0.42176E+01   -0.94010E+01 12971   0.186E+01    0.112E+01
RMM:   8    -0.651843057337E+03    0.34802E+00   -0.23030E+01 13638   0.674E+00    0.795E+00
RMM:   9    -0.651451201805E+03    0.39186E+00   -0.52161E+00 13878   0.355E+00    0.547E+00
RMM:  10    -0.651488814928E+03   -0.37613E-01   -0.33009E+00 13718   0.267E+00    0.298E+00
RMM:  11    -0.651496991420E+03   -0.81765E-02   -0.15733E+00 14239   0.187E+00    0.163E+00
RMM:  12    -0.651531964316E+03   -0.34973E-01   -0.12641E+00 13931   0.157E+00    0.131E+00
RMM:  13    -0.651601160584E+03   -0.69196E-01   -0.81253E-01 14689   0.115E+00    0.125E+00
RMM:  14    -0.651624958067E+03   -0.23797E-01   -0.39566E-01 14420   0.873E-01    0.935E-01
RMM:  15    -0.651631448950E+03   -0.64909E-02   -0.27451E-01 14396   0.768E-01    0.349E-01
RMM:  16    -0.651647327653E+03   -0.15879E-01   -0.20299E-01 14901   0.586E-01    0.190E-01
RMM:  17    -0.651655548906E+03   -0.82213E-02   -0.10228E-01 14662   0.440E-01    0.183E-01
RMM:  18    -0.651661522065E+03   -0.59732E-02   -0.71269E-02 14945   0.356E-01    0.101E-01
RMM:  19    -0.651665649518E+03   -0.41275E-02   -0.46583E-02 15097   0.295E-01    0.747E-02
RMM:  20    -0.651668526749E+03   -0.28772E-02   -0.31815E-02 15004   0.241E-01    0.502E-02
RMM:  21    -0.651670517602E+03   -0.19909E-02   -0.21932E-02 14812   0.200E-01    0.357E-02
RMM:  22    -0.651671897984E+03   -0.13804E-02   -0.15057E-02 14679   0.168E-01    0.176E-02
RMM:  23    -0.651672871104E+03   -0.97312E-03   -0.10639E-02 14435   0.140E-01    0.169E-02
RMM:  24    -0.651673552772E+03   -0.68167E-03   -0.74510E-03 14287   0.118E-01    0.145E-02
RMM:  25    -0.651674038304E+03   -0.48553E-03   -0.53299E-03 14174   0.100E-01    0.103E-02
RMM:  26    -0.651674383736E+03   -0.34543E-03   -0.37765E-03 14033   0.854E-02    0.526E-03
RMM:  27    -0.651674637620E+03   -0.25388E-03   -0.27885E-03 13685   0.720E-02    0.120E-02
RMM:  28    -0.651674817392E+03   -0.17977E-03   -0.19782E-03 13624   0.619E-02    0.587E-03
RMM:  29    -0.651674955163E+03   -0.13777E-03   -0.15153E-03 13239   0.540E-02    0.324E-02
RMM:  30    -0.651675048313E+03   -0.93150E-04   -0.10629E-03 13178   0.476E-02    0.253E-02
RMM:  31    -0.651675123644E+03   -0.75331E-04   -0.85728E-04 12810   0.414E-02    0.184E-02
RMM:  32    -0.651675177568E+03   -0.53924E-04   -0.60832E-04 11986   0.338E-02    0.129E-02
RMM:  33    -0.651675219700E+03   -0.42132E-04   -0.47347E-04 11543   0.294E-02    0.137E-02
RMM:  34    -0.651675250735E+03   -0.31035E-04   -0.34815E-04 10977   0.255E-02    0.181E-02
RMM:  35    -0.651675274631E+03   -0.23896E-04   -0.27197E-04 10550   0.227E-02    0.193E-02
RMM:  36    -0.651675290904E+03   -0.16273E-04   -0.19764E-04 10072   0.206E-02    0.106E-02
RMM:  37    -0.651675304957E+03   -0.14053E-04   -0.16152E-04  9743   0.189E-02    0.165E-02
RMM:  38    -0.651675314985E+03   -0.10028E-04   -0.12104E-04  9389   0.171E-02    0.179E-02
RMM:  39    -0.651675322909E+03   -0.79239E-05   -0.98825E-05  9001   0.158E-02
   1 F= -.65167532E+03 E0= -.65162450E+03  d E =-.651675E+03
       N       E                     dE             d eps       ncg     rms          rms(c)
DAV:   1    -0.651675307658E+03    0.73272E-05   -0.15025E-02  9016   0.338E-01    0.393E-02
RMM:   2    -0.651675393921E+03   -0.86263E-04   -0.12072E-03 12739   0.866E-02    0.234E-02
RMM:   3    -0.651675417072E+03   -0.23151E-04   -0.30328E-04 12374   0.354E-02    0.206E-02
RMM:   4    -0.651675413109E+03    0.39634E-05   -0.70018E-05  9754   0.171E-02
   2 F= -.65167541E+03 E0= -.65162458E+03  d E =-.901994E-04
