  64  64   0   0
  0.1129557E+02  0.8932500E-09  0.9055600E-09  0.8937200E-09  0.5000000E-15
  1.000000000000000E-004
  CAR 
 HECN                                    
     13.38680623    -53.35670611  301      7.39769160      1.00000000
    -53.357  0.0000E+00  0.0000E+00
    -53.134  0.0000E+00  0.0000E+00
    -52.912  0.0000E+00  0.0000E+00
    -52.689  0.0000E+00  0.0000E+00
    -52.467  0.0000E+00  0.0000E+00
    -52.244  0.0000E+00  0.0000E+00
    -52.022  0.0000E+00  0.0000E+00
    -51.799  0.0000E+00  0.0000E+00
    -51.577  0.0000E+00  0.0000E+00
    -51.354  0.0000E+00  0.0000E+00
    -51.132  0.0000E+00  0.0000E+00
    -50.909  0.4990E-17  0.1110E-17
    -50.687  0.1179E-07  0.2622E-08
    -50.464  0.2034E-02  0.4525E-03
    -50.242  0.9149E-01  0.2081E-01
    -50.020  0.2106E+00  0.6766E-01
    -49.797  0.2497E+00  0.1232E+00
    -49.575  0.7500E-01  0.1399E+00
    -49.352  0.4871E-03  0.1400E+00
    -49.130  0.5561E-09  0.1400E+00
    -48.907  0.0000E+00  0.1400E+00
    -48.685  0.0000E+00  0.1400E+00
    -48.462  0.0000E+00  0.1400E+00
    -48.240  0.0000E+00  0.1400E+00
    -48.017  0.0000E+00  0.1400E+00
    -47.795  0.0000E+00  0.1400E+00
    -47.572  0.0000E+00  0.1400E+00
    -47.350  0.0000E+00  0.1400E+00
    -47.127  0.0000E+00  0.1400E+00
    -46.905  0.0000E+00  0.1400E+00
    -46.682  0.0000E+00  0.1400E+00
    -46.460  0.0000E+00  0.1400E+00
    -46.237  0.0000E+00  0.1400E+00
    -46.015  0.0000E+00  0.1400E+00
    -45.792  0.0000E+00  0.1400E+00
    -45.570  0.0000E+00  0.1400E+00
    -45.347  0.0000E+00  0.1400E+00
    -45.125  0.0000E+00  0.1400E+00
    -44.903  0.0000E+00  0.1400E+00
    -44.680  0.0000E+00  0.1400E+00
    -44.458  0.0000E+00  0.1400E+00
    -44.235  0.0000E+00  0.1400E+00
    -44.013  0.0000E+00  0.1400E+00
    -43.790  0.0000E+00  0.1400E+00
    -43.568  0.0000E+00  0.1400E+00
    -43.345  0.0000E+00  0.1400E+00
    -43.123  0.0000E+00  0.1400E+00
    -42.900  0.0000E+00  0.1400E+00
    -42.678  0.0000E+00  0.1400E+00
    -42.455  0.0000E+00  0.1400E+00
    -42.233  0.0000E+00  0.1400E+00
    -42.010  0.2377E-12  0.1400E+00
    -41.788  0.8901E-05  0.1400E+00
    -41.565  0.3730E-01  0.1483E+00
    -41.343  0.1413E+00  0.1797E+00
    -41.120  0.2151E+00  0.2276E+00
    -40.898  0.2344E+00  0.2797E+00
    -40.675  0.1131E-02  0.2800E+00
    -40.453  0.1316E-08  0.2800E+00
    -40.230  0.0000E+00  0.2800E+00
    -40.008  0.0000E+00  0.2800E+00
    -39.786  0.0000E+00  0.2800E+00
    -39.563  0.0000E+00  0.2800E+00
    -39.341  0.0000E+00  0.2800E+00
    -39.118  0.0000E+00  0.2800E+00
    -38.896  0.0000E+00  0.2800E+00
    -38.673  0.0000E+00  0.2800E+00
    -38.451  0.0000E+00  0.2800E+00
    -38.228  0.0000E+00  0.2800E+00
    -38.006  0.0000E+00  0.2800E+00
    -37.783  0.0000E+00  0.2800E+00
    -37.561  0.0000E+00  0.2800E+00
    -37.338  0.0000E+00  0.2800E+00
    -37.116  0.0000E+00  0.2800E+00
    -36.893  0.7984E-16  0.2800E+00
    -36.671  0.6883E-07  0.2800E+00
    -36.448  0.4487E-02  0.2810E+00
    -36.226  0.2933E+00  0.3462E+00
    -36.003  0.1151E+01  0.6022E+00
    -35.781  0.1696E+00  0.6400E+00
    -35.558  0.1274E-03  0.6400E+00
    -35.336  0.2733E-10  0.6400E+00
    -35.113  0.0000E+00  0.6400E+00
    -34.891  0.0000E+00  0.6400E+00
    -34.669  0.0000E+00  0.6400E+00
    -34.446  0.0000E+00  0.6400E+00
    -34.224  0.0000E+00  0.6400E+00
    -34.001  0.0000E+00  0.6400E+00
    -33.779  0.0000E+00  0.6400E+00
    -33.556  0.0000E+00  0.6400E+00
    -33.334  0.0000E+00  0.6400E+00
    -33.111  0.0000E+00  0.6400E+00
    -32.889  0.0000E+00  0.6400E+00
    -32.666  0.0000E+00  0.6400E+00
    -32.444  0.0000E+00  0.6400E+00
    -32.221  0.0000E+00  0.6400E+00
    -31.999  0.0000E+00  0.6400E+00
    -31.776  0.0000E+00  0.6400E+00
    -31.554  0.0000E+00  0.6400E+00
    -31.331  0.0000E+00  0.6400E+00
    -31.109  0.0000E+00  0.6400E+00
    -30.886  0.0000E+00  0.6400E+00
    -30.664  0.0000E+00  0.6400E+00
    -30.441  0.0000E+00  0.6400E+00
    -30.219  0.0000E+00  0.6400E+00
    -29.996  0.0000E+00  0.6400E+00
    -29.774  0.0000E+00  0.6400E+00
    -29.552  0.0000E+00  0.6400E+00
    -29.329  0.0000E+00  0.6400E+00
    -29.107  0.0000E+00  0.6400E+00
    -28.884  0.0000E+00  0.6400E+00
    -28.662  0.0000E+00  0.6400E+00
    -28.439  0.1379E-10  0.6400E+00
    -28.217  0.9635E-04  0.6400E+00
    -27.994  0.9371E-01  0.6609E+00
    -27.772  0.4385E+00  0.7584E+00
    -27.549  0.7352E+00  0.9220E+00
    -27.327  0.3480E+00  0.9994E+00
    -27.104  0.2694E-02  0.1000E+01
    -26.882  0.2013E-02  0.1000E+01
    -26.659  0.1927E+00  0.1043E+01
    -26.437  0.5227E+00  0.1160E+01
    -26.214  0.7966E+00  0.1337E+01
    -25.992  0.3614E+00  0.1417E+01
    -25.769  0.1228E-01  0.1420E+01
    -25.547  0.3341E-06  0.1420E+01
    -25.324  0.9152E-15  0.1420E+01
    -25.102  0.0000E+00  0.1420E+01
    -24.879  0.0000E+00  0.1420E+01
    -24.657  0.0000E+00  0.1420E+01
    -24.435  0.0000E+00  0.1420E+01
    -24.212  0.5685E-15  0.1420E+01
    -23.990  0.2268E-06  0.1420E+01
    -23.767  0.7377E-02  0.1422E+01
    -23.545  0.2096E+00  0.1468E+01
    -23.322  0.2953E+00  0.1534E+01
    -23.100  0.2721E+00  0.1594E+01
    -22.877  0.3095E+00  0.1663E+01
    -22.655  0.2343E+00  0.1715E+01
    -22.432  0.2664E+00  0.1775E+01
    -22.210  0.2363E-01  0.1780E+01
    -21.987  0.2107E-05  0.1780E+01
    -21.765  0.2170E-13  0.1780E+01
    -21.542  0.0000E+00  0.1780E+01
    -21.320  0.0000E+00  0.1780E+01
    -21.097  0.0000E+00  0.1780E+01
    -20.875  0.0000E+00  0.1780E+01
    -20.652  0.0000E+00  0.1780E+01
    -20.430  0.2223E-11  0.1780E+01
    -20.207  0.2751E-04  0.1780E+01
    -19.985  0.3745E-01  0.1788E+01
    -19.762  0.3475E+00  0.1866E+01
    -19.540  0.5246E+00  0.1982E+01
    -19.318  0.7531E+00  0.2150E+01
    -19.095  0.2084E+00  0.2196E+01
    -18.873  0.1668E-01  0.2200E+01
    -18.650  0.2270E-05  0.2200E+01
    -18.428  0.2731E-13  0.2200E+01
    -18.205  0.0000E+00  0.2200E+01
    -17.983  0.0000E+00  0.2200E+01
    -17.760  0.0000E+00  0.2200E+01
    -17.538  0.0000E+00  0.2200E+01
    -17.315  0.0000E+00  0.2200E+01
    -17.093  0.0000E+00  0.2200E+01
    -16.870  0.0000E+00  0.2200E+01
    -16.648  0.0000E+00  0.2200E+01
    -16.425  0.0000E+00  0.2200E+01
    -16.203  0.0000E+00  0.2200E+01
    -15.980  0.0000E+00  0.2200E+01
    -15.758  0.0000E+00  0.2200E+01
    -15.535  0.0000E+00  0.2200E+01
    -15.313  0.0000E+00  0.2200E+01
    -15.090  0.0000E+00  0.2200E+01
    -14.868  0.0000E+00  0.2200E+01
    -14.645  0.0000E+00  0.2200E+01
    -14.423  0.0000E+00  0.2200E+01
    -14.201  0.0000E+00  0.2200E+01
    -13.978  0.0000E+00  0.2200E+01
    -13.756  0.0000E+00  0.2200E+01
    -13.533  0.0000E+00  0.2200E+01
    -13.311  0.0000E+00  0.2200E+01
    -13.088  0.0000E+00  0.2200E+01
    -12.866  0.0000E+00  0.2200E+01
    -12.643  0.0000E+00  0.2200E+01
    -12.421  0.0000E+00  0.2200E+01
    -12.198  0.0000E+00  0.2200E+01
    -11.976  0.0000E+00  0.2200E+01
    -11.753  0.0000E+00  0.2200E+01
    -11.531  0.0000E+00  0.2200E+01
    -11.308  0.0000E+00  0.2200E+01
    -11.086  0.0000E+00  0.2200E+01
    -10.863  0.0000E+00  0.2200E+01
    -10.641  0.0000E+00  0.2200E+01
    -10.418  0.0000E+00  0.2200E+01
    -10.196  0.0000E+00  0.2200E+01
     -9.973  0.0000E+00  0.2200E+01
     -9.751  0.0000E+00  0.2200E+01
     -9.528  0.0000E+00  0.2200E+01
     -9.306  0.0000E+00  0.2200E+01
     -9.084  0.3327E-17  0.2200E+01
     -8.861  0.2842E-08  0.2200E+01
     -8.639  0.2625E-03  0.2200E+01
     -8.416  0.3218E-01  0.2207E+01
     -8.194  0.6524E-01  0.2222E+01
     -7.971  0.9687E-01  0.2243E+01
     -7.749  0.1965E+00  0.2287E+01
     -7.526  0.1513E+00  0.2321E+01
     -7.304  0.2229E+00  0.2370E+01
     -7.081  0.2120E+00  0.2417E+01
     -6.859  0.1076E+00  0.2441E+01
     -6.636  0.7959E-01  0.2459E+01
     -6.414  0.4257E-02  0.2460E+01
     -6.191  0.6664E-07  0.2460E+01
     -5.969  0.7910E-16  0.2460E+01
     -5.746  0.3696E-18  0.2460E+01
     -5.524  0.6209E-09  0.2460E+01
     -5.301  0.1373E-03  0.2460E+01
     -5.079  0.1566E-01  0.2464E+01
     -4.856  0.5816E-01  0.2476E+01
     -4.634  0.2199E-01  0.2481E+01
     -4.411  0.7889E-01  0.2499E+01
     -4.189  0.8988E-01  0.2519E+01
     -3.967  0.1132E+00  0.2544E+01
     -3.744  0.1968E+00  0.2588E+01
     -3.522  0.1979E+00  0.2632E+01
     -3.299  0.2176E+00  0.2680E+01
     -3.077  0.2936E+00  0.2746E+01
     -2.854  0.2032E+00  0.2791E+01
     -2.632  0.1396E+00  0.2822E+01
     -2.409  0.6398E-01  0.2836E+01
     -2.187  0.1704E-01  0.2840E+01
     -1.964  0.3372E-03  0.2840E+01
     -1.742  0.9224E-08  0.2840E+01
     -1.519  0.2403E-16  0.2840E+01
     -1.297  0.0000E+00  0.2840E+01
     -1.074  0.0000E+00  0.2840E+01
     -0.852  0.0000E+00  0.2840E+01
     -0.629  0.1249E-13  0.2840E+01
     -0.407  0.3572E-06  0.2840E+01
     -0.184  0.1059E-02  0.2840E+01
      0.038  0.1163E-01  0.2843E+01
      0.261  0.4921E-01  0.2854E+01
      0.483  0.1119E+00  0.2879E+01
      0.706  0.1169E+00  0.2905E+01
      0.928  0.1553E+00  0.2939E+01
      1.150  0.2133E+00  0.2987E+01
      1.373  0.3203E+00  0.3058E+01
      1.595  0.2867E+00  0.3122E+01
      1.818  0.2832E+00  0.3185E+01
      2.040  0.3532E+00  0.3263E+01
      2.263  0.3445E+00  0.3340E+01
      2.485  0.3760E+00  0.3424E+01
      2.708  0.5002E+00  0.3535E+01
      2.930  0.5472E+00  0.3657E+01
      3.153  0.5751E+00  0.3785E+01
      3.375  0.6084E+00  0.3920E+01
      3.598  0.5813E+00  0.4049E+01
      3.820  0.5412E+00  0.4170E+01
      4.043  0.5546E+00  0.4293E+01
      4.265  0.4779E+00  0.4399E+01
      4.488  0.3711E+00  0.4482E+01
      4.710  0.3320E+00  0.4556E+01
      4.933  0.2990E+00  0.4622E+01
      5.155  0.2509E+00  0.4678E+01
      5.378  0.1820E+00  0.4719E+01
      5.600  0.1349E+00  0.4749E+01
      5.823  0.5858E-01  0.4762E+01
      6.045  0.1280E+00  0.4790E+01
      6.267  0.1464E+00  0.4823E+01
      6.490  0.1730E+00  0.4861E+01
      6.712  0.2200E+00  0.4910E+01
      6.935  0.2380E+00  0.4963E+01
      7.157  0.2005E+00  0.5008E+01
      7.380  0.2592E+00  0.5065E+01
      7.602  0.2318E+00  0.5117E+01
      7.825  0.3030E+00  0.5184E+01
      8.047  0.3962E+00  0.5272E+01
      8.270  0.4039E+00  0.5362E+01
      8.492  0.4442E+00  0.5461E+01
      8.715  0.4271E+00  0.5556E+01
      8.937  0.4274E+00  0.5651E+01
      9.160  0.4541E+00  0.5752E+01
      9.382  0.4501E+00  0.5852E+01
      9.605  0.3938E+00  0.5940E+01
      9.827  0.3993E+00  0.6029E+01
     10.050  0.4136E+00  0.6121E+01
     10.272  0.3950E+00  0.6209E+01
     10.495  0.1396E+00  0.6240E+01
     10.717  0.7930E-03  0.6240E+01
     10.940  0.2110E-08  0.6240E+01
     11.162  0.0000E+00  0.6240E+01
     11.385  0.0000E+00  0.6240E+01
     11.607  0.0000E+00  0.6240E+01
     11.829  0.0000E+00  0.6240E+01
     12.052  0.0000E+00  0.6240E+01
     12.274  0.0000E+00  0.6240E+01
     12.497  0.0000E+00  0.6240E+01
     12.719  0.0000E+00  0.6240E+01
     12.942  0.0000E+00  0.6240E+01
     13.164  0.0000E+00  0.6240E+01
     13.387  0.0000E+00  0.6240E+01
