HECN                                    
           1
     8.932500    0.000000    0.000000
     0.005753    9.055598    0.000000
     0.032102   -0.015743    8.937128
   Zr   Hf   Ti   N    C    Cr   Ta
   7   6   7  13  19   6   6
Direct configuration=     1
   0.99688001  0.99204997  0.99924002
   0.25398003  0.99714995  0.24912000
   0.24803003  0.50165000  0.24955001
   0.50501006  0.49745998  0.99834003
   0.50479003  0.24631001  0.74710002
   0.99427992  0.50449999  0.49779000
   0.49950005  0.75481999  0.74817004
   0.99437004  0.23617001  0.26379999
   0.75718000  0.74102998  0.01100000
   0.00201000  0.25541000  0.73894001
   0.75307001  0.26163001  0.50533002
   0.99514004  0.74492004  0.74511997
   0.25679999  0.49462002  0.74545002
   0.24788999  0.24839000  0.99657997
   0.50833000  0.25676999  0.25376001
   0.74879004  0.98787999  0.26967001
   0.75719000  0.25603001  0.99591997
   0.24762001  0.74973999  0.99974006
   0.25272001  0.24823001  0.50015003
   0.24457999  0.75048999  0.49983999
   0.24982001  0.24942998  0.24825000
   0.26146999  0.99984002  0.99295996
   0.00281000  0.25024000  0.00130000
   0.75313998  0.24617000  0.25492002
   0.74767001  0.99748000  0.01202000
   0.50714994  0.99977000  0.24673000
   0.99051999  0.48088002  0.24100998
   0.50519005  0.76130999  0.00855000
   0.98896989  0.00202000  0.73708999
   0.75744996  0.24437997  0.74896999
   0.73632001  0.00417000  0.51063000
   0.50563996  0.23264999  0.49544997
   0.50008998  0.00061000  0.73471998
   0.99720000  0.99771992  0.25899999
   0.50427997  0.24673000  0.00262000
   0.25133999  0.74958002  0.24910999
   0.24328000  0.50072997  0.99510994
   0.99837005  0.74313996  0.00460000
   0.75633000  0.73891003  0.25767000
   0.75839004  0.50315998  0.00288000
   0.50700002  0.50333002  0.25878999
   0.24900999  0.25315000  0.74854000
   0.24446000  0.99823996  0.50287998
   0.99804009  0.24229999  0.50128003
   0.24177002  0.75340997  0.75018002
   0.25841001  0.50062002  0.50129001
   0.99000004  0.76215003  0.49746000
   0.99203996  0.50055999  0.75138002
   0.75036005  0.74888000  0.74756004
   0.74036002  0.50197000  0.50067003
   0.50575006  0.74958002  0.49720000
   0.50501003  0.50217998  0.73912003
   0.51588997  0.01358000  0.98075008
   0.99841994  0.50976998  0.98613004
   0.50379003  0.73926997  0.25905001
   0.23780002  0.01082000  0.74607998
   0.47957999  0.98308000  0.49717999
   0.74279003  0.97869994  0.76450995
   0.99864998  0.77573999  0.26102000
   0.73551001  0.51468004  0.26666001
   0.02362000  0.99783001  0.49557002
   0.50539000  0.52833005  0.49917999
   0.73876003  0.52828003  0.73814999
   0.75400003  0.72937999  0.49116997
HECN                                    
           1
     8.863925    0.025396   -0.018449
     0.031455    8.976563   -0.002937
     0.013352   -0.018401    8.876384
   Zr   Hf   Ti   N    C    Cr   Ta
   7   6   7  13  19   6   6
Direct configuration=     2
   0.99729930  0.99641763  0.99313155
   0.26986203  0.99965006  0.24498516
   0.24601928  0.49962154  0.24730262
   0.50189764  0.49841705  0.00193299
   0.50448134  0.23738543  0.74677212
   0.00326237  0.50148308  0.49658632
   0.49334853  0.76832288  0.75326435
   0.99715009  0.24675269  0.24829849
   0.74758857  0.75020578  0.00912538
  -0.00016070  0.24852708  0.75457432
   0.74328950  0.24734754  0.50408142
   0.00198075  0.75463819  0.75003928
   0.24961100  0.50009279  0.74870947
   0.24858718  0.24847774  0.99495543
   0.50741531  0.25207315  0.25269858
   0.73812586  0.98849045  0.27011058
   0.75548700  0.25516022  0.99632980
   0.24860220  0.74845902  0.99816540
   0.25646225  0.24719271  0.50102824
   0.24885616  0.75142235  0.50073917
   0.25172747  0.24928462  0.24872241
   0.26042709  0.00096119  0.99100867
   0.00107258  0.24970553 -0.00040673
   0.74824064  0.24615845  0.25286672
   0.74347351  0.00022631  0.00741333
   0.51011771  0.99992409  0.24973819
   0.99185321  0.48607501  0.24255108
   0.50184584  0.76080662  0.00771352
   0.99100707  0.00164368  0.73999017
   0.75533515  0.24633604  0.75326141
   0.73737256  0.00101585  0.50552224
   0.50206902  0.23522065  0.49248856
   0.50224945  0.00068293  0.73768662
   0.99435962  0.00109523  0.25431118
   0.50619222  0.24227641  0.00474108
   0.25076306  0.74950486  0.24888062
   0.24193427  0.50136706  0.99793646
   0.00570977  0.74192481  0.00402243
   0.75248038  0.75079333  0.25377336
   0.76020412  0.49543423  0.00184501
   0.49986247  0.50060893  0.25447362
   0.25040927  0.24625829  0.74811697
   0.26058164  0.99846141  0.50686988
   0.00308437  0.24435326  0.50033812
   0.24499703  0.75543675  0.75105364
   0.25708022  0.50095484  0.49731426
   0.99785320  0.75819674  0.49867035
   0.99384718  0.50064756  0.75571565
   0.74830411  0.75917590  0.75031510
   0.74509784  0.49851635  0.50186445
   0.49916734  0.76217891  0.49235788
   0.50244711  0.50169820  0.74351042
   0.51929812  0.01546105  0.98065809
   0.99911511  0.50912702  0.98414016
   0.50234887  0.74334708  0.25842447
   0.24138777  0.00914001  0.74562133
   0.47790459  0.98196453  0.49834613
   0.73904696  0.97818389  0.76487262
   0.00512951  0.75353813  0.25206621
   0.74957434  0.50021941  0.25120434
   0.00751668  0.00148568  0.51142228
   0.48973832  0.51344129  0.49775197
   0.75022449  0.50887742  0.74961985
   0.74838342  0.75815281  0.49837535
HECN                                    
           1
     8.874004    0.021663   -0.015737
     0.027677    8.988180   -0.002505
     0.016108   -0.018011    8.885312
   Zr   Hf   Ti   N    C    Cr   Ta
   7   6   7  13  19   6   6
Direct configuration=     3
   0.99724097  0.99577046  0.99403518
   0.26751197  0.99928619  0.24559205
   0.24631693  0.49992157  0.24763592
   0.50235794  0.49827368  0.00140219
   0.50452332  0.23870861  0.74682117
   0.00193098  0.50193423  0.49676183
   0.49426392  0.76631793  0.75251170
   0.99674767  0.24518539  0.25059114
   0.74901377  0.74884131  0.00940531
   0.00015302  0.24954604  0.75226165
   0.74473241  0.24946124  0.50426990
   0.00097018  0.75319986  0.74930872
   0.25067717  0.49927816  0.74822907
   0.24848445  0.24846510  0.99519562
   0.50754910  0.25276924  0.25285617
   0.73970555  0.98839545  0.27004863
   0.75573874  0.25528846  0.99626972
   0.24845666  0.74864944  0.99839819
   0.25590724  0.24734805  0.50089717
   0.24822290  0.75128586  0.50060475
   0.25144473  0.24930695  0.24865192
   0.26058265  0.00079460  0.99129770
   0.00133022  0.24978412 -0.00015359
   0.74896695  0.24615821  0.25317209
   0.74409769 -0.00018245  0.00809621
   0.50967726  0.99990235  0.24929209
   0.99165750  0.48530521  0.24232236
   0.50234122  0.76087990  0.00783836
   0.99070427  0.00170020  0.73956038
   0.75564791  0.24604493  0.75262690
   0.73721688  0.00148420  0.50627795
   0.50259997  0.23483812  0.49292778
   0.50192871  0.00067289  0.73724693
   0.99478324  0.00059377  0.25500578
   0.50590640  0.24293747  0.00442681
   0.25084856  0.74951577  0.24891474
   0.24213300  0.50127191  0.99751856
   0.00462228  0.74210808  0.00410570
   0.75305690  0.74902989  0.25435062
   0.75993242  0.49658057  0.00199799
   0.50091983  0.50100961  0.25511471
   0.25019917  0.24728077  0.74817948
   0.25819260  0.99843514  0.50627446
   0.00233839  0.24405096  0.50047586
   0.24451965  0.75513754  0.75092326
   0.25727856  0.50090481  0.49790301
   0.99668793  0.75878614  0.49848900
   0.99357819  0.50063514  0.75507348
   0.74861222  0.75764829  0.74990752
   0.74439423  0.49903037  0.50168640
   0.50014929  0.76030826  0.49307587
   0.50282516  0.50176837  0.74286151
   0.51879415  0.01518357  0.98067056
   0.99901248  0.50922273  0.98443445
   0.50256428  0.74274196  0.25851729
   0.24085578  0.00939063  0.74568818
   0.47815191  0.98212917  0.49817413
   0.73960104  0.97825883  0.76482013
   0.00416298  0.75683323  0.25339032
   0.74748971  0.50237014  0.25348794
   0.00989855  0.00093619  0.50908113
   0.49205064  0.51564244  0.49796883
   0.74851449  0.51175864  0.74791987
   0.74922551  0.75388383  0.49730939
HECN                                    
           1
     8.865097    0.019333   -0.007162
     0.025620    8.842809   -0.014601
     0.024745   -0.029702    8.904148
   Zr   Hf   Ti   N    C    Cr   Ta
   7   6   7  13  19   6   6
Direct configuration=     4
   0.99864855  0.99502019  0.99539455
   0.26905065  0.99885787  0.24447154
   0.24777388  0.49829589  0.24493865
   0.49942934  0.49737519  0.00131433
   0.50144930  0.23747007  0.75007866
   0.00182507  0.49989066  0.50304451
   0.49330539  0.76504651  0.75353576
   0.99849073  0.24412308  0.24658482
   0.74550181  0.75228397  0.00610641
   0.00092186  0.24825756  0.75499715
   0.74572039  0.24406191  0.50259248
   0.00137698  0.75427831  0.75226778
   0.24864516  0.49967567  0.75126209
   0.25235937  0.24763224  0.99322872
   0.50592922  0.25214809  0.24932862
   0.73596884  0.98854673  0.26490281
   0.75024219  0.25297217  0.99796745
   0.25000010  0.74814882  0.99826707
   0.25583646  0.24495545  0.50280974
   0.25102123  0.75460932  0.50027044
   0.25256146  0.24826151  0.24785590
   0.26015797  0.00196656  0.99079923
   0.00065695  0.24967728 -0.00083076
   0.74659498  0.24684837  0.25084696
   0.74115062  0.00252730  0.00353141
   0.51307073  0.00084841  0.25091255
   0.99259547  0.49232222  0.24244609
   0.49878362  0.76149086  0.00742432
   0.99119141  0.00277782  0.74413257
   0.75446710  0.24863080  0.75500582
   0.74128453 -0.00136912  0.50490783
   0.49857365  0.23920067  0.49136060
   0.50423132  0.00256709  0.74032532
   0.99432916 -0.00359582  0.25400451
   0.50606104  0.24002548  0.00556462
   0.25129678  0.75046078  0.24816597
   0.24152496  0.50123915  0.99777083
   0.00559451  0.74291552  0.00310271
   0.74979317  0.75104028  0.25610489
   0.76058024  0.49425291  0.00162639
   0.50239691  0.49883720  0.25397048
   0.25039687  0.24386680  0.74862604
   0.25757811  0.99929091  0.50878888
   0.00343840  0.24437705  0.50030599
   0.24631365  0.75716182  0.75207221
   0.25500137  0.49989823  0.49760097
   0.99949996  0.75711913  0.49796997
   0.99584744  0.50075182  0.75693456
   0.74883976  0.75626046  0.75198593
   0.74443828  0.50153736  0.49981446
   0.49553526  0.75976142  0.49162195
   0.50295404  0.50135985  0.74422516
   0.52116722  0.01624068  0.97962270
   0.00045586  0.50997993  0.98460441
   0.50159602  0.74206203  0.25803160
   0.24305524  0.00803002  0.74493455
   0.47844454  0.98171896  0.49864020
   0.73498226  0.97961523  0.76690170
   0.00657267  0.75544193  0.25007207
   0.74762173  0.50310558  0.25179282
   0.01375805  0.00216899  0.50490711
   0.49617183  0.51602808  0.49824248
   0.74946694  0.51176515  0.75119655
   0.74647174  0.75788336  0.49871600
HECN                                    
           1
     8.865309    0.019388   -0.007366
     0.025669    8.846272   -0.014313
     0.024539   -0.029423    8.903699
   Zr   Hf   Ti   N    C    Cr   Ta
   7   6   7  13  19   6   6
Direct configuration=     5
   0.99861502  0.99503830  0.99536229
   0.26901394  0.99886826  0.24449823
   0.24773908  0.49833533  0.24500286
   0.49949918  0.49739696  0.00131638
   0.50152268  0.23749997  0.75000119
   0.00182775  0.49993995  0.50289522
   0.49332827  0.76507727  0.75351143
   0.99844908  0.24414892  0.24668014
   0.74558547  0.75220073  0.00618464
   0.00090359  0.24828867  0.75493218
   0.74569681  0.24419270  0.50263256
   0.00136734  0.75425210  0.75219741
   0.24869369  0.49966596  0.75118992
   0.25226692  0.24765245  0.99327559
   0.50596777  0.25216325  0.24941246
   0.73605783  0.98854325  0.26502504
   0.75037332  0.25302824  0.99792705
   0.24996329  0.74816094  0.99827024
   0.25583820  0.24501333  0.50276435
   0.25095447  0.75452884  0.50027834
   0.25253482  0.24828685  0.24787489
   0.26016808  0.00193820  0.99081103
   0.00067299  0.24967989 -0.00081468
   0.74665149  0.24683175  0.25090216
   0.74122078  0.00246185  0.00363977
   0.51298984  0.00082543  0.25087407
   0.99257308  0.49215230  0.24244294
   0.49886844  0.76147610  0.00743406
   0.99117990  0.00275158  0.74402385
   0.75449531  0.24856812  0.75494916
   0.74118751 -0.00130001  0.50494059
   0.49866961  0.23909511  0.49139762
   0.50417647  0.00252111  0.74025213
   0.99433998 -0.00349433  0.25402844
   0.50605739  0.24009596  0.00553767
   0.25128607  0.75043792  0.24818375
   0.24153947  0.50123994  0.99776482
   0.00557130  0.74289599  0.00312655
   0.74987104  0.75099157  0.25606304
   0.76056479  0.49430928  0.00163531
   0.50236167  0.49888983  0.25399779
   0.25039218  0.24394945  0.74861554
   0.25759282  0.99927011  0.50872906
   0.00341217  0.24436915  0.50031004
   0.24627089  0.75711276  0.75204487
   0.25505567  0.49992262  0.49760813
   0.99943290  0.75715949  0.49798243
   0.99579337  0.50074892  0.75689036
   0.74883439  0.75629400  0.75193657
   0.74443718  0.50147671  0.49985888
   0.49564526  0.75977474  0.49165642
   0.50295100  0.50136969  0.74419276
   0.52111060  0.01621510  0.97964763
   0.00042144  0.50996158  0.98460038
   0.50161910  0.74207851  0.25804315
   0.24300278  0.00806297  0.74495256
   0.47843758  0.98172888  0.49862914
   0.73509245  0.97958235  0.76685207
   0.00651514  0.75547571  0.25015105
   0.74761854  0.50308783  0.25183310
   0.01366592  0.00213925  0.50500639
   0.49607356  0.51601871  0.49823606
   0.74944430  0.51176488  0.75111868
   0.74653743  0.75778648  0.49868237
HECN                                    
           1
     8.921534    0.013204   -0.002619
     0.019496    8.916166   -0.018560
     0.029529   -0.033892    8.946869
   Zr   Hf   Ti   N    C    Cr   Ta
   7   6   7  13  19   6   6
Direct configuration=     6
   0.00024701  0.99476146  0.99752839
   0.26971792  0.99876316  0.24449892
   0.24908518  0.49721415  0.24622508
   0.49842111  0.49706403  0.00051457
   0.50066912  0.24110407  0.75098165
   0.00092228  0.49946741  0.50653480
   0.49382168  0.76164844  0.75334595
   0.99932740  0.24402323  0.24506551
   0.74340881  0.75337098  0.00567889
   0.00026317  0.24696915  0.75603424
   0.74584831  0.24100802  0.50192491
   0.00165240  0.75560821  0.75230348
   0.24968640  0.49949617  0.75100206
   0.25577141  0.24522849  0.99199145
   0.50441333  0.25239184  0.24700443
   0.73438853  0.98976498  0.25929178
   0.74540653  0.24956806  0.99957533
   0.25173682  0.74881829  0.99835537
   0.25627917  0.24426758  0.50474629
   0.25205428  0.75592272  0.50027715
   0.25285169  0.24697703  0.24645681
   0.25981760  0.00291782  0.99123184
   0.00032006  0.25038552 -0.00059920
   0.74613250  0.24694007  0.24906167
   0.74008558  0.00530342  0.00009691
   0.51384118  0.00141919  0.25217267
   0.99338597  0.49798865  0.24291837
   0.49576915  0.76286158  0.00707511
   0.99208888  0.00350398  0.74497900
   0.75343784  0.25011835  0.75576331
   0.74504818 -0.00252678  0.50412474
   0.49657585  0.24319754  0.49113632
   0.50625492  0.00208980  0.74314297
   0.99518643 -0.00553740  0.25344895
   0.50488194  0.23865077  0.00599849
   0.25202407  0.75037969  0.24722003
   0.24121809  0.50065532  0.99766065
   0.00454446  0.74308716  0.00244554
   0.74753128  0.75142625  0.25630866
   0.76032427  0.49424726  0.00188262
   0.50439037  0.49748621  0.25393598
   0.24982549  0.24146648  0.74922615
   0.25645284  0.99989504  0.50914164
   0.00325939  0.24409430  0.49958665
   0.24650661  0.75962033  0.75308547
   0.25533672  0.49895710  0.49825868
   0.00018645  0.75665483  0.49736880
   0.99678221  0.50106222  0.75842247
   0.74891158  0.75487437  0.75312242
   0.74441837  0.50295728  0.49905546
   0.49353643  0.75808385  0.49201208
   0.50322311  0.50129968  0.74437440
   0.52233642  0.01531472  0.97772938
   0.00186035  0.51076975  0.98565389
   0.50024845  0.74084955  0.25743757
   0.24416667  0.00560979  0.74416791
   0.47886548  0.98364558  0.49854658
   0.73080948  0.98188801  0.76967241
   0.00728727  0.75330519  0.24967748
   0.74658324  0.50555184  0.25149971
   0.01818423  0.00089386  0.50231993
   0.49793459  0.51504084  0.49879681
   0.74851531  0.51171423  0.75267914
   0.74593850  0.75841906  0.49882342
HECN                                    
           1
     8.910515    0.014416   -0.003549
     0.020706    8.902469   -0.017728
     0.028551   -0.033016    8.938409
   Zr   Hf   Ti   N    C    Cr   Ta
   7   6   7  13  19   6   6
Direct configuration=     7
  -0.00007053  0.99481486  0.99710613
   0.26958084  0.99878350  0.24449887
   0.24882333  0.49743185  0.24598695
   0.49863101  0.49712899  0.00067087
   0.50083495  0.24040332  0.75079002
   0.00109906  0.49955907  0.50582492
   0.49372605  0.76231508  0.75337858
   0.99915620  0.24404770  0.24538051
   0.74383247  0.75314379  0.00577719
   0.00038819  0.24722570  0.75581936
   0.74581918  0.24162729  0.50206322
   0.00159671  0.75534448  0.75228270
   0.24949309  0.49952906  0.75103882
   0.25508915  0.24569944  0.99224248
   0.50471575  0.25234783  0.24747388
   0.73471283  0.98952820  0.26040965
   0.74637441  0.25024138  0.99925367
   0.25139136  0.74869022  0.99833890
   0.25619361  0.24441233  0.50435987
   0.25183991  0.75565154  0.50027737
   0.25279001  0.24723180  0.24673353
   0.25988577  0.00272736  0.99114965
   0.00038871  0.25024835 -0.00064133
   0.74623336  0.24691926  0.24942055
   0.74030588  0.00475140  0.00078750
   0.51367545  0.00130350  0.25191944
   0.99322691  0.49685368  0.24282521
   0.49637247  0.76259265  0.00714467
   0.99191187  0.00335747  0.74479274
   0.75364364  0.24981699  0.75560427
   0.74429644 -0.00228870  0.50428437
   0.49698299  0.24240018  0.49118670
   0.50585054  0.00217310  0.74257943
   0.99502182 -0.00514021  0.25356224
   0.50511109  0.23893189  0.00590862
   0.25188026  0.75039100  0.24740807
   0.24128075  0.50076904  0.99768098
   0.00474433  0.74305020  0.00257823
   0.74798688  0.75134203  0.25626048
   0.76037115  0.49425933  0.00183437
   0.50399549  0.49775886  0.25394837
   0.24993626  0.24194928  0.74910723
   0.25667480  0.99977365  0.50906100
   0.00328910  0.24414783  0.49972774
   0.24646047  0.75913263  0.75288232
   0.25528219  0.49914473  0.49813192
   0.00003971  0.75675291  0.49748859
   0.99658977  0.50100102  0.75812374
   0.74889687  0.75515027  0.75289128
   0.74442174  0.50266948  0.49921201
   0.49394737  0.75841288  0.49194265
   0.50317015  0.50131324  0.74433901
   0.52209763  0.01548980  0.97810370
   0.00158014  0.51061231  0.98544850
   0.50051547  0.74108875  0.25755564
   0.24394027  0.00608670  0.74432128
   0.47878188  0.98327285  0.49856256
   0.73164352  0.98144002  0.76912171
   0.00713715  0.75372716  0.24977012
   0.74678447  0.50507292  0.25156440
   0.01730423  0.00113565  0.50284445
   0.49757237  0.51523067  0.49868773
   0.74869640  0.51172406  0.75237472
   0.74605506  0.75829613  0.49879579
HECN                                    
           1
     8.883123    0.009769   -0.004490
     0.016003    8.903016   -0.012950
     0.027510   -0.028331    8.889897
   Zr   Hf   Ti   N    C    Cr   Ta
   7   6   7  13  19   6   6
Direct configuration=     8
   0.00119012  0.99464905  0.99842468
   0.27012439  0.99858788  0.24517544
   0.24977320  0.49717358  0.24805740
   0.49849211  0.49713095  0.00067448
   0.50126739  0.24252629  0.75006151
   0.00059062  0.49974858  0.50661849
   0.49465916  0.76107676  0.75230382
   0.99944720  0.24509709  0.24501677
   0.74271307  0.75336345  0.00651202
  -0.00090080  0.24625658  0.75638079
   0.74531966  0.23979167  0.50155629
   0.00167456  0.75662263  0.75141947
   0.25030906  0.49942407  0.75017390
   0.25755961  0.24312790  0.99163894
   0.50380499  0.25302653  0.24649544
   0.73428064  0.99031544  0.25620281
   0.74281381  0.24770939  0.00048669
   0.25239409  0.74934369  0.99856352
   0.25678261  0.24453794  0.50605624
   0.25228195  0.75563204  0.50042174
   0.25254332  0.24645783  0.24539807
   0.25929431  0.00322031  0.99210709
   0.00014459  0.25033316 -0.00004952
   0.74674501  0.24689880  0.24854214
   0.74091367  0.00588228 -0.00096938
   0.51272518  0.00181018  0.25318707
   0.99373363  0.49953899  0.24375734
   0.49481794  0.76359704  0.00677913
   0.99338193  0.00343239  0.74372983
   0.75278156  0.25052817  0.75508082
   0.74693862 -0.00234619  0.50322609
   0.49687977  0.24532980  0.49175511
   0.50737148  0.00163770  0.74503280
   0.99650397 -0.00466772  0.25336984
   0.50348552  0.23885096  0.00566068
   0.25234542  0.74952769  0.24680025
   0.24127517  0.50014537  0.99769810
   0.00327202  0.74313082  0.00250196
   0.74674035  0.75139152  0.25566335
   0.75960969  0.49535201  0.00233979
   0.50498337  0.49716466  0.25424972
   0.24925999  0.24097773  0.74952194
   0.25728024  0.99983138  0.50806233
   0.00251663  0.24327634  0.49906280
   0.24627340  0.76050323  0.75344316
   0.25646554  0.49848392  0.49918730
  -0.00031702  0.75690627  0.49719323
   0.99655340  0.50126392  0.75957387
   0.74875802  0.75511685  0.75310003
   0.74454136  0.50271518  0.49947169
   0.49437663  0.75752821  0.49257081
   0.50332778  0.50134849  0.74411471
   0.52210541  0.01475087  0.97516093
   0.00277536  0.51218830  0.98607687
   0.49894286  0.73913040  0.25754145
   0.24450667  0.00393934  0.74340917
   0.47868777  0.98485462  0.49913454
   0.72814476  0.98185315  0.77196069
   0.00761366  0.75174935  0.25005788
   0.74619781  0.50722940  0.25136364
   0.01918926 -0.00008988  0.50202901
   0.49724984  0.51391134  0.49859250
   0.74845343  0.51141104  0.75318648
   0.74603363  0.75876303  0.49808435
HECN                                    
           1
     8.883899    0.009901   -0.004463
     0.016136    8.903000   -0.013086
     0.027540   -0.028464    8.891272
   Zr   Hf   Ti   N    C    Cr   Ta
   7   6   7  13  19   6   6
Direct configuration=     9
   0.00115428  0.99465375  0.99838710
   0.27010894  0.99859342  0.24515616
   0.24974619  0.49718091  0.24799840
   0.49849606  0.49713090  0.00067438
   0.50125507  0.24246612  0.75008230
   0.00060507  0.49974322  0.50659588
   0.49463266  0.76111182  0.75233443
   0.99943891  0.24506735  0.24502715
   0.74274489  0.75335725  0.00649109
  -0.00086415  0.24628407  0.75636478
   0.74533389  0.23984369  0.50157071
   0.00167233  0.75658640  0.75144409
   0.25028586  0.49942702  0.75019855
   0.25748942  0.24320072  0.99165609
   0.50383087  0.25300730  0.24652334
   0.73429293  0.99029307  0.25632270
   0.74291506  0.24778121  0.00045153
   0.25236558  0.74932516  0.99855712
   0.25676586  0.24453439  0.50600791
   0.25226938  0.75563259  0.50041762
   0.25255034  0.24647975  0.24543611
   0.25931111  0.00320637  0.99207981
   0.00015153  0.25033077 -0.00006638
   0.74673047  0.24689936  0.24856717
   0.74089638  0.00585019 -0.00091930
   0.51275218  0.00179586  0.25315096
   0.99371919  0.49946290  0.24373082
   0.49486212  0.76356859  0.00678957
   0.99334014  0.00343023  0.74376012
   0.75280606  0.25050802  0.75509575
   0.74686352 -0.00234462  0.50325624
   0.49688266  0.24524679  0.49173896
   0.50732825  0.00165289  0.74496288
   0.99646183 -0.00468114  0.25337532
   0.50353173  0.23885328  0.00566775
   0.25233221  0.74955214  0.24681755
   0.24127534  0.50016304  0.99769760
   0.00331387  0.74312856  0.00250414
   0.74677579  0.75139013  0.25568037
   0.75963132  0.49532106  0.00232541
   0.50495530  0.49718149  0.25424112
   0.24927923  0.24100527  0.74951011
   0.25726303  0.99982972  0.50809079
   0.00253860  0.24330104  0.49908173
   0.24627870  0.76046440  0.75342720
   0.25643191  0.49850265  0.49915721
  -0.00030689  0.75690193  0.49720165
   0.99655443  0.50125649  0.75953255
   0.74876196  0.75511780  0.75309408
   0.74453796  0.50271389  0.49946429
   0.49436444  0.75755328  0.49255290
   0.50332330  0.50134748  0.74412110
   0.52210521  0.01477176  0.97524477
   0.00274136  0.51214363  0.98605899
   0.49898760  0.73918592  0.25754183
   0.24449060  0.00400017  0.74343512
   0.47869042  0.98480981  0.49911827
   0.72824420  0.98184153  0.77187981
   0.00760014  0.75180539  0.25004965
   0.74621446  0.50716829  0.25136939
   0.01913569 -0.00005519  0.50205222
   0.49725903  0.51394873  0.49859520
   0.74846034  0.51141993  0.75316335
   0.74603423  0.75874979  0.49810462
HECN                                    
           1
     8.900336    0.009860   -0.006517
     0.016135    8.898615   -0.008190
     0.025537   -0.023535    8.906288
   Zr   Hf   Ti   N    C    Cr   Ta
   7   6   7  13  19   6   6
Direct configuration=    10
   0.00199709  0.99436409  0.99870273
   0.26984969  0.99831573  0.24607857
   0.25013643  0.49704855  0.24864806
   0.49813868  0.49766402  0.00110816
   0.50165847  0.24261694  0.74866521
   0.00040037  0.49965139  0.50603835
   0.49496300  0.76118213  0.75109961
   0.99965451  0.24631580  0.24497304
   0.74237540  0.75364649  0.00677331
  -0.00193395  0.24599779  0.75662321
   0.74522538  0.23896053  0.50073937
   0.00131021  0.75701928  0.75101437
   0.24978869  0.49965340  0.75063872
   0.25883842  0.24140625  0.99176836
   0.50338922  0.25375122  0.24676472
   0.73468958  0.99073614  0.25365838
   0.74104342  0.24663459  0.00138232
   0.25256775  0.74953552  0.99877079
   0.25683852  0.24470277  0.50689007
   0.25283136  0.75516893  0.50054008
   0.25246430  0.24644591  0.24470518
   0.25906687  0.00302071  0.99269614
  -0.00015369  0.24993566  0.00032015
   0.74704835  0.24676414  0.24812985
   0.74224874  0.00545935 -0.00073965
   0.51182693  0.00229551  0.25450259
   0.99407921  0.49985416  0.24451411
   0.49441778  0.76418067  0.00689582
   0.99495697  0.00311870  0.74269244
   0.75221803  0.25056123  0.75419873
   0.74813637 -0.00206992  0.50212291
   0.49745038  0.24681408  0.49223721
   0.50767676  0.00190507  0.74640505
   0.99759765 -0.00339450  0.25325883
   0.50215912  0.23927462  0.00517856
   0.25287664  0.74858554  0.24690158
   0.24114195  0.49975930  0.99797549
   0.00251879  0.74319289  0.00267700
   0.74619359  0.75185810  0.25506173
   0.75910471  0.49620956  0.00273962
   0.50448307  0.49703682  0.25429063
   0.24896781  0.24094825  0.74954018
   0.25903668  0.99954924  0.50707144
   0.00202282  0.24281680  0.49904282
   0.24647124  0.76069577  0.75333061
   0.25671190  0.49803177  0.50004016
  -0.00073286  0.75679801  0.49722558
   0.99634390  0.50140971  0.76065670
   0.74869869  0.75615173  0.75273340
   0.74475780  0.50213445  0.50019480
   0.49561298  0.75790620  0.49234124
   0.50331050  0.50135548  0.74423199
   0.52066765  0.01454479  0.97257157
   0.00362008  0.51414107  0.98663605
   0.49743534  0.73667667  0.25773206
   0.24481986  0.00264684  0.74229600
   0.47908639  0.98584501  0.50083019
   0.72659005  0.98096326  0.77380563
   0.00816542  0.75108170  0.25001990
   0.74648812  0.50776616  0.25129062
   0.01832009  0.00008588  0.50167070
   0.49727779  0.51267032  0.49832943
   0.74902063  0.51102757  0.75350940
   0.74603278  0.75957390  0.49725831
HECN                                    
           1
     8.907338    0.009842   -0.007392
     0.016135    8.896746   -0.006105
     0.024684   -0.021436    8.912685
   Zr   Hf   Ti   N    C    Cr   Ta
   7   6   7  13  19   6   6
Direct configuration=    11
   0.00235548  0.99424057  0.99883710
   0.26973955  0.99819717  0.24647088
   0.25030242  0.49699199  0.24892441
   0.49798676  0.49789113  0.00129247
   0.50182985  0.24268156  0.74806258
   0.00031327  0.49961239  0.50580125
   0.49510334  0.76121239  0.75057450
   0.99974618  0.24684790  0.24494976
   0.74221833  0.75376969  0.00689323
  -0.00238880  0.24587572  0.75673307
   0.74517917  0.23858434  0.50038603
   0.00115620  0.75720387  0.75083150
   0.24957733  0.49974977  0.75082580
   0.25941202  0.24064144  0.99181665
   0.50320146  0.25406821  0.24686715
   0.73485797  0.99092561  0.25252527
   0.74024769  0.24614568  0.00177823
   0.25265373  0.74962512  0.99886162
   0.25686951  0.24477432  0.50726520
   0.25307032  0.75497129  0.50059231
   0.25242765  0.24643166  0.24439434
   0.25896308  0.00294143  0.99295826
  -0.00028343  0.24976717  0.00048459
   0.74718347  0.24670662  0.24794394
   0.74282377  0.00529274 -0.00066302
   0.51143365  0.00250813  0.25507718
   0.99423236  0.50002072  0.24484716
   0.49422886  0.76444151  0.00694081
   0.99564433  0.00298619  0.74223863
   0.75196792  0.25058413  0.75381719
   0.74867747 -0.00195257  0.50164101
   0.49769182  0.24748192  0.49244878
   0.50782508  0.00201221  0.74701832
   0.99808057 -0.00284611  0.25320909
   0.50157544  0.23945430  0.00497029
   0.25310814  0.74817357  0.24693759
   0.24108526  0.49958716  0.99809375
   0.00218074  0.74322027  0.00275041
   0.74594598  0.75205769  0.25479848
   0.75888084  0.49658813  0.00291551
   0.50428229  0.49697515  0.25431168
   0.24883540  0.24092394  0.74955295
   0.25979072  0.99942995  0.50663819
   0.00180351  0.24261043  0.49902633
   0.24655310  0.76079440  0.75328949
   0.25683104  0.49783087  0.50041578
  -0.00091398  0.75675371  0.49723573
   0.99625449  0.50147474  0.76113471
   0.74867175  0.75659246  0.75257976
   0.74485135  0.50188733  0.50050561
   0.49614383  0.75805667  0.49225126
   0.50330506  0.50135886  0.74427915
   0.52005614  0.01444869  0.97143467
   0.00399376  0.51499223  0.98688107
   0.49677535  0.73560720  0.25781339
   0.24495974  0.00207034  0.74181192
   0.47925492  0.98628580  0.50155800
   0.72588690  0.98058849  0.77462465
   0.00840577  0.75077327  0.25000748
   0.74660447  0.50802098  0.25125700
   0.01797326  0.00014609  0.50150834
   0.49728574  0.51212554  0.49821671
   0.74925889  0.51086028  0.75365671
   0.74603209  0.75992534  0.49689821
HECN                                    
           1
     8.893865    0.012477   -0.008981
     0.018747    8.891080   -0.008276
     0.023055   -0.023585    8.915902
   Zr   Hf   Ti   N    C    Cr   Ta
   7   6   7  13  19   6   6
Direct configuration=    12
   0.00324313  0.99412895  0.99872435
   0.26957072  0.99817915  0.24741832
   0.25020244  0.49643518  0.24851643