<?xml version="1.0" encoding="ISO-8859-1"?>
<modeling>
 <generator>
  <i name="program" type="string">vasp </i>
  <i name="version" type="string">5.4.4.18Apr17-6-g9f103f2a35  </i>
  <i name="subversion" type="string">(build Oct 18 2021 20:38:43) complex            parallel </i>
  <i name="platform" type="string">LinuxIFC </i>
  <i name="date" type="string">2024 06 22 </i>
  <i name="time" type="string">17:01:03 </i>
 </generator>
 <incar>
  <i type="string" name="SYSTEM">HECN</i>
  <i type="int" name="ISTART">     0</i>
  <i type="string" name="PREC">normal</i>
  <i type="string" name="ALGO">Fast</i>
  <i type="int" name="ICHARG">     2</i>
  <i type="int" name="NELM">    60</i>
  <i type="int" name="IBRION">     2</i>
  <i name="EDIFF">      0.00001000</i>
  <i name="EDIFFG">     -0.01000000</i>
  <i type="int" name="NSW">   100</i>
  <i type="int" name="ISIF">     3</i>
  <i name="ENCUT">    400.00000000</i>
  <i name="POTIM">      0.50000000</i>
  <i type="logical" name="LREAL"> F  </i>
  <i type="int" name="ISMEAR">     0</i>
  <i name="SIGMA">      0.10000000</i>
  <i type="logical" name="LWAVE"> F  </i>
  <i type="logical" name="LCHARG"> F  </i>
  <v type="int" name="KPOINT_BSE">    -1     0     0     0</v>
  <i type="int" name="NELM">    60</i>
 </incar>
 <structure name="primitive_cell" >
  <crystal>
   <varray name="basis" >
    <v>       8.83254009      -0.00649216      -0.00025916 </v>
    <v>      -0.00650488       8.82673873      -0.00987527 </v>
    <v>      -0.00025254      -0.00985084       8.78377757 </v>
   </varray>
   <i name="volume">    684.80423622 </i>
   <varray name="rec_basis" >
    <v>       0.11321778       0.00008344       0.00000335 </v>
    <v>       0.00008328       0.11329233       0.00012706 </v>
    <v>       0.00000343       0.00012737       0.11384638 </v>
   </varray>
  </crystal>
  <varray name="positions" >
   <v>       0.00046877       0.00303954       0.01031360 </v>
   <v>       0.00105548       0.00042878       0.24564670 </v>
   <v>      -0.00220572       0.24065607       0.00063852 </v>
   <v>      -0.24319424       0.00570870       0.00557233 </v>
   <v>       0.24461254       0.00857988       0.00822976 </v>
   <v>       0.00570527      -0.24641827       0.00223326 </v>
   <v>      -0.00086279       0.00229083      -0.24838148 </v>
   <v>      -0.23555393      -0.00692043       0.23820617 </v>
   <v>       0.24249069       0.00824884       0.24634558 </v>
   <v>       0.00067185      -0.23506749       0.25205027 </v>
   <v>       0.00259850       0.24210166       0.25335536 </v>
   <v>      -0.23855886      -0.25249555       0.00304142 </v>
   <v>       0.24607563       0.00037831      -0.24278304 </v>
   <v>      -0.24675801      -0.00031256      -0.24792619 </v>
   <v>       0.23153875      -0.27015153       0.00360721 </v>
   <v>       0.00318835       0.26037234      -0.25328785 </v>
   <v>      -0.27400132       0.25121820       0.01952762 </v>
   <v>      -0.00251737      -0.26272799      -0.25224165 </v>
   <v>       0.26682244       0.26372013      -0.01100733 </v>
   <v>       0.24215760      -0.25231218       0.23913938 </v>
   <v>      -0.25422786       0.24188376       0.24736054 </v>
   <v>       0.25268420       0.24907965       0.24860160 </v>
   <v>      -0.24557982      -0.25288518       0.25446084 </v>
   <v>       0.25272416      -0.25394530      -0.23769212 </v>
   <v>       0.25384905       0.25263916      -0.24875713 </v>
   <v>      -0.25378041       0.25321591      -0.24935557 </v>
   <v>      -0.25515529      -0.25378316      -0.24966374 </v>
   <v>       0.00854898       0.01093253       0.48401493 </v>
   <v>      -0.00124515       0.49330119       0.00524038 </v>
   <v>       0.49766613       0.00350323       0.00449352 </v>
   <v>      -0.24304782       0.00163156       0.49401212 </v>
   <v>       0.24500189       0.00931616       0.49382818 </v>
   <v>      -0.00736245      -0.24580793       0.49832041 </v>
   <v>       0.00326498       0.25394072      -0.49912528 </v>
   <v>      -0.49725561       0.00980839       0.24843098 </v>
   <v>      -0.00049350       0.49768419       0.25758599 </v>
   <v>      -0.25814993       0.49114820      -0.00035917 </v>
   <v>       0.49660418       0.25834529       0.00103937 </v>
   <v>       0.25523904       0.49984175       0.00424415 </v>
   <v>      -0.49782330       0.00442140      -0.24939263 </v>
   <v>      -0.00164261       0.49849064      -0.25602070 </v>
   <v>      -0.49972825      -0.25376162      -0.00730586 </v>
   <v>      -0.24313650       0.26430831       0.49225309 </v>
   <v>       0.23435609       0.24905431      -0.48542520 </v>
   <v>       0.26230744       0.48668388       0.25189643 </v>
   <v>      -0.49231508       0.26094214       0.24023552 </v>
   <v>       0.24957059      -0.25179908       0.49836518 </v>
   <v>      -0.26923985       0.49397980       0.24212837 </v>
   <v>       0.49679660      -0.25270246       0.24562594 </v>
   <v>      -0.25599232      -0.49566473      -0.24341725 </v>
   <v>       0.25638692       0.49763545      -0.24981434 </v>
   <v>       0.49909952       0.25683788      -0.24542948 </v>
   <v>      -0.25338560      -0.27046449      -0.49906901 </v>
   <v>      -0.49910206      -0.25618442      -0.24793232 </v>
   <v>       0.00914598       0.49446061       0.49717717 </v>
   <v>       0.49812168       0.00868100       0.49412187 </v>
   <v>      -0.49989111       0.49873824      -0.00126339 </v>
   <v>       0.25274632       0.48765316       0.49606925 </v>
   <v>       0.49529712       0.49281767       0.24712191 </v>
   <v>      -0.24302280       0.49978644       0.49648768 </v>
   <v>       0.49933888       0.25717595       0.49951329 </v>
   <v>      -0.49556612      -0.25280647      -0.49374984 </v>
   <v>      -0.49740990      -0.49997099      -0.24990456 </v>
   <v>      -0.49792938      -0.49849936       0.49876995 </v>
  </varray>
 </structure>
 <varray name="primitive_index" >
  <v type="int" >        1 </v>
  <v type="int" >       33 </v>
  <v type="int" >       22 </v>
  <v type="int" >       24 </v>
  <v type="int" >       21 </v>
  <v type="int" >       37 </v>
  <v type="int" >       28 </v>
  <v type="int" >       16 </v>
  <v type="int" >        2 </v>
  <v type="int" >       59 </v>
  <v type="int" >        8 </v>
  <v type="int" >        9 </v>
  <v type="int" >       55 </v>
  <v type="int" >       57 </v>
  <v type="int" >       18 </v>
  <v type="int" >       10 </v>
  <v type="int" >       17 </v>
  <v type="int" >       12 </v>
  <v type="int" >       14 </v>
  <v type="int" >       35 </v>
  <v type="int" >       23 </v>
  <v type="int" >       20 </v>
  <v type="int" >       38 </v>
  <v type="int" >       44 </v>
  <v type="int" >       41 </v>
  <v type="int" >       29 </v>
  <v type="int" >       48 </v>
  <v type="int" >       61 </v>
  <v type="int" >       53 </v>
  <v type="int" >       52 </v>
  <v type="int" >       30 </v>
  <v type="int" >       42 </v>
  <v type="int" >       46 </v>
  <v type="int" >       43 </v>
  <v type="int" >       25 </v>
  <v type="int" >       26 </v>
  <v type="int" >       39 </v>
  <v type="int" >       34 </v>
  <v type="int" >       36 </v>
  <v type="int" >       32 </v>
  <v type="int" >       47 </v>
  <v type="int" >       27 </v>
  <v type="int" >       11 </v>
  <v type="int" >       19 </v>
  <v type="int" >        3 </v>
  <v type="int" >       15 </v>
  <v type="int" >       58 </v>
  <v type="int" >       60 </v>
  <v type="int" >       54 </v>
  <v type="int" >       63 </v>
  <v type="int" >       13 </v>
  <v type="int" >        5 </v>
  <v type="int" >       64 </v>
  <v type="int" >        7 </v>
  <v type="int" >        6 </v>
  <v type="int" >       56 </v>
  <v type="int" >        4 </v>
  <v type="int" >       45 </v>
  <v type="int" >       40 </v>
  <v type="int" >       49 </v>
  <v type="int" >       31 </v>
  <v type="int" >       50 </v>
  <v type="int" >       51 </v>
  <v type="int" >       62 </v>
 </varray>
 <kpoints>
  <generation param="Gamma">
   <v type="int" name="divisions">       3        3        3 </v>
   <v name="usershift">      0.00000000       0.00000000       0.00000000 </v>
   <v name="genvec1">      0.33333333       0.00000000       0.00000000 </v>
   <v name="genvec2">     -0.00000000       0.33333333       0.00000000 </v>
   <v name="genvec3">     -0.00000000      -0.00000000       0.33333333 </v>
   <v name="shift">      0.00000000       0.00000000       0.00000000 </v>
  </generation>
  <varray name="kpointlist" >
   <v>       0.00000000       0.00000000       0.00000000 </v>
   <v>       0.33333333       0.00000000       0.00000000 </v>
   <v>       0.00000000       0.33333333       0.00000000 </v>
   <v>       0.33333333       0.33333333       0.00000000 </v>
   <v>      -0.33333333       0.33333333       0.00000000 </v>
   <v>       0.00000000       0.00000000       0.33333333 </v>
   <v>       0.33333333       0.00000000       0.33333333 </v>
   <v>      -0.33333333       0.00000000       0.33333333 </v>
   <v>       0.00000000       0.33333333       0.33333333 </v>
   <v>       0.33333333       0.33333333       0.33333333 </v>
   <v>      -0.33333333       0.33333333       0.33333333 </v>
   <v>      -0.00000000      -0.33333333       0.33333333 </v>
   <v>       0.33333333      -0.33333333       0.33333333 </v>
   <v>      -0.33333333      -0.33333333       0.33333333 </v>
  </varray>
  <varray name="weights" >
   <v>       0.03703704 </v>
   <v>       0.07407407 </v>
   <v>       0.07407407 </v>
   <v>       0.07407407 </v>
   <v>       0.07407407 </v>
   <v>       0.07407407 </v>
   <v>       0.07407407 </v>
   <v>       0.07407407 </v>
   <v>       0.07407407 </v>
   <v>       0.07407407 </v>
   <v>       0.07407407 </v>
   <v>       0.07407407 </v>
   <v>       0.07407407 </v>
   <v>       0.07407407 </v>
  </varray>
 </kpoints>
 <parameters>
  <separator name="general" >
   <i type="string" name="SYSTEM">HECN</i>
   <i type="logical" name="LCOMPAT"> F  </i>
  </separator>
  <separator name="electronic" >
   <i type="string" name="PREC">normal</i>
   <i name="ENMAX">    400.00000000</i>
   <i name="ENAUG">    644.87300000</i>
   <i name="EDIFF">      0.00001000</i>
   <i type="int" name="IALGO">    68</i>
   <i type="int" name="IWAVPR">    11</i>
   <i type="int" name="NBANDS">   336</i>
   <i name="NELECT">    525.00000000</i>
   <i type="int" name="TURBO">     0</i>
   <i type="int" name="IRESTART">     0</i>
   <i type="int" name="NREBOOT">     0</i>
   <i type="int" name="NMIN">     0</i>
   <i name="EREF">      0.00000000</i>
   <separator name="electronic smearing" >
    <i type="int" name="ISMEAR">     0</i>
    <i name="SIGMA">      0.10000000</i>
    <i name="KSPACING">      0.50000000</i>
    <i type="logical" name="KGAMMA"> T  </i>
   </separator>
   <separator name="electronic projectors" >
    <i type="logical" name="LREAL"> F  </i>
    <v name="ROPT">      0.00000000      0.00000000      0.00000000      0.00000000      0.00000000      0.00000000      0.00000000</v>
    <i type="int" name="LMAXPAW">  -100</i>
    <i type="int" name="LMAXMIX">     2</i>
    <i type="logical" name="NLSPLINE"> F  </i>
   </separator>
   <separator name="electronic startup" >
    <i type="int" name="ISTART">     0</i>
    <i type="int" name="ICHARG">     2</i>
    <i type="int" name="INIWAV">     1</i>
   </separator>
   <separator name="electronic spin" >
    <i type="int" name="ISPIN">     1</i>
    <i type="logical" name="LNONCOLLINEAR"> F  </i>
    <v name="MAGMOM">      1.00000000      1.00000000      1.00000000      1.00000000      1.00000000      1.00000000      1.00000000      1.00000000      1.00000000      1.00000000      1.00000000      1.00000000      1.00000000      1.00000000      1.00000000      1.00000000      1.00000000      1.00000000      1.00000000      1.00000000
      1.00000000      1.00000000      1.00000000      1.00000000      1.00000000      1.00000000      1.00000000      1.00000000      1.00000000      1.00000000      1.00000000      1.00000000      1.00000000      1.00000000      1.00000000      1.00000000      1.00000000      1.00000000      1.00000000      1.00000000
      1.00000000      1.00000000      1.00000000      1.00000000      1.00000000      1.00000000      1.00000000      1.00000000      1.00000000      1.00000000      1.00000000      1.00000000      1.00000000      1.00000000      1.00000000      1.00000000      1.00000000      1.00000000      1.00000000      1.00000000
      1.00000000      1.00000000      1.00000000      1.00000000</v>
    <i name="NUPDOWN">     -1.00000000</i>
    <i type="logical" name="LSORBIT"> F  </i>
    <v name="SAXIS">      0.00000000      0.00000000      1.00000000</v>
    <i type="logical" name="LSPIRAL"> F  </i>
    <v name="QSPIRAL">      0.00000000      0.00000000      0.00000000</v>
    <i type="logical" name="LZEROZ"> F  </i>
   </separator>
   <separator name="electronic exchange-correlation" >
    <i type="logical" name="LASPH"> F  </i>
    <i type="logical" name="LMETAGGA"> F  </i>
   </separator>
   <separator name="electronic convergence" >
    <i type="int" name="NELM">    60</i>
    <i type="int" name="NELMDL">    -5</i>
    <i type="int" name="NELMIN">     2</i>
    <i name="ENINI">    400.00000000</i>
    <separator name="electronic convergence detail" >
     <i type="logical" name="LDIAG"> T  </i>
     <i type="logical" name="LSUBROT"> F  </i>
     <i name="WEIMIN">      0.00100000</i>
     <i name="EBREAK">      0.00000001</i>
     <i name="DEPER">      0.30000000</i>
     <i type="int" name="NRMM">     4</i>
     <i name="TIME">      0.40000000</i>
    </separator>
   </separator>
   <separator name="electronic mixer" >
    <i name="AMIX">      0.40000000</i>
    <i name="BMIX">      1.00000000</i>
    <i name="AMIN">      0.10000000</i>
    <i name="AMIX_MAG">      1.60000000</i>
    <i name="BMIX_MAG">      1.00000000</i>
    <separator name="electronic mixer details" >
     <i type="int" name="IMIX">     4</i>
     <i type="logical" name="MIXFIRST"> F  </i>
     <i type="int" name="MAXMIX">   -45</i>
     <i name="WC">    100.00000000</i>
     <i type="int" name="INIMIX">     1</i>
     <i type="int" name="MIXPRE">     1</i>
     <i type="int" name="MREMOVE">     5</i>
    </separator>
   </separator>
   <separator name="electronic dipolcorrection" >
    <i type="logical" name="LDIPOL"> F  </i>
    <i type="logical" name="LMONO"> F  </i>
    <i type="int" name="IDIPOL">     0</i>
    <i name="EPSILON">      1.00000000</i>
    <v name="DIPOL">   -100.00000000   -100.00000000   -100.00000000</v>
    <i name="EFIELD">      0.00000000</i>
   </separator>
  </separator>
  <separator name="grids" >
   <i type="int" name="NGX">    48</i>
   <i type="int" name="NGY">    48</i>
   <i type="int" name="NGZ">    48</i>
   <i type="int" name="NGXF">    96</i>
   <i type="int" name="NGYF">    96</i>
   <i type="int" name="NGZF">    96</i>
   <i type="logical" name="ADDGRID"> F  </i>
  </separator>
  <separator name="ionic" >
   <i type="int" name="NSW">   100</i>
   <i type="int" name="IBRION">     2</i>
   <i type="int" name="MDALGO">     0</i>
   <i type="int" name="ISIF">     3</i>
   <i name="PSTRESS">      0.00000000</i>
   <i name="EDIFFG">     -0.01000000</i>
   <i type="int" name="NFREE">     1</i>
   <i name="POTIM">      0.50000000</i>
   <i name="SMASS">     -3.00000000</i>
   <i name="SCALEE">      1.00000000</i>
  </separator>
  <separator name="ionic md" >
   <i name="TEBEG">      0.00010000</i>
   <i name="TEEND">      0.00010000</i>
   <i type="int" name="NBLOCK">     1</i>
   <i type="int" name="KBLOCK">   100</i>
   <i type="int" name="NPACO">   256</i>
   <i name="APACO">     16.00000000</i>
  </separator>
  <separator name="symmetry" >
   <i type="int" name="ISYM">     2</i>
   <i name="SYMPREC">      0.00001000</i>
  </separator>
  <separator name="dos" >
   <i type="int" name="LORBIT">     0</i>
   <v name="RWIGS">     -1.00000000     -1.00000000     -1.00000000     -1.00000000     -1.00000000     -1.00000000     -1.00000000</v>
   <i type="int" name="NEDOS">   301</i>
   <i name="EMIN">     10.00000000</i>
   <i name="EMAX">    -10.00000000</i>
   <i name="EFERMI">      0.00000000</i>
  </separator>
  <separator name="writing" >
   <i type="int" name="NWRITE">     2</i>
   <i type="logical" name="LWAVE"> F  </i>
   <i type="logical" name="LDOWNSAMPLE"> F  </i>
   <i type="logical" name="LCHARG"> F  </i>
   <i type="logical" name="LPARD"> F  </i>
   <i type="logical" name="LVTOT"> F  </i>
   <i type="logical" name="LVHAR"> F  </i>
   <i type="logical" name="LELF"> F  </i>
   <i type="logical" name="LOPTICS"> F  </i>
   <v name="STM">      0.00000000      0.00000000      0.00000000      0.00000000      0.00000000      0.00000000      0.00000000</v>
  </separator>
  <separator name="performance" >
   <i type="int" name="NPAR">    24</i>
   <i type="int" name="NSIM">     4</i>
   <i type="int" name="NBLK">    -1</i>
   <i type="logical" name="LPLANE"> T  </i>
   <i type="logical" name="LSCALAPACK"> T  </i>
   <i type="logical" name="LSCAAWARE"> F  </i>
   <i type="logical" name="LSCALU"> F  </i>
   <i type="logical" name="LASYNC"> F  </i>
   <i type="logical" name="LORBITALREAL"> F  </i>
  </separator>
  <separator name="miscellaneous" >
   <i type="int" name="IDIOT">     3</i>
   <i type="int" name="ISPECIAL">     0</i>
   <i type="logical" name="LMUSIC"> F  </i>
   <v name="POMASS">     47.88000000    183.85000000     50.94100000     14.00100000     12.01100000     91.22400000    180.94800000</v>
   <v name="DARWINR">      0.00000000      0.00000000      0.00000000      0.00000000      0.00000000      0.00000000      0.00000000</v>
   <v name="DARWINV">      1.00000000      1.00000000      1.00000000      1.00000000      1.00000000      1.00000000      1.00000000</v>
   <i type="logical" name="LCORR"> T  </i>
  </separator>
  <i type="logical" name="GGA_COMPAT"> T  </i>
  <i type="logical" name="LBERRY"> F  </i>
  <i type="int" name="ICORELEVEL">     0</i>
  <i type="logical" name="LDAU"> F  </i>
  <i type="int" name="I_CONSTRAINED_M">     0</i>
  <separator name="electronic exchange-correlation" >
   <i type="string" name="GGA">--</i>
   <i type="int" name="VOSKOWN">     0</i>
   <i type="logical" name="LHFCALC"> F  </i>
   <i type="string" name="PRECFOCK"></i>
   <i type="logical" name="LSYMGRAD"> F  </i>
   <i type="logical" name="LHFONE"> F  </i>
   <i type="logical" name="LRHFCALC"> F  </i>
   <i type="logical" name="LTHOMAS"> F  </i>
   <i type="logical" name="LMODELHF"> F  </i>
   <i name="ENCUT4O">     -1.00000000</i>
   <i type="int" name="EXXOEP">     0</i>
   <i type="int" name="FOURORBIT">     0</i>
   <i name="AEXX">      0.00000000</i>
   <i name="HFALPHA">      0.00000000</i>
   <i name="MCALPHA">      0.00000000</i>
   <i name="ALDAX">      1.00000000</i>
   <i name="AGGAX">      1.00000000</i>
   <i name="ALDAC">      1.00000000</i>
   <i name="AGGAC">      1.00000000</i>
   <i type="int" name="NKREDX">     1</i>
   <i type="int" name="NKREDY">     1</i>
   <i type="int" name="NKREDZ">     1</i>
   <i type="logical" name="SHIFTRED"> F  </i>
   <i type="logical" name="ODDONLY"> F  </i>
   <i type="logical" name="EVENONLY"> F  </i>
   <i type="int" name="LMAXFOCK">     0</i>
   <i type="int" name="NMAXFOCKAE">     0</i>
   <i type="logical" name="LFOCKAEDFT"> F  </i>
   <i name="HFSCREEN">      0.00000000</i>
   <i name="HFSCREENC">      0.00000000</i>
   <i type="int" name="NBANDSGWLOW">     0</i>
  </separator>
  <separator name="vdW DFT" >
   <i type="logical" name="LUSE_VDW"> F  </i>
   <i name="Zab_VDW">     -0.84910000</i>
   <i name="PARAM1">      0.12340000</i>
   <i name="PARAM2">      1.00000000</i>
   <i name="PARAM3">      0.00000000</i>
  </separator>
  <separator name="model GW" >
   <i type="int" name="MODEL_GW">     0</i>
   <i name="MODEL_EPS0">      6.42003971</i>
   <i name="MODEL_ALPHA">      1.00000000</i>
  </separator>
  <separator name="linear response parameters" >
   <i type="logical" name="LEPSILON"> F  </i>
   <i type="logical" name="LRPA"> F  </i>
   <i type="logical" name="LNABLA"> F  </i>
   <i type="logical" name="LVEL"> F  </i>
   <i type="int" name="KINTER">     0</i>
   <i name="CSHIFT">      0.10000000</i>
   <i name="OMEGAMAX">     -1.00000000</i>
   <i name="DEG_THRESHOLD">      0.00200000</i>
   <i name="RTIME">     -0.10000000</i>
   <i name="WPLASMAI">      0.00000000</i>
   <v name="DFIELD">      0.00000000      0.00000000      0.00000000</v>
   <v name="WPLASMA">      0.00000000      0.00000000      0.00000000      0.00000000      0.00000000      0.00000000      0.00000000      0.00000000      0.00000000</v>
  </separator>
  <separator name="orbital magnetization" >
   <i type="logical" name="NUCIND"> F  </i>
   <v name="MAGPOS">      0.00000000      0.00000000      0.00000000</v>
   <i type="logical" name="LNICSALL"> T  </i>
   <i type="logical" name="ORBITALMAG"> F  </i>
   <i type="logical" name="LMAGBLOCH"> F  </i>
   <i type="logical" name="LCHIMAG"> F  </i>
   <i type="logical" name="LGAUGE"> T  </i>
   <i type="int" name="MAGATOM">     0</i>
   <v name="MAGDIPOL">      0.00000000      0.00000000      0.00000000</v>
   <v name="AVECCONST">      0.00000000      0.00000000      0.00000000</v>
  </separator>
  <separator name="response functions" >
   <i type="logical" name="LADDER"> F  </i>
   <i type="logical" name="LRPAFORCE"> F  </i>
   <i type="logical" name="LFXC"> F  </i>
   <i type="logical" name="LHARTREE"> T  </i>
   <i type="int" name="IBSE">     0</i>
   <v type="int" name="KPOINT">    -1     0     0     0</v>
   <i type="logical" name="LTCTE"> F  </i>
   <i type="logical" name="LTETE"> F  </i>
   <i type="logical" name="LTRIPLET"> F  </i>
   <i type="logical" name="LFXCEPS"> F  </i>
   <i type="logical" name="LFXHEG"> F  </i>
   <i type="int" name="NATURALO">     2</i>
   <i type="logical" name="L2ORDER"> F  </i>
   <i type="logical" name="LMP2LT"> F  </i>
   <i type="logical" name="LUSEW"> F  </i>
   <i name="ENCUTGW">     -2.00000000</i>
   <i name="ENCUTGWSOFT">     -2.00000000</i>
   <i name="ENCUTLF">     -1.00000000</i>
   <i type="int" name="LMAXMP2">    -1</i>
   <i name="SCISSOR">      0.00000000</i>
   <i type="int" name="NOMEGA">     0</i>
   <i type="int" name="NOMEGAR">     0</i>
   <i type="int" name="NBANDSGW">    -1</i>
   <i type="int" name="NBANDSO">    -1</i>
   <i type="int" name="NBANDSV">    -1</i>
   <i type="int" name="NELM">    60</i>
   <i type="int" name="NELMHF">     1</i>
   <i type="int" name="DIM">     3</i>
   <i type="int" name="ANTIRES">     0</i>
   <i name="OMEGAMAX">    -30.00000000</i>
   <i name="OMEGAMIN">    -30.00000000</i>
   <i name="OMEGATL">   -200.00000000</i>
   <i type="int" name="OMEGAGRID">   140</i>
   <i name="CSHIFT">     -0.10000000</i>
   <i type="logical" name="SELFENERGY"> F  </i>
   <i type="logical" name="LSPECTRAL"> F  </i>
   <i type="logical" name="LSPECTRALGW"> F  </i>
   <i type="logical" name="LSINGLES"> F  </i>
   <i type="logical" name="LFERMIGW"> F  </i>
   <i type="logical" name="ODDONLYGW"> F  </i>
   <i type="logical" name="EVENONLYGW"> F  </i>
   <i type="int" name="NKREDLFX">     1</i>
   <i type="int" name="NKREDLFY">     1</i>
   <i type="int" name="NKREDLFZ">     1</i>
   <i type="int" name="MAXMEM">  2800</i>
   <i type="int" name="TELESCOPE">     0</i>
   <i type="int" name="TAUPAR">     1</i>
   <i type="int" name="OMEGAPAR">    -1</i>
   <i name="LAMBDA">      1.00000000</i>
  </separator>
  <separator name="External order field" >
   <i name="OFIELD_KAPPA">      0.00000000</i>
   <v name="OFIELD_K">      0.00000000      0.00000000      0.00000000</v>
   <i name="OFIELD_Q6_NEAR">      0.00000000</i>
   <i name="OFIELD_Q6_FAR">      0.00000000</i>
   <i name="OFIELD_A">      0.00000000</i>
  </separator>
 </parameters>
 <atominfo>
  <atoms>      64 </atoms>
  <types>       7 </types>
  <array name="atoms" >
   <dimension dim="1">ion</dimension>
   <field type="string">element</field>
   <field type="int">atomtype</field>
   <set>
    <rc><c>Ti</c><c>   1</c></rc>
    <rc><c>Ti</c><c>   1</c></rc>
    <rc><c>Ti</c><c>   1</c></rc>
    <rc><c>Ti</c><c>   1</c></rc>
    <rc><c>Ti</c><c>   1</c></rc>
    <rc><c>Ti</c><c>   1</c></rc>
    <rc><c>Ti</c><c>   1</c></rc>
    <rc><c>W </c><c>   2</c></rc>
    <rc><c>W </c><c>   2</c></rc>
    <rc><c>W </c><c>   2</c></rc>
    <rc><c>W </c><c>   2</c></rc>
    <rc><c>W </c><c>   2</c></rc>
    <rc><c>W </c><c>   2</c></rc>
    <rc><c>V </c><c>   3</c></rc>
    <rc><c>V </c><c>   3</c></rc>
    <rc><c>V </c><c>   3</c></rc>
    <rc><c>V </c><c>   3</c></rc>
    <rc><c>V </c><c>   3</c></rc>
    <rc><c>V </c><c>   3</c></rc>
    <rc><c>N </c><c>   4</c></rc>
    <rc><c>N </c><c>   4</c></rc>
    <rc><c>N </c><c>   4</c></rc>
    <rc><c>N </c><c>   4</c></rc>
    <rc><c>N </c><c>   4</c></rc>
    <rc><c>N </c><c>   4</c></rc>
    <rc><c>N </c><c>   4</c></rc>
    <rc><c>N </c><c>   4</c></rc>
    <rc><c>N </c><c>   4</c></rc>
    <rc><c>N </c><c>   4</c></rc>
    <rc><c>N </c><c>   4</c></rc>
    <rc><c>N </c><c>   4</c></rc>
    <rc><c>N </c><c>   4</c></rc>
    <rc><c>C </c><c>   5</c></rc>
    <rc><c>C </c><c>   5</c></rc>
    <rc><c>C </c><c>   5</c></rc>
    <rc><c>C </c><c>   5</c></rc>
    <rc><c>C </c><c>   5</c></rc>
    <rc><c>C </c><c>   5</c></rc>
    <rc><c>C </c><c>   5</c></rc>
    <rc><c>C </c><c>   5</c></rc>
    <rc><c>C </c><c>   5</c></rc>
    <rc><c>C </c><c>   5</c></rc>
    <rc><c>C </c><c>   5</c></rc>
    <rc><c>C </c><c>   5</c></rc>
    <rc><c>C </c><c>   5</c></rc>
    <rc><c>C </c><c>   5</c></rc>
    <rc><c>C </c><c>   5</c></rc>
    <rc><c>C </c><c>   5</c></rc>
    <rc><c>C </c><c>   5</c></rc>
    <rc><c>C </c><c>   5</c></rc>
    <rc><c>C </c><c>   5</c></rc>
    <rc><c>Zr</c><c>   6</c></rc>
    <rc><c>Zr</c><c>   6</c></rc>
    <rc><c>Zr</c><c>   6</c></rc>
    <rc><c>Zr</c><c>   6</c></rc>
    <rc><c>Zr</c><c>   6</c></rc>
    <rc><c>Zr</c><c>   6</c></rc>
    <rc><c>Zr</c><c>   6</c></rc>
    <rc><c>Ta</c><c>   7</c></rc>
    <rc><c>Ta</c><c>   7</c></rc>
    <rc><c>Ta</c><c>   7</c></rc>
    <rc><c>Ta</c><c>   7</c></rc>
    <rc><c>Ta</c><c>   7</c></rc>
    <rc><c>Ta</c><c>   7</c></rc>
   </set>
  </array>
  <array name="atomtypes" >
   <dimension dim="1">type</dimension>
   <field type="int">atomspertype</field>
   <field type="string">element</field>
   <field>mass</field>
   <field>valence</field>
   <field type="string">pseudopotential</field>
   <set>
    <rc><c>   7</c><c>Ti</c><c>     47.88000000</c><c>     12.00000000</c><c> PAW_PBE Ti_sv 07Sep2000                </c></rc>
    <rc><c>   6</c><c>W </c><c>    183.85000000</c><c>     12.00000000</c><c> PAW_PBE W_pv 06Sep2000                 </c></rc>
    <rc><c>   6</c><c>V </c><c>     50.94100000</c><c>     13.00000000</c><c> PAW_PBE V_sv 07Sep2000                 </c></rc>
    <rc><c>  13</c><c>N </c><c>     14.00100000</c><c>      5.00000000</c><c> PAW_PBE N 08Apr2002                    </c></rc>
    <rc><c>  19</c><c>C </c><c>     12.01100000</c><c>      4.00000000</c><c> PAW_PBE C 08Apr2002                    </c></rc>
    <rc><c>   7</c><c>Zr</c><c>     91.22400000</c><c>     12.00000000</c><c> PAW_PBE Zr_sv 07Sep2000                </c></rc>
    <rc><c>   6</c><c>Ta</c><c>    180.94800000</c><c>     11.00000000</c><c> PAW_PBE Ta_pv 07Sep2000                </c></rc>
   </set>
  </array>
 </atominfo>
 <structure name="initialpos" >
  <crystal>
   <varray name="basis" >
    <v>       8.83254009      -0.00649216      -0.00025916 </v>
    <v>      -0.00650488       8.82673873      -0.00987527 </v>
    <v>      -0.00025254      -0.00985084       8.78377757 </v>
   </varray>
   <i name="volume">    684.80423622 </i>
   <varray name="rec_basis" >
    <v>       0.11321778       0.00008344       0.00000335 </v>
    <v>       0.00008328       0.11329233       0.00012706 </v>
    <v>       0.00000343       0.00012737       0.11384638 </v>
   </varray>
  </crystal>
  <varray name="positions" >
   <v>       0.00046877       0.00303954       0.01031360 </v>
   <v>       0.24249069       0.00824884       0.24634558 </v>
   <v>       0.26230744       0.48668388       0.25189643 </v>
   <v>       0.50010889       0.49873824       0.99873661 </v>
   <v>       0.49909952       0.25683788       0.75457052 </v>
   <v>       0.00914598       0.49446061       0.49717717 </v>
   <v>       0.50089794       0.74381558       0.75206768 </v>
   <v>       0.00259850       0.24210166       0.25335536 </v>
   <v>       0.76144114       0.74750445       0.00304142 </v>
   <v>       0.00318835       0.26037234       0.74671215 </v>
   <v>       0.75686350       0.26430831       0.49225309 </v>
   <v>       0.99748263       0.73727201       0.74775835 </v>
   <v>       0.25638692       0.49763545       0.75018566 </v>
   <v>       0.26682244       0.26372013       0.98899267 </v>
   <v>       0.50768492       0.26094214       0.24023552 </v>
   <v>       0.76444607       0.99307957       0.23820617 </v>
   <v>       0.72599868       0.25121820       0.01952762 </v>
   <v>       0.23153875       0.72984847       0.00360721 </v>
   <v>       0.23435609       0.24905431       0.51457480 </v>
   <v>       0.25268420       0.24907965       0.24860160 </v>
   <v>       0.24461254       0.00857988       0.00822976 </v>
   <v>       0.99779428       0.24065607       0.00063852 </v>
   <v>       0.74577214       0.24188376       0.24736054 </v>
   <v>       0.75680576       0.00570870       0.00557233 </v>
   <v>       0.50274439       0.00980839       0.24843098 </v>
   <v>       0.99950650       0.49768419       0.25758599 </v>
   <v>       0.50027175       0.74623838       0.99269414 </v>
   <v>       0.99913721       0.00229083       0.75161852 </v>
   <v>       0.74621959       0.25321591       0.75064443 </v>
   <v>       0.75695218       0.00163156       0.49401212 </v>
   <v>       0.49933888       0.25717595       0.49951329 </v>
   <v>       0.50217670       0.00442140       0.75060737 </v>
   <v>       0.00105548       0.00042878       0.24564670 </v>
   <v>       0.49660418       0.25834529       0.00103937 </v>
   <v>       0.24215760       0.74768782       0.23913938 </v>
   <v>       0.25523904       0.49984175       0.00424415 </v>
   <v>       0.00570527       0.75358173       0.00223326 </v>
   <v>       0.75442018       0.74711482       0.25446084 </v>
   <v>       0.74185007       0.49114820       0.99964083 </v>
   <v>       0.49529712       0.49281767       0.24712191 </v>
   <v>       0.25384905       0.25263916       0.75124287 </v>
   <v>       0.24500189       0.00931616       0.49382818 </v>
   <v>       0.00326498       0.25394072       0.50087472 </v>
   <v>       0.25272416       0.74605470       0.76230788 </v>
   <v>       0.25274632       0.48765316       0.49606925 </v>
   <v>       0.99263755       0.75419207       0.49832041 </v>
   <v>       0.99835739       0.49849064       0.74397930 </v>
   <v>       0.74484471       0.74621684       0.75033626 </v>
   <v>       0.75697720       0.49978644       0.49648768 </v>
   <v>       0.50443388       0.74719353       0.50625016 </v>
   <v>       0.50259010       0.50002901       0.75009544 </v>
   <v>       0.49766613       0.00350323       0.00449352 </v>
   <v>       0.99875485       0.49330119       0.00524038 </v>
   <v>       0.49679660       0.74729754       0.24562594 </v>
   <v>       0.24607563       0.00037831       0.75721696 </v>
   <v>       0.49812168       0.00868100       0.49412187 </v>
   <v>       0.75324199       0.99968744       0.75207381 </v>
   <v>       0.24957059       0.74820092       0.49836518 </v>
   <v>       0.00067185       0.76493251       0.25205027 </v>
   <v>       0.73076015       0.49397980       0.24212837 </v>
   <v>       0.00854898       0.01093253       0.48401493 </v>
   <v>       0.50207062       0.50150064       0.49876995 </v>
   <v>       0.74400768       0.50433527       0.75658275 </v>
   <v>       0.74661440       0.72953551       0.50093099 </v>
  </varray>
 </structure>
 <calculation>
  <scstep>
   <time name="dav">   21.52   21.53</time>
   <time name="total">   21.55   21.57</time>
   <energy>
    <i name="alphaZ">   5003.27518025 </i>
    <i name="ewald"> -44975.29994371 </i>
    <i name="hartreedc">  -8998.74446697 </i>
    <i name="XCdc">   2105.79572836 </i>
    <i name="pawpsdc">  32956.60019329 </i>
    <i name="pawaedc"> -32648.24676603 </i>
    <i name="eentropy">     -0.08504994 </i>
    <i name="bandstr">    670.40034180 </i>
    <i name="atom">  51872.91187988 </i>
    <i name="e_fr_energy">   5986.60709692 </i>
    <i name="e_wo_entrp">   5986.69214686 </i>
    <i name="e_0_energy">   5986.64962189 </i>
   </energy>
  </scstep>
  <scstep>
   <time name="dav">   22.70   22.72</time>
   <time name="total">   22.70   22.73</time>
   <energy>
    <i name="e_fr_energy">     61.18322645 </i>
    <i name="e_wo_entrp">     61.30149510 </i>
    <i name="e_0_energy">     61.24236078 </i>
   </energy>
  </scstep>
  <scstep>
   <time name="dav">   29.90   30.00</time>
   <time name="total">   29.90   30.00</time>
   <energy>
    <i name="e_fr_energy">   -719.01097568 </i>
    <i name="e_wo_entrp">   -718.93368045 </i>
    <i name="e_0_energy">   -718.97232806 </i>
   </energy>
  </scstep>
  <scstep>
   <time name="dav">   34.84   34.86</time>
   <time name="total">   34.85   34.86</time>
   <energy>
    <i name="e_fr_energy">   -793.02803800 </i>
    <i name="e_wo_entrp">   -792.95591961 </i>
    <i name="e_0_energy">   -792.99197881 </i>
   </energy>
  </scstep>
  <scstep>
   <time name="dav">   34.96   35.00</time>
   <time name="total">   35.23   35.26</time>
   <energy>
    <i name="e_fr_energy">   -796.94560124 </i>
    <i name="e_wo_entrp">   -796.87109582 </i>
    <i name="e_0_energy">   -796.90834853 </i>
   </energy>
  </scstep>
  <scstep>
   <time name="diag">    2.03    2.04</time>
   <time name="diis">   20.03   20.04</time>
   <time name="orth">    0.49    0.49</time>
   <time name="total">   22.85   22.86</time>
   <energy>
    <i name="e_fr_energy">   -762.44178624 </i>
    <i name="e_wo_entrp">   -762.28555070 </i>
    <i name="e_0_energy">   -762.36366847 </i>
   </energy>
  </scstep>
  <scstep>
   <time name="diag">    2.01    2.01</time>
   <time name="diis">   19.16   19.22</time>
   <time name="orth">    0.48    0.48</time>
   <time name="total">   21.94   22.01</time>
   <energy>
    <i name="e_fr_energy">   -684.73739335 </i>
    <i name="e_wo_entrp">   -684.61468441 </i>
    <i name="e_0_energy">   -684.67603888 </i>
   </energy>
  </scstep>
  <scstep>
   <time name="diag">    2.01    2.03</time>
   <time name="diis">   20.00   20.05</time>
   <time name="orth">    0.49    0.49</time>
   <time name="total">   22.80   22.87</time>
   <energy>
    <i name="e_fr_energy">   -653.96822170 </i>
    <i name="e_wo_entrp">   -653.86068694 </i>
    <i name="e_0_energy">   -653.91445432 </i>
   </energy>
  </scstep>
  <scstep>
   <time name="diag">    2.00    2.01</time>
   <time name="diis">   20.11   20.14</time>
   <time name="orth">    0.49    0.49</time>
   <time name="total">   22.90   22.93</time>
   <energy>
    <i name="e_fr_energy">   -650.97562709 </i>
    <i name="e_wo_entrp">   -650.86467220 </i>
    <i name="e_0_energy">   -650.92014964 </i>
   </energy>
  </scstep>
  <scstep>
   <time name="diag">    2.01    2.05</time>
   <time name="diis">   21.92   21.93</time>
   <time name="orth">    0.48    0.48</time>
   <time name="total">   24.71   24.77</time>
   <energy>
    <i name="e_fr_energy">   -650.78055555 </i>
    <i name="e_wo_entrp">   -650.66296634 </i>
    <i name="e_0_energy">   -650.72176094 </i>
   </energy>
  </scstep>
  <scstep>
   <time name="diag">    2.03    2.03</time>
   <time name="diis">   20.80   20.81</time>
   <time name="orth">    0.48    0.48</time>
   <time name="total">   23.62   23.64</time>
   <energy>
    <i name="e_fr_energy">   -650.42274145 </i>
    <i name="e_wo_entrp">   -650.30853302 </i>
    <i name="e_0_energy">   -650.36563723 </i>
   </energy>
  </scstep>
  <scstep>
   <time name="diag">    2.01    2.02</time>
   <time name="diis">   21.07   21.15</time>
   <time name="orth">    0.48    0.48</time>
   <time name="total">   23.87   23.95</time>
   <energy>
    <i name="e_fr_energy">   -650.55168904 </i>
    <i name="e_wo_entrp">   -650.43442667 </i>
    <i name="e_0_energy">   -650.49305786 </i>
   </energy>
  </scstep>
  <scstep>
   <time name="diag">    2.02    2.02</time>
   <time name="diis">   21.36   21.39</time>
   <time name="orth">    0.48    0.48</time>
   <time name="total">   24.15   24.19</time>
   <energy>
    <i name="e_fr_energy">   -650.24006687 </i>
    <i name="e_wo_entrp">   -650.12373335 </i>
    <i name="e_0_energy">   -650.18190011 </i>
   </energy>
  </scstep>
  <scstep>
   <time name="diag">    2.01    2.01</time>
   <time name="diis">   21.79   21.82</time>
   <time name="orth">    0.49    0.49</time>
   <time name="total">   24.58   24.62</time>
   <energy>
    <i name="e_fr_energy">   -650.23057530 </i>
    <i name="e_wo_entrp">   -650.11269248 </i>
    <i name="e_0_energy">   -650.17163389 </i>
   </energy>
  </scstep>
  <scstep>
   <time name="diag">    1.99    1.99</time>
   <time name="diis">   21.79   21.82</time>
   <time name="orth">    0.48    0.48</time>
   <time name="total">   24.56   24.59</time>
   <energy>
    <i name="e_fr_energy">   -650.18790328 </i>
    <i name="e_wo_entrp">   -650.07235542 </i>
    <i name="e_0_energy">   -650.13012935 </i>
   </energy>
  </scstep>
  <scstep>
   <time name="diag">    2.02    2.02</time>
   <time name="diis">   21.27   21.29</time>
   <time name="orth">    0.49    0.49</time>
   <time name="total">   24.08   24.11</time>
   <energy>
    <i name="e_fr_energy">   -650.18478222 </i>
    <i name="e_wo_entrp">   -650.06857241 </i>
    <i name="e_0_energy">   -650.12667732 </i>
   </energy>
  </scstep>
  <scstep>
   <time name="diag">    2.01    2.01</time>
   <time name="diis">   21.44   21.50</time>
   <time name="orth">    0.48    0.48</time>
   <time name="total">   24.24   24.30</time>
   <energy>
    <i name="e_fr_energy">   -650.18819698 </i>
    <i name="e_wo_entrp">   -650.07385522 </i>
    <i name="e_0_energy">   -650.13102610 </i>
   </energy>
  </scstep>
  <scstep>
   <time name="diag">    2.02    2.03</time>
   <time name="diis">   21.45   21.47</time>
   <time name="orth">    0.48    0.48</time>
   <time name="total">   24.25   24.28</time>
   <energy>
    <i name="e_fr_energy">   -650.18393984 </i>
    <i name="e_wo_entrp">   -650.06778771 </i>
    <i name="e_0_energy">   -650.12586377 </i>
   </energy>
  </scstep>
  <scstep>
   <time name="diag">    2.02    2.02</time>
   <time name="diis">   21.00   21.03</time>
   <time name="orth">    0.48    0.48</time>
   <time name="total">   23.81   23.84</time>
   <energy>
    <i name="e_fr_energy">   -650.18217441 </i>
    <i name="e_wo_entrp">   -650.06678418 </i>
    <i name="e_0_energy">   -650.12447929 </i>
   </energy>
  </scstep>
  <scstep>
   <time name="diag">    2.01    2.01</time>
   <time name="diis">   20.65   20.70</time>
   <time name="orth">    0.48    0.48</time>
   <time name="total">   23.45   23.50</time>
   <energy>
    <i name="e_fr_energy">   -650.18185167 </i>
    <i name="e_wo_entrp">   -650.06629560 </i>
    <i name="e_0_energy">   -650.12407363 </i>
   </energy>
  </scstep>
  <scstep>
   <time name="diag">    2.03    2.03</time>
   <time name="diis">   19.43   19.47</time>
   <time name="orth">    0.48    0.48</time>
   <time name="total">   22.24   22.29</time>
   <energy>
    <i name="e_fr_energy">   -650.18188938 </i>
    <i name="e_wo_entrp">   -650.06643573 </i>
    <i name="e_0_energy">   -650.12416255 </i>
   </energy>
  </scstep>
  <scstep>
   <time name="diaf>    2.0"`"  ".08<+5ime:
  0time namõ="d¹ic"<  !18*9   18.;3<.~ime6
 $$<ômmenaMl="orôx">    0.48 0`"°*48</p`me>
!  <tile na­e½"potal >  03&0"  2±/5</tima>
   <ejergi>
   0<i1namu="e_f{_gjepey"$  -ð°.181828´0 </i>
a  .<i nemu=&mso^eïôrp":$  ­6.0461473204'i+
( ¡ |i`name"e_ _eîdrNx¢. & - 50.126889/ </o?
&  <oenergy>! 4+scctep>J  ={`stg¾
 ) <tkï% nam%5"tkAe"60   ".p¸&  (2.x8<%4iee>   dciE(name=bdiis2>   17.23"  07=29<.t`-e>
 " <time%îamm"orth"   !r®4¸ "( 0.08x/uime?
0` <}iMå name=&tçtal"¾`  20.09   60.07</tkIw¾
 4te/erçy6    <i îeme= e_fr_glerg9"¾ (1-6=0.1818°y76 </i>.   !i n!m%="e_wo_Eldsp"> " -7u0.0631445 </i
 (  I namg="%_0_enesg{&>h! -¬5.2486218 </i>
`  </enåòGi6
(!</scwte<  <wcótex>
 `@<time`.eeu=*diag2>   !2>01a(  3.0&</time¾N1  4thma nále="diiC".   16.(5  16,854otiod<
   <d)må nami5"o2th" "  0.49°   0.49</timc¾
  !<ôi}e .!!g=24GTál&¾  $19.66(  18®67lotkoe>
   >ejerg{~
`   <a naml"E_fr_u.e`g}b>   -670/q888%89 <®i>
!   <i`~aíe="a_7~_ener1">   %640>°6µ307y0 >/inÊ0` `8i namU5*e_0Nmjer'y"¾   m6%0.1"45<5 <h>   <*eleòçy>
  x/s{vep>$ xsgcddp.   =taee name=`iag"> a  2.0`(  r.01</äi}e:
(  6timD nae=`iis"> " 14.90  4.9±/téme
!` <timå naMe="ordh".    0.4 (0 8.48<=uime¾
  `<pame nqieX"4otal">   1±<¼3   17.44<-t)md>
"  |eîergy¾
    |k$nam="ampèaZ":   5°03.275#¸0ª5 cI6
  0 >a0ne-m= ewal`". $4¹7.>999$371 <'I>  è!8i n!me="iarurgìbb, 0-(3;7.0´1029 /I>
    <k`nãme="XCäa"¸  0²092.p7169318 5/i>   `<i fame="pewps&a".  <381.69¸262;0 ü/i>
 &$"<i!.ame9"xhvatc">`-3<1:5'97258v7`<'m>
 "` >i0nqme5"geLtr/py2> 0 ` -0.1149506 =/i>
)  ½i îame=ªcan5str">¤ $74½). ù143c96 i>
 (  i0name="itom">` 51¸72.9118³98 <«i>   !<k name=bEmçr_dnergy"> °$,650®!(1(87²4 =i.
$   <a name-"uwoW%Ltrà"<!  9650.06632:19 8/i>
    <i n!me-"u_xWooirwY#> ` -650&!2<0646¶ <+i>
  "<-e.ergy>
" </skqtep¾
  4ãtò5Cvure*  "<crxst`,>
"   rAòra{!miO%=¢be3Ir" >!0`  ¼v>  @" ! 8.x3²µt10   !  -0v49:16     "-0. 0025916 <V:
   0¼vþ@4  ! 0>0¶5°48:     h 8¬82673£3      ©2®0P987125"</v>%0  `<v>¤ (   -0.{00r525T! %!  0.0°985204  0   !8.727755704/v<
 $  <kwarryi>   d<i namt="voìume&:    68488423v22 ,/é<
    |varriq naíä="rdc"asls* >
  "  <6>      #°.q1;25778` ( ,  0.000083   0   0/000435 X/v>
  1 p=v>(!f     .001Pù3"8     ! 0/!132¹;31"   $  0.0 313706$</7>
(    <v:    j  0.800083$3   @ 0 0. :0305370   $  0. 1384638 <+p¾J   ¾'va2ray>! 8</brstcl>* " <varray(náme="ðos`tions" >*   "<v>     ($4.00046877   P! (0.0030315t (   0 ±.T38;1;6,</t~ (`$<~  `  % 0>2$248069  °   0&008248X4  (   08.2563<5õ9 </v
 `  <V>`  "   °."2#30744  ( #  p-p96687880$  à `!.25086$3 ,ov>
((  >v  `    0.%00!08>9 " $  00.4973:24   !   .i98'3663H4?v>
(`  <v.       0n49901x1:$ 0p   0&2568388 "  0  .7=57052!4/w|
    <v>       8.009q4µ98"`  "  p.9$460&1 $  (  4,$9717w5·!4/v<j  ( =v6 !    `0.1018879<   " $H0.74781558 0   h$0n75²46·68 </v>
 $  ,v>      !0.00059850  ! !  )*25*701> !     9/25q7=536¢<¯v:
 &  <v>  ` `, 0n71&794    ! (0.74750445       0&003014r 4/6>
(00 <w~`  b$  0.003±8875    !$Q.26x3722´ #$   `:.·679235 >/v>
¤ $ 8t. `   0 4.5686{10 ! $   0&6t3 (710     $0.4¹2330 <-n>
  ( <6< 0  ` $ .y87´8243$      0*737?2P1   (`" 0.·w758s5 ¬/v(  ¼v>  ¤%   0/256#¸69:    (  0&$97734<5 "     0~;50025>2(<?v>
  ( <w>    0 (4."40224"  !  (02627²252 $("   0,988¹y2þ6 |/v> @`<s> bhb   1<5076¶)" ( a   0>294214     1 0.p000s55" ,/v~
 !! <w>¢0   !0 w644²!7     ¤ 0.¹yr07957     à 0.62ø20617 </w>
    <v<   $   8.7¦798¸6¸   $  0.521820  0$ !P0&0±94²762 </v?
   0<v?  "  $ 0*³15#855 (  " !0.7298484 `  2  0>006000  </f?nl0  ¼v>   `   0."3;5609  (    1-3490543*"" 0` 0.51457¸°!</v>
    üv: " 0   2ª2522°420 $   0 0.2´90616-`  `0.p2482 120 </v>
   ¼t>0`     0.2ôt6125t(!     0(04857988   (  `0.10x22976 8/ö:
   (<v>d " "  8®99779´8! $ "  0.0405307`    $! ¬00863952 </v¿!   6v>£!     2.v45'034 1   ` 0.241897¶!  )   0&:473w054 </w>h   <v>    à  0.7568057r  ! "  0.4047070  (  " 100U562#0<+wn
 0  >v>     ! 0,%027443y  $   `0/009(4819 `  1  2>258°;09$ </v>
  ! <v>`"  `   .z¹=50650!0     0®49&¶8459)   ($ 8/25358519 8/~
 !  <~>$    0  .700231?1 ! !`(0.46:3¸3= `!  à p>992>944 /V>
   !<v>" "   "0®99;13r5 ! ) ` ð022290; `(   0.³5561872b<¯v>
   (,v>  $    0.7\>3±959 $  ( (p.213"1%99¢    (0.75074t4308.ö<
(p  <v>     ` 0.7561531="   ` 0.2:1631´4       4.0901312 </v>
    XV    a0`0.6996388       0.r4717õ¸%¡   0  r.0=1%1329 <v<*0   ,v>¤! ! ( 4&501?670b(     0,0°4401¿2   !1( 8*4%6°617j<)ö0   <v¾ `  $  0. 01855t:     !0"4042 7<-   $ `0.456467" </v¾+ !  ,t¾       0.4-6>049x"  $ "  "µ83´!29       0.p ¹131s7 >#v>
  % 4v>       °,2465220  $00! 0.64728;:r$( 0`(8.23¼1938 </6>
 "  <v>  ( %  0*²550924!  !   .49984±74     0¡0.0°424$1% </v>
$( `>V>   0a "020=705²7  $    6.71358!7$$@$"0 0.p1223326$>/v>
"   0v<   `   1.7µ44:018   &   0.74711482    $ 00.254560¸ |-v>`  !<u>   ` ` 0®4985007   `0  4.4=1=48²p   0  º.y99¶4°8; /v>
 $  <r>    !( 0^´y5271²   ¡$  0>09">036%`      0.245120{1 <;v8K `  <v>0a  ! 02.2534907`$    "0.r5r>³¹±"  "    0.75124685 ,'v>
   $tf>       0.204p0189   4 0$0.009216Q64 ,  !p>$928"81) <?v>2! "@<v>,  B    .$ 327498   !   0*2u394ð76  !  `"0.78!8·t73 8=~>
 0  8t6 $   ` 0.25252414   $  00.646p··p  00$  0.7623039( 8.v> ¤  =v6  4` *(0®25:g<6³2       0/48?t3q6  "   !0.496049 >Ot*    <v>" 1   $0.9¹2¶375   "  0°f?5419²07  `  )20.49810!510,/~>
 $ <v> $""  $0.q;83u1)   0  01.4»:49064    '$p.543)?30 </v6
$$ $<v.0  $$ $0.544854w9`"  ¤$ 0.7561684 0 p  "075036:f p/v> Â  46?$   0 00,752-572  ( $  0.419'8¶44!!    ¡0.<9648?6( |/w<
    <t>8  `   .50<5;88 `    (0n34719³3   0 ((0.5862%16 ¼/~¾ @  <v>  $ `  0.50258018    `  0>50002901 0    °5700!54<</6/"  $ <v>   ` , 0n49762?1+   `" 0/04s51;33"° $$  0.8 1$9357 </t?    4v?   `0 "0*9987545 $     0,49#01!9(`` 0  0.005"4038 =/v>
$  $<v>  (    0.496964    !  0.75·2:7%4     ( 0f"u562%96$</v¾
$ !!v¾ ¨@  àn4v07563" 00   8.40538;1  "`   p.75·29b!<o¶?
0   <r> p   ! °.4¹8125&8   $   0ª00¸78!0$    `$ *4=412187d</v.
    <v>  0`   0.5532d19 " )"(³.99=&9754  `    0*7520778± <+v.$  0(v~   `  00.24=57059( `   $P.µ482:0;2    $ (0.ð9826?1` 8¯f>   ¼6> 8a(  a0.00067185  " $  0.6641251     `  ,"5:0upR7">/þ>
   ,<v:       0.73176015       2.493979¹1`   ``` .2t"12:37`¬/v>    =~>   d  .0085$<y8  $   d0.030¹s243     $ *48401493 |/~>
 0 $<r<   , $$7.5°22×063  (! `$.21%0064 `$    0.49876995`</v>
  ! <v>! 0 à" t,7´402768     $ 0(50473=r6     ¤.7558275 >/v>
   |v>$   (  0.?4721v1 !   $`0/725µ=!  "   0 .501930)9 </v>  ¾/varray>
 $</stztbture6  <~%rzay naM&"fîjces¢  $ ,v>   (  /010(37²0(1    "0.65653164!$     0®069239¹3 </v¿
   <v¾       0.10&"22 3 ( (   0.2=110)94a    $,0.=9¹S9401`,/~"(  <f~ !,  `-1.480r0013(+0  ""0/129=8483      -03u=7´q6 /v6
!  =v>"!`   -0.0453¶'65   $  -003762<3%  $!  -0.p5828844 ïv>
! `<V5      -°n³710?q 0   `.p.0280701      $°233875< <+v¾
 $!>w$(0 0 -0.sq 5799¹       .1&81'0w  0$ " 0"085§9608<#v> !"<v>   0 %0>0y5288)6  (  ! 0&"¶9&=67       0.950>5262 8¯v<*   =v|   "  -0.24(90qµ0      -P.71843h"² (0    0.;053394 </v>
   v?(  `   `31102: $ 0! -0.pt534762 $$   m0®224´70:8 <v>   <g>`  $ " 4.94³9=892( ! 8( 3.000(317  @   ­0.3%2v8¼7v 8?t>
   <þ>"  " 0(0.45011674 $( $" 8>1199361:    ! -.3804!7µx </Ö>J1¡ <ö: *0! (/0/9%97°57>  0  -8.579448910     (0.23-60192 8¯v>
  <v>     `)0.1"433p48 "    -.:9307304       °.173512u9 </~~
$  <>> ( "( `8149639#10   !(0®095524  !   -1.°?44$u3 </w.
 0 <v>    ` -°.5x8q865      -0&3<5860ó!$   à.0/>397=	37 <?t> ! 8v> !   ` 0.02479:58b"  "" 1.25!>99>ñ      m0.207»¹0=° <'v6
¨  =v~    ( %1
2365535       0.=121v3    0$0.112599r </v
 ¥(<v~  $   -°.695q(59` $"  -0>0g4=;88   0b(%0.1275698 4/u>   <v>0! "   2.!7193(s6$ ")  "0/2302(0'`0 ""0 0*47276397 </f>
   <v> !à   -0.´66w8u78    ! 0p>5200214      -0.55089%60<'v>  +~>     `=p00¶6/274   "`(4.-5P46514 0!  %= .0792°97!</v:
" "<~    ((!3*0=36719    "$-0.1 02833  1"  ­0.811t8,>/v>
 ( <v>`   `! &24562911 !&$  %0.3796:210   !   °,0378421 </v<
 ! <u>   0   0.0ö5°9051"0    -0.11¾08949= °  200.015;252³ </v>
   <v> 8      ®0qw67394      )4.2214542`  h 0`4.08934w33 <?v>
   ,D> p    -0* 71t70     !-0.395±&73u  ( "d-0&7?6%189 <¯v>N  ,v>   "  02.3'09!62³    ! =.406085      -0?11~3227< x/v>
  `¼v>    " "0.00602ð72 ! ! ` 2.033%8765 *  0-p.02616161 </r>
 0!¼ö>   $ p"0>375<436      -0.1814:19  ` ` -0.r7725°20 6/v~
 " <v>    "(­2.1841134    ¢( °n0:3859¢0 `   4.004'395!<w>J*" <v>01 !   0.42187435(  !  -°.08088,86(      x.08911330 </v>
` $<v~$     ,0.03680183!    0.8115975!    (0.02539W4; ¼/v.
0  }ô>B$ (`$-0°09°7µ±4  #  ! 0.4r447946è` "  -b.390<!01#0/v?
   <v>     (-0.222376$5  0 ` 00. 1y33456 ( `  -!.03x29089 <.v>N&  <v>  )    2.449564"  $   1/p5345#2?  $1  -p.111.9:4» </w<j   <v>  #(!  0.21;8703     (-.11034³20      /0.443±8539 4/v
 0<v>(  !  -2.2879x(4 `$ -0.0025?808 !   0-.56979902 8¯v>J   <v<   `  -0.41³3132q   !   0.398(1¼5      -0n864s219 <.~<
0  <t> " °  0:0?5597`    "à0.48:80925`   0 `0.°2793890 <ov>   <4?$ " b$m0.7433	r36     0 0ª84¸:"4      ©0.201916¶0 </v>J   <v>  "  !-03705&0x4"b  h  p.36079990      -0®°2724558 </t>
 0 <6>       p.³746240: ! `  "0.0974#5±0("  0` 0.!59r6}10!</w>  <r>   !2 -4&104595&1   `  $.r8862)508     0.06¡5026¸ </6>  $<r>   0  -0n2y3s°13:! !   -4.4?2885d7"b   "00n8186837p <§r:  "<f>      -0n4453436 (  "  .2r90s827`     0®31tr473 <#v> ` <v>  `   °,15y409    -0/2+21888  " $ 00%;60145 </f6
   >v<   "   0.4±4953¬  $   0.89s6958:  #   -000560) </v
$ "8v¾ !   " p/3037(2#` $  $1.3!11219´      pp.5404970(4/|>   <v>  `   -0®09283790`"  ¨!m0.8640812 (a $  8/30646x76 <?v>`$ ö>    ¡-0®24248461       °/99·86w50(0    -0p5302)39(=&v>
 $ <v>     "- .6(x2811v  "   -8.q0834!;ø"     0.32005651`>-v.
ð 0v>"      0.p0q59p49(h  ( ,0.21¸7099       0.0922 358h=/~<
  (<v>   0º" .19231206 $b   2.08°50178  !$" -2.07952969 -/v*¡h$$v>  ` " -0.8pµ0526    " (0.72'51457   !  -4*772$7±9 l/v>
   =F>   $  ,´.°07>0y(((  00.00888·30      -0.04&275 <-v¾'  <~>$ 9!   0®4146v38µ   ¡ "00.1²0170#9      -0*1=34119 </r>* $=v>"(  $  0.07500<9  !$(  0>\2±912p9   2   0.19#=$139 <v>
 !"ýv6   `  /0.11'50884    !` 1.0²64::01 $ !   0.2%174rs`<.v>
   <ö> "   0m0®033538¸2     !- .96w68967      - . 9936{:7$4ovn
`
 5v~ !     1&4¸58494¸`  à   0>°?¨8·886 0    0.879897240</W¾
!  <v> 0 $ ,±.26887593 ((  )-0.5t595!0v   !   0.8359H412 4v6$0 <v> ! !  m°.7107516   $  m1.3³2047±5    $` 0.241(3y² </v>   <v>$ $!  =0.05637}5  !   /0&914568   `  -0.54336201 =/v¾
$! ,v>!  !(` 0.481!0038  "( $ 0¾7;(9316 !    00.874!x99 <v>
  </virráy>
  <tabpay naMe="3uress¢(>J   <v     !11æ66460¶4      01.080197$    ` {)83)363' =-ö>
 ( |t?    " 02.8901<20`!b$0 .969865v0" $(  1.78$27645`t/~>
!"!<w>  1 ´! 3>839;62½3( ` b.&8427¸13 ` !  033416=27 <'v>
( </parrmy>	$ <enmpgy>0" 8i(î!íd5"e_&p_energi#>   -650>1x180725 </h>
   ~é nao%="ewoO%jtrp'~   -6=0J12t06462 8/i4
! <m nahe="m_0_eoere{"<  * %i0.q=1870v </)>
( <energ9>
  <time:nEmm5"TotalSc&  r<6.11  647.12</t)me>
 <+calculAti/n>
 <gahcuhauiOn>
` <vkstep>J` 0<uim% baee"da6":   :2®3´   22/40=/ti}p>
 4 <tkme name="tktal"   24640  02"70</ôimD¼ 5 =nEbçq>
    xk$faím="`lphaH&¾   4948n22386< =/i>
    <i`name½ esa|t"> >48õ0.80275677"8/)>
d   =i nYme= èarôreeec²ü  /<386.679190²% </)~
   (<k na-e&PBdc"=   2081/18690³ /i>
(  <k!name"pcwqsdç >`"2s81.5%277318$</)Ë    <i0n`md="pkwaEfgb> ís4!25.626<0317 </h>
   =h n!m%="egoTrm0y*.0   "-0.1178134 <oi>
    <i nqmå½"b`ndsrr> `i&8.0397753# <'k>   (6I laoå="atoM": 851832.9108#;88$</i>
 â" <i0ne%e½2å_fp_energy*/$° -&8n303s3440"4i>  0a<y naEe=¢EÞwkOgntòp >`  )48.185715°6 <'i    k naIe?#e_0Wez%rGy">  !m4¸n64442453 >oh>
   =/ene2gy<N`$<+sc3te8
  <sãsugr>
 (#<tkmg na|e?"diag >2d &2. 2`` !:j03,/ti-u>!  <timE n`me="diiS*>0$!±8$46   18®=0¸/|ime>2¢ ldhmu oaie-"orth".    0/58  " 048¼/time¾   8t)me n`me?"tt@H3>   21.26   "1.31</timu>Jh(<mnerfy>
    -)(ëmme= E[fv_andxgy#> ¢ /2%2,1=0!¶4u9`</m>
0   <i na}a9"e_um_å/ôsx">   -6=6-°3¸83520 </I>
`   ¼k n`ld=¦E_0_ederf{"> 0"-&5®0;547976 <«I<
   <e~ergy>  </sãsperz  scstep>
   <qiie`náme"$i`g
<  08n00`  $r>04<?péme>
!  <thmEafame<bdi+s">  "±>.u3   16®5v</viåc|
$4 <dimd name="Ordh !`  0.48   $018<?õÏme>!  <öimd na}e"tot!l":"  ±9.39$``19.35<-til'>
   <energm>
`   ,i Jimeý e_fr_aþårgQ">$  -61.¼w3393 </a>Z$   ,i nqiu="eo_en|rP>  8655.87702q97 (/i
    <a naiE="eÏ2^%n%v'y">`  m}093218&5°¼?é> 0 |/enErgy»
  =/3cvvep
!"<scsåep>
   <vIme ~!me="décg">    2.15( ( ,11</|ime>
 2 timm$namd="diiR"~   22.2>p 0²2.3</time
   <|ime oame5"oz4h&>    4.48 $$"0.40</time"a <pioe naie9#tn<ml">   25.1&   05.2s\?ti}a>
   <eldrGy>*`  08i namõ<"efr_en%rfy >   	651*838=³6·0 </m>"  "<é1lAme="á_o_eju`p">   $&50¹10µ23 </a>*   0<h$jámå="e_0_energ{"¾   -65 *977<9116*¬+y>  (</enerï+>
 `4/wgstEp>
 !4ócsteR< " <t(menAme="diaf">  ` :.00  " 2"21<'time>*2  <ôiMe l!oe="diis#>¡` 2 ®x9   2 <I08/uioe.N 0 <timE(nale=£îrt`r>    .4¸11  0.6x<¯t)m%¾*$  <u)me name="topan>   ²3.67  `23n61</dmmg¶ª   <m.grgx>  ! >h n!me="e_f2Oånurgy">   -6u0*894µx765 <?i<
"(  <y n!}å="e]w'_en<r`">  ")630/3:4!1p2¼(z/i6
  `¤* nammE_0efurgy"> d"-5°.875484µ08/i>
   </eoergY>
$ |/qasTep:
  >3cs5e6
 !<qi)e`Name=",iag"    r.2 0 !r*03<?time> ` >tkmg na-e½*dkis">"! 0/16!  ²1.20<opime>   <uime ocMe½"O6ThB>!"$0.40    0&50</dimá>
  `<~imw$oa-e="½otaì">   "3.9?   24. 7</tmde6
2"pene2gy+
   $<i!n!me="eWnx_energy">0  -50.98754=04 <I¾J    ,( Fame5"ew_%ntòp"> ! 65±.wo2?873 =oi>J    <i ~amå<"mO0]%N%rf}"6 ! -65,8"99&9!+h>
   4/e.gr÷ñ
2 <¯sãsde8.!!<scrtmp>
0  <thm' neMa="äm`æ£?    2.01   2.°q<oôhmw~
`  <phme"ìame¼dims">  421.34  (31.32/tiée8
! b8tImo name"o2tj">"   0.4    ` .4<:.t(mu:*   <tiÍf naie= tkdal¢>   24.12   2ôn94</time>   4å~Ergy>°   <i na%e="g_fz_efezGy"> ! -750®883u36;9 <i>   `<i"oaoe="eWgo^entrp">   -650.·7 q8200!</i> !  <i$nqmE"e}0]energy"> " -6µ4.806<5498 <ïy?
0` <.%ndrDy>" <?scstup>"!,scste`>
   <timd náme42uyag"¾$d0$2.41 !  7.01</timd?
8 $<pime .q}e="diiw&>0 "1.'6  421,7·=?time>
  $8time$îame="ovph"¾"   4*55  $¡0.4)=/tiÍd> 0`<vime ni-e?"tmtaL¾   64.   24f!6<|ime~
`  4energq>
   `,k nAme="e~&r_dneroy&? p ,v58,870¸747: </i.
    |h name="e_m_entr`&<   -650>75570200 </i>b   <a zamE="e_0_en%rgy> $(4=0.:132°8#9 <+h>
4`(</áner'y
  </scste0º@!<wCótlpv
 ( <thmu nAm%="Dicg"> 0  2.01 (` 2":!<téme
 0 <t)me name="tiis ? ( :q.9°  $61.97</ôiMe>
" !<tiaE oamD="oRtl"~ ! ` *4¹   "1.44-tioe>  <tiìa falg5"lotah":  $24.72 "!2$®w4<.véme>  (<dvergyv
    <i0n!me="m[fr_enorgs"> A`-.50":7!=0338 </i~Ë`   <j namm=2-]wze.trp: ! -7e0.6516797 /i>
 ` 0=i n`Mu="å_p_ençrgy"?   -75°.1462560 =/k>*¨! /%ogrçy6
` >/cc3t%p<
  $scståp>
)  <dimm(~qíe=&diag"~   (2.3   2:°4|/t)}g>
 (1>timea.ame}"äiió¢>   05.87 $25*91</tiidv
 "(<time îaíd=ort`"?  !!4.4<  !$ .4(/ti|e>J 0 <ðio% nama=#uo i,"> ")26.61   24.'2</phme>
   <engrwq>*!   4i .Cme>¢u_f2]Unergy">`  -350&:>9(8922 |/i>Z    <i name=bewo_eîôp0F¾  (m344.556¹110 <é>    <h ~amd?"e_0_engbg9#:   -65.81379276 </i>
!! <¯energq6
 (<-{cstep>
  <rSctep>   <tamg naee=f­Eg">!   2.2q  ($2/ 5,/time>
   <vi}e°namg½ dMys"  
253!  @²1/384/time>
$! ôime name="oZtx#6    °*t9    .t9<timg>
( ¢<tam%0neÏe}"pwtal">   2.53   r%.20</thme<" ` <enerçy.:    $i fcle=beOfò_e,ergy":   -6u0¯x6y9<0#"(4/a>
    <i name="e_wo_entrp">   -650.75496484 </i>
    <i name="e_0_energy">   -650.81243258 </i>
   </energy>
  </scstep>
  <scstep>
   <time name="diag">    2.05    2.05</time>
   <time name="diis">   20.29   20.37</time>
   <time name="orth">    0.48    0.48</time>
   <time name="total">   23.12   23.21</time>
   <energy>
    <i name="e_fr_energy">   -650.87001108 </i>
    <i name="e_wo_entrp">   -650.75502592 </i>
    <i name="e_0_energy">   -650.81251850 </i>
   </energy>
  </scstep>
  <scstep>
   <time name="diag">    1.99    1.99</time>
   <time name="diis">   20.44   20.47</time>
   <time name="orth">    0.49    0.49</time>
   <time name="total">   23.21   23.25</time>
   <energy>
    <i name="e_fr_energy">   -650.86996395 </i>
    <i name="e_wo_entrp">   -650.75501809 </i>
    <i name="e_0_energy">   -650.81249102 </i>
   </energy>
  </scstep>
  <scstep>
   <time name="diag">    2.00    2.01</time>
   <time name="diis">   19.59   19.66</time>
   <time name="orth">    0.48    0.48</time>
   <time name="total">   22.38   22.45</time>
   <energy>
    <i name="e_fr_energy">   -650.87006177 </i>
    <i name="e_wo_entrp">   -650.75502861 </i>
    <i name="e_0_energy">   -650.81254519 </i>
   </energy>
  </scstep>
  <scstep>
   <time name="diag">    1.99    1.99</time>
   <time name="diis">   18.31   18.33</time>
   <time name="orth">    0.48    0.48</time>
   <time name="total">   21.08   21.10</time>
   <energy>
    <i name="e_fr_energy">   -650.87000397 </i>
    <i name="e_wo_entrp">   -650.75506356 </i>
    <i name="e_0_energy">   -650.81253377 </i>
   </energy>
  </scstep>
  <scstep>
   <time name="diag">    1.99    1.99</time>
   <time name="diis">   17.19   17.23</time>
   <time name="orth">    0.53    0.53</time>
   <time name="total">   20.01   20.05</time>
   <energy>
    <i name="e_fr_energy">   -650.86999608 </i>
    <i name="e_wo_entrp">   -650.75501477 </i>
    <i name="e_0_energy">   -650.81250543 </i>
   </energy>
  </scstep>
  <scstep>
   <time name="diag">    2.00    2.00</time>
   <time name="diis">   14.42   14.44</time>
   <time name="orth">    0.48    0.48</time>
   <time name="total">   16.94   16.96</time>
   <energy>
    <i name="alphaZ">   4968.29230868 </i>
    <i name="ewald"> -44850.80375677 </i>
    <i name="hartreedc">  -8452.99776914 </i>
    <i name="XCdc">   2088.26679076 </i>
    <i name="pawpsdc">  34307.13593952 </i>
    <i name="pawaedc"> -34051.75028441 </i>
    <i name="eentropy">     -0.11498018 </i>
    <i name="bandstr">  -6531.81012406 </i>
    <i name="atom">  51872.91187988 </i>
    <i name="e_fr_energy">   -650.86999570 </i>
    <i name="e_wo_entrp">   -650.75501553 </i>
    <i name="e_0_energy">   -650.81250561 </i>
   </energy>
  </scstep>
  <structure>
   <crystal>
    <varray name="basis" >
     <v>       8.86582240      -0.00343299       0.01066261 </v>
     <v>      -0.00346973       8.84655207      -0.00481912 </v>
     <v>       0.01060852      -0.00482352       8.79268366 </v>
    </varray>
    <i name="volume">    689.62609797 </i>
    <varray name="rec_basis" >
     <v>       0.11279288       0.00004416      -0.00013606 </v>
     <v>       0.00004370       0.11303844       0.00006196 </v>
     <v>      -0.00013676       0.00006190       0.11373112 </v>
    </varray>
   </crystal>
   <varray name="positions" >
    <v>      -0.00012082       0.00444161       0.01069532 </v>
    <v>       0.24307201       0.00983938       0.24529620 </v>
    <v>       0.25968512       0.48739192       0.25147988 </v>
    <v>       0.49767698       0.49853046       0.99841727 </v>
    <v>       0.49706812       0.25668256       0.75585468 </v>
    <v>       0.00742851       0.49537905       0.49764936 </v>
    <v>       0.50037858       0.74528616       0.75289674 </v>
    <v>       0.00123602       0.23795728       0.25503422 </v>
    <v>       0.76576142       0.74726409       0.00180842 </v>
    <v>       0.00834857       0.26611322       0.74478216 </v>
    <v>       0.75947614       0.26605100       0.49012190 </v>
    <v>       0.99660723       0.73301274       0.74906948 </v>
    <v>       0.25815744       0.49625464       0.75113714 </v>
    <v>       0.26764014       0.26424261       0.98858430 </v>
    <v>       0.50446850       0.25897844       0.23891618 </v>
    <v>       0.76459241       0.99445401       0.23706866 </v>
    <v>       0.72450571       0.25204186       0.01844873 </v>
    <v>       0.22992614       0.72943670       0.00290618 </v>
    <v>       0.23529630       0.25049554       0.51717298 </v>
    <v>       0.25012933       0.24930638       0.24774664 </v>
    <v>       0.24457669       0.00940178       0.00783019 </v>
    <v>       0.99808696       0.24010800       0.00024715 </v>
    <v>       0.74711307       0.24090475       0.24921489 </v>
    <v>       0.75716082       0.00507402       0.00565909 </v>
    <v>       0.50284140       0.00969158       0.24892102 </v>
    <v>       0.99913619       0.49552365       0.25715703 </v>
    <v>       0.50120524       0.74620271       0.99205526 </v>
    <v>       0.99938870       0.00247224       0.75147505 </v>
    <v>       0.74799750       0.25300705       0.74912152 </v>
    <v>       0.75625192       0.00318224       0.49401644 </v>
    <v>       0.50164279       0.25669233       0.50000444 </v>
    <v>       0.50197564       0.00435814       0.75046781 </v>
    <v>       0.00103567       0.00383948       0.24350630 </v>
    <v>       0.49648199       0.25839598       0.00082912 </v>
    <v>       0.24471706       0.74798127       0.23852640 </v>
    <v>       0.25534387       0.49923602       0.00180719 </v>
    <v>       0.00413225       0.75356299      -0.00089628 </v>
    <v>       0.75216414       0.74926062       0.24971608 </v>
    <v>       0.74211178       0.49378737       0.99979725 </v>
    <v>       0.49440484       0.49307967       0.24601320 </v>
    <v>       0.25182666       0.25465314       0.75105150 </v>
    <v>       0.24704629       0.00984571       0.49470400 </v>
    <v>       0.00269483       0.25551741       0.50051726 </v>
    <v>       0.25112023       0.74346907       0.76240754 </v>
    <v>       0.25042243       0.48803142       0.49848089 </v>
    <v>       0.99545451       0.75261208       0.50153725 </v>
    <v>       0.00062368       0.49899344       0.74394994 </v>
    <v>       0.74681668       0.74803137       0.75331543 </v>
    <v>       0.75647105       0.49506825       0.49761639 </v>
    <v>       0.50311023       0.74827368       0.50596008 </v>
    <v>       0.49882492       0.49943611       0.75189862 </v>
    <v>       0.49767039       0.00340155       0.00500025 </v>
    <v>       0.99980569       0.49374146       0.00480312 </v>
    <v>       0.49635814       0.74908542       0.24359319 </v>
    <v>       0.24601689       0.00043197       0.75686196 </v>
    <v>       0.50038689       0.00933852       0.49328011 </v>
    <v>       0.75363266       0.99983054       0.75313916 </v>
    <v>       0.24870934       0.74834405       0.49974740 </v>
    <v>       0.00048940       0.75855132       0.25094921 </v>
    <v>       0.73941257       0.49442267       0.24696173 </v>
    <v>       0.00161641       0.00794888       0.48861379 </v>
    <v>       0.49818322       0.49421563       0.50011374 </v>
    <v>       0.74386389       0.49933410       0.75381363 </v>
    <v>       0.75034130       0.73850133       0.50112890 </v>
   </varray>
  </structure>
  <varray name="forces" >
   <v>      -0.01290140       0.24372978      -0.18384252 </v>
   <v>      -0.16977168       0.15424003       0.09004554 </v>
   <v>      -0.13518997       0.08692309      -0.11702758 </v>
   <v>       0.07918050      -0.05511356       0.20089891 </v>
   <v>      -0.33549095      -0.19367417       0.27346164 </v>
   <v>      -0.19767690       0.19360471       0.04706457 </v>
   <v>       0.08839899       0.01326011      -0.06440891 </v>
   <v>      -0.34557057       0.03883687       0.30476712 </v>
   <v>       0.31045845      -0.18366378      -0.21881839 </v>
   <v>       0.48924295       0.40237088      -0.10902597 </v>
   <v>       0.52734579      -0.40740729      -0.36626421 </v>
   <v>      -0.10632499      -0.66226552       0.15679643 </v>
   <v>       0.14880095      -0.01844107       0.09990599 </v>
   <v>       0.09046804      -0.03860486      -0.04365040 </v>
   <v>      -0.27131397      -0.07159528      -0.19855824 </v>
   <v>       0.24369323       0.07588733      -0.29123578 </v>
   <v>      -0.09400509       0.29186711       0.04536493 </v>
   <v>      -0.23108104      -0.02834695      -0.11344951 </v>
   <v>      -0.18190083       0.01997084       0.18590905 </v>
   <v>      -0.32307409       0.05358923      -0.14862235 </v>
   <v>       0.04994637       0.08657548      -0.02510075 </v>
   <v>       0.04750473       0.02356556      -0.08252292 </v>
   <v>      -0.05883060      -0.10201393      -0.05845839 </v>
   <v>      -0.01765756      -0.00811460       0.04215738 </v>
   <v>      -0.05632994       0.01594343      -0.07777146 </v>
   <v>      -0.03801096      -0.01478864      -0.03482370 </v>
   <v>       0.08617971       0.03599480      -0.11470400 </v>
   <v>      -0.01036740       0.12947320      -0.09642006 </v>
   <v>       0.18628501      -0.08482807      -0.18760305 </v>
   <v>      -0.09318866      -0.09421641       0.03222071 </v>
   <v>       0.23704902      -0.13666610       0.08668926 </v>
   <v>      -0.00886004      -0.06145115       0.02347114 </v>
   <v>       0.04185675      -0.92617406       0.40819065 </v>
   <v>      -0.02431034       0.00072441      -0.01560927 </v>
   <v>      -0.10327359      -0.00362178      -0.04379142 </v>
   <v>      -0.05567199      -0.03419096      -0.02219343 </v>
   <v>       0.08333710       0.01008903      -0.04277446 </v>
   <v>       0.06655538       0.17617163      -0.10210019 </v>
   <v>       0.08194396       0.19992259       0.13301803 </v>
   <v>       0.44084705      -0.07716716       0.09263536 </v>
   <v>      -0.01695864      -0.20742196       0.10685075 </v>
   <v>      -0.25505098       0.13946844       0.01948400 </v>
   <v>       0.22937776      -0.11721376       0.06694821 </v>
   <v>      -0.13214215      -0.00667454       0.03147050 </v>
   <v>      -0.16582672       0.02717005       0.10001762 </v>
   <v>       0.07324373      -0.19240370       0.02217440 </v>
   <v>       0.11708216       0.15723060       0.00025851 </v>
   <v>       0.08937341      -0.17587843       0.01207196 </v>
   <v>      -0.23096802       1.03494239       0.28007390 </v>
   <v>       0.20716695      -0.14901485      -0.03576280 </v>
   <v>       0.07581174       0.01446434       0.08295767 </v>
   <v>      -0.04131549       0.12284106      -0.14038845 </v>
   <v>      -0.03209269      -0.22658067      -0.11719476 </v>
   <v>       0.07357461      -0.25176118       0.10544998 </v>
   <v>      -0.00253125      -0.00149458      -0.03830988 </v>
   <v>       0.00729467      -0.00975930       0.05884710 </v>
   <v>       0.02323059       0.27056536       0.47275004 </v>
   <v>       0.15981339       0.12112720      -0.00277905 </v>
   <v>       0.13839353       0.38164154      -0.08915943 </v>
   <v>      -0.16387149       0.27192052       0.12446772 </v>
   <v>       0.21025285      -0.15056943      -0.17311637 </v>
   <v>      -0.14052617       0.19050764      -0.23911783 </v>
   <v>      -0.37291847       0.10236481      -0.18268635 </v>
   <v>      -0.27870473      -0.39586636       0.07087284 </v>
  </varray>
  <varray name="stress" >
   <v>     -18.82962873      -1.65810771      -0.87308994 </v>
   <v>      -1.65810503     -18.42313163       0.65310063 </v>
   <v>      -0.87309020       0.65309888      -9.39788009 </v>
  </varray>
  <energy>
   <i name="e_fr_energy">   -650.86999570 </i>
   <i name="e_wo_entrp">   -650.81250561 </i>
   <i name="e_0_energy">     -0.11498018 </i>
  </energy>
  <time name="totalsc">  429.96  430.71</time>
 </calculation>
 <calculation>
  <scstep>
   <time name="dav">   24.82   24.86</time>
   <time name="total">   25.13   25.17</time>
   <energy>
    <i name="alphaZ">   4969.44817002 </i>
    <i name="ewald"> -44855.56310908 </i>
    <i name="hartreedc">  -8452.45552442 </i>
    <i name="XCdc">   2088.42328675 </i>
    <i name="pawpsdc">  34307.16126005 </i>
    <i name="pawaedc"> -34051.82350266 </i>
    <i name="eentropy">     -0.11467460 </i>
    <i name="bandstr">  -6528.85552685 </i>
    <i name="atom">  51872.91187988 </i>
    <i name="e_fr_energy">   -650.86774090 </i>
    <i name="e_wo_entrp">   -650.75306630 </i>
    <i name="e_0_energy">   -650.81040360 </i>
   </energy>
  </scstep>
  <scstep>
   <time name="diag">    2.01    2.01</time>
   <time name="diis">   18.33   18.35</time>
   <time name="orth">    0.48    0.48</time>
   <time name="total">   21.13   21.15</time>
   <energy>
    <i name="e_fr_energy">   -650.87181214 </i>
    <i name="e_wo_entrp">   -650.75670545 </i>
    <i name="e_0_energy">   -650.81425879 </i>
   </energy>
  </scstep>
  <scstep>
   <time name="diag">    2.01    2.01</time>
   <time name="diis">   16.04   16.11</time>
   <time name="orth">    0.48    0.48</time>
   <time name="total">   18.84   18.91</time>
   <energy>
    <i name="e_fr_energy">   -650.87092058 </i>
    <i name="e_wo_entrp">   -650.75584600 </i>
    <i name="e_0_energy">   -650.81338329 </i>
   </energy>
  </scstep>
  <scstep>
   <time name="diag">    2.02    2.02</time>
   <time name="diis">   22.33   22.37</time>
   <time name="orth">    0.48    0.48</time>
   <time name="total">   25.14   25.19</time>
   <energy>
    <i name="e_fr_energy">   -650.87093215 </i>
    <i name="e_wo_entrp">   -650.75618422 </i>
    <i name="e_0_energy">   -650.81355819 </i>
   </energy>
  </scstep>
  <scstep>
   <time name="diag">    2.01    2.01</time>
   <time name="diis">   19.11   19.12</time>
   <time name="orth">    0.49    0.49</time>
   <time name="total">   21.90   21.91</time>
   <energy>
    <i name="e_fr_energy">   -650.87078756 </i>
    <i name="e_wo_entrp">   -650.75587500 </i>
    <i name="e_0_energy">   -650.81333128 </i>
   </energy>
  </scstep>
  <scstep>
   <time name="diag">    2.04    2.04</time>
   <time name="diis">   19.03   19.06</time>
   <time name="orth">    0.48    0.48</time>
   <time name="total">   21.85   21.88</time>
   <energy>
    <i name="e_fr_energy">   -650.87078243 </i>
    <i name="e_wo_entrp">   -650.75584628 </i>
    <i name="e_0_energy">   -650.81331435 </i>
   </energy>
  </scstep>
  <scstep>
   <time name="diag">    2.01    2.01</time>
   <time name="diis">   17.86   17.87</time>
   <time name="orth">    0.48    0.48</time>
   <time name="total">   20.65   20.66</time>
   <energy>
    <i name="e_fr_energy">   -650.87076784 </i>
    <i name="e_wo_entrp">   -650.75584582 </i>
    <i name="e_0_energy">   -650.81330683 </i>
   </energy>
  </scstep>
  <scstep>
   <time name="diag">    2.01    2.01</time>
   <time name="diis">   14.79   14.81</time>
   <time name="orth">    0.48    0.48</time>
   <time name="total">   17.57   17.59</time>
   <energy>
    <i name="e_fr_energy">   -650.87075710 </i>
    <i name="e_wo_entrp">   -650.75581269 </i>
    <i name="e_0_energy">   -650.81328489 </i>
   </energy>
  </scstep>
  <scstep>
   <time name="diag">    2.01    2.01</time>
   <time name="diis">    9.88    9.90</time>
   <time name="orth">    0.50    0.50</time>
   <time name="total">   12.42   12.45</time>
   <energy>
    <i name="alphaZ">   4969.44817002 </i>
    <i name="ewald"> -44855.56310908 </i>
    <i name="hartreedc">  -8450.32975389 </i>
    <i name="XCdc">   2088.30810041 </i>
    <i name="pawpsdc">  34308.34350873 </i>
    <i name="pawaedc"> -34053.15275437 </i>
    <i name="eentropy">     -0.11487887 </i>
    <i name="bandstr">  -6530.72191830 </i>
    <i name="atom">  51872.91187988 </i>
    <i name="e_fr_energy">   -650.87075546 </i>
    <i name="e_wo_entrp">   -650.75587659 </i>
    <i name="e_0_energy">   -650.81331603 </i>
   </energy>
  </scstep>
  <structure>
   <crystal>
    <varray name="basis" >
     <v>       8.86471715      -0.00353458       0.01029991 </v>
     <v>      -0.00357052       8.84589410      -0.00498702 </v>
     <v>       0.01024785      -0.00499047       8.79238790 </v>
    </varray>
    <i name="volume">    689.46569542 </i>
    <varray name="rec_basis" >
     <v>       0.11280693       0.00004546      -0.00013145 </v>
     <v>       0.00004500       0.11304685       0.00006411 </v>
     <v>      -0.00013212       0.00006407       0.11373494 </v>
    </varray>
   </crystal>
   <varray name="positions" >
    <v>      -0.00010129       0.00439515       0.01068266 </v>
    <v>       0.24305275       0.00978666       0.24533107 </v>
    <v>       0.25977187       0.48736842       0.25149360 </v>
    <v>       0.49775743       0.49853731       0.99842776 </v>
    <v>       0.49713537       0.25668771       0.75581200 </v>
    <v>       0.00748536       0.49534861       0.49763364 </v>
    <v>       0.50039582       0.74523745       0.75286924 </v>
    <v>       0.00128111       0.23809461       0.25497838 </v>
    <v>       0.76561844       0.74727208       0.00184950 </v>
    <v>       0.00817784       0.26592303       0.74484651 </v>
    <v>       0.75938963       0.26599325       0.49019274 </v>
    <v>       0.99663620       0.73315388       0.74902587 </v>
    <v>       0.25809889       0.49630043       0.75110562 </v>
    <v>       0.26761307       0.26422530       0.98859789 </v>
    <v>       0.50457484       0.25904345       0.23895977 </v>
    <v>       0.76458753       0.99440845       0.23710643 </v>
    <v>       0.72455507       0.25201454       0.01848448 </v>
    <v>       0.22997946       0.72945031       0.00292937 </v>
    <v>       0.23526532       0.25044784       0.51708685 </v>
    <v>       0.25021382       0.24929882       0.24777490 </v>
    <v>       0.24457787       0.00937454       0.00784346 </v>
    <v>       0.99807726       0.24012615       0.00026014 </v>
    <v>       0.74706878       0.24093724       0.24915341 </v>
    <v>       0.75714907       0.00509506       0.00565622 </v>
    <v>       0.50283821       0.00969546       0.24890477 </v>
    <v>       0.99914840       0.49559522       0.25717121 </v>
    <v>       0.50117433       0.74620389       0.99207649 </v>
    <v>       0.99938038       0.00246623       0.75147982 </v>
    <v>       0.74793861       0.25301396       0.74917211 </v>
    <v>       0.75627511       0.00313085       0.49401630 </v>
    <v>       0.50156658       0.25670839       0.49998823 </v>
    <v>       0.50198228       0.00436023       0.75047243 </v>
    <v>       0.00103628       0.00372643       0.24357738 </v>
    <v>       0.49648603       0.25839429       0.00083609 </v>
    <v>       0.24463236       0.74797157       0.23854685 </v>
    <v>       0.25534030       0.49925605       0.00188803 </v>
    <v>       0.00418416       0.75356353      -0.00079253 </v>
    <v>       0.75223860       0.74918941       0.24987344 </v>
    <v>       0.74210316       0.49369993       0.99979212 </v>
    <v>       0.49443432       0.49307096       0.24604995 </v>
    <v>       0.25189359       0.25458639       0.75105780 </v>
    <v>       0.24697869       0.00982820       0.49467504 </v>
    <v>       0.00271370       0.25546516       0.50052913 </v>
    <v>       0.25117327       0.74355472       0.76240412 </v>
    <v>       0.25049942       0.48801891       0.49840080 </v>
    <v>       0.99536142       0.75266452       0.50143061 </v>
    <v>       0.00054871       0.49897681       0.74395102 </v>
    <v>       0.74675158       0.74797133       0.75321671 </v>
    <v>       0.75648779       0.49522460       0.49757883 </v>
    <v>       0.50315402       0.74823787       0.50596967 </v>
    <v>       0.49894955       0.49945575       0.75183864 </v>
    <v>       0.49767027       0.00340493       0.00498344 </v>
    <v>       0.99977091       0.49372688       0.00481768 </v>
    <v>       0.49637259       0.74902614       0.24366064 </v>
    <v>       0.24601882       0.00043018       0.75687373 </v>
    <v>       0.50031192       0.00931675       0.49330814 </v>
    <v>       0.75361978       0.99982582       0.75310384 </v>
    <v>       0.24873790       0.74833932       0.49970152 </v>
    <v>       0.00049531       0.75876273       0.25098560 </v>
    <v>       0.73912651       0.49440819       0.24680175 </v>
    <v>       0.00184592       0.00804774       0.48846088 </v>
    <v>       0.49831180       0.49445699       0.50006886 </v>
    <v>       0.74386848       0.49949975       0.75390539 </v>
    <v>       0.75021811       0.73820430       0.50112266 </v>
   </varray>
  </structure>
  <varray name="forces" >
   <v>      -0.01657930       0.24365887      -0.17353546 </v>
   <v>      -0.16327132       0.15768498       0.08208376 </v>
   <v>      -0.14586756       0.08896258      -0.11530220 </v>
   <v>       0.06452703      -0.05440773       0.19344300 </v>
   <v>      -0.33678251      -0.18787518       0.27222235 </v>
   <v>      -0.20220800       0.19127167       0.04860005 </v>
   <v>       0.08327654       0.02069014      -0.05706516 </v>
   <v>      -0.34241698       0.00854141       0.30457323 </v>
   <v>       0.32760819      -0.17852145      -0.22037047 </v>
   <v>       0.50561542       0.42847037      -0.11708202 </v>
   <v>       0.52521042      -0.37800902      -0.36703618 </v>
   <v>      -0.10989077      -0.66856940       0.16208109 </v>
   <v>       0.15539997      -0.02702495       0.10273483 </v>
   <v>       0.09233423      -0.03435238      -0.04393436 </v>
   <v>      -0.27864766      -0.07987294      -0.19929415 </v>
   <v>       0.23798760       0.08196141      -0.28986357 </v>
   <v>      -0.10048272       0.28782211       0.03753811 </v>
   <v>      -0.23491213      -0.03001419      -0.11421375 </v>
   <v>      -0.17175017       0.02767228       0.19552989 </v>
   <v>      -0.32826542       0.05267012      -0.14879065 </v>
   <v>       0.04820943       0.08884164      -0.02642586 </v>
   <v>       0.04761012       0.01910371      -0.08193505 </v>
   <v>      -0.04993801      -0.10497198      -0.04526331 </v>
   <v>      -0.01455009      -0.01139965       0.04121744 </v>
   <v>      -0.05411524       0.01474800      -0.07182868 </v>
   <v>      -0.03950378      -0.02720401      -0.03674978 </v>
   <v>       0.08953350       0.03468528      -0.11524493 </v>
   <v>      -0.00948072       0.12691664      -0.09438202 </v>
   <v>       0.19134571      -0.08394304      -0.19080776 </v>
   <v>      -0.09369818      -0.08197113       0.03159040 </v>
   <v>       0.24291812      -0.13438049       0.08648304 </v>
   <v>      -0.00920537      -0.05999992       0.02136351 </v>
   <v>       0.04066304      -0.87926572       0.38456398 </v>
   <v>      -0.02294226       0.00114325      -0.01618516 </v>
   <v>      -0.08523461      -0.00218758      -0.04660047 </v>
   <v>      -0.05268281      -0.03541654      -0.03609307 </v>
   <v>       0.07070512       0.00895811      -0.06031256 </v>
   <v>       0.05093358       0.18388435      -0.12598019 </v>
   <v>       0.08081607       0.20841786       0.13021994 </v>
   <v>       0.42866093      -0.07301567       0.08251784 </v>
   <v>      -0.02927935      -0.18860203       0.10126128 </v>
   <v>      -0.23981188       0.13834139       0.02379535 </v>
   <v>       0.21905853      -0.10544436       0.06149655 </v>
   <v>      -0.13709652      -0.02131027       0.03170678 </v>
   <v>      -0.17447180       0.02881566       0.11100359 </v>
   <v>       0.08796675      -0.19606117       0.03892124 </v>
   <v>       0.12653115       0.15520177      -0.00009789 </v>
   <v>       0.09788482      -0.16098607       0.03002357 </v>
   <v>      -0.22694491       0.98309852       0.27735084 </v>
   <v>       0.19380989      -0.14077854      -0.03711838 </v>
   <v>       0.05049613       0.01090621       0.09161608 </v>
   <v>      -0.03924989       0.11793398      -0.13274643 </v>
   <v>      -0.02506105      -0.21650256      -0.11631114 </v>
   <v>       0.06900896      -0.23428748       0.08981490 </v>
   <v>      -0.00260223      -0.00150280      -0.03822220 </v>
   <v>       0.02069164      -0.00452495       0.05158288 </v>
   <v>       0.02491596       0.26231402       0.46446917 </v>
   <v>       0.14978788       0.11730199       0.00521086 </v>
   <v>       0.13388115       0.33887882      -0.09241264 </v>
   <v>      -0.11613257       0.26497538       0.14844336 </v>
   <v>       0.16492119      -0.16307665      -0.14389114 </v>
   <v>      -0.15464748       0.14541341      -0.22403947 </v>
[...]
     <set>
    </set>  0</dr0ay>
  ,/einånvalumsg
 $<s%ðasaufr!namå5"orjital magnetízhthO." ¾
$  <v fi-e=bnAGdMPOL[UÔ"¿    ¢ 8.4000040p      °.0p10000 `    0.108p8000¦V>  </separat¯r>J !<$ka>
$08<i name="efármm"<    " 7 =977859w </i>
   <tOt`d>*  ¨ <!rra{  ( 0<dam%ormon!d)m½ !">gridPoints<-dimens gl>
    `<fim%nsiol %im=ª2":spin</eiydnsionþH   ¨ <fIeÌd>enepgy</field>
$$  "¾vMend>tgta|4/fieed>
  `  <fieLd>an`egRatåd<)eheld> &   <Set>     "<Set!commeft=brpyn09">
$ ¤    <2<  $-20&4335$  !±00000 $ 0 .00 0(</R>°   " (p>  -701)32$ $"(0/0°000 (  4.0000 </2>  0  ( <rd `­59.=3²9 $   . 000!   0n0001 </r>* !     >r>   -59.b6  ¨  p.0p03 `0` 8.0p02 b>       >rº"` -=9(<324    !0<0004     0.4"0°d¼/rþJ      $4r>   -¥9.Y821 "  $2.00P0 &   0.00r0 =/r>
  " (  <z>"  -8.1338     0>0      °. 080 ¼/r>*¡ °    <z>(  m6¸.6¸35`    0. 000  $ b0*00p0 </r>     !<r? 0 -5<.4312  $ 00.0004    0.0200 <§r> 0   `"<r>!( ,µ8.190y    !0.000    4.0 0p$|¯r?
0   ! ¢ü">(  -56®9307   ` 1.0000 "  "0.1000 </r>d   0 0<r>   í7.6804 0  $8.2p000   "p,0p0004/26  ¤ `  =r& ! -57.430q 0   0.00000` ( p0001 </r=       >b>  "57.1618!   !0.12¦3 0 $$0. ;14(<¯r6
       =r?   =54&929    20.8975     u&"68) ½/R>! "    |r>h $-56.67=2    r6631 ¨ "11.962 ¼oR>
       43>$  =6.´290 ""  0®948¬  (12. 008 </r> !  (+ <r>  0-56.!787(%   0&;00`   3r.0000`8¯r>
 "  !  <r6   55.98t "" $0.000  ` #12.100  </r>     ! <p   e55.6781 "  (0®088¸(!  12.0000$</r>
 `   "0<r~   =55.4278`0"  0.0000    ±6.00°0 </r>*       8z¾   %55.175    1.2000    12/1 40 </r>       >r>  "=54.¹rý3 p"  0.4 08  (0!2/0p00 </R>
0  !   <r< ` -54.·6x     2.0200  ! 12.00pp <,r>
   (  "5r>   -54.4267     0*0000  ( 12.000 >/v>    $<r>  `)$*ñ?64` ` 0. 481`8  10.004|.r>J   "   <2> 0`-53.¹:60 t ( 0>0000   !92.000 </r>
 "     <v>   m%3.6658 ( !0.000 0  10
0800"-/r>
³  (   <r¾   µ43.0¶µ¶ @0"00.0°10  " 12.p002 |or>
  !    >c>$ !-53.1753     0.0400$   02®0980 <+r>H     *$<r> 0 )5²î9250 ! $ 0.p0802   92®0440`<or>
  (    <r>  !-52.¶74·   ¨`0.2000($  1r, 000 /r>
      !4v> `(,52.424|`    0/0000 "! 10.0000 <r>
  $    <r>   -521749   "!.0000    ±2.0000 ¸/r>
   `$  |r¾   -51®2r) !   9.°2p1"   16/000 <r:    `0"4r>  !-41.&636   °`0,1020 $$$32.000(<Oq>
       <r>   -5p>4233 (   4.0000    1260400`/r>
  " 0  <r>  !-51.1720     0.00!0    1:.0000 <?z>
  $ "  <r>  (+%0.9227     0.420   (42.0306 </r>
$   `  <R>!  m=0*6=04   (01®0000`   12/0000 </r
  !  " >r>  -44.402 (   0.040   0!12/4000 |+2>
  `  "!<r>   =1n138$ !  0.000`   02/0p00,</r>    !  <p.   -51.8:±6     0,0001    1.00p <3r>
       <b>   -4;.>7±#     .4872  à 12.87²8 /s6
   `  `|z>   -59.4610 !  #7*2578  ¤ :".1979 |/r:
$$"   `<Ò> $ -49.1s0%$  `10.1 6$$  24.72~2 ,/r.   %  b<r6`2`m4(.9r05 D   5j0876`   2u*998v </S>   ! `"<3>   -48&&70    ¤0.08=w(  $2v.0000 </v6
¢((    |r>   -<8.4999     !0001    r6.00020|r>" `    <r> ` 44.1696(  `%0,0001$  $66*0r00 </r>     0 <r>   -47.91y3   "0 . 00°$   *2.000  =/r> $ ` a <q>80 -4'.66;0 $  ` .0800"   26.1°00 </r>
      9R.`  -47&0188   "1.02!0 °  2.1p !<-r:
 $    <r>   -47%16x6     0.0080    26.82°1 </r>
h-   ¢ <²>   }44.9182 $$$ 0®0000    26.0000 =¯r<
$! $:  <r>   -46,6761 $   0®0200 `  22.0000 </rv
 `  $  ,r>   ­|64172  ( `0.0000    660000",/r>
       9r> $ -46*63     0>0p00 !  2&.0010 ,/r>
"   & `<r> ! -45.)¡711a!$ 0.8ð10 # $26.00°$<oR>ª      $<r>   45/667: 0   8.00 0   "26.0090 .'r?
 !2    r>$  %45.4¹v5     0.t020    26.t±00 <.v¾
"    0 ¼b>0  ¥45.16ö2   2 .$p00    36.04`6(|/r>
       <r> " -64.9159 !  (0>0100  0 26.40p0 <-r>
! $    <r>   í64>6656  ( "1.00 4   "ò¶.00p0!,/r>
  $ ( $<r¾  $-u4n454     p&00     "6.°042 </r>       r>   e40.9653 ¨   0.800     2¶.0x82 </r:
    "  <r> ( -4.)04:!    0>00 0! "`:4¯00° </`>
(      tr¾   -47*6t5  b (00p0!$ "26.b004 8/r>  0    <r>   -´#>4146(   rn0 00 !0 26&0000 /r> (!! $ ¾r>   )<;&62)   !!0.0000 !  26n0°p0 >/2>(     $0<r>   t°.933    00>2000`  $6.000  >/r>
       <r>   -4.6630 0   0.1p0¼  " r6.00p2 8/w6
      (<b (($52.4931 ( ""0. 000    26®0000 <gr>
   (   r>   e42.16²<     p.4&00`"  :v.21  =/s>
$  ( ! <r>   -4!.9125    0>00000   "6.0000 >/r.
"0!    ¼r~  @­41,2v     0.000! b.26/3000"</r>    µ("">r?  0$41n20  `  1.0v02 0` ²6®2654 <¯s>
      <r>  "%$1.q7q7     7.4437    28.1522 </r>¢  0   r>!  -40.91q4  " 22.1979    ;3.7091!</s
0  `(  ¼r>   -40.66110   q3+9862`   33/1(4 $/r>
0`     2>  (m40.4108    "¸.862w   1¹.<°"6$</r>
      `<r> a-40.5605¨    2n:867    0.000  4/r>*0& ¦   <r> ( -9.9103    00.00°2`* 0.2p 0`</b:      "4r>   -39.6600  ä   .000  " 40.000 =/b>
   ° ` <R>   -3;.4095`  $ 0&8p00   $40.P 01 </2>
!8   ! ,r> ! -79.1494"    0.p20  (¤ 40.0000 0gr>
  0   <r¾ ! -z8.9080° 0(04.0001  0(41.0000 </r$  )    4r: ( -28o650<    !0. 00    44000 </r>
0  " $>ò> " 39.40:v "   2/0100    n0000 </r?
 !     8r<   -18k{583    02.000!*   48*0p80<ob
   %   r>  0,27.;0:0  0  p.´000 $  40.8000 |/r>
    0  <p& ""-35.64''  0 0 &02°0    °,40 0 6/P>
   !   <t>  &-37<4874 0  `0.401  "40.0001 </b>! !"   >26  "/67.1571"!( `0.08´0  ( 0p.0180 <.r>
   " ! <r>`  -36/9069     0¾P000!   40.800p 8/V>
 `   0 <r>   -36.>6v    0.040   40> 0 0 </x6
   (0 <<ò  "-6.$p63  $" °.8000   "%0.0004 </r>
      ?r4  `)361562   ( 0®100     t0®20P </r>
    (` <r>$  -s5>9 57  " "0/0 10    40®900!>-r.
 "" 8 <r>  `-s5.6%=4   `(0.0004    ,0.0000 </r> `     |c>  à-35.<052  !) 0. 000 (  4².0048 </2>
   $0  <r>   /3515580 ²$hð.0002#"  40,00020</r>
  $   `<r>4  -24.9°4¾  %  ´.p000  % <`0000 </r¾
¨!     <r> `$-³46743     0.r0000   40® 00 (4or>
       <r>   =14n48´0    "0®0$050  ¨l0000 or.)$  ! `<z.   -34¾1µ37     0.p800    40.000 </r>
   b   <r>   -+.¹437     8.P008    40n0002 </r>
$   ( (<2>   -33.6532     1*000     40.0000 </r
   p$#"<r>   -33«40"9$  d 1.0 00    40.00 0 |/t>
"      <r>  "-3».1527! " "0.0000    40.0100 >/r>
  2    <r> " -3².90²3     2.1000 "` 40.0000 <+ò>
    (  <r>   -3.6520$  "  .0t4p0  "40.0p0p"<?rJ       =R¾   -3:.401( `   0.0 00    <P.0!00 </r>
    ¤" <s>   -32.±e15" "h 4/p00    40.00±0 </s>
*  0 !$<r>   -31.yp52     0.0008 !` 40.p°0² r>
  ! $" <r>$ 0-39.25 9     3.7253    <0.y32> <?r.:$( d   ´r>`  -31.4886  ` 43.9s31`"  51.983 </r>J   " ¡ <r> °(<31.1502`( `88.9s7: "  ¶"~68&3(<mr>*       <r<  !)30.;009    67.82"(¤ `8;.¶61(</r> $  `$ <Ò> 0,30664)x    (6,023  )111.3922!6/r>   $   >r>   '#0.3915( `$00&283 ! 11².0°01 <b~
       <r> $ -30>1492     0.0000   120 00 <+V>
  ""  !<r> $ -2(.09¸ `  (0008 0 1q2.°000 <=r>
    0  |r>  (-2:648>0    0.0°0(  1%2.3000 8-r:B    "  r>   ­²9.£9:$   , 0.0800  `103.08000=/p.
0 à ( 0<ò>   -09.181      .p 00   112.0200,r>  ((   4r>   -28.897x ("! 0.0000   116.0040 4-r>
    0 ¤<r>"¡)-r0.647?"    0.000 ` 112. 10° </ð6
     ( <~?   =38.3;'2¤   ¡0.0000 "!1z&0004 </z~
 0  0  |r> 0 -28.1469     0.0000"  12/0180 4/r¾
` ¢   "=r>"  -27.8963 " $ 0/204   110.000  <>rJ   ¤(" <r>   -27.&465 ! ! 0n1135"" q12&0034¤</r>   `  <s>   -2.³561$   16.377)   !q6.10260<>ò>       <r> ! )3,1´58  a 78.w34"   135808 <¯r>   0 ¨0<v>  #-26.<955  ¡048.1312(  147.85=4 </r>     ` <r?  4%26.6´52    00.5?79  168&0000 <¯r>
     ¢ <r> ($/22,950"(   0ª0000  0148.0000 </r>
   0 i$<r>   -ò7*0,47     5.7³#7  @14:>79 4/z<   0! |2?!  %25.(9<4   (76.7³80 $ 14·+64p5 <+r6
 )     |r>   -35*6441    65.6487  :184&0762"~/r>
 "     <r ( -:5.3938  ! 22.7796 ,@±89&7663 <'r
  $ !  <r<   -24.±$35  "  1/8897 8 19°&°0°4 <.r>  $  "!5r~0$ r4,8;3!`   0.0100   11 .0000 </r>
!     `<r¾ $-6 n400  ` 0,0000  (190,000 </r    ° <r2  ½r4.392u     2.044p   190n080p </r.J$      <r>   %2v>!404     0002   5)0/0(20¡</r>
 (! "  ,2> ` %"2.;)"1     0.008   d19 .000p >¯r>
  (` " <b>! (-23nv41( $   0>00822a 190O100° |/r:       (r>   %23.396 d   .0000   190.0400 </r>
!!` ( !(r   -:3,!713"  $(0/4000   190.0400 <¯r
      (<r?  8-32&¸x0!   )0.0008  p191.°000 ¼/r6
0     9<r>   22.6407  " `p®q008 ! 190>p000</s>
0   `(!,r>   -r1®3804    "0.000°  `3y0.4000 </r>
""   0!r> 0 =2r.14p}! "  0.020p¨  1900000 </b>
 "  0  <r>  0-21.8899 $0! p.P p0   1y0¦ 000 </`?
"$     ¼r>   %21.638>$    ²*0008 4 90.0000!</ò> @   "$r6 ¤ /2u.1x97 0 "0.0ð00 ¨ 39°.0200 </r
0`    (<r< !¡-21.5³90à ¢ .0600 ¤ 110/0000 8/rn:    !  <b>$( -20.8807    ,0.00±0   18&°01`</r:
 $     <r>   -3 .¶384  !  0(0400C $190.0042 </r>
      <r>  (-r0.7882(    0&000¤  19¸.000 </r6
0 (    <r> ! o20.1279     0/0100   190®0040 <.r>
      (4s>( =!;.<872 ((  ±.0q51"0 1X0&541 </p>
   "$0 ¼v   -1y.¶173   21.4u8;   19=/7246 >/r>      d<V> "-59.860" 4 3;.3493 " &0;.87±! </z>
 (   0 <r; 0 -±9.17>5   ²56.58"t   28.0#32 </b&
    "  ¼r?(¢0-!88865   (29/390=" !:25n1409(<-r>(   ` 0 <r>( 8-10,7362  ( 23.514x ²s1>26r </r>
       <ò> ! -18.385y 0   ó.0930   2s!.19)9 </v>       <r>(  -q8.13=6  $  00°0   232n4020 </r>
¢  "$($<R^  %3'.8853    !1®0 0    232*0600 ¼/r>
(      <r"  -17.*25  (b  4.0000 @$7>.040  #ò>
1     $,r6   -17.sz8     0.84 0 & 22.00p!</r>
$ !p  %<r6¤ !-17/534µ    ®0000`  233.000"</r?
    0 #lr>h !-96.8842    0.0000 ` v32.p008 4/r>
 0  h  <r> 0 )16.v239!$$   .00`°( !63r.0000 </r>
(  ((  <b:$ !-16.3*3& (  $q.000" (232. 088 ¼/r
à` !  `<r>  `-56.1313$   $0(000°  232/000 </R>   $   <p>(  -15.8831   $ 1.20p0   2³0.0248`>'r>
!      <r>"  m95.328 $   p.00²0   2#2.0000 </r>
    0 a<v> ` 15.³¸25    0.0000  `²2-0p00 </r<
     0<z ` ,1µ>132     4.°002`` 216.000 !</rJ 0     <b>   -4,8819  "  ®5011   32*00 0 <+r;
!    $ <b0  m14.&36 0` 0.4000(  2£2.0204 </r.
 ` ""  s:  (-04.8140$   2¦000d  "232´00p <+r6
(  `0$ <s~   -14.5;83    00.0000 `:s2.000 <'s~
       <r>0  -9#>8888 0   0n0t°0 " 32.010 </Ò>
 (     <r>   -13.6305  "(¨2>0000  `2s0.000$=/r>J  "    xr> "8-13,3¸02 "  0 >83  $0236+01°8 </r>
  $ p  =b   -73.9299()   °.0000   212.00´" :/r>J       <r> $ %12,879'h( p 0.0080 $ ¶36.0020 4'r>
      !<p?` 8-2.&9  $  0.0p  ¢(232.0000 ¼/v¾
   °   <r>"  -16.;7¹="   "0000    232.p000 |/r>
à     $<r>#¤ -!2&130     0.1à80 $212.0q00 ~/r>
   !, 0s>$ 0-1.8'8=(0"  0.0000   2330p0p 4/ò>    0  b=D` -!1.628:     p.0000   ²32.2°0° </2>
    $( 8r> " -11.37¸0 !! (0.0060 ` 2s2®000 </r>
 °   ! <r> ` %±1/127¶   ! 8. 002   2#2.2000 ,/v>
       <r> " -10.8774 d(  0.2040%! 272.0000 </ò>   " ( $ò>   -10.271   !$2*0000 (2S2>0004 </R>
  "    <v>  -10®3768     0.0 04   2S2.0001 </z>
       <r>&  m10n1264  $ 0.0000p( 23".000 +r:
  9    <r> ! `-9.:7&3 !,!00.0080 ""02.000 </r$  ` ! <r>    /9>6²2  !  00° 0"  2s60000 <.{>     ! ¬r>  ( -9.S75ÿ     8.0°01 " 2;:.2000"</pª       >r>    -9,12540    0.00 0 `(232,0p </2¾
    `  <r>    -:.<750  (  0>0480   232
0000 8,r>  "   !<r6a  (-8.>²<8   $ 0.27r/ ` 232.069s`<¯s>      <r> "("-(.3?46  `  ?.075?  !233.832 </r<
     ( <r>  `%-8.1:53 ` $ 0.6426 0 234>000°¨8.r> ! 0" $<r> 0  -'.*'t8     1.01	7   234.2u50!<.r      $<r>    -7/62³'    p7s11 0$22>n0150 <+r?"  0 °` =ò:(  -7.333<  ¢ 14.022  !2397448 <+r>
      %<r¶$   -3,11  ( 2³n750¹  (²4µ.6892 >¯r> a    ¤<s. 01 ?6&8729 0  08.459   21°.;µ95 </².   !  <ò~    -6.6226    59/4795  `251.2349 4/R6
   0´ "<r>  ( -6.37r3     x.285)   057.³0(7 </r>
   ` " <z>    ->.3220  %  2.³074$ b2µ7.986#!<.r>
   `   <r>!$ `-5n¸7¹7 (d@ 10549  825¨.0000 <?r~
 $   ( <66    5214   * 0>2000  à258.0<40¨</b?
(      <rv    =.3712  `` 2.008t   ²x>0021 <.b.. `     <r>    -5/120+   b :.51wu   05:¬6322 <.r: "     8v"  ¢-<.8'06 ""  5®4179   259/8<2 </r.
   $   <r&` 0)-4.>203     5.8752 ( :61.4586¤<?r>
 0     ,2> "` -4.3721    507997   264.616 </r>
   h  $<v>   (-4.q397    $)'73v:  (²66.59ø60.r>
     !¢<z  ! -3*995 0  2.6018  "270.6 |/R? "(`" (<r>    -3>6180    1;.3654   035.624 <r>
$    $ <r<#!  -3.3689  ( 1.93#6 $ 298633 <?r?
0    a"<r>    -s.¡9¼6" @`18454#$ `<4.5807 <'r<
(      >r>$   ­2,6<# !  18.9722   289.: </v?
       <r> "0 !2&²1    12.5882   292®37)8 </r7
      <p   !-2.3778    12.1235$ à297*?141 <z>
  ! 00 r>    -2.!1·5    $2/6x¹3 0"29µ.)87² </r:*    0! <r>    -1.86"  ¡  0.051"  !296.0 40 </r>
    $ !¼ò>    %1.6169    "8,0000 ¤!29&/2442 </2þ
       <s>  d -1.3672     0.0010` #09&.400  8/r> 0  !  <r "d"-1.9562 "   0>0000  284.80p00<'3>
       <r:    -0.8v61$ " d.0000  0286.0 8 </s?
0h  !$ <r>"$  -0.61=8 ° " P.0080(  :9>,0000 </v>       <r>    -0.3655     0.0818   296.0205 </r>
       <r>    -0.1152     1.0160   296.2748 </r>
       <r>     0.1351     5.0177   297.5306 </r>
       <r>     0.3854     9.6592   299.9482 </r>
       <r>     0.6356    10.7249   302.6324 </r>
       <r>     0.8859    14.6113   306.2894 </r>
       <r>     1.1362    18.9054   311.0211 </r>
       <r>     1.3865    24.2707   317.0956 </r>
       <r>     1.6368    25.8857   323.5744 </r>
       <r>     1.8871    25.9037   330.0577 </r>
       <r>     2.1373    34.6248   338.7237 </r>
       <r>     2.3876    35.8123   347.6869 </r>
       <r>     2.6379    41.1377   357.9830 </r>
       <r>     2.8882    51.8718   370.9656 </r>
       <r>     3.1385    60.7711   386.1756 </r>
       <r>     3.3888    62.6965   401.8675 </r>
       <r>     3.6390    61.3063   417.2114 </r>
       <r>     3.8893    58.1506   431.7656 </r>
       <r>     4.1396    52.2981   444.8549 </r>
       <r>     4.3899    40.7007   455.0416 </r>
       <r>     4.6402    38.7771   464.7469 </r>
       <r>     4.8905    29.2910   472.0779 </r>
       <r>     5.1407    21.3292   477.4163 </r>
       <r>     5.3910    20.7182   482.6017 </r>
       <r>     5.6413    15.6452   486.5174 </r>
       <r>     5.8916     6.6584   488.1839 </r>
       <r>     6.1419    12.5056   491.3139 </r>
       <r>     6.3922    14.3872   494.9147 </r>
       <r>     6.6424    15.5549   498.8079 </r>
       <r>     6.8927    16.9593   503.0525 </r>
       <r>     7.1430    19.1861   507.8544 </r>
       <r>     7.3933    17.8740   512.3280 </r>
       <r>     7.6436    20.7955   517.5328 </r>
       <r>     7.8939    20.9623   522.7793 </r>
       <r>     8.1441    21.9159   528.2645 </r>
       <r>     8.3944    31.2379   536.0828 </r>
       <r>     8.6447    40.5723   546.2374 </r>
       <r>     8.8950    46.9159   557.9797 </r>
       <r>     9.1453    48.1246   570.0244 </r>
       <r>     9.3956    50.1149   582.5674 </r>
       <r>     9.6458    55.0962   596.3570 </r>
       <r>     9.8961    52.2245   609.4280 </r>
       <r>    10.1464    52.7395   622.6278 </r>
       <r>    10.3967    51.4407   635.5025 </r>
       <r>    10.6470    48.9692   647.7587 </r>
       <r>    10.8973    48.3661   659.8639 </r>
       <r>    11.1475    41.0188   670.1303 </r>
       <r>    11.3978     7.4425   671.9930 </r>
       <r>    11.6481     0.0281   672.0000 </r>
       <r>    11.8984     0.0000   672.0000 </r>
       <r>    12.1487     0.0000   672.0000 </r>
       <r>    12.3990     0.0000   672.0000 </r>
       <r>    12.6492     0.0000   672.0000 </r>
       <r>    12.8995     0.0000   672.0000 </r>
       <r>    13.1498     0.0000   672.0000 </r>
       <r>    13.4001     0.0000   672.0000 </r>
       <r>    13.6504     0.0000   672.0000 </r>
       <r>    13.9007     0.0000   672.0000 </r>
       <r>    14.1509     0.0000   672.0000 </r>
       <r>    14.4012     0.0000   672.0000 </r>
       <r>    14.6515     0.0000   672.0000 </r>
      </set>
     </set>
    </array>
   </total>
  </dos>
 </calculation>
 <structure name="finalpos" >
  <crystal>
   <varray name="basis" >
    <v>       8.86608037      -0.01437743       0.01368384 </v>
    <v>      -0.01443255       8.81151385      -0.00233901 </v>
    <v>       0.01359236      -0.00235435       8.80530388 </v>
   </varray>
   <i name="volume">    687.89843625 </i>
   <varray name="rec_basis" >
    <v>       0.11278998       0.00018469      -0.00017406 </v>
    <v>       0.00018399       0.11348819       0.00003006 </v>
    <v>      -0.00017523       0.00002986       0.11356819 </v>
   </varray>
  </crystal>
  <varray name="positions" >
   <v>       0.00116250       0.00914719       0.01021049 </v>
   <v>       0.24192317       0.01387061       0.24576819 </v>
   <v>       0.25830990       0.48869559       0.24965316 </v>
   <v>       0.49902998       0.49870673       0.00183802 </v>
   <v>       0.49284885       0.25333264       0.75850310 </v>
   <v>       0.00478392       0.49700811       0.49694378 </v>
   <v>       0.50336365       0.74646396       0.75267988 </v>
   <v>      -0.01324691       0.23606906       0.25754837 </v>
   <v>       0.76848736       0.74184089      -0.00253197 </v>
   <v>       0.01512350       0.26830357       0.74390906 </v>
   <v>       0.76769177       0.26362360       0.48519838 </v>
   <v>       0.99509117       0.72730114       0.75051967 </v>
   <v>       0.26186730       0.49585451       0.75296150 </v>
   <v>       0.27189665       0.26325895       0.99253848 </v>
   <v>       0.49223446       0.25707196       0.23517485 </v>
   <v>       0.76831745       0.99791151       0.23346826 </v>
   <v>       0.72404153       0.25670504       0.02181025 </v>
   <v>       0.22794277       0.72930454       0.00144847 </v>
   <v>       0.23535131       0.25207869       0.52333417 </v>
   <v>       0.24368289       0.25052388       0.24326840 </v>
   <v>       0.24457394       0.01060340       0.00780852 </v>
   <v>       0.99456521       0.23975543      -0.00102033 </v>
   <v>       0.73825145       0.24059735       0.24724291 </v>
   <v>       0.75694331       0.00492702       0.00747439 </v>
   <v>       0.49939971       0.01082855       0.24816604 </v>
   <v>       0.99775880       0.49345779       0.25637310 </v>
   <v>       0.50437967       0.74620111       0.99100240 </v>
   <v>      -0.00004189       0.00631289       0.75092423 </v>
   <v>       0.75394588       0.25322807       0.73985646 </v>
   <v>       0.75634867       0.00307072       0.49556135 </v>
   <v>       0.50667339       0.25610424       0.50141088 </v>
   <v>       0.50260840       0.00302119       0.75064763 </v>
   <v>       0.00192713      -0.00129792       0.24580631 </v>
   <v>       0.49770360       0.25855909      -0.00008841 </v>
   <v>       0.24431870       0.74812515       0.23764388 </v>
   <v>       0.25578050       0.49892398       0.00216271 </v>
   <v>       0.00513878       0.75294965      -0.00178877 </v>
   <v>       0.75369715       0.75213256       0.24799447 </v>
   <v>       0.74260270       0.49492763       0.00050690 </v>
   <v>       0.49623808       0.49224301       0.24683883 </v>
   <v>       0.25384892       0.25222159       0.75682951 </v>
   <v>       0.24642263       0.01231535       0.49522424 </v>
   <v>       0.00921956       0.25459558       0.49999414 </v>
   <v>       0.25044015       0.74247539       0.76235133 </v>
   <v>       0.24901482       0.48799782       0.49981968 </v>
   <v>       0.99609786       0.75013043       0.50152598 </v>
   <v>       0.00200818       0.49877464       0.74373908 </v>
   <v>       0.74823137       0.74822453       0.75251878 </v>
   <v>       0.75387526       0.49871970       0.49930662 </v>
   <v>       0.50455030       0.74727958       0.50499840 </v>
   <v>       0.49930198       0.49874518       0.75276458 </v>
   <v>       0.49620679       0.00334399       0.00467723 </v>
   <v>       0.99967580       0.48996300       0.00413280 </v>
   <v>       0.49683091       0.74915565       0.24336876 </v>
   <v>       0.24583318      -0.00163736       0.75706525 </v>
   <v>       0.50158602       0.01062689       0.49328914 </v>
   <v>       0.75518428       0.00447907       0.75925746 </v>
   <v>       0.24986521       0.74836459       0.49956440 </v>
   <v>       0.00209100       0.75811927       0.24966756 </v>
   <v>       0.74028861       0.49786547       0.24996146 </v>
   <v>       0.00178178       0.00518462       0.48968307 </v>
   <v>       0.49626747       0.49306232       0.49742941 </v>
   <v>       0.73982642       0.49810422       0.75109847 </v>
   <v>       0.74883572       0.74014607       0.50296528 </v>
  </varray>
 </structure>
</modeling>
