    2    2  100    1
  0.1585226E+02  0.3165000E-09  0.3165000E-09  0.3165000E-09  0.5000000E-15
  1.000000000000000E-004
  CAR 
 HECN                                    
     24      4     28
 
  0.0000000E+00  0.0000000E+00  0.0000000E+00  0.3703704E-01
      1        -31.326531   1.000000
      2        -31.326531   1.000000
      3        -31.326531   1.000000
      4        -30.481385   1.000000
      5        -30.481385   1.000000
      6        -30.481385   1.000000
      7         -2.235877   1.000000
      8          1.564835   1.000000
      9          1.564835   1.000000
     10          6.002989   1.000000
     11          6.002989   1.000000
     12          6.002989   1.000000
     13          9.402833   0.000000
     14          9.402833   0.000000
     15         12.190762   0.000000
     16         12.190762   0.000000
     17         12.190762   0.000000
     18         15.451247   0.000000
     19         15.451247   0.000000
     20         15.451247   0.000000
     21         22.335309   0.000000
     22         22.335309   0.000000
     23         22.335309   0.000000
     24         23.018727   0.000000
     25         30.133586   0.000000
     26         30.133586   0.000000
     27         32.395647   0.000000
     28         33.977139   0.000000
 
  0.3333333E+00  0.0000000E+00  0.0000000E+00  0.2222222E+00
      1        -31.280284   1.000000
      2        -31.110133   1.000000
      3        -31.110133   1.000000
      4        -30.866150   1.000000
      5        -30.686871   1.000000
      6        -30.686871   1.000000
      7          0.111751   1.000000
      8          2.827843   1.000000
      9          2.920378   1.000000
     10          6.059504   1.000000
     11          6.059504   1.000000
     12          6.536396   0.999998
     13          7.188263   0.000002
     14          8.113222   0.000000
     15          8.113222   0.000000
     16         10.157363   0.000000
     17         10.413555   0.000000
     18         11.174699   0.000000
     19         22.340586   0.000000
     20         22.340586   0.000000
     21         23.448764   0.000000
     22         23.777813   0.000000
     23         25.215435   0.000000
     24         26.155046   0.000000
     25         26.155047   0.000000
     26         28.671310   0.000000
     27         32.631053   0.000000
     28         33.363861   0.000000
 
  0.3333333E+00  0.3333333E+00  0.0000000E+00  0.4444444E+00
      1        -31.596489   1.000000
      2        -31.400638   1.000000
      3        -30.990924   1.000000
      4        -30.778732   1.000000
      5        -30.706954   1.000000
      6        -30.485787   1.000000
      7          0.945149   1.000000
      8          2.077933   1.000000
      9          4.216227   1.000000
     10          5.026783   1.000000
     11          5.111960   1.000000
     12          5.779674   1.000000
     13          7.565842   0.000000
     14          9.146043   0.000000
     15          9.843539   0.000000
     16         10.516730   0.000000
     17         12.885977   0.000000
     18         13.030984   0.000000
     19         17.536616   0.000000
     20         20.823119   0.000000
     21         21.237331   0.000000
     22         22.591167   0.000000
     23         22.606920   0.000000
     24         28.310569   0.000000
     25         28.492104   0.000000
     26         29.602033   0.000000
     27         31.384836   0.000000
     28         32.229814   0.000000
 
  0.3333333E+00  0.3333333E+00  0.3333333E+00  0.2962963E+00
      1        -31.435590   1.000000
      2        -31.318081   1.000000
      3        -31.318081   1.000000
      4        -30.762090   1.000000
      5        -30.762090   1.000000
      6        -30.635639   1.000000
      7          2.974397   1.000000
      8          3.091710   1.000000
      9          3.943164   1.000000
     10          3.943164   1.000000
     11          4.595538   1.000000
     12          4.595538   1.000000
     13          9.912726   0.000000
     14          9.912726   0.000000
     15          9.939094   0.000000
     16          9.939094   0.000000
     17         14.077523   0.000000
     18         15.270452   0.000000
     19         18.256262   0.000000
     20         18.256262   0.000000
     21         18.787469   0.000000
     22         21.696332   0.000000
     23         21.696332   0.000000
     24         24.657339   0.000000
     25         27.219739   0.000000
     26         29.174237   0.000000
     27         29.174237   0.000000
     28         33.721854   0.000000
