 running   28 mpi-ranks, on    1 nodes
 distrk:  each k-point on   28 cores,    1 groups
 distr:  one band on    1 cores,   28 groups
 vasp.6.4.3 19Mar24 (build Sep 18 2024 11:30:23) complex                        
  
 POSCAR found type information on POSCAR W 
 POSCAR found :  1 types and       2 ions
 Reading from existing POTCAR
 scaLAPACK will be used
 -----------------------------------------------------------------------------
|                                                                             |
|           W    W    AA    RRRRR   N    N  II  N    N   GGGG   !!!           |
|           W    W   A  A   R    R  NN   N  II  NN   N  G    G  !!!           |
|           W    W  A    A  R    R  N N  N  II  N N  N  G       !!!           |
|           W WW W  AAAAAA  RRRRR   N  N N  II  N  N N  G  GGG   !            |
|           WW  WW  A    A  R   R   N   NN  II  N   NN  G    G                |
|           W    W  A    A  R    R  N    N  II  N    N   GGGG   !!!           |
|                                                                             |
|     For optimal performance we recommend to set                             |
|       NCORE = 2 up to number-of-cores-per-socket                            |
|     NCORE specifies how many cores store one orbital (NPAR=cpu/NCORE).      |
|     This setting can greatly improve the performance of VASP for DFT.       |
|     The default, NCORE=1 might be grossly inefficient on modern             |
|     multi-core architectures or massively parallel machines. Do your        |
|     own testing! More info at https://www.vasp.at/wiki/index.php/NCORE      |
|     Unfortunately you need to use the default for GW and RPA                |
|     calculations (for HF NCORE is supported but not extensively tested      |
|     yet).                                                                   |
|                                                                             |
 -----------------------------------------------------------------------------

 Reading from existing POTCAR
 LDA part: xc-table for (Slater+PW92), standard interpolation
 POSCAR, INCAR and KPOINTS ok, starting setup
 FFT: planning ... GRIDC
 FFT: planning ... GRID_SOFT
 FFT: planning ... GRID
 WAVECAR not read
 entering main loop
       N       E                     dE             d eps       ncg     rms          rms(c)
DAV:   1     0.231044226894E+02    0.23104E+02   -0.14552E+04   224   0.802E+02
DAV:   2    -0.269107607127E+02   -0.50015E+02   -0.49849E+02   308   0.137E+02
DAV:   3    -0.270094107336E+02   -0.98650E-01   -0.98650E-01   252   0.648E+00
DAV:   4    -0.270094484953E+02   -0.37762E-04   -0.37762E-04   336   0.137E-01
DAV:   5    -0.270094484968E+02   -0.15370E-08   -0.15351E-08   280   0.679E-04    0.563E+00
RMM:   6    -0.260754670858E+02    0.93398E+00   -0.47416E-01   224   0.385E+00    0.281E+00
RMM:   7    -0.257915484046E+02    0.28392E+00   -0.50590E-01   224   0.384E+00    0.411E-01
RMM:   8    -0.257878221439E+02    0.37263E-02   -0.25870E-02   224   0.114E+00    0.103E-01
RMM:   9    -0.257877201274E+02    0.10202E-03   -0.33635E-03   224   0.374E-01    0.289E-02
RMM:  10    -0.257877305385E+02   -0.10411E-04   -0.35615E-04   220   0.135E-01    0.190E-02
RMM:  11    -0.257877097796E+02    0.20759E-04   -0.85856E-05   212   0.643E-02    0.196E-03
RMM:  12    -0.257877113361E+02   -0.15564E-05   -0.13676E-05   151   0.242E-02
   1 F= -.25787711E+02 E0= -.25787711E+02  d E =-.257877E+02
 curvature:   0.00 expect dE= 0.000E+00 dE for cont linesearch  0.000E+00
 trial: gam= 0.00000 g(F)=  0.440E-61 g(S)=  0.159E+00 ort = 0.000E+00 (trialstep = 0.100E+01)
 search vector abs. value=  0.159E+00
 bond charge predicted
       N       E                     dE             d eps       ncg     rms          rms(c)
DAV:   1    -0.274985706598E+02   -0.17109E+01   -0.54234E+01   224   0.523E+01    0.658E+00
RMM:   2    -0.258847157844E+02    0.16139E+01   -0.10074E+00   224   0.598E+00    0.280E+00
RMM:   3    -0.255956053543E+02    0.28911E+00   -0.60973E-01   224   0.434E+00    0.500E-01
RMM:   4    -0.256050906211E+02   -0.94853E-02   -0.37438E-02   225   0.130E+00    0.541E-02
RMM:   5    -0.256054466283E+02   -0.35601E-03   -0.35321E-03   223   0.394E-01    0.325E-02
RMM:   6    -0.256054519388E+02   -0.53104E-05   -0.45292E-04   222   0.167E-01    0.182E-02
RMM:   7    -0.256054461358E+02    0.58030E-05   -0.12113E-04   203   0.777E-02    0.392E-03
RMM:   8    -0.256054480069E+02   -0.18711E-05   -0.23194E-05   156   0.346E-02
   2 F= -.25605448E+02 E0= -.25605425E+02  d E =0.182263E+00
 trial-energy change:    0.182263  1 .order    0.170988   -0.159114    0.501090
 step:   0.2232(harm=  0.2410)  dis= 0.00000  next Energy=   -25.805346 (dE=-0.176E-01)
 bond charge predicted
       N       E                     dE             d eps       ncg     rms          rms(c)
DAV:   1    -0.269217207781E+02   -0.13163E+01   -0.29961E+01   224   0.363E+01    0.507E+00
RMM:   2    -0.259952572024E+02    0.92646E+00   -0.58855E-01   224   0.477E+00    0.230E+00
RMM:   3    -0.257987361952E+02    0.19652E+00   -0.42928E-01   224   0.364E+00    0.380E-01
RMM:   4    -0.258046220407E+02   -0.58858E-02   -0.24557E-02   224   0.105E+00    0.798E-02
RMM:   5    -0.258045302752E+02    0.91766E-04   -0.36198E-03   224   0.367E-01    0.336E-02
RMM:   6    -0.258045345711E+02   -0.42959E-05   -0.38746E-04   222   0.149E-01    0.250E-02
RMM:   7    -0.258045147407E+02    0.19830E-04   -0.11230E-04   212   0.732E-02    0.403E-03
RMM:   8    -0.258045164135E+02   -0.16727E-05   -0.18582E-05   148   0.305E-02
   3 F= -.25804516E+02 E0= -.25804516E+02  d E =-.168051E-01
 curvature:  -0.12 expect dE=-0.207E-04 dE for cont linesearch -0.207E-04
 ZBRENT: interpolating
 opt :   0.2161  next Energy=   -25.804535 (dE=-0.168E-01)
 bond charge predicted
       N       E                     dE             d eps       ncg     rms          rms(c)
DAV:   1    -0.258046209660E+02   -0.10623E-03   -0.25486E-03   224   0.350E-01    0.438E-02
RMM:   2    -0.258045524324E+02    0.68534E-04   -0.42720E-05   207   0.408E-02    0.195E-02
RMM:   3    -0.258045398627E+02    0.12570E-04   -0.30008E-05   186   0.304E-02    0.319E-03
RMM:   4    -0.258045415441E+02   -0.16813E-05   -0.18122E-06   109   0.898E-03
   4 F= -.25804542E+02 E0= -.25804541E+02  d E =-.168302E-01
 curvature:  -0.11 expect dE=-0.843E-06 dE for cont linesearch -0.843E-06
 trial: gam= 0.00000 g(F)=  0.151E-61 g(S)=  0.780E-05 ort =-0.111E-02 (trialstep = 0.843E+00)
 search vector abs. value=  0.780E-05
 reached required accuracy - stopping structural energy minimisation
