HECN                                    
           1
     3.165000    0.000000    0.000000
     0.000000    3.165000    0.000000
     0.000000    0.000000    3.165000
   W 
     2
Direct configuration=     1
   0.00000000  0.00000000  0.00000000
   0.50000000  0.50000000  0.50000000
HECN                                    
           1
     3.278206   -0.000000    0.000000
    -0.000000    3.278206    0.000000
    -0.000000   -0.000000    3.278206
   W 
     2
Direct configuration=     2
   0.00000000  0.00000000  1.00000000
   0.50000000  0.50000000  0.50000000
HECN                                    
           1
     3.190272   -0.000000    0.000000
    -0.000000    3.190272    0.000000
    -0.000000   -0.000000    3.190272
   W 
     2
Direct configuration=     3
   0.00000000  0.00000000  0.00000000
   0.50000000  0.50000000  0.50000000
HECN                                    
           1
     3.189468   -0.000000    0.000000
    -0.000000    3.189468    0.000000
    -0.000000   -0.000000    3.189468
   W 
     2
Direct configuration=     4
   0.00000000  0.00000000  0.00000000
   0.50000000  0.50000000  0.50000000
