 vasp.6.4.3 19Mar24 (build Sep 18 2024 11:30:23) complex                        
  
 executed on             LinuxIFC date 2026.07.07  17:18:52
 running   28 mpi-ranks, on    1 nodes
 distrk:  each k-point on   28 cores,    1 groups
 distr:  one band on NCORE=   1 cores,   28 groups


--------------------------------------------------------------------------------------------------------


 INCAR:
   SYSTEM = C
   ISTART = 0
   ICHARG = 2
   PREC = Normal
   LREAL = .F.
   IBRION = 2
   ISIF = 3
   NSW = 100
   POTIM = 0.5
   EDIFFG = -0.01
   ENCUT = 400
   NELM = 60
   EDIFF = 1E-6
   LCHARG = .F.
   LWAVE = .F.
   ISMEAR = 0
   SIGMA = 0.005
   ALGO = Normal

 POTCAR:   PAW_PBE C 08Apr2002                    
 -----------------------------------------------------------------------------
|                                                                             |
|           W    W    AA    RRRRR   N    N  II  N    N   GGGG   !!!           |
|           W    W   A  A   R    R  NN   N  II  NN   N  G    G  !!!           |
|           W    W  A    A  R    R  N N  N  II  N N  N  G       !!!           |
|           W WW W  AAAAAA  RRRRR   N  N N  II  N  N N  G  GGG   !            |
|           WW  WW  A    A  R   R   N   NN  II  N   NN  G    G                |
|           W    W  A    A  R    R  N    N  II  N    N   GGGG   !!!           |
|                                                                             |
|     For optimal performance we recommend to set                             |
|       NCORE = 2 up to number-of-cores-per-socket                            |
|     NCORE specifies how many cores store one orbital (NPAR=cpu/NCORE).      |
|     This setting can greatly improve the performance of VASP for DFT.       |
|     The default, NCORE=1 might be grossly inefficient on modern             |
|     multi-core architectures or massively parallel machines. Do your        |
|     own testing! More info at https://www.vasp.at/wiki/index.php/NCORE      |
|     Unfortunately you need to use the default for GW and RPA                |
|     calculations (for HF NCORE is supported but not extensively tested      |
|     yet).                                                                   |
|                                                                             |
 -----------------------------------------------------------------------------

 POTCAR:   PAW_PBE C 08Apr2002                    
   VRHFIN =C: s2p2                                                                                  
   LEXCH  = PE                                                                                      
   EATOM  =   147.1560 eV,   10.8157 Ry                                                             
                                                                                                    
   TITEL  = PAW_PBE C 08Apr2002                                                                     
   LULTRA =        F    use ultrasoft PP ?                                                          
   IUNSCR =        0    unscreen: 0-lin 1-nonlin 2-no                                               
   RPACOR =     .000    partial core radius                                                         
   POMASS =   12.011; ZVAL   =    4.000    mass and valenz                                          
   RCORE  =    1.500    outmost cutoff radius                                                       
   RWIGS  =    1.630; RWIGS  =     .863    wigner-seitz radius (au A)                               
   ENMAX  =  400.000; ENMIN  =  300.000 eV                                                          
   ICORE  =        2    local potential                                                             
   LCOR   =        T    correct aug charges                                                         
   LPAW   =        T    paw PP                                                                      
   EAUG   =  644.873                                                                                
   DEXC   =     .000                                                                                
   RMAX   =    2.266    core radius for proj-oper                                                   
   RAUG   =    1.300    factor for augmentation sphere                                              
   RDEP   =    1.501    radius for radial grids                                                     
   RDEPT  =    1.300    core radius for aug-charge                                                  
   QCUT   =   -5.516; QGAM   =   11.032    optimization parameters                                  
                                                                                                    
   Description                                                                                      
     l     E      TYP  RCUT    TYP  RCUT                                                            
     0   .000     23  1.200                                                                         
     0   .000     23  1.200                                                                         
     1   .000     23  1.500                                                                         
     1  2.500     23  1.500                                                                         
     2   .000      7  1.500                                                                         
  local pseudopotential read in
  atomic valenz-charges read in
  non local Contribution for L=           0  read in
    real space projection operators read in
  non local Contribution for L=           0  read in
    real space projection operators read in
  non local Contribution for L=           1  read in
    real space projection operators read in
  non local Contribution for L=           1  read in
    real space projection operators read in
    PAW grid and wavefunctions read in
 
   number of l-projection  operators is LMAX  =           4
   number of lm-projection operators is LMMAX =           8
 
 PAW_PBE C 08Apr2002                    :
 energy of atom  1       EATOM= -147.1560
 kinetic energy error for atom=    0.0288 (will be added to EATOM!!)
 
 
 POSCAR: diamond\(2)
  positions in direct lattice
  No initial velocities read in


 exchange-correlation table for PE
   RHO(1)=    0.500       N(1)  =     2000
   RHO(2)=  100.500       N(2)  =     4000
 


--------------------------------------------------------------------------------------------------------


 ion  position               nearest neighbor table
   1  0.000  0.000  0.000-   5 1.54   6 1.54   7 1.54   8 1.54
   2  0.000  0.500  0.500-   5 1.54   6 1.54   7 1.54   8 1.54
   3  0.500  0.500  0.000-   5 1.54   6 1.54   7 1.54   8 1.54
   4  0.500  0.000  0.500-   5 1.54   6 1.54   7 1.54   8 1.54
   5  0.750  0.250  0.750-   1 1.54   2 1.54   3 1.54   4 1.54
   6  0.250  0.250  0.250-   1 1.54   2 1.54   3 1.54   4 1.54
   7  0.250  0.750  0.750-   1 1.54   2 1.54   3 1.54   4 1.54
   8  0.750  0.750  0.250-   1 1.54   2 1.54   3 1.54   4 1.54
 
  LATTYP: Found a simple cubic cell.
 ALAT       =     3.5559999943
  
  Lattice vectors:
  
 A1 = (   3.5559999943,   0.0000000000,   0.0000000000)
 A2 = (   0.0000000000,   3.5559999943,   0.0000000000)
 A3 = (   0.0000000000,   0.0000000000,   3.5559999943)


Analysis of symmetry for initial positions (statically):
=====================================================================
 Subroutine PRICEL returns following result:
 
  LATTYP: Found a face centered cubic cell.
 ALAT       =     3.5559999943
  
  Lattice vectors:
  
 A1 = (   1.7779999972,  -1.7779999972,   0.0000000000)
 A2 = (   1.7779999972,   0.0000000000,   1.7779999971)
 A3 = (   0.0000000000,  -1.7779999972,   1.7779999972)
 
   4 primitive cells build up your supercell.
 

 Routine SETGRP: Setting up the symmetry group for a 
 simple cubic supercell.


 Subroutine GETGRP returns: Found 48 space group operations
 (whereof 24 operations were pure point group operations)
 out of a pool of 48 trial point group operations.


The static configuration has the point symmetry T_d .
 The point group associated with its full space group is O_h .


Analysis of symmetry for dynamics (positions and initial velocities):
=====================================================================
 Subroutine PRICEL returns following result:
 
  LATTYP: Found a face centered cubic cell.
 ALAT       =     3.5559999943
  
  Lattice vectors:
  
 A1 = (   1.7779999972,  -1.7779999972,   0.0000000000)
 A2 = (   1.7779999972,   0.0000000000,   1.7779999971)
 A3 = (   0.0000000000,  -1.7779999972,   1.7779999972)
 
   4 primitive cells build up your supercell.
 

 Routine SETGRP: Setting up the symmetry group for a 
 simple cubic supercell.


 Subroutine GETGRP returns: Found 48 space group operations
 (whereof 24 operations were pure point group operations)
 out of a pool of 48 trial point group operations.


The dynamic configuration has the point symmetry T_d .
 The point group associated with its full space group is O_h .


 Subroutine INISYM returns: Found 48 space group operations
 (whereof 24 operations are pure point group operations),
 and found     4 'primitive' translations


----------------------------------------------------------------------------------------

                                     Primitive cell                                     

  volume of cell :      11.2415

  direct lattice vectors                    reciprocal lattice vectors
     1.777999997 -1.777999997  0.000000000     0.281214849 -0.281214849 -0.281214849
     1.777999997  0.000000000  1.777999997     0.281214849  0.281214849  0.281214849
     0.000000000 -1.777999997  1.777999997    -0.281214849 -0.281214849  0.281214849

  length of vectors
     2.514471710  2.514471710  2.514471710     0.487078406  0.487078406  0.487078406

  position of ions in fractional coordinates (direct lattice)
     0.000000000  0.000000000  0.000000000
     0.750000000  0.750000000  0.750000000

  ion indices of the primitive-cell ions
   primitive index   ion index
                 1           1
                 2           5

----------------------------------------------------------------------------------------

 
 
 KPOINTS: HECN                                    

Automatic generation of k-mesh.
 Grid dimensions read from file:
 generate k-points for:   19   19   19

 Generating k-lattice:

  Cartesian coordinates                     Fractional coordinates (reciprocal lattice)
     0.014800782  0.000000000  0.000000000     0.052631579  0.000000000  0.000000000
     0.000000000  0.014800782  0.000000000     0.000000000  0.052631579  0.000000000
     0.000000000  0.000000000  0.014800782     0.000000000  0.000000000  0.052631579

  Length of vectors
     0.014800782  0.014800782  0.014800782

  Shift w.r.t. Gamma in fractional coordinates (k-lattice)
     0.000000000  0.000000000  0.000000000

 
 Subroutine IBZKPT returns following result:
 ===========================================
 
 Found    220 irreducible k-points:
 
 Following reciprocal coordinates:
            Coordinates               Weight
  0.000000  0.000000  0.000000      1.000000
  0.052632  0.000000  0.000000      6.000000
  0.105263  0.000000  0.000000      6.000000
  0.157895  0.000000  0.000000      6.000000
  0.210526  0.000000  0.000000      6.000000
  0.263158  0.000000  0.000000      6.000000
  0.315789  0.000000  0.000000      6.000000
  0.368421  0.000000  0.000000      6.000000
  0.421053  0.000000  0.000000      6.000000
  0.473684  0.000000  0.000000      6.000000
  0.052632  0.052632  0.000000     12.000000
  0.105263  0.052632  0.000000     24.000000
  0.157895  0.052632  0.000000     24.000000
  0.210526  0.052632  0.000000     24.000000
  0.263158  0.052632  0.000000     24.000000
  0.315789  0.052632  0.000000     24.000000
  0.368421  0.052632  0.000000     24.000000
  0.421053  0.052632  0.000000     24.000000
  0.473684  0.052632  0.000000     24.000000
  0.105263  0.105263  0.000000     12.000000
  0.157895  0.105263  0.000000     24.000000
  0.210526  0.105263  0.000000     24.000000
  0.263158  0.105263  0.000000     24.000000
  0.315789  0.105263  0.000000     24.000000
  0.368421  0.105263  0.000000     24.000000
  0.421053  0.105263  0.000000     24.000000
  0.473684  0.105263  0.000000     24.000000
  0.157895  0.157895  0.000000     12.000000
  0.210526  0.157895  0.000000     24.000000
  0.263158  0.157895  0.000000     24.000000
  0.315789  0.157895  0.000000     24.000000
  0.368421  0.157895  0.000000     24.000000
  0.421053  0.157895  0.000000     24.000000
  0.473684  0.157895  0.000000     24.000000
  0.210526  0.210526  0.000000     12.000000
  0.263158  0.210526  0.000000     24.000000
  0.315789  0.210526  0.000000     24.000000
  0.368421  0.210526  0.000000     24.000000
  0.421053  0.210526  0.000000     24.000000
  0.473684  0.210526  0.000000     24.000000
  0.263158  0.263158  0.000000     12.000000
  0.315789  0.263158  0.000000     24.000000
  0.368421  0.263158  0.000000     24.000000
  0.421053  0.263158  0.000000     24.000000
  0.473684  0.263158  0.000000     24.000000
  0.315789  0.315789  0.000000     12.000000
  0.368421  0.315789  0.000000     24.000000
  0.421053  0.315789  0.000000     24.000000
  0.473684  0.315789  0.000000     24.000000
  0.368421  0.368421  0.000000     12.000000
  0.421053  0.368421  0.000000     24.000000
  0.473684  0.368421  0.000000     24.000000
  0.421053  0.421053  0.000000     12.000000
  0.473684  0.421053  0.000000     24.000000
  0.473684  0.473684  0.000000     12.000000
  0.052632  0.052632  0.052632      8.000000
  0.105263  0.052632  0.052632     24.000000
  0.157895  0.052632  0.052632     24.000000
  0.210526  0.052632  0.052632     24.000000
  0.263158  0.052632  0.052632     24.000000
  0.315789  0.052632  0.052632     24.000000
  0.368421  0.052632  0.052632     24.000000
  0.421053  0.052632  0.052632     24.000000
  0.473684  0.052632  0.052632     24.000000
  0.105263  0.105263  0.052632     24.000000
  0.157895  0.105263  0.052632     48.000000
  0.210526  0.105263  0.052632     48.000000
  0.263158  0.105263  0.052632     48.000000
  0.315789  0.105263  0.052632     48.000000
  0.368421  0.105263  0.052632     48.000000
  0.421053  0.105263  0.052632     48.000000
  0.473684  0.105263  0.052632     48.000000
  0.157895  0.157895  0.052632     24.000000
  0.210526  0.157895  0.052632     48.000000
  0.263158  0.157895  0.052632     48.000000
  0.315789  0.157895  0.052632     48.000000
  0.368421  0.157895  0.052632     48.000000
  0.421053  0.157895  0.052632     48.000000
  0.473684  0.157895  0.052632     48.000000
  0.210526  0.210526  0.052632     24.000000
  0.263158  0.210526  0.052632     48.000000
  0.315789  0.210526  0.052632     48.000000
  0.368421  0.210526  0.052632     48.000000
  0.421053  0.210526  0.052632     48.000000
  0.473684  0.210526  0.052632     48.000000
  0.263158  0.263158  0.052632     24.000000
  0.315789  0.263158  0.052632     48.000000
  0.368421  0.263158  0.052632     48.000000
  0.421053  0.263158  0.052632     48.000000
  0.473684  0.263158  0.052632     48.000000
  0.315789  0.315789  0.052632     24.000000
  0.368421  0.315789  0.052632     48.000000
  0.421053  0.315789  0.052632     48.000000
  0.473684  0.315789  0.052632     48.000000
  0.368421  0.368421  0.052632     24.000000
  0.421053  0.368421  0.052632     48.000000
  0.473684  0.368421  0.052632     48.000000
  0.421053  0.421053  0.052632     24.000000
  0.473684  0.421053  0.052632     48.000000
  0.473684  0.473684  0.052632     24.000000
  0.105263  0.105263  0.105263      8.000000
  0.157895  0.105263  0.105263     24.000000
  0.210526  0.105263  0.105263     24.000000
  0.263158  0.105263  0.105263     24.000000
  0.315789  0.105263  0.105263     24.000000
  0.368421  0.105263  0.105263     24.000000
  0.421053  0.105263  0.105263     24.000000
  0.473684  0.105263  0.105263     24.000000
  0.157895  0.157895  0.105263     24.000000
  0.210526  0.157895  0.105263     48.000000
  0.263158  0.157895  0.105263     48.000000
  0.315789  0.157895  0.105263     48.000000
  0.368421  0.157895  0.105263     48.000000
  0.421053  0.157895  0.105263     48.000000
  0.473684  0.157895  0.105263     48.000000
  0.210526  0.210526  0.105263     24.000000
  0.263158  0.210526  0.105263     48.000000
  0.315789  0.210526  0.105263     48.000000
  0.368421  0.210526  0.105263     48.000000
  0.421053  0.210526  0.105263     48.000000
  0.473684  0.210526  0.105263     48.000000
  0.263158  0.263158  0.105263     24.000000
  0.315789  0.263158  0.105263     48.000000
  0.368421  0.263158  0.105263     48.000000
  0.421053  0.263158  0.105263     48.000000
  0.473684  0.263158  0.105263     48.000000
  0.315789  0.315789  0.105263     24.000000
  0.368421  0.315789  0.105263     48.000000
  0.421053  0.315789  0.105263     48.000000
  0.473684  0.315789  0.105263     48.000000
  0.368421  0.368421  0.105263     24.000000
  0.421053  0.368421  0.105263     48.000000
  0.473684  0.368421  0.105263     48.000000
  0.421053  0.421053  0.105263     24.000000
  0.473684  0.421053  0.105263     48.000000
  0.473684  0.473684  0.105263     24.000000
  0.157895  0.157895  0.157895      8.000000
  0.210526  0.157895  0.157895     24.000000
  0.263158  0.157895  0.157895     24.000000
  0.315789  0.157895  0.157895     24.000000
  0.368421  0.157895  0.157895     24.000000
  0.421053  0.157895  0.157895     24.000000
  0.473684  0.157895  0.157895     24.000000
  0.210526  0.210526  0.157895     24.000000
  0.263158  0.210526  0.157895     48.000000
  0.315789  0.210526  0.157895     48.000000
  0.368421  0.210526  0.157895     48.000000
  0.421053  0.210526  0.157895     48.000000
  0.473684  0.210526  0.157895     48.000000
  0.263158  0.263158  0.157895     24.000000
  0.315789  0.263158  0.157895     48.000000
  0.368421  0.263158  0.157895     48.000000
  0.421053  0.263158  0.157895     48.000000
  0.473684  0.263158  0.157895     48.000000
  0.315789  0.315789  0.157895     24.000000
  0.368421  0.315789  0.157895     48.000000
  0.421053  0.315789  0.157895     48.000000
  0.473684  0.315789  0.157895     48.000000
  0.368421  0.368421  0.157895     24.000000
  0.421053  0.368421  0.157895     48.000000
  0.473684  0.368421  0.157895     48.000000
  0.421053  0.421053  0.157895     24.000000
  0.473684  0.421053  0.157895     48.000000
  0.473684  0.473684  0.157895     24.000000
  0.210526  0.210526  0.210526      8.000000
  0.263158  0.210526  0.210526     24.000000
  0.315789  0.210526  0.210526     24.000000
  0.368421  0.210526  0.210526     24.000000
  0.421053  0.210526  0.210526     24.000000
  0.473684  0.210526  0.210526     24.000000
  0.263158  0.263158  0.210526     24.000000
  0.315789  0.263158  0.210526     48.000000
  0.368421  0.263158  0.210526     48.000000
  0.421053  0.263158  0.210526     48.000000
  0.473684  0.263158  0.210526     48.000000
  0.315789  0.315789  0.210526     24.000000
  0.368421  0.315789  0.210526     48.000000
  0.421053  0.315789  0.210526     48.000000
  0.473684  0.315789  0.210526     48.000000
  0.368421  0.368421  0.210526     24.000000
  0.421053  0.368421  0.210526     48.000000
  0.473684  0.368421  0.210526     48.000000
  0.421053  0.421053  0.210526     24.000000
  0.473684  0.421053  0.210526     48.000000
  0.473684  0.473684  0.210526     24.000000
  0.263158  0.263158  0.263158      8.000000
  0.315789  0.263158  0.263158     24.000000
  0.368421  0.263158  0.263158     24.000000
  0.421053  0.263158  0.263158     24.000000
  0.473684  0.263158  0.263158     24.000000
  0.315789  0.315789  0.263158     24.000000
  0.368421  0.315789  0.263158     48.000000
  0.421053  0.315789  0.263158     48.000000
  0.473684  0.315789  0.263158     48.000000
  0.368421  0.368421  0.263158     24.000000
  0.421053  0.368421  0.263158     48.000000
  0.473684  0.368421  0.263158     48.000000
  0.421053  0.421053  0.263158     24.000000
  0.473684  0.421053  0.263158     48.000000
  0.473684  0.473684  0.263158     24.000000
  0.315789  0.315789  0.315789      8.000000
  0.368421  0.315789  0.315789     24.000000
  0.421053  0.315789  0.315789     24.000000
  0.473684  0.315789  0.315789     24.000000
  0.368421  0.368421  0.315789     24.000000
  0.421053  0.368421  0.315789     48.000000
  0.473684  0.368421  0.315789     48.000000
  0.421053  0.421053  0.315789     24.000000
  0.473684  0.421053  0.315789     48.000000
  0.473684  0.473684  0.315789     24.000000
  0.368421  0.368421  0.368421      8.000000
  0.421053  0.368421  0.368421     24.000000
  0.473684  0.368421  0.368421     24.000000
  0.421053  0.421053  0.368421     24.000000
  0.473684  0.421053  0.368421     48.000000
  0.473684  0.473684  0.368421     24.000000
  0.421053  0.421053  0.421053      8.000000
  0.473684  0.421053  0.421053     24.000000
  0.473684  0.473684  0.421053     24.000000
  0.473684  0.473684  0.473684      8.000000
 
 Following cartesian coordinates:
            Coordinates               Weight
  0.000000  0.000000  0.000000      1.000000
  0.014801  0.000000  0.000000      6.000000
  0.029602  0.000000  0.000000      6.000000
  0.044402  0.000000  0.000000      6.000000
  0.059203  0.000000  0.000000      6.000000
  0.074004  0.000000  0.000000      6.000000
  0.088805  0.000000  0.000000      6.000000
  0.103605  0.000000  0.000000      6.000000
  0.118406  0.000000  0.000000      6.000000
  0.133207  0.000000  0.000000      6.000000
  0.014801  0.014801  0.000000     12.000000
  0.029602  0.014801  0.000000     24.000000
  0.044402  0.014801  0.000000     24.000000
  0.059203  0.014801  0.000000     24.000000
  0.074004  0.014801  0.000000     24.000000
  0.088805  0.014801  0.000000     24.000000
  0.103605  0.014801  0.000000     24.000000
  0.118406  0.014801  0.000000     24.000000
  0.133207  0.014801  0.000000     24.000000
  0.029602  0.029602  0.000000     12.000000
  0.044402  0.029602  0.000000     24.000000
  0.059203  0.029602  0.000000     24.000000
  0.074004  0.029602  0.000000     24.000000
  0.088805  0.029602  0.000000     24.000000
  0.103605  0.029602  0.000000     24.000000
  0.118406  0.029602  0.000000     24.000000
  0.133207  0.029602  0.000000     24.000000
  0.044402  0.044402  0.000000     12.000000
  0.059203  0.044402  0.000000     24.000000
  0.074004  0.044402  0.000000     24.000000
  0.088805  0.044402  0.000000     24.000000
  0.103605  0.044402  0.000000     24.000000
  0.118406  0.044402  0.000000     24.000000
  0.133207  0.044402  0.000000     24.000000
  0.059203  0.059203  0.000000     12.000000
  0.074004  0.059203  0.000000     24.000000
  0.088805  0.059203  0.000000     24.000000
  0.103605  0.059203  0.000000     24.000000
  0.118406  0.059203  0.000000     24.000000
  0.133207  0.059203  0.000000     24.000000
  0.074004  0.074004  0.000000     12.000000
  0.088805  0.074004  0.000000     24.000000
  0.103605  0.074004  0.000000     24.000000
  0.118406  0.074004  0.000000     24.000000
  0.133207  0.074004  0.000000     24.000000
  0.088805  0.088805  0.000000     12.000000
  0.103605  0.088805  0.000000     24.000000
  0.118406  0.088805  0.000000     24.000000
  0.133207  0.088805  0.000000     24.000000
  0.103605  0.103605  0.000000     12.000000
  0.118406  0.103605  0.000000     24.000000
  0.133207  0.103605  0.000000     24.000000
  0.118406  0.118406  0.000000     12.000000
  0.133207  0.118406  0.000000     24.000000
  0.133207  0.133207  0.000000     12.000000
  0.014801  0.014801  0.014801      8.000000
  0.029602  0.014801  0.014801     24.000000
  0.044402  0.014801  0.014801     24.000000
  0.059203  0.014801  0.014801     24.000000
  0.074004  0.014801  0.014801     24.000000
  0.088805  0.014801  0.014801     24.000000
  0.103605  0.014801  0.014801     24.000000
  0.118406  0.014801  0.014801     24.000000
  0.133207  0.014801  0.014801     24.000000
  0.029602  0.029602  0.014801     24.000000
  0.044402  0.029602  0.014801     48.000000
  0.059203  0.029602  0.014801     48.000000
  0.074004  0.029602  0.014801     48.000000
  0.088805  0.029602  0.014801     48.000000
  0.103605  0.029602  0.014801     48.000000
  0.118406  0.029602  0.014801     48.000000
  0.133207  0.029602  0.014801     48.000000
  0.044402  0.044402  0.014801     24.000000
  0.059203  0.044402  0.014801     48.000000
  0.074004  0.044402  0.014801     48.000000
  0.088805  0.044402  0.014801     48.000000
  0.103605  0.044402  0.014801     48.000000
  0.118406  0.044402  0.014801     48.000000
  0.133207  0.044402  0.014801     48.000000
  0.059203  0.059203  0.014801     24.000000
  0.074004  0.059203  0.014801     48.000000
  0.088805  0.059203  0.014801     48.000000
  0.103605  0.059203  0.014801     48.000000
  0.118406  0.059203  0.014801     48.000000
  0.133207  0.059203  0.014801     48.000000
  0.074004  0.074004  0.014801     24.000000
  0.088805  0.074004  0.014801     48.000000
  0.103605  0.074004  0.014801     48.000000
  0.118406  0.074004  0.014801     48.000000
  0.133207  0.074004  0.014801     48.000000
  0.088805  0.088805  0.014801     24.000000
  0.103605  0.088805  0.014801     48.000000
  0.118406  0.088805  0.014801     48.000000
  0.133207  0.088805  0.014801     48.000000
  0.103605  0.103605  0.014801     24.000000
  0.118406  0.103605  0.014801     48.000000
  0.133207  0.103605  0.014801     48.000000
  0.118406  0.118406  0.014801     24.000000
  0.133207  0.118406  0.014801     48.000000
  0.133207  0.133207  0.014801     24.000000
  0.029602  0.029602  0.029602      8.000000
  0.044402  0.029602  0.029602     24.000000
  0.059203  0.029602  0.029602     24.000000
  0.074004  0.029602  0.029602     24.000000
  0.088805  0.029602  0.029602     24.000000
  0.103605  0.029602  0.029602     24.000000
  0.118406  0.029602  0.029602     24.000000
  0.133207  0.029602  0.029602     24.000000
  0.044402  0.044402  0.029602     24.000000
  0.059203  0.044402  0.029602     48.000000
  0.074004  0.044402  0.029602     48.000000
  0.088805  0.044402  0.029602     48.000000
  0.103605  0.044402  0.029602     48.000000
  0.118406  0.044402  0.029602     48.000000
  0.133207  0.044402  0.029602     48.000000
  0.059203  0.059203  0.029602     24.000000
  0.074004  0.059203  0.029602     48.000000
  0.088805  0.059203  0.029602     48.000000
  0.103605  0.059203  0.029602     48.000000
  0.118406  0.059203  0.029602     48.000000
  0.133207  0.059203  0.029602     48.000000
  0.074004  0.074004  0.029602     24.000000
  0.088805  0.074004  0.029602     48.000000
  0.103605  0.074004  0.029602     48.000000
  0.118406  0.074004  0.029602     48.000000
  0.133207  0.074004  0.029602     48.000000
  0.088805  0.088805  0.029602     24.000000
  0.103605  0.088805  0.029602     48.000000
  0.118406  0.088805  0.029602     48.000000
  0.133207  0.088805  0.029602     48.000000
  0.103605  0.103605  0.029602     24.000000
  0.118406  0.103605  0.029602     48.000000
  0.133207  0.103605  0.029602     48.000000
  0.118406  0.118406  0.029602     24.000000
  0.133207  0.118406  0.029602     48.000000
  0.133207  0.133207  0.029602     24.000000
  0.044402  0.044402  0.044402      8.000000
  0.059203  0.044402  0.044402     24.000000
  0.074004  0.044402  0.044402     24.000000
  0.088805  0.044402  0.044402     24.000000
  0.103605  0.044402  0.044402     24.000000
  0.118406  0.044402  0.044402     24.000000
  0.133207  0.044402  0.044402     24.000000
  0.059203  0.059203  0.044402     24.000000
  0.074004  0.059203  0.044402     48.000000
  0.088805  0.059203  0.044402     48.000000
  0.103605  0.059203  0.044402     48.000000
  0.118406  0.059203  0.044402     48.000000
  0.133207  0.059203  0.044402     48.000000
  0.074004  0.074004  0.044402     24.000000
  0.088805  0.074004  0.044402     48.000000
  0.103605  0.074004  0.044402     48.000000
  0.118406  0.074004  0.044402     48.000000
  0.133207  0.074004  0.044402     48.000000
  0.088805  0.088805  0.044402     24.000000
  0.103605  0.088805  0.044402     48.000000
  0.118406  0.088805  0.044402     48.000000
  0.133207  0.088805  0.044402     48.000000
  0.103605  0.103605  0.044402     24.000000
  0.118406  0.103605  0.044402     48.000000
  0.133207  0.103605  0.044402     48.000000
  0.118406  0.118406  0.044402     24.000000
  0.133207  0.118406  0.044402     48.000000
  0.133207  0.133207  0.044402     24.000000
  0.059203  0.059203  0.059203      8.000000
  0.074004  0.059203  0.059203     24.000000
  0.088805  0.059203  0.059203     24.000000
  0.103605  0.059203  0.059203     24.000000
  0.118406  0.059203  0.059203     24.000000
  0.133207  0.059203  0.059203     24.000000
  0.074004  0.074004  0.059203     24.000000
  0.088805  0.074004  0.059203     48.000000
  0.103605  0.074004  0.059203     48.000000
  0.118406  0.074004  0.059203     48.000000
  0.133207  0.074004  0.059203     48.000000
  0.088805  0.088805  0.059203     24.000000
  0.103605  0.088805  0.059203     48.000000
  0.118406  0.088805  0.059203     48.000000
  0.133207  0.088805  0.059203     48.000000
  0.103605  0.103605  0.059203     24.000000
  0.118406  0.103605  0.059203     48.000000
  0.133207  0.103605  0.059203     48.000000
  0.118406  0.118406  0.059203     24.000000
  0.133207  0.118406  0.059203     48.000000
  0.133207  0.133207  0.059203     24.000000
  0.074004  0.074004  0.074004      8.000000
  0.088805  0.074004  0.074004     24.000000
  0.103605  0.074004  0.074004     24.000000
  0.118406  0.074004  0.074004     24.000000
  0.133207  0.074004  0.074004     24.000000
  0.088805  0.088805  0.074004     24.000000
  0.103605  0.088805  0.074004     48.000000
  0.118406  0.088805  0.074004     48.000000
  0.133207  0.088805  0.074004     48.000000
  0.103605  0.103605  0.074004     24.000000
  0.118406  0.103605  0.074004     48.000000
  0.133207  0.103605  0.074004     48.000000
  0.118406  0.118406  0.074004     24.000000
  0.133207  0.118406  0.074004     48.000000
  0.133207  0.133207  0.074004     24.000000
  0.088805  0.088805  0.088805      8.000000
  0.103605  0.088805  0.088805     24.000000
  0.118406  0.088805  0.088805     24.000000
  0.133207  0.088805  0.088805     24.000000
  0.103605  0.103605  0.088805     24.000000
  0.118406  0.103605  0.088805     48.000000
  0.133207  0.103605  0.088805     48.000000
  0.118406  0.118406  0.088805     24.000000
  0.133207  0.118406  0.088805     48.000000
  0.133207  0.133207  0.088805     24.000000
  0.103605  0.103605  0.103605      8.000000
  0.118406  0.103605  0.103605     24.000000
  0.133207  0.103605  0.103605     24.000000
  0.118406  0.118406  0.103605     24.000000
  0.133207  0.118406  0.103605     48.000000
  0.133207  0.133207  0.103605     24.000000
  0.118406  0.118406  0.118406      8.000000
  0.133207  0.118406  0.118406     24.000000
  0.133207  0.133207  0.118406     24.000000
  0.133207  0.133207  0.133207      8.000000
 


--------------------------------------------------------------------------------------------------------




 Dimension of arrays:
   k-points           NKPTS =    220   k-points in BZ     NKDIM =    220   number of bands    NBANDS=     28
   number of dos      NEDOS =    301   number of ions     NIONS =      8
   non local maximal  LDIM  =      4   non local SUM 2l+1 LMDIM =      8
   total plane-waves  NPLWV =   5832
   max r-space proj   IRMAX =      1   max aug-charges    IRDMAX=   1730
   dimension x,y,z NGX =    18 NGY =   18 NGZ =   18
   dimension x,y,z NGXF=    36 NGYF=   36 NGZF=   36
   support grid    NGXF=    36 NGYF=   36 NGZF=   36
   ions per type =               8
   NGX,Y,Z   is equivalent  to a cutoff of   8.42,  8.42,  8.42 a.u.
   NGXF,Y,Z  is equivalent  to a cutoff of  16.83, 16.83, 16.83 a.u.

 SYSTEM =  C                                       
 POSCAR =  diamond\(2)                             

 Startparameter for this run:
   NWRITE =      2    write-flag & timer
   PREC   = normal    normal or accurate (medium, high low for compatibility)
   ISTART =      0    job   : 0-new  1-cont  2-samecut
   ICHARG =      2    charge: 1-file 2-atom 10-const
   ISPIN  =      1    spin polarized calculation?
   LNONCOLLINEAR =      F non collinear calculations
   LSORBIT =      F    spin-orbit coupling
   INIWAV =      1    electr: 0-lowe 1-rand  2-diag
   LASPH  =      F    aspherical Exc in radial PAW
 Electronic Relaxation 1
   ENCUT  =  400.0 eV  29.40 Ry    5.42 a.u.   5.80  5.80  5.80*2*pi/ulx,y,z
   ENINI  =  400.0     initial cutoff
   ENAUG  =  644.9 eV  augmentation charge cutoff
   NELM   =     60;   NELMIN=  2; NELMDL= -5     # of ELM steps 
   EDIFF  = 0.1E-05   stopping-criterion for ELM
   LREAL  =      F    real-space projection
   NLSPLINE    = F    spline interpolate recip. space projectors
   LCOMPAT=      F    compatible to vasp.4.4
   GGA_COMPAT  = T    GGA compatible to vasp.4.4-vasp.4.6
   LMAXPAW     = -100 max onsite density
   LMAXMIX     =    2 max onsite mixed and CHGCAR
   VOSKOWN=      0    Vosko Wilk Nusair interpolation
   ROPT   =    0.00000
 Ionic relaxation
   EDIFFG = -.1E-01   stopping-criterion for IOM
   NSW    =    100    number of steps for IOM
   NBLOCK =      1;   KBLOCK =    100    inner block; outer block 
   IBRION =      2    ionic relax: 0-MD 1-quasi-New 2-CG
   NFREE  =      1    steps in history (QN), initial steepest desc. (CG)
   ISIF   =      3    stress and relaxation
   IWAVPR =     11    prediction:  0-non 1-charg 2-wave 3-comb
   ISYM   =      2    0-nonsym 1-usesym 2-fastsym
   LCORR  =      T    Harris-Foulkes like correction to forces

   POTIM  = 0.5000    time-step for ionic-motion
   TEIN   =    0.0    initial temperature
   TEBEG  =    0.0;   TEEND  =   0.0 temperature during run
   SMASS  =  -3.00    Nose mass-parameter (am)
   estimated Nose-frequenzy (Omega)   =  0.10E-29 period in steps = 0.13E+47 mass=  -0.289E-27a.u.
   SCALEE = 1.0000    scale energy and forces
   NPACO  =    256;   APACO  = 10.0  distance and # of slots for P.C.
   PSTRESS=    0.0 pullay stress

  Mass of Ions in am
   POMASS =  12.01
  Ionic Valenz
   ZVAL   =   4.00
  Atomic Wigner-Seitz radii
   RWIGS  =  -1.00
  virtual crystal weights 
   VCA    =   1.00
   NELECT =      32.0000    total number of electrons
   NUPDOWN=      -1.0000    fix difference up-down

 DOS related values:
   EMIN   =  10.00;   EMAX   =-10.00  energy-range for DOS
   EFERMI =   0.00;   METHOD = LEGACY      
   ISMEAR =     0;   SIGMA  =   0.01  broadening in eV -4-tet -1-fermi 0-gaus

 Electronic relaxation 2 (details)
   IALGO  =     38    algorithm
   LDIAG  =      T    sub-space diagonalisation (order eigenvalues)
   LSUBROT=      F    optimize rotation matrix (better conditioning)
   TURBO    =      0    0=normal 1=particle mesh
   IRESTART =      0    0=no restart 2=restart with 2 vectors
   NREBOOT  =      0    no. of reboots
   NMIN     =      0    reboot dimension
   EREF     =   0.00    reference energy to select bands
   IMIX   =      4    mixing-type and parameters
     AMIX     =   0.40;   BMIX     =  1.00
     AMIX_MAG =   1.60;   BMIX_MAG =  1.00
     AMIN     =   0.10
     WC   =   100.;   INIMIX=   1;  MIXPRE=   1;  MAXMIX= -45

 Intra band minimization:
   WEIMIN = 0.0010     energy-eigenvalue tresh-hold
   EBREAK =  0.89E-08  absolut break condition
   DEPER  =   0.30     relativ break condition  

   TIME   =   0.40     timestep for ELM

  volume/ion in A,a.u.               =       5.62        37.93
  Fermi-wavevector in a.u.,A,eV,Ry     =   1.461604  2.762031 29.065941  2.136286
  Thomas-Fermi vector in A             =   2.577916
 
 Write flags
   LWAVE        =      F    write WAVECAR
   LDOWNSAMPLE  =      F    k-point downsampling of WAVECAR
   LCHARG       =      F    write CHGCAR
   LVTOT        =      F    write LOCPOT, total local potential
   LVHAR        =      F    write LOCPOT, Hartree potential only
   WRT_POTENTIAL= false  ! write potential to hdf5 file
   LELF         =      F    write electronic localiz. function (ELF)
   LORBIT       =      0    0 simple, 1 ext, 2 COOP (PROOUT), +10 PAW based schemes


 Dipole corrections
   LMONO      =      F    monopole corrections only (constant potential shift)
   LDIPOL     =      F    correct potential (dipole corrections)
   IDIPOL     =      0    1-x, 2-y, 3-z, 4-all directions 
   EPSILON    =  1.0000000 bulk dielectric constant
   LVACPOTAV  =      F  vacuum potentials using an averaging scheme for the charge density
   VACPOTFLAT =  0.1000000 required flatness to determine vacuum potential
 Exchange correlation treatment:
   GGA     = PE    functional components
   XC_C    = 1    coefficients multiplying the functional components
   LIBXC   =     F    Libxc                    
   VOSKOWN =     0    Vosko Wilk Nusair interpolation
   LHFCALC =     F    Hartree Fock is set to
   LHFONE  =     F    Hartree Fock one center treatment
   AEXX    =    0.0000 exact exchange contribution

 Parameters of functionals:
   PE:
     No parameter
 
 Van der Waals corrections
   IVDW    =     0    specifies the selected vdW correction

 Linear response parameters
   LEPSILON=     F    determine dielectric tensor
   LRPA    =     F    only Hartree local field effects (RPA)
   LNABLA  =     F    use nabla operator in PAW spheres
   LVEL    =     F    velocity operator in full k-point grid
   CSHIFT  =0.1000    complex shift for real part using Kramers Kronig
   OMEGAMAX=  -1.0    maximum frequency
   DEG_THRESHOLD= 0.2000000E-02 threshold for treating states as degnerate
   RTIME   =   -0.100 relaxation time in fs
  (WPLASMAI=    0.000 imaginary part of plasma frequency in eV, 0.658/RTIME)
   DFIELD  = 0.0000000 0.0000000 0.0000000 field for delta impulse in time
 
  Optional k-point grid parameters
   LKPOINTS_OPT  =     F    use optional k-point grid
   KPOINTS_OPT_MODE=     1    mode for optional k-point grid
 
 Orbital magnetization related:
   ORBITALMAG=     F  switch on orbital magnetization
   LCHIMAG   =     F  perturbation theory with respect to B field
   DQ        =  0.001000  dq finite difference perturbation B field
   LLRAUG    =     F  two centre corrections for induced B field
   LBONE     =     F  B-component reconstruction in AE one-centre
   LVGVCALC  =     T  calculate vGv susceptibility
   LVGVAPPL  =     F  apply vGv susceptibility instead of pGv for G=0

 Random number generation:
   RANDOM_GENERATOR = DEFAULT
   PCG_SEED         = not used


--------------------------------------------------------------------------------------------------------


 conjugate gradient relaxation of ions
 charge density and potential will be updated during run
 non-spin polarized calculation
 Variant of blocked Davidson
 Davidson routine will perform the subspace rotation
 perform sub-space diagonalisation
    after iterative eigenvector-optimisation
 modified Broyden-mixing scheme, WC =      100.0
 initial mixing is a Kerker type mixing with AMIX =  0.4000 and BMIX =      1.0000
 Hartree-type preconditioning will be used
 using additional bands           12
 reciprocal scheme for non local part
 calculate Harris-corrections to forces 
   (improved forces if not selfconsistent)
 use gradient corrections 
 use of overlap-Matrix (Vanderbilt PP)
 Gauss-broadening in eV      SIGMA  =   0.01


--------------------------------------------------------------------------------------------------------


  energy-cutoff  :      400.00
  volume of cell :       44.97
      direct lattice vectors                 reciprocal lattice vectors
     3.555999994  0.000000000  0.000000000     0.281214849  0.000000000  0.000000000
     0.000000000  3.555999994  0.000000000     0.000000000  0.281214849  0.000000000
     0.000000000  0.000000000  3.555999994     0.000000000  0.000000000  0.281214849

  length of vectors
     3.555999994  3.555999994  3.555999994     0.281214849  0.281214849  0.281214849


 
 k-points in units of 2pi/SCALE and weight: HECN                                    
   0.00000000  0.00000000  0.00000000       0.000
   0.01480078  0.00000000  0.00000000       0.001
   0.02960156  0.00000000  0.00000000       0.001
   0.04440234  0.00000000  0.00000000       0.001
   0.05920313  0.00000000  0.00000000       0.001
   0.07400391  0.00000000  0.00000000       0.001
   0.08880469  0.00000000  0.00000000       0.001
   0.10360547  0.00000000  0.00000000       0.001
   0.11840625  0.00000000  0.00000000       0.001
   0.13320703  0.00000000  0.00000000       0.001
   0.01480078  0.01480078  0.00000000       0.002
   0.02960156  0.01480078  0.00000000       0.003
   0.04440234  0.01480078  0.00000000       0.003
   0.05920313  0.01480078  0.00000000       0.003
   0.07400391  0.01480078  0.00000000       0.003
   0.08880469  0.01480078  0.00000000       0.003
   0.10360547  0.01480078  0.00000000       0.003
   0.11840625  0.01480078  0.00000000       0.003
   0.13320703  0.01480078  0.00000000       0.003
   0.02960156  0.02960156  0.00000000       0.002
   0.04440234  0.02960156  0.00000000       0.003
   0.05920313  0.02960156  0.00000000       0.003
   0.07400391  0.02960156  0.00000000       0.003
   0.08880469  0.02960156  0.00000000       0.003
   0.10360547  0.02960156  0.00000000       0.003
   0.11840625  0.02960156  0.00000000       0.003
   0.13320703  0.02960156  0.00000000       0.003
   0.04440234  0.04440234  0.00000000       0.002
   0.05920313  0.04440234  0.00000000       0.003
   0.07400391  0.04440234  0.00000000       0.003
   0.08880469  0.04440234  0.00000000       0.003
   0.10360547  0.04440234  0.00000000       0.003
   0.11840625  0.04440234  0.00000000       0.003
   0.13320703  0.04440234  0.00000000       0.003
   0.05920313  0.05920313  0.00000000       0.002
   0.07400391  0.05920313  0.00000000       0.003
   0.08880469  0.05920313  0.00000000       0.003
   0.10360547  0.05920313  0.00000000       0.003
   0.11840625  0.05920313  0.00000000       0.003
   0.13320703  0.05920313  0.00000000       0.003
   0.07400391  0.07400391  0.00000000       0.002
   0.08880469  0.07400391  0.00000000       0.003
   0.10360547  0.07400391  0.00000000       0.003
   0.11840625  0.07400391  0.00000000       0.003
   0.13320703  0.07400391  0.00000000       0.003
   0.08880469  0.08880469  0.00000000       0.002
   0.10360547  0.08880469  0.00000000       0.003
   0.11840625  0.08880469  0.00000000       0.003
   0.13320703  0.08880469  0.00000000       0.003
   0.10360547  0.10360547  0.00000000       0.002
   0.11840625  0.10360547  0.00000000       0.003
   0.13320703  0.10360547  0.00000000       0.003
   0.11840625  0.11840625  0.00000000       0.002
   0.13320703  0.11840625  0.00000000       0.003
   0.13320703  0.13320703  0.00000000       0.002
   0.01480078  0.01480078  0.01480078       0.001
   0.02960156  0.01480078  0.01480078       0.003
   0.04440234  0.01480078  0.01480078       0.003
   0.05920313  0.01480078  0.01480078       0.003
   0.07400391  0.01480078  0.01480078       0.003
   0.08880469  0.01480078  0.01480078       0.003
   0.10360547  0.01480078  0.01480078       0.003
   0.11840625  0.01480078  0.01480078       0.003
   0.13320703  0.01480078  0.01480078       0.003
   0.02960156  0.02960156  0.01480078       0.003
   0.04440234  0.02960156  0.01480078       0.007
   0.05920313  0.02960156  0.01480078       0.007
   0.07400391  0.02960156  0.01480078       0.007
   0.08880469  0.02960156  0.01480078       0.007
   0.10360547  0.02960156  0.01480078       0.007
   0.11840625  0.02960156  0.01480078       0.007
   0.13320703  0.02960156  0.01480078       0.007
   0.04440234  0.04440234  0.01480078       0.003
   0.05920313  0.04440234  0.01480078       0.007
   0.07400391  0.04440234  0.01480078       0.007
   0.08880469  0.04440234  0.01480078       0.007
   0.10360547  0.04440234  0.01480078       0.007
   0.11840625  0.04440234  0.01480078       0.007
   0.13320703  0.04440234  0.01480078       0.007
   0.05920313  0.05920313  0.01480078       0.003
   0.07400391  0.05920313  0.01480078       0.007
   0.08880469  0.05920313  0.01480078       0.007
   0.10360547  0.05920313  0.01480078       0.007
   0.11840625  0.05920313  0.01480078       0.007
   0.13320703  0.05920313  0.01480078       0.007
   0.07400391  0.07400391  0.01480078       0.003
   0.08880469  0.07400391  0.01480078       0.007
   0.10360547  0.07400391  0.01480078       0.007
   0.11840625  0.07400391  0.01480078       0.007
   0.13320703  0.07400391  0.01480078       0.007
   0.08880469  0.08880469  0.01480078       0.003
   0.10360547  0.08880469  0.01480078       0.007
   0.11840625  0.08880469  0.01480078       0.007
   0.13320703  0.08880469  0.01480078       0.007
   0.10360547  0.10360547  0.01480078       0.003
   0.11840625  0.10360547  0.01480078       0.007
   0.13320703  0.10360547  0.01480078       0.007
   0.11840625  0.11840625  0.01480078       0.003
   0.13320703  0.11840625  0.01480078       0.007
   0.13320703  0.13320703  0.01480078       0.003
   0.02960156  0.02960156  0.02960156       0.001
   0.04440234  0.02960156  0.02960156       0.003
   0.05920313  0.02960156  0.02960156       0.003
   0.07400391  0.02960156  0.02960156       0.003
   0.08880469  0.02960156  0.02960156       0.003
   0.10360547  0.02960156  0.02960156       0.003
   0.11840625  0.02960156  0.02960156       0.003
   0.13320703  0.02960156  0.02960156       0.003
   0.04440234  0.04440234  0.02960156       0.003
   0.05920313  0.04440234  0.02960156       0.007
   0.07400391  0.04440234  0.02960156       0.007
   0.08880469  0.04440234  0.02960156       0.007
   0.10360547  0.04440234  0.02960156       0.007
   0.11840625  0.04440234  0.02960156       0.007
   0.13320703  0.04440234  0.02960156       0.007
   0.05920313  0.05920313  0.02960156       0.003
   0.07400391  0.05920313  0.02960156       0.007
   0.08880469  0.05920313  0.02960156       0.007
   0.10360547  0.05920313  0.02960156       0.007
   0.11840625  0.05920313  0.02960156       0.007
   0.13320703  0.05920313  0.02960156       0.007
   0.07400391  0.07400391  0.02960156       0.003
   0.08880469  0.07400391  0.02960156       0.007
   0.10360547  0.07400391  0.02960156       0.007
   0.11840625  0.07400391  0.02960156       0.007
   0.13320703  0.07400391  0.02960156       0.007
   0.08880469  0.08880469  0.02960156       0.003
   0.10360547  0.08880469  0.02960156       0.007
   0.11840625  0.08880469  0.02960156       0.007
   0.13320703  0.08880469  0.02960156       0.007
   0.10360547  0.10360547  0.02960156       0.003
   0.11840625  0.10360547  0.02960156       0.007
   0.13320703  0.10360547  0.02960156       0.007
   0.11840625  0.11840625  0.02960156       0.003
   0.13320703  0.11840625  0.02960156       0.007
   0.13320703  0.13320703  0.02960156       0.003
   0.04440234  0.04440234  0.04440234       0.001
   0.05920313  0.04440234  0.04440234       0.003
   0.07400391  0.04440234  0.04440234       0.003
   0.08880469  0.04440234  0.04440234       0.003
   0.10360547  0.04440234  0.04440234       0.003
   0.11840625  0.04440234  0.04440234       0.003
   0.13320703  0.04440234  0.04440234       0.003
   0.05920313  0.05920313  0.04440234       0.003
   0.07400391  0.05920313  0.04440234       0.007
   0.08880469  0.05920313  0.04440234       0.007
   0.10360547  0.05920313  0.04440234       0.007
   0.11840625  0.05920313  0.04440234       0.007
   0.13320703  0.05920313  0.04440234       0.007
   0.07400391  0.07400391  0.04440234       0.003
   0.08880469  0.07400391  0.04440234       0.007
   0.10360547  0.07400391  0.04440234       0.007
   0.11840625  0.07400391  0.04440234       0.007
   0.13320703  0.07400391  0.04440234       0.007
   0.08880469  0.08880469  0.04440234       0.003
   0.10360547  0.08880469  0.04440234       0.007
   0.11840625  0.08880469  0.04440234       0.007
   0.13320703  0.08880469  0.04440234       0.007
   0.10360547  0.10360547  0.04440234       0.003
   0.11840625  0.10360547  0.04440234       0.007
   0.13320703  0.10360547  0.04440234       0.007
   0.11840625  0.11840625  0.04440234       0.003
   0.13320703  0.11840625  0.04440234       0.007
   0.13320703  0.13320703  0.04440234       0.003
   0.05920313  0.05920313  0.05920313       0.001
   0.07400391  0.05920313  0.05920313       0.003
   0.08880469  0.05920313  0.05920313       0.003
   0.10360547  0.05920313  0.05920313       0.003
   0.11840625  0.05920313  0.05920313       0.003
   0.13320703  0.05920313  0.05920313       0.003
   0.07400391  0.07400391  0.05920313       0.003
   0.08880469  0.07400391  0.05920313       0.007
   0.10360547  0.07400391  0.05920313       0.007
   0.11840625  0.07400391  0.05920313       0.007
   0.13320703  0.07400391  0.05920313       0.007
   0.08880469  0.08880469  0.05920313       0.003
   0.10360547  0.08880469  0.05920313       0.007
   0.11840625  0.08880469  0.05920313       0.007
   0.13320703  0.08880469  0.05920313       0.007
   0.10360547  0.10360547  0.05920313       0.003
   0.11840625  0.10360547  0.05920313       0.007
   0.13320703  0.10360547  0.05920313       0.007
   0.11840625  0.11840625  0.05920313       0.003
   0.13320703  0.11840625  0.05920313       0.007
   0.13320703  0.13320703  0.05920313       0.003
   0.07400391  0.07400391  0.07400391       0.001
   0.08880469  0.07400391  0.07400391       0.003
   0.10360547  0.07400391  0.07400391       0.003
   0.11840625  0.07400391  0.07400391       0.003
   0.13320703  0.07400391  0.07400391       0.003
   0.08880469  0.08880469  0.07400391       0.003
   0.10360547  0.08880469  0.07400391       0.007
   0.11840625  0.08880469  0.07400391       0.007
   0.13320703  0.08880469  0.07400391       0.007
   0.10360547  0.10360547  0.07400391       0.003
   0.11840625  0.10360547  0.07400391       0.007
   0.13320703  0.10360547  0.07400391       0.007
   0.11840625  0.11840625  0.07400391       0.003
   0.13320703  0.11840625  0.07400391       0.007
   0.13320703  0.13320703  0.07400391       0.003
   0.08880469  0.08880469  0.08880469       0.001
   0.10360547  0.08880469  0.08880469       0.003
   0.11840625  0.08880469  0.08880469       0.003
   0.13320703  0.08880469  0.08880469       0.003
   0.10360547  0.10360547  0.08880469       0.003
   0.11840625  0.10360547  0.08880469       0.007
   0.13320703  0.10360547  0.08880469       0.007
   0.11840625  0.11840625  0.08880469       0.003
   0.13320703  0.11840625  0.08880469       0.007
   0.13320703  0.13320703  0.08880469       0.003
   0.10360547  0.10360547  0.10360547       0.001
   0.11840625  0.10360547  0.10360547       0.003
   0.13320703  0.10360547  0.10360547       0.003
   0.11840625  0.11840625  0.10360547       0.003
   0.13320703  0.11840625  0.10360547       0.007
   0.13320703  0.13320703  0.10360547       0.003
   0.11840625  0.11840625  0.11840625       0.001
   0.13320703  0.11840625  0.11840625       0.003
   0.13320703  0.13320703  0.11840625       0.003
   0.13320703  0.13320703  0.13320703       0.001
 
 k-points in reciprocal lattice and weights: HECN                                    
   0.00000000  0.00000000  0.00000000       0.000
   0.05263158  0.00000000  0.00000000       0.001
   0.10526316  0.00000000  0.00000000       0.001
   0.15789474  0.00000000  0.00000000       0.001
   0.21052632  0.00000000  0.00000000       0.001
   0.26315789  0.00000000  0.00000000       0.001
   0.31578947  0.00000000  0.00000000       0.001
   0.36842105  0.00000000  0.00000000       0.001
   0.42105263  0.00000000  0.00000000       0.001
   0.47368421  0.00000000  0.00000000       0.001
   0.05263158  0.05263158  0.00000000       0.002
   0.10526316  0.05263158  0.00000000       0.003
   0.15789474  0.05263158  0.00000000       0.003
   0.21052632  0.05263158  0.00000000       0.003
   0.26315789  0.05263158  0.00000000       0.003
   0.31578947  0.05263158  0.00000000       0.003
   0.36842105  0.05263158  0.00000000       0.003
   0.42105263  0.05263158  0.00000000       0.003
   0.47368421  0.05263158  0.00000000       0.003
   0.10526316  0.10526316  0.00000000       0.002
   0.15789474  0.10526316  0.00000000       0.003
   0.21052632  0.10526316  0.00000000       0.003
   0.26315789  0.10526316  0.00000000       0.003
   0.31578947  0.10526316  0.00000000       0.003
   0.36842105  0.10526316  0.00000000       0.003
   0.42105263  0.10526316  0.00000000       0.003
   0.47368421  0.10526316  0.00000000       0.003
   0.15789474  0.15789474  0.00000000       0.002
   0.21052632  0.15789474  0.00000000       0.003
   0.26315789  0.15789474  0.00000000       0.003
   0.31578947  0.15789474  0.00000000       0.003
   0.36842105  0.15789474  0.00000000       0.003
   0.42105263  0.15789474  0.00000000       0.003
   0.47368421  0.15789474  0.00000000       0.003
   0.21052632  0.21052632  0.00000000       0.002
   0.26315789  0.21052632  0.00000000       0.003
   0.31578947  0.21052632  0.00000000       0.003
   0.36842105  0.21052632  0.00000000       0.003
   0.42105263  0.21052632  0.00000000       0.003
   0.47368421  0.21052632  0.00000000       0.003
   0.26315789  0.26315789  0.00000000       0.002
   0.31578947  0.26315789  0.00000000       0.003
   0.36842105  0.26315789  0.00000000       0.003
   0.42105263  0.26315789  0.00000000       0.003
   0.47368421  0.26315789  0.00000000       0.003
   0.31578947  0.31578947  0.00000000       0.002
   0.36842105  0.31578947  0.00000000       0.003
   0.42105263  0.31578947  0.00000000       0.003
   0.47368421  0.31578947  0.00000000       0.003
   0.36842105  0.36842105  0.00000000       0.002
   0.42105263  0.36842105  0.00000000       0.003
   0.47368421  0.36842105  0.00000000       0.003
   0.42105263  0.42105263  0.00000000       0.002
   0.47368421  0.42105263  0.00000000       0.003
   0.47368421  0.47368421  0.00000000       0.002
   0.05263158  0.05263158  0.05263158       0.001
   0.10526316  0.05263158  0.05263158       0.003
   0.15789474  0.05263158  0.05263158       0.003
   0.21052632  0.05263158  0.05263158       0.003
   0.26315789  0.05263158  0.05263158       0.003
   0.31578947  0.05263158  0.05263158       0.003
   0.36842105  0.05263158  0.05263158       0.003
   0.42105263  0.05263158  0.05263158       0.003
   0.47368421  0.05263158  0.05263158       0.003
   0.10526316  0.10526316  0.05263158       0.003
   0.15789474  0.10526316  0.05263158       0.007
   0.21052632  0.10526316  0.05263158       0.007
   0.26315789  0.10526316  0.05263158       0.007
   0.31578947  0.10526316  0.05263158       0.007
   0.36842105  0.10526316  0.05263158       0.007
   0.42105263  0.10526316  0.05263158       0.007
   0.47368421  0.10526316  0.05263158       0.007
   0.15789474  0.15789474  0.05263158       0.003
   0.21052632  0.15789474  0.05263158       0.007
   0.26315789  0.15789474  0.05263158       0.007
   0.31578947  0.15789474  0.05263158       0.007
   0.36842105  0.15789474  0.05263158       0.007
   0.42105263  0.15789474  0.05263158       0.007
   0.47368421  0.15789474  0.05263158       0.007
   0.21052632  0.21052632  0.05263158       0.003
   0.26315789  0.21052632  0.05263158       0.007
   0.31578947  0.21052632  0.05263158       0.007
   0.36842105  0.21052632  0.05263158       0.007
   0.42105263  0.21052632  0.05263158       0.007
   0.47368421  0.21052632  0.05263158       0.007
   0.26315789  0.26315789  0.05263158       0.003
   0.31578947  0.26315789  0.05263158       0.007
   0.36842105  0.26315789  0.05263158       0.007
   0.42105263  0.26315789  0.05263158       0.007
   0.47368421  0.26315789  0.05263158       0.007
   0.31578947  0.31578947  0.05263158       0.003
   0.36842105  0.31578947  0.05263158       0.007
   0.42105263  0.31578947  0.05263158       0.007
   0.47368421  0.31578947  0.05263158       0.007
   0.36842105  0.36842105  0.05263158       0.003
   0.42105263  0.36842105  0.05263158       0.007
   0.47368421  0.36842105  0.05263158       0.007
   0.42105263  0.42105263  0.05263158       0.003
   0.47368421  0.42105263  0.05263158       0.007
   0.47368421  0.47368421  0.05263158       0.003
   0.10526316  0.10526316  0.10526316       0.001
   0.15789474  0.10526316  0.10526316       0.003
   0.21052632  0.10526316  0.10526316       0.003
   0.26315789  0.10526316  0.10526316       0.003
   0.31578947  0.10526316  0.10526316       0.003
   0.36842105  0.10526316  0.10526316       0.003
   0.42105263  0.10526316  0.10526316       0.003
   0.47368421  0.10526316  0.10526316       0.003
   0.15789474  0.15789474  0.10526316       0.003
   0.21052632  0.15789474  0.10526316       0.007
   0.26315789  0.15789474  0.10526316       0.007
   0.31578947  0.15789474  0.10526316       0.007
   0.36842105  0.15789474  0.10526316       0.007
   0.42105263  0.15789474  0.10526316       0.007
   0.47368421  0.15789474  0.10526316       0.007
   0.21052632  0.21052632  0.10526316       0.003
   0.26315789  0.21052632  0.10526316       0.007
   0.31578947  0.21052632  0.10526316       0.007
   0.36842105  0.21052632  0.10526316       0.007
   0.42105263  0.21052632  0.10526316       0.007
   0.47368421  0.21052632  0.10526316       0.007
   0.26315789  0.26315789  0.10526316       0.003
   0.31578947  0.26315789  0.10526316       0.007
   0.36842105  0.26315789  0.10526316       0.007
   0.42105263  0.26315789  0.10526316       0.007
   0.47368421  0.26315789  0.10526316       0.007
   0.31578947  0.31578947  0.10526316       0.003
   0.36842105  0.31578947  0.10526316       0.007
   0.42105263  0.31578947  0.10526316       0.007
   0.47368421  0.31578947  0.10526316       0.007
   0.36842105  0.36842105  0.10526316       0.003
   0.42105263  0.36842105  0.10526316       0.007
   0.47368421  0.36842105  0.10526316       0.007
   0.42105263  0.42105263  0.10526316       0.003
   0.47368421  0.42105263  0.10526316       0.007
   0.47368421  0.47368421  0.10526316       0.003
   0.15789474  0.15789474  0.15789474       0.001
   0.21052632  0.15789474  0.15789474       0.003
   0.26315789  0.15789474  0.15789474       0.003
   0.31578947  0.15789474  0.15789474       0.003
   0.36842105  0.15789474  0.15789474       0.003
   0.42105263  0.15789474  0.15789474       0.003
   0.47368421  0.15789474  0.15789474       0.003
   0.21052632  0.21052632  0.15789474       0.003
   0.26315789  0.21052632  0.15789474       0.007
   0.31578947  0.21052632  0.15789474       0.007
   0.36842105  0.21052632  0.15789474       0.007
   0.42105263  0.21052632  0.15789474       0.007
   0.47368421  0.21052632  0.15789474       0.007
   0.26315789  0.26315789  0.15789474       0.003
   0.31578947  0.26315789  0.15789474       0.007
   0.36842105  0.26315789  0.15789474       0.007
   0.42105263  0.26315789  0.15789474       0.007
   0.47368421  0.26315789  0.15789474       0.007
   0.31578947  0.31578947  0.15789474       0.003
   0.36842105  0.31578947  0.15789474       0.007
   0.42105263  0.31578947  0.15789474       0.007
   0.47368421  0.31578947  0.15789474       0.007
   0.36842105  0.36842105  0.15789474       0.003
   0.42105263  0.36842105  0.15789474       0.007
   0.47368421  0.36842105  0.15789474       0.007
   0.42105263  0.42105263  0.15789474       0.003
   0.47368421  0.42105263  0.15789474       0.007
   0.47368421  0.47368421  0.15789474       0.003
   0.21052632  0.21052632  0.21052632       0.001
   0.26315789  0.21052632  0.21052632       0.003
   0.31578947  0.21052632  0.21052632       0.003
   0.36842105  0.21052632  0.21052632       0.003
   0.42105263  0.21052632  0.21052632       0.003
   0.47368421  0.21052632  0.21052632       0.003
   0.26315789  0.26315789  0.21052632       0.003
   0.31578947  0.26315789  0.21052632       0.007
   0.36842105  0.26315789  0.21052632       0.007
   0.42105263  0.26315789  0.21052632       0.007
   0.47368421  0.26315789  0.21052632       0.007
   0.31578947  0.31578947  0.21052632       0.003
   0.36842105  0.31578947  0.21052632       0.007
   0.42105263  0.31578947  0.21052632       0.007
   0.47368421  0.31578947  0.21052632       0.007
   0.36842105  0.36842105  0.21052632       0.003
   0.42105263  0.36842105  0.21052632       0.007
   0.47368421  0.36842105  0.21052632       0.007
   0.42105263  0.42105263  0.21052632       0.003
   0.47368421  0.42105263  0.21052632       0.007
   0.47368421  0.47368421  0.21052632       0.003
   0.26315789  0.26315789  0.26315789       0.001
   0.31578947  0.26315789  0.26315789       0.003
   0.36842105  0.26315789  0.26315789       0.003
   0.42105263  0.26315789  0.26315789       0.003
   0.47368421  0.26315789  0.26315789       0.003
   0.31578947  0.31578947  0.26315789       0.003
   0.36842105  0.31578947  0.26315789       0.007
   0.42105263  0.31578947  0.26315789       0.007
   0.47368421  0.31578947  0.26315789       0.007
   0.36842105  0.36842105  0.26315789       0.003
   0.42105263  0.36842105  0.26315789       0.007
   0.47368421  0.36842105  0.26315789       0.007
   0.42105263  0.42105263  0.26315789       0.003
   0.47368421  0.42105263  0.26315789       0.007
   0.47368421  0.47368421  0.26315789       0.003
   0.31578947  0.31578947  0.31578947       0.001
   0.36842105  0.31578947  0.31578947       0.003
   0.42105263  0.31578947  0.31578947       0.003
   0.47368421  0.31578947  0.31578947       0.003
   0.36842105  0.36842105  0.31578947       0.003
   0.42105263  0.36842105  0.31578947       0.007
   0.47368421  0.36842105  0.31578947       0.007
   0.42105263  0.42105263  0.31578947       0.003
   0.47368421  0.42105263  0.31578947       0.007
   0.47368421  0.47368421  0.31578947       0.003
   0.36842105  0.36842105  0.36842105       0.001
   0.42105263  0.36842105  0.36842105       0.003
   0.47368421  0.36842105  0.36842105       0.003
   0.42105263  0.42105263  0.36842105       0.003
   0.47368421  0.42105263  0.36842105       0.007
   0.47368421  0.47368421  0.36842105       0.003
   0.42105263  0.42105263  0.42105263       0.001
   0.47368421  0.42105263  0.42105263       0.003
   0.47368421  0.47368421  0.42105263       0.003
   0.47368421  0.47368421  0.47368421       0.001
 
 position of ions in fractional coordinates (direct lattice) 
   0.00000000  0.00000000  0.00000000
   0.00000000  0.50000000  0.50000000
   0.50000000  0.50000000  0.00000000
   0.50000000  0.00000000  0.50000000
   0.75000000  0.25000000  0.75000000
   0.25000000  0.25000000  0.25000000
   0.25000000  0.75000000  0.75000000
   0.75000000  0.75000000  0.25000000
 
 position of ions in cartesian coordinates  (Angst):
   0.00000000  0.00000000  0.00000000
   0.00000000  1.77800000  1.77800000
   1.77800000  1.77800000  0.00000000
   1.77800000  0.00000000  1.77800000
   2.66700000  0.88900000  2.66700000
   0.88900000  0.88900000  0.88900000
   0.88900000  2.66700000  2.66700000
   2.66700000  2.66700000  0.88900000
 


--------------------------------------------------------------------------------------------------------


 k-point     1 :   0.0000 0.0000 0.0000  plane waves:     799
 k-point     2 :   0.0526 0.0000 0.0000  plane waves:     807
 k-point     3 :   0.1053 0.0000 0.0000  plane waves:     807
 k-point     4 :   0.1579 0.0000 0.0000  plane waves:     807
 k-point     5 :   0.2105 0.0000 0.0000  plane waves:     804
 k-point     6 :   0.2632 0.0000 0.0000  plane waves:     812
 k-point     7 :   0.3158 0.0000 0.0000  plane waves:     820
 k-point     8 :   0.3684 0.0000 0.0000  plane waves:     812
 k-point     9 :   0.4211 0.0000 0.0000  plane waves:     816
 k-point    10 :   0.4737 0.0000 0.0000  plane waves:     820
 k-point    11 :   0.0526 0.0526 0.0000  plane waves:     805
 k-point    12 :   0.1053 0.0526 0.0000  plane waves:     800
 k-point    13 :   0.1579 0.0526 0.0000  plane waves:     810
 k-point    14 :   0.2105 0.0526 0.0000  plane waves:     809
 k-point    15 :   0.2632 0.0526 0.0000  plane waves:     814
 k-point    16 :   0.3158 0.0526 0.0000  plane waves:     818
 k-point    17 :   0.3684 0.0526 0.0000  plane waves:     820
 k-point    18 :   0.4211 0.0526 0.0000  plane waves:     818
 k-point    19 :   0.4737 0.0526 0.0000  plane waves:     816
 k-point    20 :   0.1053 0.1053 0.0000  plane waves:     800
 k-point    21 :   0.1579 0.1053 0.0000  plane waves:     807
 k-point    22 :   0.2105 0.1053 0.0000  plane waves:     816
 k-point    23 :   0.2632 0.1053 0.0000  plane waves:     819
 k-point    24 :   0.3158 0.1053 0.0000  plane waves:     822
 k-point    25 :   0.3684 0.1053 0.0000  plane waves:     824
 k-point    26 :   0.4211 0.1053 0.0000  plane waves:     823
 k-point    27 :   0.4737 0.1053 0.0000  plane waves:     825
 k-point    28 :   0.1579 0.1579 0.0000  plane waves:     806
 k-point    29 :   0.2105 0.1579 0.0000  plane waves:     810
 k-point    30 :   0.2632 0.1579 0.0000  plane waves:     819
 k-point    31 :   0.3158 0.1579 0.0000  plane waves:     823
 k-point    32 :   0.3684 0.1579 0.0000  plane waves:     826
 k-point    33 :   0.4211 0.1579 0.0000  plane waves:     829
 k-point    34 :   0.4737 0.1579 0.0000  plane waves:     821
 k-point    35 :   0.2105 0.2105 0.0000  plane waves:     816
 k-point    36 :   0.2632 0.2105 0.0000  plane waves:     819
 k-point    37 :   0.3158 0.2105 0.0000  plane waves:     816
 k-point    38 :   0.3684 0.2105 0.0000  plane waves:     817
 k-point    39 :   0.4211 0.2105 0.0000  plane waves:     820
 k-point    40 :   0.4737 0.2105 0.0000  plane waves:     817
 k-point    41 :   0.2632 0.2632 0.0000  plane waves:     818
 k-point    42 :   0.3158 0.2632 0.0000  plane waves:     820
 k-point    43 :   0.3684 0.2632 0.0000  plane waves:     825
 k-point    44 :   0.4211 0.2632 0.0000  plane waves:     815
 k-point    45 :   0.4737 0.2632 0.0000  plane waves:     816
 k-point    46 :   0.3158 0.3158 0.0000  plane waves:     822
 k-point    47 :   0.3684 0.3158 0.0000  plane waves:     821
 k-point    48 :   0.4211 0.3158 0.0000  plane waves:     816
 k-point    49 :   0.4737 0.3158 0.0000  plane waves:     817
 k-point    50 :   0.3684 0.3684 0.0000  plane waves:     822
 k-point    51 :   0.4211 0.3684 0.0000  plane waves:     819
 k-point    52 :   0.4737 0.3684 0.0000  plane waves:     816
 k-point    53 :   0.4211 0.4211 0.0000  plane waves:     820
 k-point    54 :   0.4737 0.4211 0.0000  plane waves:     818
 k-point    55 :   0.4737 0.4737 0.0000  plane waves:     822
 k-point    56 :   0.0526 0.0526 0.0526  plane waves:     805
 k-point    57 :   0.1053 0.0526 0.0526  plane waves:     804
 k-point    58 :   0.1579 0.0526 0.0526  plane waves:     806
 k-point    59 :   0.2105 0.0526 0.0526  plane waves:     815
 k-point    60 :   0.2632 0.0526 0.0526  plane waves:     813
 k-point    61 :   0.3158 0.0526 0.0526  plane waves:     815
 k-point    62 :   0.3684 0.0526 0.0526  plane waves:     818
 k-point    63 :   0.4211 0.0526 0.0526  plane waves:     823
 k-point    64 :   0.4737 0.0526 0.0526  plane waves:     824
 k-point    65 :   0.1053 0.1053 0.0526  plane waves:     809
 k-point    66 :   0.1579 0.1053 0.0526  plane waves:     808
 k-point    67 :   0.2105 0.1053 0.0526  plane waves:     813
 k-point    68 :   0.2632 0.1053 0.0526  plane waves:     816
 k-point    69 :   0.3158 0.1053 0.0526  plane waves:     822
 k-point    70 :   0.3684 0.1053 0.0526  plane waves:     820
 k-point    71 :   0.4211 0.1053 0.0526  plane waves:     825
 k-point    72 :   0.4737 0.1053 0.0526  plane waves:     824
 k-point    73 :   0.1579 0.1579 0.0526  plane waves:     809
 k-point    74 :   0.2105 0.1579 0.0526  plane waves:     814
 k-point    75 :   0.2632 0.1579 0.0526  plane waves:     815
 k-point    76 :   0.3158 0.1579 0.0526  plane waves:     817
 k-point    77 :   0.3684 0.1579 0.0526  plane waves:     823
 k-point    78 :   0.4211 0.1579 0.0526  plane waves:     821
 k-point    79 :   0.4737 0.1579 0.0526  plane waves:     820
 k-point    80 :   0.2105 0.2105 0.0526  plane waves:     814
 k-point    81 :   0.2632 0.2105 0.0526  plane waves:     815
 k-point    82 :   0.3158 0.2105 0.0526  plane waves:     819
 k-point    83 :   0.3684 0.2105 0.0526  plane waves:     819
 k-point    84 :   0.4211 0.2105 0.0526  plane waves:     815
 k-point    85 :   0.4737 0.2105 0.0526  plane waves:     819
 k-point    86 :   0.2632 0.2632 0.0526  plane waves:     816
 k-point    87 :   0.3158 0.2632 0.0526  plane waves:     818
 k-point    88 :   0.3684 0.2632 0.0526  plane waves:     819
 k-point    89 :   0.4211 0.2632 0.0526  plane waves:     818
 k-point    90 :   0.4737 0.2632 0.0526  plane waves:     815
 k-point    91 :   0.3158 0.3158 0.0526  plane waves:     820
 k-point    92 :   0.3684 0.3158 0.0526  plane waves:     824
 k-point    93 :   0.4211 0.3158 0.0526  plane waves:     816
 k-point    94 :   0.4737 0.3158 0.0526  plane waves:     815
 k-point    95 :   0.3684 0.3684 0.0526  plane waves:     822
 k-point    96 :   0.4211 0.3684 0.0526  plane waves:     817
 k-point    97 :   0.4737 0.3684 0.0526  plane waves:     819
 k-point    98 :   0.4211 0.4211 0.0526  plane waves:     820
 k-point    99 :   0.4737 0.4211 0.0526  plane waves:     819
 k-point   100 :   0.4737 0.4737 0.0526  plane waves:     817
 k-point   101 :   0.1053 0.1053 0.1053  plane waves:     817
 k-point   102 :   0.1579 0.1053 0.1053  plane waves:     811
 k-point   103 :   0.2105 0.1053 0.1053  plane waves:     809
 k-point   104 :   0.2632 0.1053 0.1053  plane waves:     818
 k-point   105 :   0.3158 0.1053 0.1053  plane waves:     814
 k-point   106 :   0.3684 0.1053 0.1053  plane waves:     815
 k-point   107 :   0.4211 0.1053 0.1053  plane waves:     818
 k-point   108 :   0.4737 0.1053 0.1053  plane waves:     816
 k-point   109 :   0.1579 0.1579 0.1053  plane waves:     814
 k-point   110 :   0.2105 0.1579 0.1053  plane waves:     815
 k-point   111 :   0.2632 0.1579 0.1053  plane waves:     813
 k-point   112 :   0.3158 0.1579 0.1053  plane waves:     817
 k-point   113 :   0.3684 0.1579 0.1053  plane waves:     818
 k-point   114 :   0.4211 0.1579 0.1053  plane waves:     816
 k-point   115 :   0.4737 0.1579 0.1053  plane waves:     819
 k-point   116 :   0.2105 0.2105 0.1053  plane waves:     816
 k-point   117 :   0.2632 0.2105 0.1053  plane waves:     818
 k-point   118 :   0.3158 0.2105 0.1053  plane waves:     816
 k-point   119 :   0.3684 0.2105 0.1053  plane waves:     820
 k-point   120 :   0.4211 0.2105 0.1053  plane waves:     815
 k-point   121 :   0.4737 0.2105 0.1053  plane waves:     815
 k-point   122 :   0.2632 0.2632 0.1053  plane waves:     816
 k-point   123 :   0.3158 0.2632 0.1053  plane waves:     815
 k-point   124 :   0.3684 0.2632 0.1053  plane waves:     818
 k-point   125 :   0.4211 0.2632 0.1053  plane waves:     818
 k-point   126 :   0.4737 0.2632 0.1053  plane waves:     816
 k-point   127 :   0.3158 0.3158 0.1053  plane waves:     818
 k-point   128 :   0.3684 0.3158 0.1053  plane waves:     817
 k-point   129 :   0.4211 0.3158 0.1053  plane waves:     815
 k-point   130 :   0.4737 0.3158 0.1053  plane waves:     815
 k-point   131 :   0.3684 0.3684 0.1053  plane waves:     822
 k-point   132 :   0.4211 0.3684 0.1053  plane waves:     820
 k-point   133 :   0.4737 0.3684 0.1053  plane waves:     817
 k-point   134 :   0.4211 0.4211 0.1053  plane waves:     818
 k-point   135 :   0.4737 0.4211 0.1053  plane waves:     820
 k-point   136 :   0.4737 0.4737 0.1053  plane waves:     818
 k-point   137 :   0.1579 0.1579 0.1579  plane waves:     820
 k-point   138 :   0.2105 0.1579 0.1579  plane waves:     817
 k-point   139 :   0.2632 0.1579 0.1579  plane waves:     813
 k-point   140 :   0.3158 0.1579 0.1579  plane waves:     818
 k-point   141 :   0.3684 0.1579 0.1579  plane waves:     815
 k-point   142 :   0.4211 0.1579 0.1579  plane waves:     813
 k-point   143 :   0.4737 0.1579 0.1579  plane waves:     812
 k-point   144 :   0.2105 0.2105 0.1579  plane waves:     819
 k-point   145 :   0.2632 0.2105 0.1579  plane waves:     820
 k-point   146 :   0.3158 0.2105 0.1579  plane waves:     818
 k-point   147 :   0.3684 0.2105 0.1579  plane waves:     813
 k-point   148 :   0.4211 0.2105 0.1579  plane waves:     812
 k-point   149 :   0.4737 0.2105 0.1579  plane waves:     811
 k-point   150 :   0.2632 0.2632 0.1579  plane waves:     818
 k-point   151 :   0.3158 0.2632 0.1579  plane waves:     817
 k-point   152 :   0.3684 0.2632 0.1579  plane waves:     817
 k-point   153 :   0.4211 0.2632 0.1579  plane waves:     814
 k-point   154 :   0.4737 0.2632 0.1579  plane waves:     814
 k-point   155 :   0.3158 0.3158 0.1579  plane waves:     810
 k-point   156 :   0.3684 0.3158 0.1579  plane waves:     816
 k-point   157 :   0.4211 0.3158 0.1579  plane waves:     813
 k-point   158 :   0.4737 0.3158 0.1579  plane waves:     815
 k-point   159 :   0.3684 0.3684 0.1579  plane waves:     818
 k-point   160 :   0.4211 0.3684 0.1579  plane waves:     814
 k-point   161 :   0.4737 0.3684 0.1579  plane waves:     814
 k-point   162 :   0.4211 0.4211 0.1579  plane waves:     820
 k-point   163 :   0.4737 0.4211 0.1579  plane waves:     821
 k-point   164 :   0.4737 0.4737 0.1579  plane waves:     824
 k-point   165 :   0.2105 0.2105 0.2105  plane waves:     826
 k-point   166 :   0.2632 0.2105 0.2105  plane waves:     815
 k-point   167 :   0.3158 0.2105 0.2105  plane waves:     816
 k-point   168 :   0.3684 0.2105 0.2105  plane waves:     812
 k-point   169 :   0.4211 0.2105 0.2105  plane waves:     807
 k-point   170 :   0.4737 0.2105 0.2105  plane waves:     812
 k-point   171 :   0.2632 0.2632 0.2105  plane waves:     823
 k-point   172 :   0.3158 0.2632 0.2105  plane waves:     814
 k-point   173 :   0.3684 0.2632 0.2105  plane waves:     813
 k-point   174 :   0.4211 0.2632 0.2105  plane waves:     813
 k-point   175 :   0.4737 0.2632 0.2105  plane waves:     811
 k-point   176 :   0.3158 0.3158 0.2105  plane waves:     816
 k-point   177 :   0.3684 0.3158 0.2105  plane waves:     815
 k-point   178 :   0.4211 0.3158 0.2105  plane waves:     814
 k-point   179 :   0.4737 0.3158 0.2105  plane waves:     809
 k-point   180 :   0.3684 0.3684 0.2105  plane waves:     812
 k-point   181 :   0.4211 0.3684 0.2105  plane waves:     815
 k-point   182 :   0.4737 0.3684 0.2105  plane waves:     813
 k-point   183 :   0.4211 0.4211 0.2105  plane waves:     814
 k-point   184 :   0.4737 0.4211 0.2105  plane waves:     821
 k-point   185 :   0.4737 0.4737 0.2105  plane waves:     824
 k-point   186 :   0.2632 0.2632 0.2632  plane waves:     817
 k-point   187 :   0.3158 0.2632 0.2632  plane waves:     824
 k-point   188 :   0.3684 0.2632 0.2632  plane waves:     819
 k-point   189 :   0.4211 0.2632 0.2632  plane waves:     816
 k-point   190 :   0.4737 0.2632 0.2632  plane waves:     814
 k-point   191 :   0.3158 0.3158 0.2632  plane waves:     820
 k-point   192 :   0.3684 0.3158 0.2632  plane waves:     818
 k-point   193 :   0.4211 0.3158 0.2632  plane waves:     815
 k-point   194 :   0.4737 0.3158 0.2632  plane waves:     815
 k-point   195 :   0.3684 0.3684 0.2632  plane waves:     815
 k-point   196 :   0.4211 0.3684 0.2632  plane waves:     812
 k-point   197 :   0.4737 0.3684 0.2632  plane waves:     820
 k-point   198 :   0.4211 0.4211 0.2632  plane waves:     814
 k-point   199 :   0.4737 0.4211 0.2632  plane waves:     822
 k-point   200 :   0.4737 0.4737 0.2632  plane waves:     822
 k-point   201 :   0.3158 0.3158 0.3158  plane waves:     814
 k-point   202 :   0.3684 0.3158 0.3158  plane waves:     816
 k-point   203 :   0.4211 0.3158 0.3158  plane waves:     818
 k-point   204 :   0.4737 0.3158 0.3158  plane waves:     817
 k-point   205 :   0.3684 0.3684 0.3158  plane waves:     815
 k-point   206 :   0.4211 0.3684 0.3158  plane waves:     819
 k-point   207 :   0.4737 0.3684 0.3158  plane waves:     816
 k-point   208 :   0.4211 0.4211 0.3158  plane waves:     820
 k-point   209 :   0.4737 0.4211 0.3158  plane waves:     823
 k-point   210 :   0.4737 0.4737 0.3158  plane waves:     822
 k-point   211 :   0.3684 0.3684 0.3684  plane waves:     816
 k-point   212 :   0.4211 0.3684 0.3684  plane waves:     820
 k-point   213 :   0.4737 0.3684 0.3684  plane waves:     816
 k-point   214 :   0.4211 0.4211 0.3684  plane waves:     820
 k-point   215 :   0.4737 0.4211 0.3684  plane waves:     824
 k-point   216 :   0.4737 0.4737 0.3684  plane waves:     824
 k-point   217 :   0.4211 0.4211 0.4211  plane waves:     822
 k-point   218 :   0.4737 0.4211 0.4211  plane waves:     823
 k-point   219 :   0.4737 0.4737 0.4211  plane waves:     833
 k-point   220 :   0.4737 0.4737 0.4737  plane waves:     840

 maximum and minimum number of plane-waves per node :       840      799

 maximum number of plane-waves:       840
 maximum index in each direction: 
   IXMAX=    5   IYMAX=    5   IZMAX=    5
   IXMIN=   -6   IYMIN=   -6   IZMIN=   -6


 serial   3D FFT for wavefunctions
 parallel 3D FFT for charge:
    minimum data exchange during FFTs selected (reduces bandwidth)


 total amount of memory used by VASP MPI-rank0    45688. kBytes
=======================================================================

   base      :      30000. kBytes
   nonl-proj :      11934. kBytes
   fftplans  :        111. kBytes
   grid      :        367. kBytes
   one-center:         24. kBytes
   wavefun   :       3252. kBytes
 
     INWAV:  cpu time      0.0000: real time      0.0000
 Broyden mixing: mesh for mixing (old mesh)
   NGX = 11   NGY = 11   NGZ = 11
  (NGX  = 36   NGY  = 36   NGZ  = 36)
  gives a total of   1331 points

 initial charge density was supplied:
 charge density of overlapping atoms calculated
 number of electron      32.0000000 magnetization 
 keeping initial charge density in first step


--------------------------------------------------------------------------------------------------------


 Maximum index for augmentation-charges          161 (set IRDMAX)


--------------------------------------------------------------------------------------------------------


 First call to EWALD:  gamma=   0.498
 Maximum number of real-space cells 3x 3x 3
 Maximum number of reciprocal cells 3x 3x 3

    FEWALD:  cpu time      0.0012: real time      0.0015


--------------------------------------- Ionic step        1  -------------------------------------------




--------------------------------------- Iteration      1(   1)  ---------------------------------------


    POTLOK:  cpu time      0.0069: real time      0.0359
    SETDIJ:  cpu time      0.0034: real time      0.0064
     EDDAV:  cpu time      1.3230: real time      1.3425
       DOS:  cpu time      0.0014: real time      0.0043
    --------------------------------------------
      LOOP:  cpu time      1.3348: real time      1.3891

 eigenvalue-minimisations  : 12460
 total energy-change (2. order) :-0.5613618E+01  (-0.1672395E+04)
 number of electron      32.0000000 magnetization 
 augmentation part       32.0000000 magnetization 

 Free energy of the ion-electron system (eV)
  ---------------------------------------------------
  alpha Z        PSCENC =       115.97025541
  Ewald energy   TEWEN  =     -1396.06297741
  -Hartree energ DENC   =       -69.66204992
  -exchange      EXHF   =         0.00000000
  -V(xc)+E(xc)   XCENC  =       114.61599261
  PAW double counting   =       302.65154477     -311.85538214
  entropy T*S    EENTRO =        -0.00001403
  eigenvalues    EBANDS =        61.71122132
  atomic energy  EATOM  =      1177.01779097
  Solvation  Ediel_sol  =         0.00000000
  ---------------------------------------------------
  free energy    TOTEN  =        -5.61361841 eV

  energy without entropy =       -5.61360439  energy(sigma->0) =       -5.61361140


--------------------------------------------------------------------------------------------------------




[...]
     28      20.1556      0.00000

 k-point   210 :       0.4737    0.4737    0.3158
  band No.  band energies     occupation 
      1      -6.8803      2.00000
      2      -6.4794      2.00000
      3      -6.4794      2.00000
      4      -6.1186      2.00000
      5      -2.8247      2.00000
      6      -2.4727      2.00000
      7      -2.4727      2.00000
      8      -2.0829      2.00000
      9       5.7288      2.00000
     10       5.9550      2.00000
     11       5.9550      2.00000
     12       6.2192      2.00000
     13       6.7773      2.00000
     14       6.8927      2.00000
     15       6.8927      2.00000
     16       7.0997      2.00000
     17      18.0152      0.00000
     18      18.1993      0.00000
     19      18.1993      0.00000
     20      18.3039      0.00000
     21      18.5147      0.00000
     22      18.6400      0.00000
     23      18.6400      0.00000
     24      18.9657      0.00000
     25      19.2356      0.00000
     26      19.6025      0.00000
     27      19.6025      0.00000
     28      19.7287      0.00000

 k-point   211 :       0.3684    0.3684    0.3684
  band No.  band energies     occupation 
      1      -8.0503      2.00000
      2      -5.9769      2.00000
      3      -5.9769      2.00000
      4      -5.9769      2.00000
      5      -2.6974      2.00000
      6      -2.6974      2.00000
      7      -2.6974      2.00000
      8      -0.6882      2.00000
      9       5.5291      2.00000
     10       5.5291      2.00000
     11       5.5291      2.00000
     12       6.2154      2.00000
     13       6.2154      2.00000
     14       6.2154      2.00000
     15       7.3149      2.00000
     16       7.3149      2.00000
     17      17.3857      0.00000
     18      17.3857      0.00000
     19      17.3857      0.00000
     20      18.2218      0.00000
     21      18.2218      0.00000
     22      18.5444      0.00000
     23      19.8122      0.00000
     24      19.8122      0.00000
     25      19.8122      0.00000
     26      20.2985      0.00000
     27      20.2985      0.00000
     28      20.2985      0.00000

 k-point   212 :       0.4211    0.3684    0.3684
  band No.  band energies     occupation 
      1      -7.6970      2.00000
      2      -6.4309      2.00000
      3      -5.7795      2.00000
      4      -5.7795      2.00000
      5      -3.0686      2.00000
      6      -3.0686      2.00000
      7      -2.4333      2.00000
      8      -1.2046      2.00000
      9       5.6597      2.00000
     10       5.6597      2.00000
     11       6.1540      2.00000
     12       6.3647      2.00000
     13       6.3647      2.00000
     14       6.4244      2.00000
     15       7.0983      2.00000
     16       7.2746      2.00000
     17      17.5906      0.00000
     18      17.6650      0.00000
     19      17.6650      0.00000
     20      18.1052      0.00000
     21      18.4313      0.00000
     22      18.6543      0.00000
     23      19.3222      0.00000
     24      19.3222      0.00000
     25      19.3980      0.00000
     26      19.7466      0.00000
     27      20.1896      0.00000
     28      20.1896      0.00000

 k-point   213 :       0.4737    0.3684    0.3684
  band No.  band energies     occupation 
      1      -7.3048      2.00000
      2      -6.8794      2.00000
      3      -5.6544      2.00000
      4      -5.6544      2.00000
      5      -3.2811      2.00000
      6      -3.2811      2.00000
      7      -2.0857      2.00000
      8      -1.6729      2.00000
      9       5.7186      2.00000
     10       5.7186      2.00000
     11       6.4483      2.00000
     12       6.4483      2.00000
     13       6.6470      2.00000
     14       6.6734      2.00000
     15       6.8735      2.00000
     16       7.0571      2.00000
     17      17.7902      0.00000
     18      17.9619      0.00000
     19      18.0079      0.00000
     20      18.0079      0.00000
     21      18.7016      0.00000
     22      18.8240      0.00000
     23      18.8240      0.00000
     24      18.9007      0.00000
     25      19.0262      0.00000
     26      19.2724      0.00000
     27      20.1846      0.00000
     28      20.1846      0.00000

 k-point   214 :       0.4211    0.4211    0.3684
  band No.  band energies     occupation 
      1      -7.3530      2.00000
      2      -6.1634      2.00000
      3      -6.1634      2.00000
      4      -5.6995      2.00000
      5      -3.3277      2.00000
      6      -2.8728      2.00000
      7      -2.8728      2.00000
      8      -1.7147      2.00000
      9       5.8916      2.00000
     10       6.1939      2.00000
     11       6.1939      2.00000
     12       6.5489      2.00000
     13       6.5882      2.00000
     14       6.5882      2.00000
     15       6.9999      2.00000
     16       7.2438      2.00000
     17      17.7982      0.00000
     18      17.8482      0.00000
     19      17.8482      0.00000
     20      18.2211      0.00000
     21      18.3660      0.00000
     22      18.6812      0.00000
     23      18.9864      0.00000
     24      18.9864      0.00000
     25      19.1989      0.00000
     26      19.6596      0.00000
     27      19.6596      0.00000
     28      19.7641      0.00000

 k-point   215 :       0.4737    0.4211    0.3684
  band No.  band energies     occupation 
      1      -6.9750      2.00000
      2      -6.5727      2.00000
      3      -5.9176      2.00000
      4      -5.7452      2.00000
      5      -3.3734      2.00000
      6      -3.2039      2.00000
      7      -2.5633      2.00000
      8      -2.1712      2.00000
      9       6.0448      2.00000
     10       6.1429      2.00000
     11       6.5629      2.00000
     12       6.6687      2.00000
     13       6.6833      2.00000
     14       6.8077      2.00000
     15       6.8633      2.00000
     16       7.1166      2.00000
     17      18.0171      0.00000
     18      18.0299      0.00000
     19      18.1327      0.00000
     20      18.1544      0.00000
     21      18.5027      0.00000
     22      18.6331      0.00000
     23      18.7141      0.00000
     24      18.8196      0.00000
     25      18.8595      0.00000
     26      19.2019      0.00000
     27      19.6468      0.00000
     28      19.6531      0.00000

 k-point   216 :       0.4737    0.4737    0.3684
  band No.  band energies     occupation 
      1      -6.6200      2.00000
      2      -6.2569      2.00000
      3      -6.2569      2.00000
      4      -5.9637      2.00000
      5      -3.2495      2.00000
      6      -2.9621      2.00000
      7      -2.9621      2.00000
      8      -2.6067      2.00000
      9       6.2698      2.00000
     10       6.4348      2.00000
     11       6.4348      2.00000
     12       6.6467      2.00000
     13       6.8490      2.00000
     14       6.9245      2.00000
     15       6.9245      2.00000
     16       7.0868      2.00000
     17      18.1325      0.00000
     18      18.2376      0.00000
     19      18.2376      0.00000
     20      18.3395      0.00000
     21      18.3794      0.00000
     22      18.5119      0.00000
     23      18.5119      0.00000
     24      18.7127      0.00000
     25      18.9305      0.00000
     26      19.2006      0.00000
     27      19.2006      0.00000
     28      19.2980      0.00000

 k-point   217 :       0.4211    0.4211    0.4211
  band No.  band energies     occupation 
      1      -7.0227      2.00000
      2      -5.9630      2.00000
      3      -5.9630      2.00000
      4      -5.9630      2.00000
      5      -3.2511      2.00000
      6      -3.2511      2.00000
      7      -3.2511      2.00000
      8      -2.2146      2.00000
      9       6.4236      2.00000
     10       6.4236      2.00000
     11       6.4236      2.00000
     12       6.6962      2.00000
     13       6.6962      2.00000
     14       6.6962      2.00000
     15       7.1219      2.00000
     16       7.1219      2.00000
     17      17.9607      0.00000
     18      17.9607      0.00000
     19      17.9607      0.00000
     20      18.2881      0.00000
     21      18.2881      0.00000
     22      18.6556      0.00000
     23      18.8836      0.00000
     24      18.8836      0.00000
     25      18.8836      0.00000
     26      19.3119      0.00000
     27      19.3119      0.00000
     28      19.3119      0.00000

 k-point   218 :       0.4737    0.4211    0.4211
  band No.  band energies     occupation 
      1      -6.6670      2.00000
      2      -6.3031      2.00000
      3      -5.8357      2.00000
      4      -5.8357      2.00000
      5      -3.4673      2.00000
      6      -3.4673      2.00000
      7      -3.0080      2.00000
      8      -2.6517      2.00000
      9       6.4961      2.00000
     10       6.4961      2.00000
     11       6.7975      2.00000
     12       6.7975      2.00000
     13       6.8248      2.00000
     14       6.8439      2.00000
     15       6.9868      2.00000
     16       7.0625      2.00000
     17      18.0988      0.00000
     18      18.1513      0.00000
     19      18.1513      0.00000
     20      18.2038      0.00000
     21      18.4212      0.00000
     22      18.6019      0.00000
     23      18.6019      0.00000
     24      18.6210      0.00000
     25      18.7426      0.00000
     26      18.9645      0.00000
     27      19.2252      0.00000
     28      19.2252      0.00000

 k-point   219 :       0.4737    0.4737    0.4211
  band No.  band energies     occupation 
      1      -6.3497      2.00000
      2      -6.0550      2.00000
      3      -6.0550      2.00000
      4      -5.8811      2.00000
      5      -3.5144      2.00000
      6      -3.3433      2.00000
      7      -3.3433      2.00000
      8      -3.0537      2.00000
      9       6.6856      2.00000
     10       6.7788      2.00000
     11       6.7788      2.00000
     12       6.9157      2.00000
     13       6.9227      2.00000
     14       6.9494      2.00000
     15       6.9494      2.00000
     16       7.0621      2.00000
     17      18.2134      0.00000
     18      18.2426      0.00000
     19      18.2426      0.00000
     20      18.3049      0.00000
     21      18.3308      0.00000
     22      18.4441      0.00000
     23      18.4441      0.00000
     24      18.5062      0.00000
     25      18.7559      0.00000
     26      18.9112      0.00000
     27      18.9112      0.00000
     28      18.9714      0.00000

 k-point   220 :       0.4737    0.4737    0.4737
  band No.  band energies     occupation 
      1      -6.1009      2.00000
      2      -5.9265      2.00000
      3      -5.9265      2.00000
      4      -5.9265      2.00000
      5      -3.5617      2.00000
      6      -3.5617      2.00000
      7      -3.5617      2.00000
      8      -3.3900      2.00000
      9       6.9436      2.00000
     10       6.9436      2.00000
     11       6.9436      2.00000
     12       6.9754      2.00000
     13       6.9754      2.00000
     14       6.9754      2.00000
     15       7.0248      2.00000
     16       7.0248      2.00000
     17      18.2698      0.00000
     18      18.2698      0.00000
     19      18.2698      0.00000
     20      18.3002      0.00000
     21      18.3002      0.00000
     22      18.3681      0.00000
     23      18.3681      0.00000
     24      18.3681      0.00000
     25      18.7089      0.00000
     26      18.7745      0.00000
     27      18.7745      0.00000
     28      18.7745      0.00000


--------------------------------------------------------------------------------------------------------


 soft charge-density along one line, spin component           1
         0         1         2         3         4         5         6         7         8         9
 total charge-density along one line
 
 pseudopotential strength for first ion, spin component:           1
  9.435  -0.005  -0.000  -0.000   0.000   0.000   0.000   0.000
 -0.005  -0.002   0.000   0.000   0.000   0.000   0.000  -0.000
 -0.000   0.000  -3.656   0.000  -0.000  -0.009   0.000  -0.000
 -0.000   0.000   0.000  -3.656  -0.000   0.000  -0.009  -0.000
  0.000   0.000  -0.000  -0.000  -3.656  -0.000  -0.000  -0.009
  0.000   0.000  -0.009   0.000  -0.000  -0.757   0.000  -0.000
  0.000   0.000   0.000  -0.009  -0.000   0.000  -0.757  -0.000
  0.000  -0.000  -0.000  -0.000  -0.009  -0.000  -0.000  -0.757
 total augmentation occupancy for first ion, spin component:           1
  1.424  -1.043  -0.000  -0.000  -0.000   0.000  -0.000   0.000
 -1.043   1.045  -0.000   0.000   0.000  -0.000  -0.000   0.000
  0.000  -0.000   1.102   0.000  -0.000   0.186   0.000  -0.000
  0.000   0.000  -0.000   1.102  -0.000   0.000   0.186   0.000
 -0.000   0.000  -0.000  -0.000   1.102  -0.000   0.000   0.186
  0.000  -0.000   0.186   0.000  -0.000   0.037  -0.000   0.000
 -0.000  -0.000   0.000   0.186   0.000   0.000   0.037   0.000
 -0.000   0.000  -0.000   0.000   0.186  -0.000  -0.000   0.037


------------------------ aborting loop because EDIFF is reached ----------------------------------------


    CHARGE:  cpu time      0.0153: real time      0.0154
    FORLOC:  cpu time      0.0001: real time      0.0001
    FORNL :  cpu time      0.0600: real time      0.0603
    STRESS:  cpu time      0.3902: real time      0.3921
    FORHAR:  cpu time      0.0005: real time      0.0005
    MIXING:  cpu time      0.0002: real time      0.0002
    OFIELD:  cpu time      0.0000: real time      0.0000

  FORCE on cell =-STRESS in cart. coord.  units (eV):
  Direction    XX          YY          ZZ          XY          YZ          ZX
  --------------------------------------------------------------------------------------
  Alpha Z   115.39912   115.39912   115.39912
  Ewald    -464.58993  -464.58993  -464.58993    -0.00000    -0.00000    -0.00000
  Hartree    35.08147    35.08147    35.08147    -0.00000    -0.00000    -0.00000
  E(xc)    -119.82934  -119.82934  -119.82934     0.00000     0.00000     0.00000
  Local     -46.38999   -46.38999   -46.38999    -0.00000     0.00000    -0.00000
  n-local   -28.22641   -29.03396   -28.48719     0.69773     0.83126     0.41182
  augment    -2.86766    -2.86766    -2.86766    -0.00000     0.00000     0.00000
  Kinetic   500.47882   516.69500   518.16243    -4.88198    -6.69215    -3.45567
  Fock        0.00000     0.00000     0.00000     0.00000     0.00000     0.00000
  -------------------------------------------------------------------------------------
  Total      -0.00010    -0.00010    -0.00010     0.00000     0.00000     0.00000
  in kB      -0.00350    -0.00350    -0.00350     0.00000     0.00000     0.00000
  external pressure =       -0.00 kB  Pullay stress =        0.00 kB


 VOLUME and BASIS-vectors are now :
 -----------------------------------------------------------------------------
  energy-cutoff  :      400.00
  volume of cell :       45.19
      direct lattice vectors                 reciprocal lattice vectors
     3.561856807 -0.000000000  0.000000000     0.280752443  0.000000000 -0.000000000
    -0.000000000  3.561856807  0.000000000     0.000000000  0.280752443 -0.000000000
     0.000000000  0.000000000  3.561856807     0.000000000  0.000000000  0.280752443

  length of vectors
     3.561856807  3.561856807  3.561856807     0.280752443  0.280752443  0.280752443


 FORCES acting on ions
    electron-ion (+dipol)            ewald-force                    non-local-force                 convergence-correction
 -----------------------------------------------------------------------------------------------
   -.592E-13 -.478E-15 0.272E-13   0.355E-13 0.284E-13 0.142E-13   0.686E-17 -.103E-16 0.102E-16   0.940E-14 0.287E-16 -.667E-14
   -.593E-13 0.208E-13 0.492E-13   0.355E-13 0.284E-13 0.142E-13   -.801E-17 0.116E-16 0.128E-16   0.972E-14 -.599E-16 -.335E-14
   -.378E-13 0.237E-13 0.246E-13   0.355E-13 0.284E-13 0.142E-13   0.790E-17 0.659E-17 -.123E-17   0.536E-14 -.663E-15 -.729E-14
   -.378E-13 -.980E-16 0.129E-13   0.355E-13 0.284E-13 0.142E-13   0.195E-17 0.614E-17 0.102E-16   0.580E-14 0.191E-14 -.441E-14
   0.811E-13 0.496E-12 0.613E-13   -.364E-13 -.307E-13 -.144E-13   -.877E-17 0.139E-16 -.918E-17   0.672E-14 0.501E-15 -.147E-13
   0.753E-13 -.172E-12 0.287E-13   -.296E-13 -.307E-13 -.149E-13   0.479E-17 -.149E-16 -.131E-16   0.548E-14 0.205E-15 -.137E-13
   0.754E-13 -.151E-12 0.467E-13   -.286E-13 -.261E-13 -.133E-13   -.929E-17 -.142E-17 0.237E-17   0.388E-14 -.119E-14 -.141E-13
   0.810E-13 0.202E-12 0.358E-12   -.329E-13 -.261E-13 -.139E-13   0.264E-17 -.158E-16 -.184E-16   0.744E-14 -.391E-16 -.140E-13
 -----------------------------------------------------------------------------------------------
   0.119E-12 0.418E-12 0.609E-12   0.146E-13 0.151E-15 0.362E-15   -.193E-17 -.432E-17 -.637E-17   0.538E-13 0.694E-15 -.782E-13
 
 
 POSITION                                       TOTAL-FORCE (eV/Angst)
 -----------------------------------------------------------------------------------
      0.00000     -0.00000      0.00000         0.000000     -0.000000      0.000000
      0.00000      1.78093      1.78093         0.000000     -0.000000      0.000000
      1.78093      1.78093      0.00000         0.000000     -0.000000      0.000000
      1.78093     -0.00000      1.78093         0.000000     -0.000000      0.000000
      2.67139      0.89046      2.67139        -0.000000      0.000000     -0.000000
      0.89046      0.89046      0.89046        -0.000000      0.000000     -0.000000
      0.89046      2.67139      2.67139        -0.000000      0.000000     -0.000000
      2.67139      2.67139      0.89046        -0.000000     -0.000000     -0.000000
 -----------------------------------------------------------------------------------
    total drift:                                0.000000      0.000000      0.000000


--------------------------------------------------------------------------------------------------------



  FREE ENERGIE OF THE ION-ELECTRON SYSTEM (eV)
  ---------------------------------------------------
  free  energy   TOTEN  =       -72.74266886 eV

  energy  without entropy=      -72.74266886  energy(sigma->0) =      -72.74266886
 
 d Force = 0.1530034E-61[-0.125E-60, 0.155E-60]  d Energy = 0.3394681E-02-0.339E-02
 d Force =-0.2104522E-44[-0.240E-44,-0.181E-44]  d Ewald  = 0.3295477E+01-0.330E+01


--------------------------------------------------------------------------------------------------------


    POTLOK:  cpu time      0.0041: real time      0.0041


--------------------------------------------------------------------------------------------------------




--------------------------------------------------------------------------------------------------------


  
 reached required accuracy - stopping structural energy minimisation
     LOOP+:  cpu time      9.9434: real time     10.0900
    4ORBIT:  cpu time      0.0000: real time      0.0000

 total amount of memory used by VASP MPI-rank0    45688. kBytes
=======================================================================

   base      :      30000. kBytes
   nonl-proj :      11934. kBytes
   fftplans  :        111. kBytes
   grid      :        367. kBytes
   one-center:         24. kBytes
   wavefun   :       3252. kBytes
 
  
  
 General timing and accounting informations for this job:
 ========================================================
  
                  Total CPU time used (sec):       48.434
                            User time (sec):       47.523
                          System time (sec):        0.911
                         Elapsed time (sec):       51.199
  
                   Maximum memory used (kb):       84900.
                   Average memory used (kb):          N/A
  
                          Minor page faults:        25806
                          Major page faults:            2
                 Voluntary context switches:          989
