 running   28 mpi-ranks, on    1 nodes
 distrk:  each k-point on   28 cores,    1 groups
 distr:  one band on    1 cores,   28 groups
 vasp.6.4.3 19Mar24 (build Sep 18 2024 11:30:23) complex                        
  
 POSCAR found type information on POSCAR C 
 POSCAR found :  1 types and       8 ions
 Reading from existing POTCAR
 scaLAPACK will be used
 -----------------------------------------------------------------------------
|                                                                             |
|           W    W    AA    RRRRR   N    N  II  N    N   GGGG   !!!           |
|           W    W   A  A   R    R  NN   N  II  NN   N  G    G  !!!           |
|           W    W  A    A  R    R  N N  N  II  N N  N  G       !!!           |
|           W WW W  AAAAAA  RRRRR   N  N N  II  N  N N  G  GGG   !            |
|           WW  WW  A    A  R   R   N   NN  II  N   NN  G    G                |
|           W    W  A    A  R    R  N    N  II  N    N   GGGG   !!!           |
|                                                                             |
|     For optimal performance we recommend to set                             |
|       NCORE = 2 up to number-of-cores-per-socket                            |
|     NCORE specifies how many cores store one orbital (NPAR=cpu/NCORE).      |
|     This setting can greatly improve the performance of VASP for DFT.       |
|     The default, NCORE=1 might be grossly inefficient on modern             |
|     multi-core architectures or massively parallel machines. Do your        |
|     own testing! More info at https://www.vasp.at/wiki/index.php/NCORE      |
|     Unfortunately you need to use the default for GW and RPA                |
|     calculations (for HF NCORE is supported but not extensively tested      |
|     yet).                                                                   |
|                                                                             |
 -----------------------------------------------------------------------------

 Reading from existing POTCAR
 LDA part: xc-table for (Slater+PW92), standard interpolation
 POSCAR, INCAR and KPOINTS ok, starting setup
 FFT: planning ... GRIDC
 FFT: planning ... GRID_SOFT
 FFT: planning ... GRID
 WAVECAR not read
 entering main loop
       N       E                     dE             d eps       ncg     rms          rms(c)
DAV:   1    -0.561361841389E+01   -0.56136E+01   -0.16724E+04 12460   0.911E+02
DAV:   2    -0.749646273439E+02   -0.69351E+02   -0.68787E+02 19768   0.119E+02
DAV:   3    -0.753453318826E+02   -0.38070E+00   -0.38070E+00 12320   0.122E+01
DAV:   4    -0.753460456865E+02   -0.71380E-03   -0.71380E-03 23940   0.514E-01
DAV:   5    -0.753460457031E+02   -0.16554E-07   -0.16554E-07 12320   0.233E-03    0.961E+00
DAV:   6    -0.733939474842E+02    0.19521E+01   -0.14827E+00 13216   0.555E+00    0.525E+00
DAV:   7    -0.727351696512E+02    0.65878E+00   -0.16321E+00 16296   0.593E+00    0.699E-01
DAV:   8    -0.727408770168E+02   -0.57074E-02   -0.84017E-03 20664   0.580E-01    0.894E-02
DAV:   9    -0.727409865874E+02   -0.10957E-03   -0.48795E-04 15652   0.112E-01    0.239E-02
DAV:  10    -0.727410282104E+02   -0.41623E-04   -0.44205E-05 19908   0.445E-02    0.118E-03
DAV:  11    -0.727410281552E+02    0.55208E-07   -0.15626E-07 16828   0.262E-03
   1 F= -.72741028E+02 E0= -.72741028E+02  d E =-.727410E+02
 curvature:   0.00 expect dE= 0.000E+00 dE for cont linesearch  0.000E+00
 trial: gam= 0.00000 g(F)=  0.276E-59 g(S)=  0.804E-02 ort = 0.000E+00 (trialstep = 0.100E+01)
 search vector abs. value=  0.804E-02
 bond charge predicted
       N       E                     dE             d eps       ncg     rms          rms(c)
DAV:   1    -0.727417637937E+02   -0.73558E-03   -0.16774E-01 15400   0.235E+00    0.296E-01
DAV:   2    -0.727400120759E+02    0.17517E-02   -0.13167E-03 19964   0.190E-01    0.160E-01
DAV:   3    -0.727392816374E+02    0.73044E-03   -0.13772E-03 15260   0.165E-01    0.895E-03
DAV:   4    -0.727392750560E+02    0.65813E-05   -0.41501E-06 20692   0.138E-02    0.232E-03
DAV:   5    -0.727392741827E+02    0.87339E-06   -0.85617E-08 14308   0.237E-03
   2 F= -.72739274E+02 E0= -.72739274E+02  d E =0.175397E-02
 trial-energy change:    0.001754  1 .order    0.001727   -0.008043    0.011497
 step:   0.4096(harm=  0.4116)  dis= 0.00000  next Energy=   -72.742674 (dE=-0.165E-02)
 bond charge predicted
       N       E                     dE             d eps       ncg     rms          rms(c)
DAV:   1    -0.727435261902E+02   -0.42511E-02   -0.58754E-02 15540   0.140E+00    0.175E-01
DAV:   2    -0.727429177641E+02    0.60843E-03   -0.45639E-04 19684   0.111E-01    0.946E-02
DAV:   3    -0.727426691463E+02    0.24862E-03   -0.48018E-04 14980   0.975E-02    0.535E-03
DAV:   4    -0.727426688638E+02    0.28249E-06   -0.14677E-06 20552   0.822E-03
   3 F= -.72742669E+02 E0= -.72742669E+02  d E =-.164071E-02
 curvature:  -0.21 expect dE=-0.362E-10 dE for cont linesearch -0.362E-10
 trial: gam= 0.00000 g(F)=  0.266E-59 g(S)=  0.176E-09 ort =-0.119E-05 (trialstep = 0.882E+00)
 search vector abs. value=  0.276E-09
 reached required accuracy - stopping structural energy minimisation
