 running   28 mpi-ranks, on    1 nodes
 distrk:  each k-point on   28 cores,    1 groups
 distr:  one band on    1 cores,   28 groups
 vasp.6.4.3 19Mar24 (build Sep 18 2024 11:30:23) complex                        
  
 POSCAR found type information on POSCAR TiTaNbN C ZrMo
 POSCAR found :  7 types and      64 ions
 Reading from existing POTCAR
 scaLAPACK will be used
 -----------------------------------------------------------------------------
|                                                                             |
|           W    W    AA    RRRRR   N    N  II  N    N   GGGG   !!!           |
|           W    W   A  A   R    R  NN   N  II  NN   N  G    G  !!!           |
|           W    W  A    A  R    R  N N  N  II  N N  N  G       !!!           |
|           W WW W  AAAAAA  RRRRR   N  N N  II  N  N N  G  GGG   !            |
|           WW  WW  A    A  R   R   N   NN  II  N   NN  G    G                |
|           W    W  A    A  R    R  N    N  II  N    N   GGGG   !!!           |
|                                                                             |
|     For optimal performance we recommend to set                             |
|       NCORE = 2 up to number-of-cores-per-socket                            |
|     NCORE specifies how many cores store one orbital (NPAR=cpu/NCORE).      |
|     This setting can greatly improve the performance of VASP for DFT.       |
|     The default, NCORE=1 might be grossly inefficient on modern             |
|     multi-core architectures or massively parallel machines. Do your        |
|     own testing! More info at https://www.vasp.at/wiki/index.php/NCORE      |
|     Unfortunately you need to use the default for GW and RPA                |
|     calculations (for HF NCORE is supported but not extensively tested      |
|     yet).                                                                   |
|                                                                             |
 -----------------------------------------------------------------------------

 Reading from existing POTCAR
 -----------------------------------------------------------------------------
|                                                                             |
|               ----> ADVICE to this user running VASP <----                  |
|                                                                             |
|     You have a (more or less) 'large supercell' and for larger cells it     |
|     might be more efficient to use real-space projection operators.         |
|     Therefore, try LREAL= Auto in the INCAR file.                           |
|     Mind: If you want to do very accurate calculations, keep the            |
|     reciprocal projection scheme (i.e. LREAL=.FALSE.).                      |
|                                                                             |
 -----------------------------------------------------------------------------

 LDA part: xc-table for (Slater+PW92), standard interpolation
 POSCAR, INCAR and KPOINTS ok, starting setup
 FFT: planning ... GRIDC
 FFT: planning ... GRID_SOFT
 FFT: planning ... GRID
 WAVECAR not read
 entering main loop
       N       E                     dE             d eps       ncg     rms          rms(c)
DAV:   1     0.521915172722E+04    0.52192E+04   -0.20570E+05  8624   0.142E+03
DAV:   2     0.132443100894E+03   -0.50867E+04   -0.49064E+04  8680   0.575E+02
DAV:   3    -0.687489659420E+03   -0.81993E+03   -0.78770E+03 14112   0.177E+02
DAV:   4    -0.772826513820E+03   -0.85337E+02   -0.83879E+02 15176   0.654E+01
DAV:   5    -0.781331509785E+03   -0.85050E+01   -0.84497E+01 16576   0.188E+01    0.614E+01
RMM:   6    -0.637857827844E+03    0.14347E+03   -0.61987E+02 12490   0.438E+01    0.156E+01
RMM:   7    -0.644231602640E+03   -0.63738E+01   -0.14798E+02 13365   0.264E+01    0.106E+01
RMM:   8    -0.648801325574E+03   -0.45697E+01   -0.71527E+01 14138   0.134E+01    0.991E+00
RMM:   9    -0.648271090448E+03    0.53024E+00   -0.13191E+01 13286   0.937E+00    0.571E+00
RMM:  10    -0.648634778411E+03   -0.36369E+00   -0.82971E+00 13858   0.457E+00    0.308E+00
RMM:  11    -0.649019851630E+03   -0.38507E+00   -0.40000E+00 14724   0.330E+00    0.177E+00
RMM:  12    -0.649234421058E+03   -0.21457E+00   -0.33804E+00 14004   0.315E+00    0.179E+00
RMM:  13    -0.649446544949E+03   -0.21212E+00   -0.24510E+00 15044   0.240E+00    0.164E+00
RMM:  14    -0.649564131282E+03   -0.11759E+00   -0.16180E+00 14220   0.189E+00    0.153E+00
RMM:  15    -0.649581430616E+03   -0.17299E-01   -0.84544E-01 14043   0.176E+00    0.618E-01
RMM:  16    -0.649652476974E+03   -0.71046E-01   -0.89059E-01 14880   0.139E+00    0.294E-01
RMM:  17    -0.649702096028E+03   -0.49619E-01   -0.55654E-01 15370   0.117E+00    0.263E-01
RMM:  18    -0.649744608554E+03   -0.42513E-01   -0.46258E-01 15326   0.103E+00    0.248E-01
RMM:  19    -0.649771262410E+03   -0.26654E-01   -0.32018E-01 15355   0.920E-01    0.182E-01
RMM:  20    -0.649795711391E+03   -0.24449E-01   -0.27788E-01 15418   0.827E-01    0.142E-01
RMM:  21    -0.649814039233E+03   -0.18328E-01   -0.21042E-01 15324   0.764E-01    0.816E-02
RMM:  22    -0.649830484253E+03   -0.16445E-01   -0.18761E-01 15119   0.693E-01    0.118E-01
RMM:  23    -0.649843212363E+03   -0.12728E-01   -0.14573E-01 15253   0.648E-01    0.772E-02
RMM:  24    -0.649854583134E+03   -0.11371E-01   -0.13138E-01 15034   0.596E-01    0.190E-01
RMM:  25    -0.649863678026E+03   -0.90949E-02   -0.10652E-01 14839   0.547E-01    0.188E-01
RMM:  26    -0.649872612132E+03   -0.89341E-02   -0.98532E-02 15124   0.521E-01    0.486E-01
RMM:  27    -0.649879650587E+03   -0.70385E-02   -0.81895E-02 14818   0.475E-01    0.551E-01
RMM:  28    -0.649885581216E+03   -0.59306E-02   -0.70286E-02 14549   0.438E-01    0.600E-01
RMM:  29    -0.649890687305E+03   -0.51061E-02   -0.59915E-02 14572   0.405E-01    0.661E-01
RMM:  30    -0.649894611510E+03   -0.39242E-02   -0.51741E-02 14809   0.375E-01    0.608E-01
RMM:  31    -0.649898213639E+03   -0.36021E-02   -0.43682E-02 14663   0.348E-01    0.634E-01
RMM:  32    -0.649901574947E+03   -0.33613E-02   -0.39362E-02 14407   0.321E-01    0.685E-01
RMM:  33    -0.649904334955E+03   -0.27600E-02   -0.33079E-02 14345   0.299E-01    0.724E-01
RMM:  34    -0.649906978996E+03   -0.26440E-02   -0.30113E-02 14318   0.278E-01    0.783E-01
RMM:  35    -0.649908943104E+03   -0.19641E-02   -0.25270E-02 14261   0.259E-01    0.793E-01
RMM:  36    -0.649910832395E+03   -0.18893E-02   -0.22950E-02 14195   0.241E-01    0.820E-01
RMM:  37    -0.649912559990E+03   -0.17276E-02   -0.19621E-02 14074   0.225E-01    0.867E-01
RMM:  38    -0.649914074888E+03   -0.15149E-02   -0.17994E-02 14032   0.209E-01    0.898E-01
RMM:  39    -0.649915427971E+03   -0.13531E-02   -0.15406E-02 13970   0.197E-01    0.938E-01
RMM:  40    -0.649916582414E+03   -0.11544E-02   -0.14077E-02 13890   0.183E-01    0.960E-01
RMM:  41    -0.649917565429E+03   -0.98302E-03   -0.12117E-02 13812   0.171E-01    0.982E-01
RMM:  42    -0.649918289341E+03   -0.72391E-03   -0.10987E-02 13726   0.159E-01    0.976E-01
RMM:  43    -0.649918695254E+03   -0.40591E-03   -0.96067E-03 13968   0.150E-01    0.936E-01
RMM:  44    -0.649918853532E+03   -0.15828E-03   -0.87362E-03 14378   0.144E-01    0.854E-01
RMM:  45    -0.649919203383E+03   -0.34985E-03   -0.77671E-03 13977   0.131E-01    0.808E-01
RMM:  46    -0.649919752438E+03   -0.54906E-03   -0.68371E-03 13407   0.119E-01    0.813E-01
RMM:  47    -0.649920229321E+03   -0.47688E-03   -0.58880E-03 13263   0.110E-01    0.824E-01
RMM:  48    -0.649920658542E+03   -0.42922E-03   -0.54147E-03 13062   0.103E-01    0.832E-01
RMM:  49    -0.649921000923E+03   -0.34238E-03   -0.47005E-03 12971   0.955E-02    0.832E-01
RMM:  50    -0.649921201209E+03   -0.20029E-03   -0.43143E-03 13070   0.912E-02    0.805E-01
RMM:  51    -0.649921001702E+03    0.19951E-03   -0.40344E-03 14177   0.951E-02    0.693E-01
RMM:  52    -0.649921292449E+03   -0.29075E-03   -0.34893E-03 12826   0.793E-02    0.692E-01
RMM:  53    -0.649921487520E+03   -0.19507E-03   -0.29823E-03 12654   0.736E-02    0.681E-01
RMM:  54    -0.649921678095E+03   -0.19057E-03   -0.28022E-03 12245   0.689E-02    0.671E-01
RMM:  55    -0.649921868961E+03   -0.19087E-03   -0.24054E-03 12028   0.645E-02    0.674E-01
RMM:  56    -0.649921938481E+03   -0.69520E-04   -0.22586E-03 12152   0.621E-02    0.648E-01
RMM:  57    -0.649922156151E+03   -0.21767E-03   -0.19648E-03 11561   0.582E-02    0.668E-01
RMM:  58    -0.649922261015E+03   -0.10486E-03   -0.18237E-03 11285   0.528E-02    0.663E-01
RMM:  59    -0.649922385289E+03   -0.12427E-03   -0.15975E-03 11038   0.507E-02    0.666E-01
RMM:  60    -0.649922490960E+03   -0.10567E-03   -0.14921E-03 10700   0.469E-02
 -----------------------------------------------------------------------------
|                                                                             |
|           W    W    AA    RRRRR   N    N  II  N    N   GGGG   !!!           |
|           W    W   A  A   R    R  NN   N  II  NN   N  G    G  !!!           |
|           W    W  A    A  R    R  N N  N  II  N N  N  G       !!!           |
|           W WW W  AAAAAA  RRRRR   N  N N  II  N  N N  G  GGG   !            |
|           WW  WW  A    A  R   R   N   NN  II  N   NN  G    G                |
|           W    W  A    A  R    R  N    N  II  N    N   GGGG   !!!           |
|                                                                             |
|     The electronic self-consistency was not achieved in the given           |
|     number of steps (NELM). The forces and other quantities evaluated       |
|     might not be reliable so examine the results carefully. If you find     |
|     spurious results, we suggest increasing NELM, if you were close to      |
|     convergence or switching to a different ALGO or adjusting the           |
|     density mixing parameters otherwise.                                    |
|                                                                             |
 -----------------------------------------------------------------------------

   1 F= -.64992249E+03 E0= -.64987028E+03  d E =-.649922E+03
 curvature:   0.00 expect dE= 0.000E+00 dE for cont linesearch  0.000E+00
 trial: gam= 0.00000 g(F)=  0.226E-03 g(S)=  0.103E-01 ort = 0.000E+00 (trialstep = 0.100E+01)
 search vector abs. value=  0.105E-01
 bond charge predicted
       N       E                     dE             d eps       ncg     rms          rms(c)
DAV:   1    -0.649937167152E+03   -0.14782E-01   -0.19631E+00 12964   0.475E+00    0.127E+00
RMM:   2    -0.649922692437E+03    0.14475E-01   -0.21303E-01 12523   0.151E+00    0.971E-01
RMM:   3    -0.649906034040E+03    0.16658E-01   -0.49713E-02 12975   0.652E-01    0.434E-01
RMM:   4    -0.649905550309E+03    0.48373E-03   -0.39725E-02 12927   0.506E-01    0.230E-01
RMM:   5    -0.649906558013E+03   -0.10077E-02   -0.14043E-02 14141   0.282E-01    0.148E-01
RMM:   6    -0.649906926656E+03   -0.36864E-03   -0.35374E-03 15013   0.146E-01    0.104E-01
RMM:   7    -0.649907247197E+03   -0.32054E-03   -0.16485E-03 15006   0.875E-02    0.628E-02
WARNING in EDDRMM: call to ZHEGV failed, returncode =   8  4      8
RMM:   8    -0.649907559394E+03   -0.31220E-03   -0.10426E-03 14728   0.617E-02    0.339E-02
RMM:   9    -0.649907641431E+03   -0.82037E-04   -0.49448E-04 14238   0.501E-02    0.166E-02
RMM:  10    -0.649907686976E+03   -0.45545E-04   -0.39713E-04 13174   0.392E-02    0.123E-02
WARNING in EDDRMM: call to ZHEGV failed, returncode =   8  4      8
RMM:  11    -0.649907712814E+03   -0.25839E-04   -0.26076E-04 12628   0.339E-02    0.749E-03
RMM:  12    -0.649907731366E+03   -0.18552E-04   -0.20463E-04 11952   0.278E-02    0.512E-03
RMM:  13    -0.649907743723E+03   -0.12357E-04   -0.15439E-04 11495   0.253E-02    0.437E-03
RMM:  14    -0.649907753184E+03   -0.94610E-05   -0.12407E-04 10818   0.227E-02    0.307E-03
RMM:  15    -0.649907760408E+03   -0.72240E-05   -0.10258E-04 10491   0.214E-02    0.217E-03
RMM:  16    -0.649907767650E+03   -0.72429E-05   -0.86658E-05 10164   0.200E-02
   2 F= -.64990777E+03 E0= -.64985605E+03  d E =0.147233E-01
 trial-energy change:    0.014723  1 .order    0.009940   -0.010506    0.030387
 step:   0.1618(harm=  0.2569)  dis= 0.00019  next Energy=  -649.923320 (dE=-0.830E-03)
 bond charge predicted
       N       E                     dE             d eps       ncg     rms          rms(c)
DAV:   1    -0.649960770180E+03   -0.53010E-01   -0.13715E+00 12544   0.398E+00    0.130E+00
RMM:   2    -0.649942883179E+03    0.17887E-01   -0.16514E-01 12718   0.130E+00    0.894E-01
RMM:   3    -0.649925882149E+03    0.17001E-01   -0.37711E-02 12285   0.606E-01    0.498E-01
RMM:   4    -0.649921930369E+03    0.39518E-02   -0.30902E-02 12894   0.427E-01    0.203E-01
RMM:   5    -0.649922010317E+03   -0.79948E-04   -0.10572E-02 13958   0.248E-01    0.117E-01
RMM:   6    -0.649921976049E+03    0.34268E-04   -0.23203E-03 14683   0.122E-01    0.643E-02
RMM:   7    -0.649921994332E+03   -0.18283E-04   -0.92464E-04 14517   0.685E-02    0.328E-02
RMM:   8    -0.649922030572E+03   -0.36239E-04   -0.51627E-04 13990   0.434E-02    0.209E-02
WARNING in EDDRMM: call to ZHEGV failed, returncode =   6  3      7
RMM:   9    -0.649922040152E+03   -0.95800E-05   -0.24222E-04 13255   0.345E-02    0.117E-02
RMM:  10    -0.649922046770E+03   -0.66183E-05   -0.15261E-04 12287   0.261E-02    0.984E-03
WARNING in EDDRMM: call to ZHEGV failed, returncode =   6  3      7
RMM:  11    -0.649922048631E+03   -0.18607E-05   -0.87790E-05 11123   0.226E-02
   3 F= -.64992205E+03 E0= -.64986998E+03  d E =0.442330E-03
 curvature:  -0.13 expect dE=-0.133E-03 dE for cont linesearch -0.121E-03
 ZBRENT: interpolating
 opt :   0.1243  next Energy=  -649.922108 (dE= 0.383E-03)
 bond charge predicted
       N       E                     dE             d eps       ncg     rms          rms(c)
DAV:   1    -0.649922270802E+03   -0.22403E-03   -0.31707E-03 14084   0.181E-01    0.697E-02
RMM:   2    -0.649922233246E+03    0.37556E-04   -0.44240E-04 12488   0.641E-02    0.429E-02
RMM:   3    -0.649922198024E+03    0.35222E-04   -0.12514E-04 11121   0.321E-02    0.282E-02
RMM:   4    -0.649922184710E+03    0.13314E-04   -0.87456E-05 10599   0.229E-02    0.101E-02
RMM:   5    -0.649922182088E+03    0.26214E-05   -0.26932E-05  7255   0.159E-02
   4 F= -.64992218E+03 E0= -.64987010E+03  d E =0.308872E-03
 curvature:  -0.06 expect dE=-0.341E-04 dE for cont linesearch -0.294E-04
 trial: gam= 0.00000 g(F)=  0.375E-04 g(S)=  0.511E-03 ort =-0.223E-02 (trialstep = 0.825E+00)
 search vector abs. value=  0.548E-03
 reached required accuracy - stopping structural energy minimisation
