<?xml version="1.0" encoding="ISO-8859-1"?>
<modeling>
 <generator>
  <i name="program" type="string">vasp </i>
  <i name="version" type="string">6.4.3  </i>
  <i name="subversion" type="string">19Mar24 (build Sep 18 2024 11:30:23) complex                          parallel </i>
  <i name="platform" type="string">LinuxIFC </i>
  <i name="date" type="string">2026 07 03 </i>
  <i name="time" type="string">22:25:42 </i>
 </generator>
 <incar>
  <i type="string" name="SYSTEM">HECN</i>
  <i type="int" name="ISTART">     0</i>
  <i type="string" name="PREC">Normal</i>
  <i type="string" name="ALGO">Fast</i>
  <i type="int" name="ICHARG">     2</i>
  <i type="int" name="NELM">    60</i>
  <i type="int" name="IBRION">     2</i>
  <i name="EDIFF">      0.00001000</i>
  <i name="EDIFFG">     -0.01000000</i>
  <i type="int" name="NSW">   100</i>
  <i type="int" name="ISIF">     3</i>
  <i name="ENCUT">    400.00000000</i>
  <i name="POTIM">      0.50000000</i>
  <i type="logical" name="LREAL"> F  </i>
  <i type="int" name="ISMEAR">     0</i>
  <i name="SIGMA">      0.10000000</i>
  <i type="logical" name="LWAVE"> F  </i>
  <i type="logical" name="LCHARG"> F  </i>
 </incar>
 <primitive_cell>
  <structure name="primitive_cell" >
   <crystal>
    <varray name="basis" >
     <v>       8.91345072      -0.00516334       0.00354058 </v>
     <v>      -0.00516986       8.95643116      -0.01038592 </v>
     <v>       0.00351538      -0.01040622       8.87095310 </v>
    </varray>
    <i name="volume">    708.19089503 </i>
    <varray name="rec_basis" >
     <v>       0.11219005       0.00006471      -0.00004438 </v>
     <v>       0.00006463       0.11165180       0.00013095 </v>
     <v>      -0.00004470       0.00013069       0.11272763 </v>
    </varray>
   </crystal>
   <varray name="positions" >
    <v>       0.99892397       0.99498359       0.00913826 </v>
    <v>       0.24052643       0.99424274       0.25004978 </v>
    <v>       0.26054331       0.49993678       0.25208552 </v>
    <v>       0.50017163       0.49741684       0.99792138 </v>
    <v>       0.49742566       0.25923655       0.75331982 </v>
    <v>       0.00702671       0.49573067       0.49374819 </v>
    <v>       0.50378258       0.73934549       0.74846505 </v>
    <v>       0.00347136       0.24532655       0.25922478 </v>
    <v>       0.75746649       0.74448258       0.00224296 </v>
    <v>       0.00376582       0.26188970       0.74279756 </v>
    <v>       0.75446428       0.26750134       0.49931257 </v>
    <v>       0.99493301       0.73546680       0.74227759 </v>
    <v>       0.25772517       0.49987863       0.74942740 </v>
    <v>       0.25944707       0.25767501       0.99547150 </v>
    <v>       0.50474964       0.26006231       0.24617758 </v>
    <v>       0.76079527       0.99179717       0.25009386 </v>
    <v>       0.73833275       0.25259531       0.00805556 </v>
    <v>       0.23666567       0.74310869       0.00153118 </v>
    <v>       0.24109961       0.24886682       0.50490232 </v>
    <v>       0.24882210       0.24987349       0.24945477 </v>
    <v>       0.24477308       0.00096972       0.00847039 </v>
    <v>       0.99859327       0.24165819       0.00083527 </v>
    <v>       0.75445935       0.24648920       0.25493528 </v>
    <v>       0.75622705       0.99653668       0.00104627 </v>
    <v>       0.50037295       0.00550942       0.24882064 </v>
    <v>       0.00567428       0.49031738       0.25730319 </v>
    <v>       0.50285400       0.74756448       0.99247887 </v>
    <v>       0.99844510       0.00438195       0.75816735 </v>
    <v>       0.74956813       0.25005243       0.74743766 </v>
    <v>       0.75319641       0.01199642       0.49636238 </v>
    <v>       0.50596464       0.25227433       0.50317874 </v>
    <v>       0.50230388       0.00271956       0.75105122 </v>
    <v>       0.00548929       0.00337356       0.24601160 </v>
    <v>       0.49920967       0.25800991       0.99543263 </v>
    <v>       0.24413396       0.74933912       0.24576034 </v>
    <v>       0.25423206       0.50135290       0.00307179 </v>
    <v>       0.99745355       0.75398896       0.99917840 </v>
    <v>       0.75410439       0.74151540       0.25157429 </v>
    <v>       0.74171667       0.49919554       0.99941182 </v>
    <v>       0.49104965       0.49910944       0.24573362 </v>
    <v>       0.25195639       0.25372161       0.74981192 </v>
    <v>       0.24814496       0.00297449       0.49212773 </v>
    <v>       0.99751452       0.25651691       0.50183983 </v>
    <v>       0.24989640       0.74598417       0.75500643 </v>
    <v>       0.25313814       0.49459632       0.49611299 </v>
    <v>       0.99237226       0.75432242       0.50073580 </v>
    <v>       0.00007255       0.49857728       0.74502832 </v>
    <v>       0.74602677       0.74567169       0.75031489 </v>
    <v>       0.75832034       0.49958371       0.49661749 </v>
    <v>       0.50522426       0.74663437       0.50700446 </v>
    <v>       0.49950824       0.50017729       0.75079759 </v>
    <v>       0.49968756       0.00355977       0.00056313 </v>
    <v>       0.99749305       0.49757206       0.00726914 </v>
    <v>       0.49943241       0.74627049       0.24938384 </v>
    <v>       0.24528804       0.99955386       0.75369388 </v>
    <v>       0.49701945       0.99996029       0.49928897 </v>
    <v>       0.75399334       0.99421308       0.74664003 </v>
    <v>       0.24746878       0.74857831       0.49963742 </v>
    <v>       0.99648315       0.76709076       0.25683852 </v>
    <v>       0.72503399       0.49641542       0.24426346 </v>
    <v>       0.01066863       0.01232071       0.48522610 </v>
    <v>       0.50587953       0.50752626       0.49759790 </v>
    <v>       0.73938641       0.50857781       0.75455926 </v>
    <v>       0.75003157       0.72382996       0.49768222 </v>
   </varray>
  </structure>
  <varray name="primitive_index" >
   <v type="int" >        1 </v>
   <v type="int" >        2 </v>
   <v type="int" >        3 </v>
   <v type="int" >        4 </v>
   <v type="int" >        5 </v>
   <v type="int" >        6 </v>
   <v type="int" >        7 </v>
   <v type="int" >        8 </v>
   <v type="int" >        9 </v>
   <v type="int" >       10 </v>
   <v type="int" >       11 </v>
   <v type="int" >       12 </v>
   <v type="int" >       13 </v>
   <v type="int" >       14 </v>
   <v type="int" >       15 </v>
   <v type="int" >       16 </v>
   <v type="int" >       17 </v>
   <v type="int" >       18 </v>
   <v type="int" >       19 </v>
   <v type="int" >       20 </v>
   <v type="int" >       21 </v>
   <v type="int" >       22 </v>
   <v type="int" >       23 </v>
   <v type="int" >       24 </v>
   <v type="int" >       25 </v>
   <v type="int" >       26 </v>
   <v type="int" >       27 </v>
   <v type="int" >       28 </v>
   <v type="int" >       29 </v>
   <v type="int" >       30 </v>
   <v type="int" >       31 </v>
   <v type="int" >       32 </v>
   <v type="int" >       33 </v>
   <v type="int" >       34 </v>
   <v type="int" >       35 </v>
   <v type="int" >       36 </v>
   <v type="int" >       37 </v>
   <v type="int" >       38 </v>
   <v type="int" >       39 </v>
   <v type="int" >       40 </v>
   <v type="int" >       41 </v>
   <v type="int" >       42 </v>
   <v type="int" >       43 </v>
   <v type="int" >       44 </v>
   <v type="int" >       45 </v>
   <v type="int" >       46 </v>
   <v type="int" >       47 </v>
   <v type="int" >       48 </v>
   <v type="int" >       49 </v>
   <v type="int" >       50 </v>
   <v type="int" >       51 </v>
   <v type="int" >       52 </v>
   <v type="int" >       53 </v>
   <v type="int" >       54 </v>
   <v type="int" >       55 </v>
   <v type="int" >       56 </v>
   <v type="int" >       57 </v>
   <v type="int" >       58 </v>
   <v type="int" >       59 </v>
   <v type="int" >       60 </v>
   <v type="int" >       61 </v>
   <v type="int" >       62 </v>
   <v type="int" >       63 </v>
   <v type="int" >       64 </v>
  </varray>
 </primitive_cell>
 <kpoints>
  <generation param="Gamma">
   <v type="int" name="divisions">       3        3        3 </v>
   <v name="usershift">      0.00000000       0.00000000       0.00000000 </v>
   <v name="genvec1">      0.33333333      -0.00000000       0.00000000 </v>
   <v name="genvec2">     -0.00000000       0.33333333      -0.00000000 </v>
   <v name="genvec3">     -0.00000000      -0.00000000       0.33333333 </v>
   <v name="shift">      0.00000000       0.00000000       0.00000000 </v>
  </generation>
  <varray name="kpointlist" >
   <v>       0.00000000       0.00000000       0.00000000 </v>
   <v>       0.33333333       0.00000000       0.00000000 </v>
   <v>      -0.00000000       0.33333333      -0.00000000 </v>
   <v>       0.33333333       0.33333333      -0.00000000 </v>
   <v>      -0.33333333       0.33333333       0.00000000 </v>
   <v>       0.00000000      -0.00000000       0.33333333 </v>
   <v>       0.33333333       0.00000000       0.33333333 </v>
   <v>      -0.33333333      -0.00000000       0.33333333 </v>
   <v>      -0.00000000       0.33333333       0.33333333 </v>
   <v>       0.33333333       0.33333333       0.33333333 </v>
   <v>      -0.33333333       0.33333333       0.33333333 </v>
   <v>       0.00000000      -0.33333333       0.33333333 </v>
   <v>       0.33333333      -0.33333333       0.33333333 </v>
   <v>      -0.33333333      -0.33333333       0.33333333 </v>
  </varray>
  <varray name="weights" >
   <v>       0.03703704 </v>
   <v>       0.07407407 </v>
   <v>       0.07407407 </v>
   <v>       0.07407407 </v>
   <v>       0.07407407 </v>
   <v>       0.07407407 </v>
   <v>       0.07407407 </v>
   <v>       0.07407407 </v>
   <v>       0.07407407 </v>
   <v>       0.07407407 </v>
   <v>       0.07407407 </v>
   <v>       0.07407407 </v>
   <v>       0.07407407 </v>
   <v>       0.07407407 </v>
  </varray>
 </kpoints>
 <parameters>
  <separator name="general" >
   <i type="string" name="SYSTEM">HECN</i>
   <i type="logical" name="LCOMPAT"> F  </i>
  </separator>
  <separator name="electronic" >
   <i type="string" name="PREC">normal</i>
   <i name="ENMAX">    400.00000000</i>
   <i name="ENAUG">    644.87300000</i>
   <i name="EDIFF">      0.00001000</i>
   <i type="int" name="IALGO">    68</i>
   <i type="int" name="IWAVPR">    11</i>
   <i type="int" name="NBANDS">   308</i>
   <i type="int" name="NBANDSLOW">    -1</i>
   <i type="int" name="NBANDSHIGH">    -1</i>
   <i name="NELECT">    489.00000000</i>
   <i type="int" name="TURBO">     0</i>
   <i type="int" name="IRESTART">     0</i>
   <i type="int" name="NREBOOT">     0</i>
   <i type="int" name="NMIN">     0</i>
   <i name="EREF">      0.00000000</i>
   <separator name="electronic smearing" >
    <i type="int" name="ISMEAR">     0</i>
    <i name="SIGMA">      0.10000000</i>
    <i name="KSPACING">      0.50000000</i>
    <i type="logical" name="KGAMMA"> T  </i>
    <i type="logical" name="KBLOWUP"> T  </i>
   </separator>
   <separator name="electronic projectors" >
    <i type="logical" name="LREAL"> F  </i>
    <v name="ROPT">      0.00000000      0.00000000      0.00000000      0.00000000      0.00000000      0.00000000      0.00000000</v>
    <i type="int" name="LMAXPAW">  -100</i>
    <i type="int" name="LMAXMIX">     2</i>
    <i type="logical" name="NLSPLINE"> F  </i>
   </separator>
   <separator name="electronic startup" >
    <i type="int" name="ISTART">     0</i>
    <i type="int" name="ICHARG">     2</i>
    <i type="int" name="INIWAV">     1</i>
   </separator>
   <separator name="electronic spin" >
    <i type="int" name="ISPIN">     1</i>
    <i type="logical" name="LNONCOLLINEAR"> F  </i>
    <v name="MAGMOM">      1.00000000      1.00000000      1.00000000      1.00000000      1.00000000      1.00000000      1.00000000      1.00000000      1.00000000      1.00000000      1.00000000      1.00000000      1.00000000      1.00000000      1.00000000      1.00000000      1.00000000      1.00000000      1.00000000      1.00000000
      1.00000000      1.00000000      1.00000000      1.00000000      1.00000000      1.00000000      1.00000000      1.00000000      1.00000000      1.00000000      1.00000000      1.00000000      1.00000000      1.00000000      1.00000000      1.00000000      1.00000000      1.00000000      1.00000000      1.00000000
      1.00000000      1.00000000      1.00000000      1.00000000      1.00000000      1.00000000      1.00000000      1.00000000      1.00000000      1.00000000      1.00000000      1.00000000      1.00000000      1.00000000      1.00000000      1.00000000      1.00000000      1.00000000      1.00000000      1.00000000
      1.00000000      1.00000000      1.00000000      1.00000000</v>
    <i name="NUPDOWN">     -1.00000000</i>
    <i type="logical" name="LSORBIT"> F  </i>
    <v name="SAXIS">      0.00000000      0.00000000      1.00000000</v>
    <i type="logical" name="LSPIRAL"> F  </i>
    <v name="QSPIRAL">      0.00000000      0.00000000      0.00000000</v>
    <i type="logical" name="LZEROZ"> F  </i>
   </separator>
   <separator name="electronic exchange-correlation" >
    <i type="logical" name="LASPH"> F  </i>
   </separator>
   <separator name="electronic convergence" >
    <i type="int" name="NELM">    60</i>
    <i type="int" name="NELMDL">    -5</i>
    <i type="int" name="NELMIN">     2</i>
    <i name="ENINI">    400.00000000</i>
    <separator name="electronic convergence detail" >
     <i type="logical" name="LDIAG"> T  </i>
     <i type="logical" name="LSUBROT"> F  </i>
     <i name="WEIMIN">      0.00100000</i>
     <i name="EBREAK">      0.00000001</i>
     <i name="DEPER">      0.30000000</i>
     <i type="int" name="NRMM">     4</i>
     <i name="TIME">      0.40000000</i>
    </separator>
   </separator>
   <separator name="electronic mixer" >
    <i name="AMIX">      0.40000000</i>
    <i name="BMIX">      1.00000000</i>
    <i name="AMIN">      0.10000000</i>
    <i name="AMIX_MAG">      1.60000000</i>
    <i name="BMIX_MAG">      1.00000000</i>
    <separator name="electronic mixer details" >
     <i type="int" name="IMIX">     4</i>
     <i type="logical" name="MIXFIRST"> F  </i>
     <i type="int" name="MAXMIX">   -45</i>
     <i name="WC">    100.00000000</i>
     <i type="int" name="INIMIX">     1</i>
     <i type="int" name="MIXPRE">     1</i>
     <i type="int" name="MREMOVE">     5</i>
    </separator>
   </separator>
   <separator name="electronic dipolcorrection" >
    <i type="logical" name="LDIPOL"> F  </i>
    <i type="logical" name="LMONO"> F  </i>
    <i type="int" name="IDIPOL">     0</i>
    <i name="EPSILON">      1.00000000</i>
    <v name="DIPOL">   -100.00000000   -100.00000000   -100.00000000</v>
    <i name="EFIELD">      0.00000000</i>
    <i type="logical" name="LVACPOTAV"> F  </i>
   </separator>
  </separator>
  <separator name="grids" >
   <i type="int" name="NGX">    48</i>
   <i type="int" name="NGY">    48</i>
   <i type="int" name="NGZ">    48</i>
   <i type="int" name="NGXF">    96</i>
   <i type="int" name="NGYF">    96</i>
   <i type="int" name="NGZF">    96</i>
   <i type="logical" name="ADDGRID"> F  </i>
  </separator>
  <separator name="ionic" >
   <i type="int" name="NSW">   100</i>
   <i type="int" name="IBRION">     2</i>
   <i type="int" name="MDALGO">     0</i>
   <i type="int" name="ISIF">     3</i>
   <i name="PSTRESS">      0.00000000</i>
   <i name="EDIFFG">     -0.01000000</i>
   <i type="int" name="NFREE">     1</i>
   <i name="POTIM">      0.50000000</i>
   <i name="SMASS">     -3.00000000</i>
   <i name="SCALEE">      1.00000000</i>
  </separator>
  <separator name="ionic md" >
   <i name="TEBEG">      0.00010000</i>
   <i name="TEEND">      0.00010000</i>
   <i type="int" name="NBLOCK">     1</i>
   <i type="int" name="KBLOCK">   100</i>
   <i type="int" name="NPACO">   256</i>
   <i name="APACO">     10.00000000</i>
  </separator>
  <separator name="symmetry" >
   <i type="int" name="ISYM">     2</i>
   <i name="SYMPREC">      0.00001000</i>
  </separator>
  <separator name="dos" >
   <i type="int" name="LORBIT">     0</i>
   <v name="RWIGS">     -1.00000000     -1.00000000     -1.00000000     -1.00000000     -1.00000000     -1.00000000     -1.00000000</v>
   <i type="int" name="NEDOS">   301</i>
   <i name="EMIN">     10.00000000</i>
   <i name="EMAX">    -10.00000000</i>
   <i name="EFERMI">      0.00000000</i>
  </separator>
  <separator name="writing" >
   <i type="int" name="NWRITE">     2</i>
   <i type="logical" name="LWAVE"> F  </i>
   <i type="logical" name="LDOWNSAMPLE"> F  </i>
   <i type="logical" name="LCHARG"> F  </i>
   <i type="logical" name="LPARD"> F  </i>
   <i type="logical" name="LVTOT"> F  </i>
   <i type="logical" name="LVHAR"> F  </i>
   <i type="logical" name="LELF"> F  </i>
   <i type="logical" name="LOPTICS"> F  </i>
   <v name="STM">      0.00000000      0.00000000      0.00000000      0.00000000      0.00000000      0.00000000      0.00000000</v>
  </separator>
  <separator name="performance" >
   <i type="int" name="NPAR">    28</i>
   <i type="int" name="NSIM">     4</i>
   <i type="int" name="NBLK">    -1</i>
   <i type="logical" name="LPLANE"> T  </i>
   <i type="logical" name="LSCALAPACK"> T  </i>
   <i type="logical" name="LSCAAWARE"> F  </i>
   <i type="logical" name="LSCALU"> F  </i>
   <i type="logical" name="LASYNC"> F  </i>
   <i type="logical" name="LORBITALREAL"> F  </i>
  </separator>
  <separator name="miscellaneous" >
   <i type="int" name="IDIOT">     3</i>
   <i type="int" name="PHON_NSTRUCT">    -1</i>
   <i type="logical" name="LMUSIC"> F  </i>
   <v name="POMASS">     47.88000000    180.94800000     92.91000000     14.00100000     12.01100000     91.22400000     95.94000000</v>
   <v name="DARWINR">      0.00000000      0.00000000      0.00000000      0.00000000      0.00000000      0.00000000      0.00000000</v>
   <v name="DARWINV">      1.00000000      1.00000000      1.00000000      1.00000000      1.00000000      1.00000000      1.00000000</v>
   <i type="logical" name="LCORR"> T  </i>
  </separator>
  <i type="logical" name="GGA_COMPAT"> T  </i>
  <i type="logical" name="LBERRY"> F  </i>
  <i type="int" name="ICORELEVEL">     0</i>
  <i type="logical" name="LDAU"> F  </i>
  <i type="int" name="I_CONSTRAINED_M">     0</i>
  <separator name="electronic exchange-correlation" >
   <i type="string" name="GGA    ">PE</i>
   <i type="string" name="XC_C">1</i>
   <i type="int" name="VOSKOWN">     0</i>
   <i type="logical" name="LHFCALC"> F  </i>
   <i type="string" name="PRECFOCK"></i>
   <i type="logical" name="LSYMGRAD"> F  </i>
   <i type="logical" name="LHFONE"> F  </i>
   <i type="logical" name="LRHFCALC"> F  </i>
   <i type="logical" name="LTHOMAS"> F  </i>
   <i type="logical" name="LMODELHF"> F  </i>
   <i type="logical" name="LFOCKACE"> F  </i>
   <i name="ENCUT4O">     -1.00000000</i>
   <i type="int" name="EXXOEP">     0</i>
   <i type="int" name="FOURORBIT">     0</i>
   <i name="AEXX">      0.00000000</i>
   <i name="HFALPHA">      0.00000000</i>
   <i name="MCALPHA">      0.00000000</i>
   <i name="ALDAX">      1.00000000</i>
   <i name="AGGAX">      1.00000000</i>
   <i name="AMGGAX">      1.00000000</i>
   <i name="ALDAC">      1.00000000</i>
   <i name="AGGAC">      1.00000000</i>
   <i name="AMGGAC">      1.00000000</i>
   <i type="int" name="NKREDX">     1</i>
   <i type="int" name="NKREDY">     1</i>
   <i type="int" name="NKREDZ">     1</i>
   <i type="logical" name="SHIFTRED"> F  </i>
   <i type="logical" name="ODDONLY"> F  </i>
   <i type="logical" name="EVENONLY"> F  </i>
   <i type="int" name="LMAXFOCK">     0</i>
   <i type="int" name="NMAXFOCKAE">     0</i>
   <i type="logical" name="LFOCKAEDFT"> F  </i>
   <i name="HFSCREEN">      0.00000000</i>
   <i name="HFSCREENC">      0.00000000</i>
   <i type="int" name="NBANDSGWLOW">     0</i>
  </separator>
  <separator name="vdW DFT" >
   <i type="logical" name="LUSE_VDW"> F  </i>
   <i type="int" name="IVDW_NL">    -1</i>
   <i type="logical" name="LSPIN_VDW"> F  </i>
   <i name="ZAB_VDW">     -0.84910000</i>
   <i name="GAMMA_VDW">      1.39626340</i>
   <i name="ALPHA_VDW">      0.00000000</i>
   <i name="PARAM1">      0.12340000</i>
   <i name="PARAM2">      1.00000000</i>
   <i name="BPARAM">      6.30000000</i>
   <i name="CPARAM">      0.00930000</i>
  </separator>
  <separator name="model GW" >
   <i type="int" name="MODEL_GW">     0</i>
   <i name="MODEL_EPS0">      6.63928964</i>
   <i name="MODEL_ALPHA">      1.00000000</i>
  </separator>
  <separator name="linear response parameters" >
   <i type="logical" name="LEPSILON"> F  </i>
   <i type="logical" name="LRPA"> F  </i>
   <i type="logical" name="LNABLA"> F  </i>
   <i type="logical" name="LVEL"> F  </i>
   <i name="CSHIFT">      0.10000000</i>
   <i name="OMEGAMAX">     -1.00000000</i>
   <i name="DEG_THRESHOLD">      0.00200000</i>
   <i name="RTIME">     -0.10000000</i>
   <i name="WPLASMAI">      0.00000000</i>
   <v name="DFIELD">      0.00000000      0.00000000      0.00000000</v>
   <v name="WPLASMA">      0.00000000      0.00000000      0.00000000      0.00000000      0.00000000      0.00000000      0.00000000      0.00000000      0.00000000</v>
  </separator>
  <separator name="orbital magnetization" >
   <i type="logical" name="NUCIND"> F  </i>
   <v name="MAGPOS">      0.00000000      0.00000000      0.00000000</v>
   <i type="logical" name="LNICSALL"> T  </i>
   <i type="logical" name="ORBITALMAG"> F  </i>
   <i type="logical" name="LMAGBLOCH"> F  </i>
   <i type="logical" name="LCHIMAG"> F  </i>
   <i type="logical" name="LGAUGE"> T  </i>
   <i type="int" name="MAGATOM">     0</i>
   <v name="MAGDIPOL">      0.00000000      0.00000000      0.00000000</v>
   <v name="AVECCONST">      0.00000000      0.00000000      0.00000000</v>
  </separator>
  <separator name="response functions" >
   <i type="logical" name="LALL_IN_ONE"> F  </i>
   <i type="int" name="IALL_IN_ONE">    -1</i>
   <i type="int" name="NBANDS_WAVE">    -1</i>
   <i type="logical" name="LFINITE_TEMPERATURE"> F  </i>
   <i type="logical" name="LADDER"> F  </i>
   <i type="logical" name="LRPAFORCE"> F  </i>
   <i type="logical" name="LFXC"> F  </i>
   <i type="logical" name="LHARTREE"> T  </i>
   <i type="int" name="IBSE">     0</i>
   <v type="int" name="KPOINT">    -1     0     0     0</v>
   <i type="logical" name="LTCTC"> F  </i>
   <i type="logical" name="LTCTE"> F  </i>
   <i type="logical" name="LTETE"> F  </i>
   <i type="logical" name="LTRIPLET"> F  </i>
   <i type="logical" name="LFXCEPS"> F  </i>
   <i type="logical" name="LFXHEG"> F  </i>
   <i type="int" name="NATURALO">     2</i>
   <i type="logical" name="LHOLEGF"> F  </i>
   <i type="logical" name="L2ORDER"> F  </i>
   <i type="logical" name="LDMP1"> F  </i>
   <i type="logical" name="LMP2LT"> F  </i>
   <i type="logical" name="LSMP2LT"> F  </i>
   <i type="logical" name="LGWLF"> F  </i>
   <i name="ENCUTGW">     -1.60000002</i>
   <i name="ENCUTGWSOFT">     -1.60000002</i>
   <i name="ENCUTLF">     -1.00000000</i>
   <i type="logical" name="ESF_SPLINES"> F  </i>
   <i name="ESF_CONV">      0.01000000</i>
   <i type="int" name="ESF_NINTER">    15</i>
   <i type="int" name="LMAXMP2">    -1</i>
   <i name="SCISSOR">      0.00000000</i>
   <i type="int" name="NOMEGA">     0</i>
   <i type="int" name="NOMEGAR">     0</i>
   <i type="int" name="NBANDSGW">    -1</i>
   <i type="int" name="NBANDSO">    -1</i>
   <i type="int" name="NBANDSV">    -1</i>
   <i type="int" name="NELMGW">     1</i>
   <i type="int" name="NELMHF">     1</i>
   <i type="int" name="DIM">     3</i>
   <i type="int" name="IESPILON">     4</i>
   <i type="int" name="ANTIRES">     0</i>
   <i name="OMEGAMAX">    -30.00000000</i>
   <i name="OMEGAMIN">    -30.00000000</i>
   <i name="OMEGATL">   -200.00000000</i>
   <i type="int" name="OMEGAGRID">     0</i>
   <i name="CSHIFT">     -0.10000000</i>
   <i type="logical" name="LSELFENERGY"> F  </i>
   <i type="logical" name="LSPECTRAL"> F  </i>
   <i type="logical" name="LSPECTRALGW"> F  </i>
   <i type="logical" name="LSINGLES"> F  </i>
   <i type="logical" name="LFERMIGW"> F  </i>
   <i type="logical" name="ODDONLYGW"> F  </i>
   <i type="logical" name="EVENONLYGW"> F  </i>
   <i type="int" name="NKREDLFX">     1</i>
   <i type="int" name="NKREDLFY">     1</i>
   <i type="int" name="NKREDLFZ">     1</i>
   <i type="int" name="MAXMEM">  2800</i>
   <i type="int" name="TELESCOPE">     0</i>
   <i type="int" name="NTAUPAR">    -1</i>
   <i type="int" name="NOMEGAPAR">    -1</i>
   <i name="DAMP_NEWTON">      0.80000001</i>
   <i name="LAMBDA">      1.00000000</i>
  </separator>
  <separator name="External order field" >
   <i name="OFIELD_KAPPA">      0.00000000</i>
   <v name="OFIELD_K">      0.00000000      0.00000000      0.00000000</v>
   <i name="OFIELD_Q6_NEAR">      0.00000000</i>
   <i name="OFIELD_Q6_FAR">      0.00000000</i>
   <i name="OFIELD_A">      0.00000000</i>
  </separator>
  <separator name="optional k-points parameters" >
   <i type="int" name="KPOINTS_OPT_MODE">     1</i>
   <i type="logical" name="LKPOINTS_OPT"> F  </i>
  </separator>
  <separator name="solvation model" >
   <i type="logical" name="LSOL"> F  </i>
  </separator>
 </parameters>
 <atominfo>
  <atoms>      64 </atoms>
  <types>       7 </types>
  <array name="atoms" >
   <dimension dim="1">ion</dimension>
   <field type="string">element</field>
   <field type="int">atomtype</field>
   <set>
    <rc><c>Ti</c><c>   1</c></rc>
    <rc><c>Ti</c><c>   1</c></rc>
    <rc><c>Ti</c><c>   1</c></rc>
    <rc><c>Ti</c><c>   1</c></rc>
    <rc><c>Ti</c><c>   1</c></rc>
    <rc><c>Ti</c><c>   1</c></rc>
    <rc><c>Ti</c><c>   1</c></rc>
    <rc><c>Ta</c><c>   2</c></rc>
    <rc><c>Ta</c><c>   2</c></rc>
    <rc><c>Ta</c><c>   2</c></rc>
    <rc><c>Ta</c><c>   2</c></rc>
    <rc><c>Ta</c><c>   2</c></rc>
    <rc><c>Ta</c><c>   2</c></rc>
    <rc><c>Nb</c><c>   3</c></rc>
    <rc><c>Nb</c><c>   3</c></rc>
    <rc><c>Nb</c><c>   3</c></rc>
    <rc><c>Nb</c><c>   3</c></rc>
    <rc><c>Nb</c><c>   3</c></rc>
    <rc><c>Nb</c><c>   3</c></rc>
    <rc><c>N </c><c>   4</c></rc>
    <rc><c>N </c><c>   4</c></rc>
    <rc><c>N </c><c>   4</c></rc>
    <rc><c>N </c><c>   4</c></rc>
    <rc><c>N </c><c>   4</c></rc>
    <rc><c>N </c><c>   4</c></rc>
    <rc><c>N </c><c>   4</c></rc>
    <rc><c>N </c><c>   4</c></rc>
    <rc><c>N </c><c>   4</c></rc>
    <rc><c>N </c><c>   4</c></rc>
    <rc><c>N </c><c>   4</c></rc>
    <rc><c>N </c><c>   4</c></rc>
    <rc><c>N </c><c>   4</c></rc>
    <rc><c>C </c><c>   5</c></rc>
    <rc><c>C </c><c>   5</c></rc>
    <rc><c>C </c><c>   5</c></rc>
    <rc><c>C </c><c>   5</c></rc>
    <rc><c>C </c><c>   5</c></rc>
    <rc><c>C </c><c>   5</c></rc>
    <rc><c>C </c><c>   5</c></rc>
    <rc><c>C </c><c>   5</c></rc>
    <rc><c>C </c><c>   5</c></rc>
    <rc><c>C </c><c>   5</c></rc>
    <rc><c>C </c><c>   5</c></rc>
    <rc><c>C </c><c>   5</c></rc>
    <rc><c>C </c><c>   5</c></rc>
    <rc><c>C </c><c>   5</c></rc>
    <rc><c>C </c><c>   5</c></rc>
    <rc><c>C </c><c>   5</c></rc>
    <rc><c>C </c><c>   5</c></rc>
    <rc><c>C </c><c>   5</c></rc>
    <rc><c>C </c><c>   5</c></rc>
    <rc><c>Zr</c><c>   6</c></rc>
    <rc><c>Zr</c><c>   6</c></rc>
    <rc><c>Zr</c><c>   6</c></rc>
    <rc><c>Zr</c><c>   6</c></rc>
    <rc><c>Zr</c><c>   6</c></rc>
    <rc><c>Zr</c><c>   6</c></rc>
    <rc><c>Zr</c><c>   6</c></rc>
    <rc><c>Mo</c><c>   7</c></rc>
    <rc><c>Mo</c><c>   7</c></rc>
    <rc><c>Mo</c><c>   7</c></rc>
    <rc><c>Mo</c><c>   7</c></rc>
    <rc><c>Mo</c><c>   7</c></rc>
    <rc><c>Mo</c><c>   7</c></rc>
   </set>
  </array>
  <array name="atomtypes" >
   <dimension dim="1">type</dimension>
   <field type="int">atomspertype</field>
   <field type="string">element</field>
   <field>mass</field>
   <field>valence</field>
   <field type="string">pseudopotential</field>
   <set>
    <rc><c>   7</c><c>Ti</c><c>     47.88000000</c><c>     12.00000000</c><c> PAW_PBE Ti_sv 07Sep2000                </c></rc>
    <rc><c>   6</c><c>Ta</c><c>    180.94800000</c><c>     11.00000000</c><c> PAW_PBE Ta_pv 07Sep2000                </c></rc>
    <rc><c>   6</c><c>Nb</c><c>     92.91000000</c><c>     13.00000000</c><c> PAW_PBE Nb_sv 17Jan2003                </c></rc>
    <rc><c>  13</c><c>N </c><c>     14.00100000</c><c>      5.00000000</c><c> PAW_PBE N 08Apr2002                    </c></rc>
    <rc><c>  19</c><c>C </c><c>     12.01100000</c><c>      4.00000000</c><c> PAW_PBE C 08Apr2002                    </c></rc>
    <rc><c>   7</c><c>Zr</c><c>     91.22400000</c><c>     12.00000000</c><c> PAW_PBE Zr_sv 07Sep2000                </c></rc>
    <rc><c>   6</c><c>Mo</c><c>     95.94000000</c><c>      6.00000000</c><c> PAW_PBE Mo 08Apr2002                   </c></rc>
   </set>
  </array>
 </atominfo>
 <structure name="initialpos" >
  <crystal>
   <varray name="basis" >
    <v>       8.91345072      -0.00516334       0.00354058 </v>
    <v>      -0.00516986       8.95643116      -0.01038592 </v>
    <v>       0.00351538      -0.01040622       8.87095310 </v>
   </varray>
   <i name="volume">    708.19089503 </i>
   <varray name="rec_basis" >
    <v>       0.11219005       0.00006471      -0.00004438 </v>
    <v>       0.00006463       0.11165180       0.00013095 </v>
    <v>      -0.00004470       0.00013069       0.11272763 </v>
   </varray>
  </crystal>
  <varray name="positions" >
   <v>       0.99892397       0.99498359       0.00913826 </v>
   <v>       0.24052643       0.99424274       0.25004978 </v>
   <v>       0.26054331       0.49993678       0.25208552 </v>
   <v>       0.50017163       0.49741684       0.99792138 </v>
   <v>       0.49742566       0.25923655       0.75331982 </v>
   <v>       0.00702671       0.49573067       0.49374819 </v>
   <v>       0.50378258       0.73934549       0.74846505 </v>
   <v>       0.00347136       0.24532655       0.25922478 </v>
   <v>       0.75746649       0.74448258       0.00224296 </v>
   <v>       0.00376582       0.26188970       0.74279756 </v>
   <v>       0.75446428       0.26750134       0.49931257 </v>
   <v>       0.99493301       0.73546680       0.74227759 </v>
   <v>       0.25772517       0.49987863       0.74942740 </v>
   <v>       0.25944707       0.25767501       0.99547150 </v>
   <v>       0.50474964       0.26006231       0.24617758 </v>
   <v>       0.76079527       0.99179717       0.25009386 </v>
   <v>       0.73833275       0.25259531       0.00805556 </v>
   <v>       0.23666567       0.74310869       0.00153118 </v>
   <v>       0.24109961       0.24886682       0.50490232 </v>
   <v>       0.24882210       0.24987349       0.24945477 </v>
   <v>       0.24477308       0.00096972       0.00847039 </v>
   <v>       0.99859327       0.24165819       0.00083527 </v>
   <v>       0.75445935       0.24648920       0.25493528 </v>
   <v>       0.75622705       0.99653668       0.00104627 </v>
   <v>       0.50037295       0.00550942       0.24882064 </v>
   <v>       0.00567428       0.49031738       0.25730319 </v>
   <v>       0.50285400       0.74756448       0.99247887 </v>
   <v>       0.99844510       0.00438195       0.75816735 </v>
   <v>       0.74956813       0.25005243       0.74743766 </v>
   <v>       0.75319641       0.01199642       0.49636238 </v>
   <v>       0.50596464       0.25227433       0.50317874 </v>
   <v>       0.50230388       0.00271956       0.75105122 </v>
   <v>       0.00548929       0.00337356       0.24601160 </v>
   <v>       0.49920967       0.25800991       0.99543263 </v>
   <v>       0.24413396       0.74933912       0.24576034 </v>
   <v>       0.25423206       0.50135290       0.00307179 </v>
   <v>       0.99745355       0.75398896       0.99917840 </v>
   <v>       0.75410439       0.74151540       0.25157429 </v>
   <v>       0.74171667       0.49919554       0.99941182 </v>
   <v>       0.49104965       0.49910944       0.24573362 </v>
   <v>       0.25195639       0.25372161       0.74981192 </v>
   <v>       0.24814496       0.00297449       0.49212773 </v>
   <v>       0.99751452       0.25651691       0.50183983 </v>
   <v>       0.24989640       0.74598417       0.75500643 </v>
   <v>       0.25313814       0.49459632       0.49611299 </v>
   <v>       0.99237226       0.75432242       0.50073580 </v>
   <v>       0.00007255       0.49857728       0.74502832 </v>
   <v>       0.74602677       0.74567169       0.75031489 </v>
   <v>       0.75832034       0.49958371       0.49661749 </v>
   <v>       0.50522426       0.74663437       0.50700446 </v>
   <v>       0.49950824       0.50017729       0.75079759 </v>
   <v>       0.49968756       0.00355977       0.00056313 </v>
   <v>       0.99749305       0.49757206       0.00726914 </v>
   <v>       0.49943241       0.74627049       0.24938384 </v>
   <v>       0.24528804       0.99955386       0.75369388 </v>
   <v>       0.49701945       0.99996029       0.49928897 </v>
   <v>       0.75399334       0.99421308       0.74664003 </v>
   <v>       0.24746878       0.74857831       0.49963742 </v>
   <v>       0.99648315       0.76709076       0.25683852 </v>
   <v>       0.72503399       0.49641542       0.24426346 </v>
   <v>       0.01066863       0.01232071       0.48522610 </v>
   <v>       0.50587953       0.50752626       0.49759790 </v>
   <v>       0.73938641       0.50857781       0.75455926 </v>
   <v>       0.75003157       0.72382996       0.49768222 </v>
  </varray>
 </structure>
 <calculation>
  <scstep>
   <time name="dav">   19.53   19.58</time>
   <time name="total">   19.56   19.63</time>
   <energy>
    <i name="alphaZ">   3928.64717414 </i>
    <i name="ewald"> -38225.58485449 </i>
    <i name="hartreedc">  -7636.40334877 </i>
    <i name="XCdc">   1437.59444119 </i>
    <i name="pawpsdc">  26866.49309477 </i>
    <i name="pawaedc"> -26000.41487970 </i>
    <i name="eentropy">     -0.07705931 </i>
    <i name="bandstr">   1608.22901254 </i>
    <i name="atom">  43240.66814686 </i>
    <i name="e_fr_energy">   5219.15172722 </i>
    <i name="e_wo_entrp">   5219.22878653 </i>
    <i name="e_0_energy">   5219.19025688 </i>
   </energy>
  </scstep>
  <scstep>
   <time name="dav">   19.08   19.83</time>
   <time name="total">   19.08   19.83</time>
   <energy>
    <i name="e_fr_energy">    132.44310089 </i>
    <i name="e_wo_entrp">    132.55563995 </i>
    <i name="e_0_energy">    132.49937042 </i>
   </energy>
  </scstep>
  <scstep>
   <time name="dav">   28.81   29.51</time>
   <time name="total">   28.81   29.51</time>
   <energy>
    <i name="e_fr_energy">   -687.48965942 </i>
    <i name="e_wo_entrp">   -687.41289096 </i>
    <i name="e_0_energy">   -687.45127519 </i>
   </energy>
  </scstep>
  <scstep>
   <time name="dav">   30.85   31.38</time>
   <time name="total">   30.86   31.38</time>
   <energy>
    <i name="e_fr_energy">   -772.82651382 </i>
    <i name="e_wo_entrp">   -772.73821925 </i>
    <i name="e_0_energy">   -772.78236653 </i>
   </energy>
  </scstep>
  <scstep>
   <time name="dav">   33.64   34.15</time>
   <time name="total">   33.80   34.32</time>
   <energy>
    <i name="e_fr_energy">   -781.33150978 </i>
    <i name="e_wo_entrp">   -781.24018307 </i>
    <i name="e_0_energy">   -781.28584643 </i>
   </energy>
  </scstep>
  <scstep>
   <time name="diag">    1.35    1.36</time>
   <time name="diis">   17.16   17.23</time>
   <time name="orth">    0.33    0.33</time>
   <time name="total">   19.05   19.15</time>
   <energy>
    <i name="e_fr_energy">   -637.85782784 </i>
    <i name="e_wo_entrp">   -637.72462934 </i>
    <i name="e_0_energy">   -637.79122859 </i>
   </energy>
  </scstep>
  <scstep>
   <time name="diag">    1.37    1.38</time>
   <time name="diis">   18.48   18.67</time>
   <time name="orth">    0.38    0.39</time>
   <time name="total">   20.41   20.62</time>
   <energy>
    <i name="e_fr_energy">   -644.23160264 </i>
    <i name="e_wo_entrp">   -644.12363554 </i>
    <i name="e_0_energy">   -644.17761909 </i>
   </energy>
  </scstep>
  <scstep>
   <time name="diag">    1.33    1.34</time>
   <time name="diis">   19.43   19.55</time>
   <time name="orth">    0.35    0.35</time>
   <time name="total">   21.29   21.43</time>
   <energy>
    <i name="e_fr_energy">   -648.80132557 </i>
    <i name="e_wo_entrp">   -648.69051244 </i>
    <i name="e_0_energy">   -648.74591901 </i>
   </energy>
  </scstep>
  <scstep>
   <time name="diag">    1.38    1.39</time>
   <time name="diis">   18.38   18.47</time>
   <time name="orth">    0.36    0.36</time>
   <time name="total">   20.31   20.40</time>
   <energy>
    <i name="e_fr_energy">   -648.27109045 </i>
    <i name="e_wo_entrp">   -648.16781122 </i>
    <i name="e_0_energy">   -648.21945083 </i>
   </energy>
  </scstep>
  <scstep>
   <time name="diag">    1.37    1.37</time>
   <time name="diis">   18.98   19.11</time>
   <time name="orth">    0.33    0.33</time>
   <time name="total">   20.86   21.00</time>
   <energy>
    <i name="e_fr_energy">   -648.63477841 </i>
    <i name="e_wo_entrp">   -648.53469295 </i>
    <i name="e_0_energy">   -648.58473568 </i>
   </energy>
  </scstep>
  <scstep>
   <time name="diag">    1.39    1.39</time>
   <time name="diis">   20.30   20.50</time>
   <time name="orth">    0.33    0.33</time>
   <time name="total">   22.21   22.41</time>
   <energy>
    <i name="e_fr_energy">   -649.01985163 </i>
    <i name="e_wo_entrp">   -648.91667768 </i>
    <i name="e_0_energy">   -648.96826466 </i>
   </energy>
  </scstep>
  <scstep>
   <time name="diag">    1.40    1.41</time>
   <time name="diis">   19.62   19.69</time>
   <time name="orth">    0.33    0.33</time>
   <time name="total">   21.56   21.64</time>
   <energy>
    <i name="e_fr_energy">   -649.23442106 </i>
    <i name="e_wo_entrp">   -649.12859370 </i>
    <i name="e_0_energy">   -649.18150738 </i>
   </energy>
  </scstep>
  <scstep>
   <time name="diag">    1.43    1.44</time>
   <time name="diis">   20.89   21.00</time>
   <time name="orth">    0.33    0.33</time>
   <time name="total">   22.83   22.96</time>
   <energy>
    <i name="e_fr_energy">   -649.44654495 </i>
    <i name="e_wo_entrp">   -649.34191272 </i>
    <i name="e_0_energy">   -649.39422884 </i>
   </energy>
  </scstep>
  <scstep>
   <time name="diag">    1.39    1.39</time>
   <time name="diis">   19.78   20.15</time>
   <time name="orth">    0.33    0.33</time>
   <time name="total">   21.68   22.06</time>
   <energy>
    <i name="e_fr_energy">   -649.56413128 </i>
    <i name="e_wo_entrp">   -649.45929376 </i>
    <i name="e_0_energy">   -649.51171252 </i>
   </energy>
  </scstep>
  <scstep>
   <time name="diag">    1.40    1.41</time>
   <time name="diis">   19.59   19.74</time>
   <time name="orth">    0.38    0.39</time>
   <time name="total">   21.56   21.72</time>
   <energy>
    <i name="e_fr_energy">   -649.58143062 </i>
    <i name="e_wo_entrp">   -649.47738395 </i>
    <i name="e_0_energy">   -649.52940728 </i>
   </energy>
  </scstep>
  <scstep>
   <time name="diag">    1.37    1.37</time>
   <time name="diis">   20.64   20.88</time>
   <time name="orth">    0.33    0.33</time>
   <time name="total">   22.53   22.77</time>
   <energy>
    <i name="e_fr_energy">   -649.65247697 </i>
    <i name="e_wo_entrp">   -649.54867110 </i>
    <i name="e_0_energy">   -649.60057404 </i>
   </energy>
  </scstep>
  <scstep>
   <time name="diag">    1.59    1.64</time>
   <time name="diis">   21.14   21.32</time>
   <time name="orth">    0.37    0.37</time>
   <time name="total">   23.28   23.52</time>
   <energy>
    <i name="e_fr_energy">   -649.70209603 </i>
    <i name="e_wo_entrp">   -649.59821834 </i>
    <i name="e_0_energy">   -649.65015719 </i>
   </energy>
  </scstep>
  <scstep>
   <time name="diag">    1.39    1.40</time>
   <time name="diis">   21.13   21.36</time>
   <time name="orth">    0.33    0.33</time>
   <time name="total">   23.04   23.27</time>
   <energy>
    <i name="e_fr_energy">   -649.74460855 </i>
    <i name="e_wo_entrp">   -649.64079385 </i>
    <i name="e_0_energy">   -649.69270120 </i>
   </energy>
  </scstep>
  <scstep>
   <time name="diag">    1.36    1.36</time>
   <time name="diis">   21.14   21.33</time>
   <time name="orth">    0.33    0.33</time>
   <time name="total">   23.02   23.21</time>
   <energy>
    <i name="e_fr_energy">   -649.77126241 </i>
    <i name="e_wo_entrp">   -649.66711984 </i>
    <i name="e_0_energy">   -649.71919112 </i>
   </energy>
  </scstep>
  <scstep>
   <time name="diag">    1.40    1.41</time>
   <time name="diis">   21.21   21.36</time>
   <time name="orth">    0.33    0.33</time>
   <time name="total">   23.12   23.28</time>
   <energy>
    <i name="e_fr_energy">   -649.79571139 </i>
    <i name="e_wo_entrp">   -649.69155771 </i>
    <i name="e_0_energy">   -649.74363455 </i>
   </energy>
  </scstep>
  <scstep>
   <time name="diag">    1.43    1.44</time>
   <time name="diis">   21.10   21.32</time>
   <time name="orth">    0.35    0.35</time>
   <time name="total">   23.07   23.30</time>
   <energy>
    <i name="e_fr_energy">   -649.81403923 </i>
    <i name="e_wo_entrp">   -649.70975308 </i>
    <i name="e_0_energy">   -649.76189616 </i>
   </energy>
  </scstep>
  <scstep>
   <time name="diag">    1.35    1.35</time>
   <time name="diis">   21.01   21.17</time>
   <time name="orth">    0.33    0.34</time>
   <time name="total">   22.88   23.05</time>
   <energy>
    <i name="e_fr_energy">   -649.83048425 </i>
    <i name="e_wo_entrp">   -649.72618268 </i>
    <i name="e_0_energy">   -649.77833347 </i>
   </energy>
  </scstep>
  <scstep>
   <time name="diag">    1.42    1.43</time>
   <time name="diis">   21.08   21.22</time>
   <time name="orth">    0.36    0.36</time>
   <time name="total">   23.04   23.20</time>
   <energy>
    <i name="e_fr_energy">   -649.84321236 </i>
    <i name="e_wo_entrp">   -649.73896249 </i>
    <i name="e_0_energy">   -649.79108743 </i>
   </energy>
  </scstep>
  <scstep>
   <time name="diag">    1.33    1.34</time>
   <time name="diis">   20.67   20.88</time>
   <time name="orth">    0.33    0.33</time>
   <time name="total">   22.52   22.73</time>
   <energy>
    <i name="e_fr_energy">   -649.85458313 </i>
    <i name="e_wo_entrp">   -649.75019162 </i>
    <i name="e_0_energy">   -649.80238738 </i>
   </energy>
  </scstep>
  <scstep>
   <time name="diag">    1.44    1.45</time>
   <time name="diis">   20.55   20.68</time>
   <time name="orth">    0.33    0.34</time>
   <time name="total">   22.51   22.66</time>
   <energy>
    <i name="e_fr_energy">   -649.86367803 </i>
    <i name="e_wo_entrp">   -649.75929935 </i>
    <i name="e_0_energy">   -649.81148869 </i>
   </energy>
  </scstep>
  <scstep>
   <time name="diag">    1.33    1.33</time>
   <time name="diis">   20.72   20.93</time>
   <time name="orth">    0.35    0.35</time>
   <time name="total">   22.59   22.80</time>
   <energy>
    <i name="e_fr_energy">   -649.87261213 </i>
    <i name="e_wo_entrp">   -649.76818385 </i>
    <i name="e_0_energy">   -649.82039799 </i>
   </energy>
  </scstep>
  <scstep>
   <time name="diag">    1.40    1.40</time>
   <time name="diis">   20.51   20.72</time>
   <time name="orth">    0.33    0.33</time>
   <time name="total">   22.42   22.64</time>
   <energy>
    <i name="e_fr_energy">   -649.87965059 </i>
    <i name="e_wo_entrp">   -649.77519895 </i>
    <i name="e_0_energy">   -649.82742477 </i>
   </energy>
  </scstep>
  <scstep>
   <time name="diag">    1.33    1.33</time>
   <time name="diis">   20.25   20.41</time>
   <time name="orth">    0.33    0.33</time>
   <time name="total">   22.09   22.26</time>
   <energy>
    <i name="e_fr_energy">   -649.88558122 </i>
    <i name="e_wo_entrp">   -649.78112520 </i>
    <i name="e_0_energy">   -649.83335321 </i>
   </energy>
  </scstep>
  <scstep>
   <time name="diag">    1.39    1.39</time>
   <time name="diis">   20.25   20.46</time>
   <time name="orth">    0.33    0.33</time>
   <time name="total">   22.16   22.37</time>
   <energy>
    <i name="e_fr_energy">   -649.89068731 </i>
    <i name="e_wo_entrp">   -649.78622484 </i>
    <i name="e_0_energy">   -649.83845607 </i>
   </energy>
  </scstep>
  <scstep>
   <time name="diag">    1.38    1.39</time>
   <time name="diis">   20.52   20.64</time>
   <time name="orth">    0.33    0.33</time>
   <time name="total">   22.42   22.55</time>
   <energy>
    <i name="e_fr_energy">   -649.89461151 </i>
    <i name="e_wo_entrp">   -649.79016581 </i>
    <i name="e_0_energy">   -649.84238866 </i>
   </energy>
  </scstep>
  <scstep>
   <time name="diag">    1.35    1.35</time>
   <time name="diis">   20.39   20.54</time>
   <time name="orth">    0.41    0.42</time>
   <time name="total">   22.34   22.50</time>
   <energy>
    <i name="e_fr_energy">   -649.89821364 </i>
    <i name="e_wo_entrp">   -649.79376921 </i>
    <i name="e_0_energy">   -649.84599143 </i>
   </energy>
  </scstep>
  <scstep>
   <time name="diag">    1.34    1.34</time>
   <time name="diis">   20.20   20.37</time>
   <time name="orth">    0.33    0.33</time>
   <time name="total">   22.05   22.23</time>
   <energy>
    <i name="e_fr_energy">   -649.90157495 </i>
    <i name="e_wo_entrp">   -649.79712875 </i>
    <i name="e_0_energy">   -649.84935185 </i>
   </energy>
  </scstep>
  <scstep>
   <time name="diag">    1.38    1.38</time>
   <time name="diis">   20.16   20.29</time>
   <time name="orth">    0.33    0.33</time>
   <time name="total">   22.06   22.20</time>
   <energy>
    <i name="e_fr_energy">   -649.90433495 </i>
    <i name="e_wo_entrp">   -649.79988623 </i>
    <i name="e_0_energy">   -649.85211059 </i>
   </energy>
  </scstep>
  <scstep>
   <time name="diag">    1.39    1.40</time>
   <time name="diis">   20.16   20.27</time>
   <time name="orth">    0.33    0.33</time>
   <time name="total">   22.07   22.18</time>
   <energy>
    <i name="e_fr_energy">   -649.90697900 </i>
    <i name="e_wo_entrp">   -649.80252486 </i>
    <i name="e_0_energy">   -649.85475193 </i>
   </energy>
  </scstep>
  <scstep>
   <time name="diag">    1.40    1.40</time>
   <time name="diis">   19.99   20.12</time>
   <time name="orth">    0.34    0.34</time>
   <time name="total">   21.91   22.06</time>
   <energy>
    <i name="e_fr_energy">   -649.90894310 </i>
    <i name="e_wo_entrp">   -649.80449352 </i>
    <i name="e_0_energy">   -649.85671831 </i>
   </energy>
  </scstep>
  <scstep>
   <time name="diag">    1.38    1.38</time>
   <time name="diis">   19.98   20.09</time>
   <time name="orth">    0.33    0.33</time>
   <time name="total">   21.91   22.02</time>
   <energy>
    <i name="e_fr_energy">   -649.91083240 </i>
    <i name="e_wo_entrp">   -649.80638168 </i>
    <i name="e_0_energy">   -649.85860704 </i>
   </energy>
  </scstep>
  <scstep>
   <time name="diag">    1.35    1.35</time>
   <time name="diis">   19.81   19.91</time>
   <time name="orth">    0.34    0.34</time>
   <time name="total">   21.69   21.79</time>
   <energy>
    <i name="e_fr_energy">   -649.91255999 </i>
    <i name="e_wo_entrp">   -649.80810772 </i>
    <i name="e_0_energy">   -649.86033385 </i>
   </energy>
  </scstep>
  <scstep>
   <time name="diag">    1.33    1.34</time>
   <time name="diis">   19.80   19.93</time>
   <time name="orth">    0.33    0.33</time>
   <time name="total">   21.65   21.78</time>
   <energy>
    <i name="e_fr_energy">   -649.91407489 </i>
    <i name="e_wo_entrp">   -649.80962105 </i>
    <i name="e_0_energy">   -649.86184797 </i>
   </energy>
  </scstep>
  <scstep>
   <time name="diag">    1.40    1.41</time>
   <time name="diis">   19.81   19.90</time>
   <time name="orth">    0.35    0.35</time>
   <time name="total">   21.76   21.87</time>
   <energy>
    <i name="e_fr_energy">   -649.91542797 </i>
    <i name="e_wo_entrp">   -649.81097069 </i>
    <i name="e_0_energy">   -649.86319933 </i>
   </energy>
  </scstep>
  <scstep>
   <time name="diag">    1.44    1.44</time>
   <time name="diis">   19.56   19.73</time>
   <time name="orth">    0.33    0.33</time>
   <time name="total">   21.52   21.69</time>
   <energy>
    <i name="e_fr_energy">   -649.91658241 </i>
    <i name="e_wo_entrp">   -649.81212410 </i>
    <i name="e_0_energy">   -649.86435326 </i>
   </energy>
  </scstep>
  <scstep>
   <time name="diag">    1.38    1.38</time>
   <time name="diis">   19.60   19.70</time>
   <time name="orth">    0.33    0.33</time>
   <time name="total">   21.50   21.60</time>
   <energy>
    <i name="e_fr_energy">   -649.91756543 </i>
    <i name="e_wo_entrp">   -649.81310630 </i>
    <i name="e_0_energy">   -649.86533587 </i>
   </energy>
  </scstep>
  <scstep>
   <time name="diag">    1.33    1.34</time>
   <time name="diis">   19.36   19.57</time>
   <time name="orth">    0.33    0.33</time>
   <time name="total">   21.20   21.42</time>
   <energy>
    <i name="e_fr_energy">   -649.91828934 </i>
    <i name="e_wo_entrp">   -649.81383367 </i>
    <i name="e_0_energy">   -649.86606151 </i>
   </energy>
  </scstep>
  <scstep>
   <time name="diag">    1.39    1.39</time>
   <time name="diis">   19.57   19.74</time>
   <time name="orth">    0.33    0.33</time>
   <time name="total">   21.49   21.68</time>
   <energy>
    <i name="e_fr_energy">   -649.91869525 </i>
    <i name="e_wo_entrp">   -649.81424723 </i>
    <i name="e_0_energy">   -649.86647124 </i>
   </energy>
  </scstep>
  <scstep>
   <time name="diag">    1.36    1.36</time>
   <time name="diis">   20.19   20.27</time>
   <time name="orth">    0.33    0.33</time>
   <time name="total">   22.10   22.19</time>
   <energy>
    <i name="e_fr_energy">   -649.91885353 </i>
    <i name="e_wo_entrp">   -649.81441416 </i>
    <i name="e_0_energy">   -649.86663385 </i>
   </energy>
  </scstep>
  <scstep>
   <time name="diag">    1.35    1.35</time>
   <time name="diis">   19.53   19.74</time>
   <time name="orth">    0.33    0.33</time>
   <time name="total">   21.39   21.61</time>
   <energy>
    <i name="e_fr_energy">   -649.91920338 </i>
    <i name="e_wo_entrp">   -649.81476773 </i>
    <i name="e_0_energy">   -649.86698556 </i>
   </energy>
  </scstep>
  <scstep>
   <time name="diag">    1.33    1.36</time>
   <time name="diis">   18.83   18.99</time>
   <time name="orth">    0.36    0.36</time>
   <time name="total">   20.70   20.90</time>
   <energy>
    <i name="e_fr_energy">   -649.91975244 </i>
    <i name="e_wo_entrp">   -649.81531468 </i>
    <i name="e_0_energy">   -649.86753356 </i>
   </energy>
  </scstep>
  <scstep>
   <time name="diag">    1.37    1.38</time>
   <time name="diis">   18.65   18.84</time>
   <time name="orth">    0.35    0.35</time>
   <time name="total">   20.57   20.76</time>
   <energy>
    <i name="e_fr_energy">   -649.92022932 </i>
    <i name="e_wo_entrp">   -649.81579069 </i>
    <i name="e_0_energy">   -649.86801001 </i>
   </energy>
  </scstep>
  <scstep>
   <time name="diag">    1.33    1.33</time>
   <time name="diis">   18.60   18.76</time>
   <time name="orth">    0.33    0.33</time>
   <time name="total">   20.47   20.64</time>
   <energy>
    <i name="e_fr_energy">   -649.92065854 </i>
    <i name="e_wo_entrp">   -649.81621916 </i>
    <i name="e_0_energy">   -649.86843885 </i>
   </energy>
  </scstep>
  <scstep>
   <time name="diag">    1.40    1.41</time>
   <time name="diis">   18.50   18.62</time>
   <time name="orth">    0.33    0.33</time>
   <time name="total">   20.41   20.55</time>
   <energy>
    <i name="e_fr_energy">   -649.92100092 </i>
    <i name="e_wo_entrp">   -649.81655934 </i>
    <i name="e_0_energy">   -649.86878013 </i>
   </energy>
  </scstep>
  <scstep>
   <time name="diag">    1.37    1.38</time>
   <time name="diis">   18.67   18.77</time>
   <time name="orth">    0.33    0.33</time>
   <time name="total">   20.56   20.67</time>
   <energy>
    <i name="e_fr_energy">   -649.92120121 </i>
    <i name="e_wo_entrp">   -649.81676177 </i>
    <i name="e_0_energy">   -649.86898149 </i>
   </energy>
  </scstep>
  <scstep>
   <time name="diag">    1.38    1.39</time>
   <time name="diis">   20.13   20.24</time>
   <time name="orth">    0.36    0.36</time>
   <time name="total">   22.07   22.18</time>
   <energy>
    <i name="e_fr_energy">   -649.92100170 </i>
    <i name="e_wo_entrp">   -649.81657891 </i>
    <i name="e_0_energy">   -649.86879030 </i>
   </energy>
  </scstep>
  <scstep>
   <time name="diag">    1.34    1.35</time>
   <time name="diis">   18.32   18.43</time>
   <time name="orth">    0.36    0.37</time>
   <time name="total">   20.21   20.33</time>
   <energy>
    <i name="e_fr_energy">   -649.92129245 </i>
    <i name="e_wo_entrp">   -649.81686677 </i>
    <i name="e_0_energy">   -649.86907961 </i>
   </energy>
  </scstep>
  <scstep>
   <time name="diag">    1.33    1.33</time>
   <time name="diis">   18.34   18.42</time>
   <time name="orth">    0.37    0.37</time>
   <time name="total">   20.23   20.31</time>
   <energy>
    <i name="e_fr_energy">   -649.92148752 </i>
    <i name="e_wo_entrp">   -649.81706378 </i>
    <i name="e_0_energy">   -649.86927565 </i>
   </energy>
  </scstep>
  <scstep>
   <time name="diag">    1.34    1.35</time>
   <time name="diis">   17.88   17.97</time>
   <time name="orth">    0.33    0.33</time>
   <time name="total">   19.76   19.86</time>
   <energy>
    <i name="e_fr_energy">   -649.92167810 </i>
    <i name="e_wo_entrp">   -649.81725627 </i>
    <i name="e_0_energy">   -649.86946718 </i>
   </energy>
  </scstep>
  <scstep>
   <time name="diag">    1.38    1.38</time>
   <time name="diis">   17.61   17.79</time>
   <time name="orth">    0.33    0.33</time>
   <time name="total">   19.51   19.70</time>
   <energy>
    <i name="e_fr_energy">   -649.92186896 </i>
    <i name="e_wo_entrp">   -649.81744754 </i>
    <i name="e_0_energy">   -649.86965825 </i>
   </energy>
  </scstep>
  <scstep>
   <time name="diag">    1.41    1.42</time>
   <time name="diis">   17.71   17.81</time>
   <time name="orth">    0.33    0.33</time>
   <time name="total">   19.63   19.74</time>
   <energy>
    <i name="e_fr_energy">   -649.92193848 </i>
    <i name="e_wo_entrp">   -649.81751953 </i>
    <i name="e_0_energy">   -649.86972901 </i>
   </energy>
  </scstep>
  <scstep>
   <time name="diag">    1.37    1.38</time>
   <time name="diis">   16.91   17.11</time>
   <time name="orth">    0.34    0.34</time>
   <time name="total">   18.83   19.03</time>
   <energy>
    <i name="e_fr_energy">   -649.92215615 </i>
    <i name="e_wo_entrp">   -649.81773542 </i>
    <i name="e_0_energy">   -649.86994579 </i>
   </energy>
  </scstep>
  <scstep>
   <time name="diag">    1.34    1.34</time>
   <time name="diis">   16.95   17.07</time>
   <time name="orth">    0.33    0.33</time>
   <time name="total">   18.80   18.92</time>
   <energy>
    <i name="e_fr_energy">   -649.92226102 </i>
    <i name="e_wo_entrp">   -649.81784048 </i>
    <i name="e_0_energy">   -649.87005075 </i>
   </energy>
  </scstep>
  <scstep>
   <time name="diag">    1.33    1.33</time>
   <time name="diis">   16.63   16.70</time>
   <time name="orth">    0.36    0.36</time>
   <time name="total">   18.50   18.58</time>
   <energy>
    <i name="e_fr_energy">   -649.92238529 </i>
    <i name="e_wo_entrp">   -649.81796427 </i>
    <i name="e_0_energy">   -649.87017478 </i>
   </energy>
  </scstep>
  <scstep>
   <time name="diag">    1.41    1.42</time>
   <time name="diis">   16.43   16.53</time>
   <time name="orth">    0.33    0.33</time>
   <time name="total">   18.20   18.31</time>
   <energy>
    <i name="alphaZ">   3928.64717414 </i>
    <i name="ewald"> -38225.58485449 </i>
    <i name="hartreedc">  -7252.95370414 </i>
    <i name="XCdc">   1435.02733487 </i>
    <i name="pawpsdc">  28123.71372308 </i>
    <i name="pawaedc"> -27284.29111352 </i>
    <i name="eentropy">     -0.10442069 </i>
    <i name="bandstr">  -4615.04477706 </i>
    <i name="atom">  43240.66814686 </i>
    <i name="e_fr_energy">   -649.92249096 </i>
    <i name="e_wo_entrp">   -649.81807027 </i>
    <i name="e_0_energy">   -649.87028062 </i>
   </energy>
  </scstep>
  <structure>
   <crystal>
    <varray name="basis" >
     <v>       8.91345072      -0.00516334       0.00354058 </v>
     <v>      -0.00516986       8.95643116      -0.01038592 </v>
     <v>       0.00351538      -0.01040622       8.87095310 </v>
    </varray>
    <i name="volume">    708.19089503 </i>
    <varray name="rec_basis" >
     <v>       0.11219005       0.00006471      -0.00004438 </v>
     <v>       0.00006463       0.11165180       0.00013095 </v>
     <v>      -0.00004470       0.00013069       0.11272763 </v>
    </varray>
   </crystal>
   <varray name="positions" >
    <v>       0.99892397       0.99498359       0.00913826 </v>
    <v>       0.24052643       0.99424274       0.25004978 </v>
    <v>       0.26054331       0.49993678       0.25208552 </v>
    <v>       0.50017163       0.49741684       0.99792138 </v>
    <v>       0.49742566       0.25923655       0.75331982 </v>
    <v>       0.00702671       0.49573067       0.49374819 </v>
    <v>       0.50378258       0.73934549       0.74846505 </v>
    <v>       0.00347136       0.24532655       0.25922478 </v>
    <v>       0.75746649       0.74448258       0.00224296 </v>
    <v>       0.00376582       0.26188970       0.74279756 </v>
    <v>       0.75446428       0.26750134       0.49931257 </v>
    <v>       0.99493301       0.73546680       0.74227759 </v>
    <v>       0.25772517       0.49987863       0.74942740 </v>
    <v>       0.25944707       0.25767501       0.99547150 </v>
    <v>       0.50474964       0.26006231       0.24617758 </v>
    <v>       0.76079527       0.99179717       0.25009386 </v>
    <v>       0.73833275       0.25259531       0.00805556 </v>
    <v>       0.23666567       0.74310869       0.00153118 </v>
    <v>       0.24109961       0.24886682       0.50490232 </v>
    <v>       0.24882210       0.24987349       0.24945477 </v>
    <v>       0.24477308       0.00096972       0.00847039 </v>
    <v>       0.99859327       0.24165819       0.00083527 </v>
    <v>       0.75445935       0.24648920       0.25493528 </v>
    <v>       0.75622705       0.99653668       0.00104627 </v>
    <v>       0.50037295       0.00550942       0.24882064 </v>
    <v>       0.00567428       0.49031738       0.25730319 </v>
    <v>       0.50285400       0.74756448       0.99247887 </v>
    <v>       0.99844510       0.00438195       0.75816735 </v>
    <v>       0.74956813       0.25005243       0.74743766 </v>
    <v>       0.75319641       0.01199642       0.49636238 </v>
    <v>       0.50596464       0.25227433       0.50317874 </v>
    <v>       0.50230388       0.00271956       0.75105122 </v>
    <v>       0.00548929       0.00337356       0.24601160 </v>
    <v>       0.49920967       0.25800991       0.99543263 </v>
    <v>       0.24413396       0.74933912       0.24576034 </v>
    <v>       0.25423206       0.50135290       0.00307179 </v>
    <v>       0.99745355       0.75398896       0.99917840 </v>
    <v>       0.75410439       0.74151540       0.25157429 </v>
    <v>       0.74171667       0.49919554       0.99941182 </v>
    <v>       0.49104965       0.49910944       0.24573362 </v>
    <v>       0.25195639       0.25372161       0.74981192 </v>
    <v>       0.24814496       0.00297449       0.49212773 </v>
    <v>       0.99751452       0.25651691       0.50183983 </v>
    <v>       0.24989640       0.74598417       0.75500643 </v>
    <v>       0.25313814       0.49459632       0.49611299 </v>
    <v>       0.99237226       0.75432242       0.50073580 </v>
    <v>       0.00007255       0.49857728       0.74502832 </v>
    <v>       0.74602677       0.74567169       0.75031489 </v>
    <v>       0.75832034       0.49958371       0.49661749 </v>
    <v>       0.50522426       0.74663437       0.50700446 </v>
    <v>       0.49950824       0.50017729       0.75079759 </v>
    <v>       0.49968756       0.00355977       0.00056313 </v>
    <v>       0.99749305       0.49757206       0.00726914 </v>
    <v>       0.49943241       0.74627049       0.24938384 </v>
    <v>       0.24528804       0.99955386       0.75369388 </v>
    <v>       0.49701945       0.99996029       0.49928897 </v>
    <v>       0.75399334       0.99421308       0.74664003 </v>
    <v>       0.24746878       0.74857831       0.49963742 </v>
    <v>       0.99648315       0.76709076       0.25683852 </v>
    <v>       0.72503399       0.49641542       0.24426346 </v>
    <v>       0.01066863       0.01232071       0.48522610 </v>
    <v>       0.50587953       0.50752626       0.49759790 </v>
    <v>       0.73938641       0.50857781       0.75455926 </v>
    <v>       0.75003157       0.72382996       0.49768222 </v>
   </varray>
  </structure>
  <varray name="forces" >
   <v>      -0.00222321      -0.00231025       0.00837680 </v>
   <v>      -0.00676901      -0.00244346       0.00310495 </v>
   <v>       0.00635859       0.00131502       0.00255313 </v>
   <v>       0.00334743      -0.00227667       0.00069217 </v>
   <v>      -0.00431536       0.00535491       0.00594206 </v>
   <v>      -0.00122749      -0.00432297       0.00069279 </v>
   <v>       0.00424889      -0.00327255      -0.00364337 </v>
   <v>      -0.00262963       0.00026716      -0.00068269 </v>
   <v>      -0.00238048       0.00548644       0.00145127 </v>
   <v>      -0.00231117      -0.00494957       0.00415826 </v>
   <v>       0.00281855       0.00195393      -0.00137965 </v>
   <v>       0.00054643       0.00275607       0.00048078 </v>
   <v>       0.00002918      -0.00150575      -0.00263600 </v>
   <v>       0.02445764       0.00996478      -0.01557283 </v>
   <v>       0.00396955       0.01686375      -0.02377083 </v>
   <v>       0.01654721      -0.00757836      -0.01398364 </v>
   <v>      -0.02721217       0.00858096       0.00955297 </v>
   <v>      -0.01004572      -0.00348200       0.00331070 </v>
   <v>      -0.01039730      -0.00229746       0.01065378 </v>
   <v>       0.00190479       0.00044756       0.00082656 </v>
   <v>      -0.00086422       0.00186146      -0.00174737 </v>
   <v>       0.00050704       0.00176800       0.00036561 </v>
   <v>      -0.00172750       0.00169190       0.00868668 </v>
   <v>       0.00097509      -0.00170383      -0.00425039 </v>
   <v>       0.00210813       0.00123304       0.00020742 </v>
   <v>      -0.00051707       0.00132407      -0.00032499 </v>
   <v>       0.00034121      -0.00235554       0.00154955 </v>
   <v>      -0.00180064       0.00113548      -0.00020007 </v>
   <v>       0.00020449       0.00065050      -0.00299215 </v>
   <v>      -0.00225054       0.00219067      -0.00103260 </v>
   <v>      -0.00058593      -0.00254600       0.00156857 </v>
   <v>       0.00188738      -0.00104338      -0.00098247 </v>
   <v>      -0.00178236      -0.00202466      -0.00236121 </v>
   <v>      -0.00057741       0.00213885      -0.00075359 </v>
   <v>      -0.00267325      -0.00057122       0.00136730 </v>
   <v>      -0.00087626      -0.00096543       0.00279398 </v>
   <v>      -0.00055136       0.00288239       0.00098839 </v>
   <v>       0.00026800       0.00113388       0.00334325 </v>
   <v>      -0.00137951      -0.00128090      -0.00211238 </v>
   <v>       0.00428602       0.00191861       0.00015150 </v>
   <v>       0.00047833      -0.00161179       0.00260379 </v>
   <v>      -0.00408930      -0.00073773       0.00148444 </v>
   <v>      -0.00277229      -0.00245719       0.00043906 </v>
   <v>       0.00008425      -0.00254867       0.00072318 </v>
   <v>      -0.00015165      -0.00129487      -0.00065872 </v>
   <v>      -0.00253003      -0.00128159      -0.00137927 </v>
   <v>      -0.00047205       0.00089257       0.00033808 </v>
   <v>       0.00275364      -0.00201944      -0.00000531 </v>
   <v>       0.00085242      -0.00324658      -0.00038914 </v>
   <v>       0.00224353      -0.00357526       0.00160622 </v>
   <v>       0.00286800       0.00087697      -0.00171491 </v>
   <v>       0.00297061       0.00192378      -0.00031578 </v>
   <v>       0.00055240      -0.00428729      -0.00102614 </v>
   <v>      -0.00188355       0.00071603       0.00100632 </v>
   <v>      -0.00058845      -0.00359723       0.00500920 </v>
   <v>       0.00230939       0.00107939       0.00015998 </v>
   <v>       0.00433197      -0.00031453       0.00098351 </v>
   <v>      -0.00176700      -0.00120576      -0.00113427 </v>
   <v>      -0.00202379       0.00453277      -0.00019635 </v>
   <v>       0.00243913      -0.00132463      -0.00206715 </v>
   <v>      -0.00004389      -0.00051799       0.00073943 </v>
   <v>      -0.00003199      -0.00591083       0.00074641 </v>
   <v>       0.00307589      -0.00424765      -0.00364897 </v>
   <v>       0.00168642       0.00416812       0.00230412 </v>
  </varray>
  <varray name="stress" >
   <v>      -4.71750933       0.13199099       0.08971383 </v>
   <v>       0.13199145      -4.77337713      -0.11025033 </v>
   <v>       0.08971492      -0.11024753      -4.96833206 </v>
  </varray>
  <energy>
   <i name="e_fr_energy">   -649.92249096 </i>
   <i name="e_wo_entrp">   -649.81807027 </i>
   <i name="e_0_energy">   -649.87028062 </i>
  </energy>
  <time name="totalsc"> 1343.34 1354.95</time>
 </calculation>
 <calculation>
  <scstep>
   <time name="dav">   26.91   27.27</time>
   <time name="total">   27.09   27.46</time>
   <energy>
    <i name="alphaZ">   3947.63502124 </i>
    <i name="ewald"> -38286.91176195 </i>
    <i name="hartreedc">  -7265.20219153 </i>
    <i name="XCdc">   1437.97364297 </i>
    <i name="pawpsdc">  28124.48289421 </i>
    <i name="pawaedc"> -27284.56068279 </i>
    <i name="eentropy">     -0.10282456 </i>
    <i name="bandstr">  -4563.91941160 </i>
    <i name="atom">  43240.66814686 </i>
    <i name="e_fr_energy">   -649.93716715 </i>
    <i name="e_wo_entrp">   -649.83434259 </i>
    <i name="e_0_energy">   -649.88575487 </i>
   </energy>
  </scstep>
  <scstep>
   <time name="diag">    1.31    1.34</time>
   <time name="diis">   17.11   17.44</time>
   <time name="orth">    0.33    0.33</time>
   <time name="total">   18.95   19.63</time>
   <energy>
    <i name="e_fr_energy">   -649.92269244 </i>
    <i name="e_wo_entrp">   -649.81880257 </i>
    <i name="e_0_energy">   -649.87074750 </i>
   </energy>
  </scstep>
  <scstep>
   <time name="diag">    1.34    1.36</time>
   <time name="diis">   18.04   18.32</time>
   <time name="orth">    0.33    0.34</time>
   <time name="total">   19.91   20.22</time>
   <energy>
    <i name="e_fr_energy">   -649.90603404 </i>
    <i name="e_wo_entrp">   -649.80261256 </i>
    <i name="e_0_energy">   -649.85432330 </i>
   </energy>
  </scstep>
  <scstep>
   <time name="diag">    1.33    1.35</time>
   <time name="diis">   17.72   17.98</time>
   <time name="orth">    0.33    0.33</time>
   <time name="total">   19.57   19.85</time>
   <energy>
    <i name="e_fr_energy">   -649.90555031 </i>
    <i name="e_wo_entrp">   -649.80242534 </i>
    <i name="e_0_energy">   -649.85398783 </i>
   </energy>
  </scstep>
  <scstep>
   <time name="diag">    1.35    1.37</time>
   <time name="diis">   19.52   19.91</time>
   <time name="orth">    0.33    0.33</time>
   <time name="total">   21.38   21.80</time>
   <energy>
    <i name="e_fr_energy">   -649.90655801 </i>
    <i name="e_wo_entrp">   -649.80296762 </i>
    <i name="e_0_energy">   -649.85476282 </i>
   </energy>
  </scstep>
  <scstep>
   <time name="diag">    1.37    1.38</time>
   <time name="diis">   20.59   20.93</time>
   <time name="orth">    0.32    0.33</time>
   <time name="total">   22.46   22.83</time>
   <energy>
    <i name="e_fr_energy">   -649.90692666 </i>
    <i name="e_wo_entrp">   -649.80342348 </i>
    <i name="e_0_energy">   -649.85517507 </i>
   </energy>
  </scstep>
  <scstep>
   <time name="diag">    1.36    1.38</time>
   <time name="diis">   20.64   20.91</time>
   <time name="orth">    0.33    0.33</time>
   <time name="total">   22.51   22.80</time>
   <energy>
    <i name="e_fr_energy">   -649.90724720 </i>
    <i name="e_wo_entrp">   -649.80376856 </i>
    <i name="e_0_energy">   -649.85550788 </i>
   </energy>
  </scstep>
  <scstep>
   <time name="diag">    1.61    1.64</time>
   <time name="diis">   20.23   20.55</time>
   <time name="orth">    0.33    0.33</time>
   <time name="total">   22.38   22.74</time>
   <energy>
    <i name="e_fr_energy">   -649.90755939 </i>
    <i name="e_wo_entrp">   -649.80412265 </i>
    <i name="e_0_energy">   -649.85584102 </i>
   </energy>
  </scstep>
  <scstep>
   <time name="diag">    1.38    1.40</time>
   <time name="diis">   19.72   20.07</time>
   <time name="orth">    0.36    0.36</time>
   <time name="total">   21.64   22.02</time>
   <energy>
    <i name="e_fr_energy">   -649.90764143 </i>
    <i name="e_wo_entrp">   -649.80418280 </i>
    <i name="e_0_energy">   -649.85591211 </i>
   </energy>
  </scstep>
  <scstep>
   <time name="diag">    1.35    1.37</time>
   <time name="diis">   18.13   18.49</time>
   <time name="orth">    0.36    0.37</time>
   <time name="total">   20.03   20.41</time>
   <energy>
    <i name="e_fr_energy">   -649.90768698 </i>
    <i name="e_wo_entrp">   -649.80425202 </i>
    <i name="e_0_energy">   -649.85596950 </i>
   </energy>
  </scstep>
  <scstep>
   <time name="diag">    1.35    1.36</time>
   <time name="diis">   17.25   17.61</time>
   <time name="orth">    0.35    0.35</time>
   <time name="total">   19.12   19.51</time>
   <energy>
    <i name="e_fr_energy">   -649.90771281 </i>
    <i name="e_wo_entrp">   -649.80427463 </i>
    <i name="e_0_energy">   -649.85599372 </i>
   </energy>
  </scstep>
  <scstep>
   <time name="diag">    1.38    1.41</time>
   <time name="diis">   16.54   16.84</time>
   <time name="orth">    0.33    0.33</time>
   <time name="total">   18.44   18.76</time>
   <energy>
    <i name="e_fr_energy">   -649.90773137 </i>
    <i name="e_wo_entrp">   -649.80428849 </i>
    <i name="e_0_energy">   -649.85600993 </i>
   </energy>
  </scstep>
  <scstep>
   <time name="diag">    1.32    1.33</time>
   <time name="diis">   16.32   16.64</time>
   <time name="orth">    0.59    0.62</time>
   <time name="total">   18.40   18.77</time>
   <energy>
    <i name="e_fr_energy">   -649.90774372 </i>
    <i name="e_wo_entrp">   -649.80429979 </i>
    <i name="e_0_energy">   -649.85602176 </i>
   </energy>
  </scstep>
  <scstep>
   <time name="diag">    1.38    1.40</time>
   <time name="diis">   15.21   15.43</time>
   <time name="orth">    0.32    0.33</time>
   <time name="total">   17.10   17.35</time>
   <energy>
    <i name="e_fr_energy">   -649.90775318 </i>
    <i name="e_wo_entrp">   -649.80431342 </i>
    <i name="e_0_energy">   -649.85603330 </i>
   </energy>
  </scstep>
  <scstep>
   <time name="diag">    1.34    1.35</time>
   <time name="diis">   14.91   15.13</time>
   <time name="orth">    0.32    0.33</time>
   <time name="total">   16.76   16.99</time>
   <energy>
    <i name="e_fr_energy">   -649.90776041 </i>
    <i name="e_wo_entrp">   -649.80431775 </i>
    <i name="e_0_energy">   -649.85603908 </i>
   </energy>
  </scstep>
  <scstep>
   <time name="diag">    1.43    1.45</time>
   <time name="diis">   14.24   14.52</time>
   <time name="orth">    0.36    0.36</time>
   <time name="total">   16.05   16.35</time>
   <energy>
    <i name="alphaZ">   3947.63502124 </i>
    <i name="ewald"> -38286.91176195 </i>
    <i name="hartreedc">  -7243.00623977 </i>
    <i name="XCdc">   1436.65242687 </i>
    <i name="pawpsdc">  28186.76419524 </i>
    <i name="pawaedc"> -27338.55969405 </i>
    <i name="eentropy">     -0.10344205 </i>
    <i name="bandstr">  -4593.04642004 </i>
    <i name="atom">  43240.66814686 </i>
    <i name="e_fr_energy">   -649.90776765 </i>
    <i name="e_wo_entrp">   -649.80432561 </i>
    <i name="e_0_energy">   -649.85604663 </i>
   </energy>
  </scstep>
  <structure>
   <crystal>
    <varray name="basis" >
     <v>       8.89944023      -0.00476326       0.00380135 </v>
     <v>      -0.00476816       8.94218667      -0.01069789 </v>
     <v>       0.00377457      -0.01071537       8.85626865 </v>
    </varray>
    <i name="volume">    704.78454658 </i>
    <varray name="rec_basis" >
     <v>       0.11236667       0.00005986      -0.00004782 </v>
     <v>       0.00005980       0.11182966       0.00013528 </v>
     <v>      -0.00004816       0.00013506       0.11291455 </v>
    </varray>
   </crystal>
   <varray name="positions" >
    <v>       0.99891191       0.99497119       0.00918381 </v>
    <v>       0.24048978       0.99422958       0.25006667 </v>
    <v>       0.26057773       0.49994390       0.25209940 </v>
    <v>       0.50018974       0.49740459       0.99792512 </v>
    <v>       0.49740230       0.25926541       0.75335217 </v>
    <v>       0.00702005       0.49570738       0.49375194 </v>
    <v>       0.50380557       0.73932786       0.74844520 </v>
    <v>       0.00345713       0.24532798       0.25922107 </v>
    <v>       0.75745362       0.74451213       0.00225089 </v>
    <v>       0.00375328       0.26186306       0.74282015 </v>
    <v>       0.75447955       0.26751187       0.49930507 </v>
    <v>       0.99493597       0.73548165       0.74228022 </v>
    <v>       0.25772533       0.49987050       0.74941306 </v>
    <v>       0.25957951       0.25772866       0.99538682 </v>
    <v>       0.50477122       0.26015301       0.24604841 </v>
    <v>       0.76088484       0.99175632       0.25001773 </v>
    <v>       0.73818548       0.25264150       0.00810762 </v>
    <v>       0.23661128       0.74308992       0.00154918 </v>
    <v>       0.24104330       0.24885448       0.50496026 </v>
    <v>       0.24883241       0.24987591       0.24945926 </v>
    <v>       0.24476841       0.00097974       0.00846090 </v>
    <v>       0.99859602       0.24166772       0.00083727 </v>
    <v>       0.75444999       0.24649837       0.25498253 </v>
    <v>       0.75623233       0.99652748       0.00102314 </v>
    <v>       0.50038436       0.00551607       0.24882177 </v>
    <v>       0.00567148       0.49032451       0.25730144 </v>
    <v>       0.50285584       0.74755181       0.99248728 </v>
    <v>       0.99843536       0.00438806       0.75816627 </v>
    <v>       0.74956925       0.25005592       0.74742139 </v>
    <v>       0.75318424       0.01200820       0.49635678 </v>
    <v>       0.50596146       0.25226062       0.50318726 </v>
    <v>       0.50231410       0.00271394       0.75104587 </v>
    <v>       0.00547964       0.00336263       0.24599875 </v>
    <v>       0.49920655       0.25802142       0.99542855 </v>
    <v>       0.24411949       0.74933605       0.24576778 </v>
    <v>       0.25422731       0.50134771       0.00308698 </v>
    <v>       0.99745058       0.75400449       0.99918379 </v>
    <v>       0.75410584       0.74152153       0.25159248 </v>
    <v>       0.74170921       0.49918862       0.99940033 </v>
    <v>       0.49107285       0.49911979       0.24573445 </v>
    <v>       0.25195897       0.25371295       0.74982607 </v>
    <v>       0.24812282       0.00297051       0.49213581 </v>
    <v>       0.99749951       0.25650367       0.50184221 </v>
    <v>       0.24989685       0.74597044       0.75501035 </v>
    <v>       0.25313732       0.49458934       0.49610940 </v>
    <v>       0.99235856       0.75431550       0.50072829 </v>
    <v>       0.00006999       0.49858209       0.74503016 </v>
    <v>       0.74604167       0.74566082       0.75031484 </v>
    <v>       0.75832494       0.49956622       0.49661535 </v>
    <v>       0.50523639       0.74661513       0.50701317 </v>
    <v>       0.49952377       0.50018201       0.75078826 </v>
    <v>       0.49970364       0.00357014       0.00056142 </v>
    <v>       0.99749603       0.49754896       0.00726353 </v>
    <v>       0.49942222       0.74627435       0.24938932 </v>
    <v>       0.24528484       0.99953451       0.75372110 </v>
    <v>       0.49703195       0.99996611       0.49928984 </v>
    <v>       0.75401679       0.99421140       0.74664537 </v>
    <v>       0.24745922       0.74857180       0.49963124 </v>
    <v>       0.99647221       0.76711517       0.25683748 </v>
    <v>       0.72504720       0.49640828       0.24425221 </v>
    <v>       0.01066839       0.01231793       0.48523012 </v>
    <v>       0.50587934       0.50749442       0.49760192 </v>
    <v>       0.73940305       0.50855491       0.75453938 </v>
    <v>       0.75004070       0.72385243       0.49769477 </v>
   </varray>
  </structure>
  <varray name="forces" >
   <v>       0.00616404       0.01430596      -0.02571181 </v>
   <v>       0.02964251       0.01646648      -0.00867525 </v>
   <v>      -0.02360100      -0.00647740      -0.00267733 </v>
   <v>      -0.00702369       0.02220490      -0.00139675 </v>
   <v>       0.01499166      -0.02246779      -0.01941313 </v>
   <v>      -0.00174030       0.01549720       0.00782627 </v>
   <v>      -0.01079739       0.02337178       0.00854972 </v>
   <v>       0.00102937       0.01035695      -0.03122900 </v>
   <v>      -0.01963153       0.00958254      -0.00447965 </v>
   <v>      -0.01318552      -0.02377225       0.02951693 </v>
   <v>      -0.01236301      -0.02931270       0.00831338 </v>
   <v>       0.00874096       0.02614572       0.01665245 </v>
   <v>      -0.01206331       0.00289026      -0.00184754 </v>
   <v>      -0.04109717      -0.02511612       0.02687232 </v>
   <v>      -0.01633044      -0.03835480       0.03415142 </v>
   <v>      -0.04103220       0.01725573       0.00416073 </v>
   <v>       0.04788912      -0.02370161      -0.02243779 </v>
   <v>       0.03349133       0.02045581      -0.00312516 </v>
   <v>       0.03678944      -0.00037051      -0.01856223 </v>
   <v>       0.01160058      -0.00186456      -0.00160720 </v>
   <v>      -0.00645665       0.00082707       0.00871789 </v>
   <v>      -0.00172584      -0.00908139      -0.00091256 </v>
   <v>      -0.00492764      -0.00480439      -0.00720815 </v>
   <v>       0.00458261       0.00772068      -0.00281578 </v>
   <v>      -0.00507709       0.00359995       0.00098726 </v>
   <v>      -0.00650835       0.02357425       0.00540370 </v>
   <v>      -0.00756616      -0.00731419      -0.00681252 </v>
   <v>       0.00393130      -0.00449712      -0.00308712 </v>
   <v>      -0.01180183       0.00552165       0.01389223 </v>
   <v>       0.00549648      -0.01439308      -0.00408234 </v>
   <v>      -0.01381157       0.00542230       0.00648629 </v>
   <v>      -0.00277294      -0.00156360      -0.00194501 </v>
   <v>       0.01105471       0.00723268      -0.01265511 </v>
   <v>      -0.00383034       0.00636021      -0.01332164 </v>
   <v>       0.00138294      -0.00404755       0.00384215 </v>
   <v>       0.00691897       0.00244498       0.00909934 </v>
   <v>       0.00170362       0.00387936       0.00125315 </v>
   <v>      -0.00718497      -0.00163786       0.00197791 </v>
   <v>      -0.00366385      -0.00134172      -0.00378539 </v>
   <v>      -0.01555905       0.01396947      -0.00997353 </v>
   <v>       0.01165531      -0.00813226       0.00001635 </v>
   <v>       0.00967416      -0.00593337      -0.00087846 </v>
   <v>      -0.00009770       0.00525858       0.00268898 </v>
   <v>       0.01171182       0.00483942      -0.00141111 </v>
   <v>      -0.00414856       0.00022147      -0.00780831 </v>
   <v>       0.00499883      -0.00030022      -0.00478295 </v>
   <v>      -0.00277179      -0.00039791      -0.00401790 </v>
   <v>      -0.00924820       0.00891188      -0.00286162 </v>
   <v>       0.01334594      -0.00099360       0.00066126 </v>
   <v>      -0.00674031       0.01100487       0.00619760 </v>
[...]
      </set>
     </set>
    </set>
   </array>
  </eigenvalues>
  <separator name="orbital magnetization" >
   <v name="MAGDIPOLOUT">      0.00000000      0.00000000      0.00000000</v>
  </separator>
  <dos>
   <i name="efermi">      8.84756169 </i>
   <total>
    <array>
     <dimension dim="1">gridpoints</dimension>
     <dimension dim="2">spin</dimension>
     <field>energy</field>
     <field>total</field>
     <field>integrated</field>
     <set>
      <set comment="spin 1">
       <r>   -51.9369     0.0000     0.0000 </r>
       <r>   -51.7139     0.0000     0.0000 </r>
       <r>   -51.4908     0.0000     0.0000 </r>
       <r>   -51.2677     0.0000     0.0000 </r>
       <r>   -51.0447     0.0000     0.0000 </r>
       <r>   -50.8216     0.0000     0.0000 </r>
       <r>   -50.5985     0.0000     0.0000 </r>
       <r>   -50.3755     0.0000     0.0000 </r>
       <r>   -50.1524     0.0000     0.0000 </r>
       <r>   -49.9294     0.0000     0.0000 </r>
       <r>   -49.7063     0.0000     0.0000 </r>
       <r>   -49.4832     0.0000     0.0000 </r>
       <r>   -49.2602     0.0000     0.0000 </r>
       <r>   -49.0371     0.2003     0.0447 </r>
       <r>   -48.8140    10.8765     2.4708 </r>
       <r>   -48.5910    30.3279     9.2359 </r>
       <r>   -48.3679    19.3213    13.5457 </r>
       <r>   -48.1449     2.0361    13.9999 </r>
       <r>   -47.9218     0.0004    14.0000 </r>
       <r>   -47.6987     0.0000    14.0000 </r>
       <r>   -47.4757     0.0005    14.0001 </r>
       <r>   -47.2526     2.3108    14.5156 </r>
       <r>   -47.0295    20.4980    19.0879 </r>
       <r>   -46.8065    19.8952    23.5258 </r>
       <r>   -46.5834    11.0623    25.9934 </r>
       <r>   -46.3603     0.0296    26.0000 </r>
       <r>   -46.1373     0.0000    26.0000 </r>
       <r>   -45.9142     0.0000    26.0000 </r>
       <r>   -45.6912     0.0000    26.0000 </r>
       <r>   -45.4681     0.0000    26.0000 </r>
       <r>   -45.2450     0.0000    26.0000 </r>
       <r>   -45.0220     0.0000    26.0000 </r>
       <r>   -44.7989     0.0000    26.0000 </r>
       <r>   -44.5758     0.0000    26.0000 </r>
       <r>   -44.3528     0.0000    26.0000 </r>
       <r>   -44.1297     0.0000    26.0000 </r>
       <r>   -43.9067     0.0000    26.0000 </r>
       <r>   -43.6836     0.0000    26.0000 </r>
       <r>   -43.4605     0.0000    26.0000 </r>
       <r>   -43.2375     0.0000    26.0000 </r>
       <r>   -43.0144     0.0000    26.0000 </r>
       <r>   -42.7913     0.0000    26.0000 </r>
       <r>   -42.5683     0.0000    26.0000 </r>
       <r>   -42.3452     0.0000    26.0000 </r>
       <r>   -42.1221     0.0000    26.0000 </r>
       <r>   -41.8991     0.0000    26.0000 </r>
       <r>   -41.6760     0.0000    26.0000 </r>
       <r>   -41.4530     0.0000    26.0000 </r>
       <r>   -41.2299     0.0000    26.0000 </r>
       <r>   -41.0068     0.0000    26.0000 </r>
       <r>   -40.7838     0.0001    26.0000 </r>
       <r>   -40.5607     1.1468    26.2558 </r>
       <r>   -40.3376    12.8022    29.1115 </r>
       <r>   -40.1146    13.4232    32.1058 </r>
       <r>   -39.8915    21.9829    37.0093 </r>
       <r>   -39.6685     4.6958    38.0568 </r>
       <r>   -39.4454     7.7740    39.7909 </r>
       <r>   -39.2223     0.9375    40.0000 </r>
       <r>   -38.9993     0.0000    40.0000 </r>
       <r>   -38.7762     0.0000    40.0000 </r>
       <r>   -38.5531     0.0000    40.0000 </r>
       <r>   -38.3301     0.0000    40.0000 </r>
       <r>   -38.1070     0.0000    40.0000 </r>
       <r>   -37.8839     0.0000    40.0000 </r>
       <r>   -37.6609     0.0000    40.0000 </r>
       <r>   -37.4378     0.0000    40.0000 </r>
       <r>   -37.2148     0.0000    40.0000 </r>
       <r>   -36.9917     0.0000    40.0000 </r>
       <r>   -36.7686     0.0000    40.0000 </r>
       <r>   -36.5456     0.0000    40.0000 </r>
       <r>   -36.3225     0.0000    40.0000 </r>
       <r>   -36.0994     0.0000    40.0000 </r>
       <r>   -35.8764     0.0000    40.0000 </r>
       <r>   -35.6533     0.0000    40.0000 </r>
       <r>   -35.4303     0.0000    40.0000 </r>
       <r>   -35.2072     0.0000    40.0000 </r>
       <r>   -34.9841     0.0000    40.0000 </r>
       <r>   -34.7611     0.0000    40.0000 </r>
       <r>   -34.5380     0.0000    40.0000 </r>
       <r>   -34.3149     0.0000    40.0000 </r>
       <r>   -34.0919     0.0000    40.0000 </r>
       <r>   -33.8688     0.0000    40.0000 </r>
       <r>   -33.6457     0.0000    40.0000 </r>
       <r>   -33.4227     0.0000    40.0000 </r>
       <r>   -33.1996     0.0000    40.0000 </r>
       <r>   -32.9766     0.0000    40.0000 </r>
       <r>   -32.7535     0.0000    40.0000 </r>
       <r>   -32.5304     0.0000    40.0000 </r>
       <r>   -32.3074     0.0000    40.0000 </r>
       <r>   -32.0843     0.0000    40.0000 </r>
       <r>   -31.8612     0.0000    40.0000 </r>
       <r>   -31.6382     0.0000    40.0000 </r>
       <r>   -31.4151     0.0000    40.0000 </r>
       <r>   -31.1921     0.0000    40.0000 </r>
       <r>   -30.9690     0.0000    40.0000 </r>
       <r>   -30.7459     0.0000    40.0000 </r>
       <r>   -30.5229     0.0000    40.0000 </r>
       <r>   -30.2998     0.0000    40.0000 </r>
       <r>   -30.0767     0.0000    40.0000 </r>
       <r>   -29.8537     0.0000    40.0000 </r>
       <r>   -29.6306     0.0000    40.0000 </r>
       <r>   -29.4075     0.0000    40.0000 </r>
       <r>   -29.1845     0.0000    40.0000 </r>
       <r>   -28.9614     0.0000    40.0000 </r>
       <r>   -28.7384     0.0000    40.0000 </r>
       <r>   -28.5153     0.0000    40.0000 </r>
       <r>   -28.2922     0.0000    40.0000 </r>
       <r>   -28.0692     0.0000    40.0000 </r>
       <r>   -27.8461     0.0000    40.0000 </r>
       <r>   -27.6230     0.0000    40.0000 </r>
       <r>   -27.4000     0.0000    40.0000 </r>
       <r>   -27.1769     0.0409    40.0091 </r>
       <r>   -26.9539     9.3934    42.1045 </r>
       <r>   -26.7308    36.7007    50.2910 </r>
       <r>   -26.5077    31.4486    57.3061 </r>
       <r>   -26.2847    42.9327    66.8828 </r>
       <r>   -26.0616    33.2938    74.3094 </r>
       <r>   -25.8385     7.5696    75.9979 </r>
       <r>   -25.6155     0.0096    76.0000 </r>
       <r>   -25.3924     1.8778    76.4189 </r>
       <r>   -25.1693    39.0483    85.1291 </r>
       <r>   -24.9463    89.4266   105.0769 </r>
       <r>   -24.7232    52.8700   116.8703 </r>
       <r>   -24.5002     5.0635   117.9997 </r>
       <r>   -24.2771     0.0012   118.0000 </r>
       <r>   -24.0540     0.0000   118.0000 </r>
       <r>   -23.8310     0.0000   118.0000 </r>
       <r>   -23.6079     0.4534   118.1011 </r>
       <r>   -23.3848    19.6410   122.4823 </r>
       <r>   -23.1618    44.2610   132.3553 </r>
       <r>   -22.9387    69.0392   147.7554 </r>
       <r>   -22.7156    27.9456   153.9891 </r>
       <r>   -22.4926     0.0491   154.0000 </r>
       <r>   -22.2695     0.0000   154.0000 </r>
       <r>   -22.0465     0.0000   154.0000 </r>
       <r>   -21.8234     0.0000   154.0000 </r>
       <r>   -21.6003     0.0000   154.0000 </r>
       <r>   -21.3773     0.0000   154.0000 </r>
       <r>   -21.1542     0.0000   154.0000 </r>
       <r>   -20.9311     0.0000   154.0000 </r>
       <r>   -20.7081     0.0000   154.0000 </r>
       <r>   -20.4850     0.0000   154.0000 </r>
       <r>   -20.2620     0.0000   154.0000 </r>
       <r>   -20.0389     0.0000   154.0000 </r>
       <r>   -19.8158     0.0000   154.0000 </r>
       <r>   -19.5928     0.0000   154.0000 </r>
       <r>   -19.3697     0.0000   154.0000 </r>
       <r>   -19.1466     0.0150   154.0033 </r>
       <r>   -18.9236     9.0078   156.0126 </r>
       <r>   -18.7005    30.1120   162.7295 </r>
       <r>   -18.4774    35.8557   170.7276 </r>
       <r>   -18.2544    56.3684   183.3013 </r>
       <r>   -18.0313    29.6365   189.9121 </r>
       <r>   -17.8083    16.3077   193.5498 </r>
       <r>   -17.5852    10.9540   195.9932 </r>
       <r>   -17.3621     0.0305   196.0000 </r>
       <r>   -17.1391     0.0000   196.0000 </r>
       <r>   -16.9160     0.0000   196.0000 </r>
       <r>   -16.6929     0.0000   196.0000 </r>
       <r>   -16.4699     0.0000   196.0000 </r>
       <r>   -16.2468     0.0000   196.0000 </r>
       <r>   -16.0238     0.0000   196.0000 </r>
       <r>   -15.8007     0.0000   196.0000 </r>
       <r>   -15.5776     0.0000   196.0000 </r>
       <r>   -15.3546     0.0000   196.0000 </r>
       <r>   -15.1315     0.0000   196.0000 </r>
       <r>   -14.9084     0.0000   196.0000 </r>
       <r>   -14.6854     0.0000   196.0000 </r>
       <r>   -14.4623     0.0000   196.0000 </r>
       <r>   -14.2392     0.0000   196.0000 </r>
       <r>   -14.0162     0.0000   196.0000 </r>
       <r>   -13.7931     0.0000   196.0000 </r>
       <r>   -13.5701     0.0000   196.0000 </r>
       <r>   -13.3470     0.0000   196.0000 </r>
       <r>   -13.1239     0.0000   196.0000 </r>
       <r>   -12.9009     0.0000   196.0000 </r>
       <r>   -12.6778     0.0000   196.0000 </r>
       <r>   -12.4547     0.0000   196.0000 </r>
       <r>   -12.2317     0.0000   196.0000 </r>
       <r>   -12.0086     0.0000   196.0000 </r>
       <r>   -11.7856     0.0000   196.0000 </r>
       <r>   -11.5625     0.0000   196.0000 </r>
       <r>   -11.3394     0.0000   196.0000 </r>
       <r>   -11.1164     0.0000   196.0000 </r>
       <r>   -10.8933     0.0000   196.0000 </r>
       <r>   -10.6702     0.0000   196.0000 </r>
       <r>   -10.4472     0.0000   196.0000 </r>
       <r>   -10.2241     0.0000   196.0000 </r>
       <r>   -10.0010     0.0000   196.0000 </r>
       <r>    -9.7780     0.0000   196.0000 </r>
       <r>    -9.5549     0.0000   196.0000 </r>
       <r>    -9.3319     0.0000   196.0000 </r>
       <r>    -9.1088     0.0000   196.0000 </r>
       <r>    -8.8857     0.0000   196.0000 </r>
       <r>    -8.6627     0.0000   196.0000 </r>
       <r>    -8.4396     0.0000   196.0000 </r>
       <r>    -8.2165     0.0000   196.0000 </r>
       <r>    -7.9935     0.0000   196.0000 </r>
       <r>    -7.7704     0.0010   196.0002 </r>
       <r>    -7.5474     1.1004   196.2457 </r>
       <r>    -7.3243     7.0285   197.8135 </r>
       <r>    -7.1012     0.8544   198.0041 </r>
       <r>    -6.8782     3.5400   198.7937 </r>
       <r>    -6.6551     9.8181   200.9838 </r>
       <r>    -6.4320    16.7130   204.7118 </r>
       <r>    -6.2090    24.5548   210.1891 </r>
       <r>    -5.9859    33.2519   217.6063 </r>
       <r>    -5.7628    10.9269   220.0437 </r>
       <r>    -5.5398     4.5231   221.0527 </r>
       <r>    -5.3167     3.9952   221.9438 </r>
       <r>    -5.0937     0.2517   222.0000 </r>
       <r>    -4.8706     0.0000   222.0000 </r>
       <r>    -4.6475     0.0000   222.0000 </r>
       <r>    -4.4245     0.0000   222.0000 </r>
       <r>    -4.2014     0.0000   222.0000 </r>
       <r>    -3.9783     0.0849   222.0189 </r>
       <r>    -3.7553     3.6072   222.8236 </r>
       <r>    -3.5322     5.4254   224.0338 </r>
       <r>    -3.3092     9.0408   226.0504 </r>
       <r>    -3.0861    14.4261   229.2684 </r>
       <r>    -2.8630    15.8206   232.7974 </r>
       <r>    -2.6400    17.8993   236.7900 </r>
       <r>    -2.4169    24.2316   242.1952 </r>
       <r>    -2.1938    27.8870   248.4158 </r>
       <r>    -1.9708    21.4287   253.1958 </r>
       <r>    -1.7477    14.3533   256.3974 </r>
       <r>    -1.5246    10.9155   258.8323 </r>
       <r>    -1.3016     4.6340   259.8660 </r>
       <r>    -1.0785     0.5936   259.9984 </r>
       <r>    -0.8555     0.0073   260.0000 </r>
       <r>    -0.6324     0.0000   260.0000 </r>
       <r>    -0.4093     0.0000   260.0000 </r>
       <r>    -0.1863     0.0000   260.0000 </r>
       <r>     0.0368     0.0000   260.0000 </r>
       <r>     0.2599     0.0000   260.0000 </r>
       <r>     0.4829     0.0000   260.0000 </r>
       <r>     0.7060     0.0601   260.0134 </r>
       <r>     0.9291     0.7856   260.1886 </r>
       <r>     1.1521     3.8028   261.0369 </r>
       <r>     1.3752     8.9062   263.0236 </r>
       <r>     1.5982    10.7231   265.4155 </r>
       <r>     1.8213    11.5672   267.9957 </r>
       <r>     2.0444    16.3009   271.6318 </r>
       <r>     2.2674    25.5105   277.3223 </r>
       <r>     2.4905    32.4352   284.5574 </r>
       <r>     2.7136    25.0121   290.1366 </r>
       <r>     2.9366    30.5018   296.9405 </r>
       <r>     3.1597    37.9894   305.4145 </r>
       <r>     3.3827    38.5762   314.0194 </r>
       <r>     3.6058    46.3755   324.3641 </r>
       <r>     3.8289    57.2353   337.1312 </r>
       <r>     4.0519    64.1557   351.4419 </r>
       <r>     4.2750    67.8523   366.5773 </r>
       <r>     4.4981    67.4885   381.6315 </r>
       <r>     4.7211    66.8246   396.5376 </r>
       <r>     4.9442    55.3945   408.8941 </r>
       <r>     5.1673    45.5249   419.0490 </r>
       <r>     5.3903    38.2192   427.5743 </r>
       <r>     5.6134    30.1226   434.2935 </r>
       <r>     5.8364    22.5362   439.3205 </r>
       <r>     6.0595    19.9360   443.7675 </r>
       <r>     6.2826    19.7179   448.1658 </r>
       <r>     6.5056    13.2254   451.1159 </r>
       <r>     6.7287     5.0709   452.2471 </r>
       <r>     6.9518    11.5138   454.8154 </r>
       <r>     7.1748    18.3425   458.9069 </r>
       <r>     7.3979    16.3911   462.5632 </r>
       <r>     7.6209    15.5923   466.0412 </r>
       <r>     7.8440    16.7722   469.7825 </r>
       <r>     8.0671    17.8236   473.7583 </r>
       <r>     8.2901    16.2668   477.3868 </r>
       <r>     8.5132    21.0229   482.0762 </r>
       <r>     8.7363    20.3055   486.6056 </r>
       <r>     8.9593    21.6652   491.4383 </r>
       <r>     9.1824    23.3740   496.6522 </r>
       <r>     9.4055    28.4899   503.0073 </r>
       <r>     9.6285    35.7522   510.9823 </r>
       <r>     9.8516    39.9358   519.8905 </r>
       <r>    10.0746    43.4102   529.5737 </r>
       <r>    10.2977    48.0180   540.2848 </r>
       <r>    10.5208    53.3631   552.1881 </r>
       <r>    10.7438    51.0986   563.5863 </r>
       <r>    10.9669    59.5795   576.8763 </r>
       <r>    11.1900    54.6738   589.0720 </r>
       <r>    11.4130    48.5649   599.9051 </r>
       <r>    11.6361    43.7924   609.6735 </r>
       <r>    11.8591    23.5713   614.9314 </r>
       <r>    12.0822     4.7503   615.9910 </r>
       <r>    12.3053     0.0403   616.0000 </r>
       <r>    12.5283     0.0000   616.0000 </r>
       <r>    12.7514     0.0000   616.0000 </r>
       <r>    12.9745     0.0000   616.0000 </r>
       <r>    13.1975     0.0000   616.0000 </r>
       <r>    13.4206     0.0000   616.0000 </r>
       <r>    13.6437     0.0000   616.0000 </r>
       <r>    13.8667     0.0000   616.0000 </r>
       <r>    14.0898     0.0000   616.0000 </r>
       <r>    14.3128     0.0000   616.0000 </r>
       <r>    14.5359     0.0000   616.0000 </r>
       <r>    14.7590     0.0000   616.0000 </r>
       <r>    14.9820     0.0000   616.0000 </r>
      </set>
     </set>
    </array>
   </total>
  </dos>
 </calculation>
 <structure name="finalpos" >
  <crystal>
   <varray name="basis" >
    <v>       8.91170923      -0.00511361       0.00357299 </v>
    <v>      -0.00511993       8.95466058      -0.01042469 </v>
    <v>       0.00354760      -0.01044465       8.86912783 </v>
   </varray>
   <i name="volume">    707.76689371 </i>
   <varray name="rec_basis" >
    <v>       0.11221197       0.00006411      -0.00004481 </v>
    <v>       0.00006403       0.11167388       0.00013149 </v>
    <v>      -0.00004513       0.00013123       0.11275083 </v>
   </varray>
  </crystal>
  <varray name="positions" >
   <v>       0.99892249       0.99498207       0.00914386 </v>
   <v>       0.24052193       0.99424112       0.25005186 </v>
   <v>       0.26054755       0.49993765       0.25208722 </v>
   <v>       0.50017386       0.49741533       0.99792184 </v>
   <v>       0.49742279       0.25924009       0.75332379 </v>
   <v>       0.00702589       0.49572780       0.49374865 </v>
   <v>       0.50378540       0.73934333       0.74846261 </v>
   <v>       0.00346961       0.24532673       0.25922432 </v>
   <v>       0.75746491       0.74448621       0.00224393 </v>
   <v>       0.00376428       0.26188642       0.74280034 </v>
   <v>       0.75446616       0.26750264       0.49931165 </v>
   <v>       0.99493337       0.73546863       0.74227791 </v>
   <v>       0.25772519       0.49987763       0.74942564 </v>
   <v>       0.25946335       0.25768161       0.99546109 </v>
   <v>       0.50475229       0.26007347       0.24616170 </v>
   <v>       0.76080628       0.99179216       0.25008450 </v>
   <v>       0.73831465       0.25260098       0.00806195 </v>
   <v>       0.23665898       0.74310638       0.00153339 </v>
   <v>       0.24109268       0.24886530       0.50490944 </v>
   <v>       0.24882337       0.24987379       0.24945532 </v>
   <v>       0.24477251       0.00097095       0.00846922 </v>
   <v>       0.99859361       0.24165936       0.00083552 </v>
   <v>       0.75445820       0.24649033       0.25494108 </v>
   <v>       0.75622769       0.99653555       0.00104342 </v>
   <v>       0.50037435       0.00551024       0.24882078 </v>
   <v>       0.00567394       0.49031826       0.25730298 </v>
   <v>       0.50285423       0.74756292       0.99247990 </v>
   <v>       0.99844390       0.00438270       0.75816721 </v>
   <v>       0.74956827       0.25005286       0.74743566 </v>
   <v>       0.75319491       0.01199787       0.49636169 </v>
   <v>       0.50596425       0.25227264       0.50317979 </v>
   <v>       0.50230514       0.00271887       0.75105056 </v>
   <v>       0.00548810       0.00337222       0.24601003 </v>
   <v>       0.49920929       0.25801132       0.99543213 </v>
   <v>       0.24413218       0.74933874       0.24576125 </v>
   <v>       0.25423148       0.50135226       0.00307366 </v>
   <v>       0.99745319       0.75399087       0.99917906 </v>
   <v>       0.75410457       0.74151616       0.25157653 </v>
   <v>       0.74171575       0.49919469       0.99941041 </v>
   <v>       0.49105250       0.49911071       0.24573372 </v>
   <v>       0.25195670       0.25372054       0.74981366 </v>
   <v>       0.24814224       0.00297400       0.49212872 </v>
   <v>       0.99751267       0.25651528       0.50184012 </v>
   <v>       0.24989645       0.74598248       0.75500691 </v>
   <v>       0.25313804       0.49459546       0.49611255 </v>
   <v>       0.99237057       0.75432157       0.50073487 </v>
   <v>       0.00007223       0.49857787       0.74502855 </v>
   <v>       0.74602860       0.74567035       0.75031488 </v>
   <v>       0.75832090       0.49958156       0.49661723 </v>
   <v>       0.50522575       0.74663200       0.50700553 </v>
   <v>       0.49951015       0.50017787       0.75079644 </v>
   <v>       0.49968954       0.00356105       0.00056292 </v>
   <v>       0.99749342       0.49756922       0.00726845 </v>
   <v>       0.49943116       0.74627097       0.24938451 </v>
   <v>       0.24528765       0.99955148       0.75369723 </v>
   <v>       0.49702099       0.99996100       0.49928908 </v>
   <v>       0.75399623       0.99421287       0.74664069 </v>
   <v>       0.24746761       0.74857751       0.49963666 </v>
   <v>       0.99648180       0.76709376       0.25683839 </v>
   <v>       0.72503562       0.49641454       0.24426208 </v>
   <v>       0.01066860       0.01232037       0.48522660 </v>
   <v>       0.50587951       0.50752234       0.49759840 </v>
   <v>       0.73938845       0.50857499       0.75455682 </v>
   <v>       0.75003269       0.72383272       0.49768376 </v>
  </varray>
 </structure>
</modeling>
