HECN                                    
           1
     8.913451   -0.005163    0.003541
    -0.005170    8.956431   -0.010386
     0.003515   -0.010406    8.870953
   Ti   Ta   Nb   N    C    Zr   Mo
     7     6     6    13    19     7     6
Direct configuration=     1
   0.99892397  0.99498359  0.00913826
   0.24052643  0.99424274  0.25004978
   0.26054331  0.49993678  0.25208552
   0.50017163  0.49741684  0.99792138
   0.49742566  0.25923655  0.75331982
   0.00702671  0.49573067  0.49374819
   0.50378258  0.73934549  0.74846505
   0.00347136  0.24532655  0.25922478
   0.75746649  0.74448258  0.00224296
   0.00376582  0.26188970  0.74279756
   0.75446428  0.26750134  0.49931257
   0.99493301  0.73546680  0.74227759
   0.25772517  0.49987863  0.74942740
   0.25944707  0.25767501  0.99547150
   0.50474964  0.26006231  0.24617758
   0.76079527  0.99179717  0.25009386
   0.73833275  0.25259531  0.00805556
   0.23666567  0.74310869  0.00153118
   0.24109961  0.24886682  0.50490232
   0.24882210  0.24987349  0.24945477
   0.24477308  0.00096972  0.00847039
   0.99859327  0.24165819  0.00083527
   0.75445935  0.24648920  0.25493528
   0.75622705  0.99653668  0.00104627
   0.50037295  0.00550942  0.24882064
   0.00567428  0.49031738  0.25730319
   0.50285400  0.74756448  0.99247887
   0.99844510  0.00438195  0.75816735
   0.74956813  0.25005243  0.74743766
   0.75319641  0.01199642  0.49636238
   0.50596464  0.25227433  0.50317874
   0.50230388  0.00271956  0.75105122
   0.00548929  0.00337356  0.24601160
   0.49920967  0.25800991  0.99543263
   0.24413396  0.74933912  0.24576034
   0.25423206  0.50135290  0.00307179
   0.99745355  0.75398896  0.99917840
   0.75410439  0.74151540  0.25157429
   0.74171667  0.49919554  0.99941182
   0.49104965  0.49910944  0.24573362
   0.25195639  0.25372161  0.74981192
   0.24814496  0.00297449  0.49212773
   0.99751452  0.25651691  0.50183983
   0.24989640  0.74598417  0.75500643
   0.25313814  0.49459632  0.49611299
   0.99237226  0.75432242  0.50073580
   0.00007255  0.49857728  0.74502832
   0.74602677  0.74567169  0.75031489
   0.75832034  0.49958371  0.49661749
   0.50522426  0.74663437  0.50700446
   0.49950824  0.50017729  0.75079759
   0.49968756  0.00355977  0.00056313
   0.99749305  0.49757206  0.00726914
   0.49943241  0.74627049  0.24938384
   0.24528804  0.99955386  0.75369388
   0.49701945  0.99996029  0.49928897
   0.75399334  0.99421308  0.74664003
   0.24746878  0.74857831  0.49963742
   0.99648315  0.76709076  0.25683852
   0.72503399  0.49641542  0.24426346
   0.01066863  0.01232071  0.48522610
   0.50587953  0.50752626  0.49759790
   0.73938641  0.50857781  0.75455926
   0.75003157  0.72382996  0.49768222
HECN                                    
           1
     8.899440   -0.004763    0.003801
    -0.004768    8.942187   -0.010698
     0.003775   -0.010715    8.856269
   Ti   Ta   Nb   N    C    Zr   Mo
     7     6     6    13    19     7     6
Direct configuration=     2
   0.99891191  0.99497119  0.00918381
   0.24048978  0.99422958  0.25006667
   0.26057773  0.49994390  0.25209940
   0.50018974  0.49740459  0.99792512
   0.49740230  0.25926541  0.75335217
   0.00702005  0.49570738  0.49375194
   0.50380557  0.73932786  0.74844520
   0.00345713  0.24532798  0.25922107
   0.75745362  0.74451213  0.00225089
   0.00375328  0.26186306  0.74282015
   0.75447955  0.26751187  0.49930507
   0.99493597  0.73548165  0.74228022
   0.25772533  0.49987050  0.74941306
   0.25957951  0.25772866  0.99538682
   0.50477122  0.26015301  0.24604841
   0.76088484  0.99175632  0.25001773
   0.73818548  0.25264150  0.00810762
   0.23661128  0.74308992  0.00154918
   0.24104330  0.24885448  0.50496026
   0.24883241  0.24987591  0.24945926
   0.24476841  0.00097974  0.00846090
   0.99859602  0.24166772  0.00083727
   0.75444999  0.24649837  0.25498253
   0.75623233  0.99652748  0.00102314
   0.50038436  0.00551607  0.24882177
   0.00567148  0.49032451  0.25730144
   0.50285584  0.74755181  0.99248728
   0.99843536  0.00438806  0.75816627
   0.74956925  0.25005592  0.74742139
   0.75318424  0.01200820  0.49635678
   0.50596146  0.25226062  0.50318726
   0.50231410  0.00271394  0.75104587
   0.00547964  0.00336263  0.24599875
   0.49920655  0.25802142  0.99542855
   0.24411949  0.74933605  0.24576778
   0.25422731  0.50134771  0.00308698
   0.99745058  0.75400449  0.99918379
   0.75410584  0.74152153  0.25159248
   0.74170921  0.49918862  0.99940033
   0.49107285  0.49911979  0.24573445
   0.25195897  0.25371295  0.74982607
   0.24812282  0.00297051  0.49213581
   0.99749951  0.25650367  0.50184221
   0.24989685  0.74597044  0.75501035
   0.25313732  0.49458934  0.49610940
   0.99235856  0.75431550  0.50072829
   0.00006999  0.49858209  0.74503016
   0.74604167  0.74566082  0.75031484
   0.75832494  0.49956622  0.49661535
   0.50523639  0.74661513  0.50701317
   0.49952377  0.50018201  0.75078826
   0.49970364  0.00357014  0.00056142
   0.99749603  0.49754896  0.00726353
   0.49942222  0.74627435  0.24938932
   0.24528484  0.99953451  0.75372110
   0.49703195  0.99996611  0.49928984
   0.75401679  0.99421140  0.74664537
   0.24745922  0.74857180  0.49963124
   0.99647221  0.76711517  0.25683748
   0.72504720  0.49640828  0.24425221
   0.01066839  0.01231793  0.48523012
   0.50587934  0.50749442  0.49760192
   0.73940305  0.50855491  0.75453938
   0.75004070  0.72385243  0.49769477
HECN                                    
           1
     8.911184   -0.005099    0.003583
    -0.005105    8.954127   -0.010436
     0.003557   -0.010456    8.868578
   Ti   Ta   Nb   N    C    Zr   Mo
     7     6     6    13    19     7     6
Direct configuration=     3
   0.99892204  0.99498160  0.00914556
   0.24052055  0.99424063  0.25005249
   0.26054884  0.49993792  0.25208774
   0.50017454  0.49741487  0.99792198
   0.49742191  0.25924118  0.75332500
   0.00702564  0.49572693  0.49374879
   0.50378626  0.73934266  0.74846187
   0.00346908  0.24532678  0.25922418
   0.75746443  0.74448732  0.00224423
   0.00376381  0.26188542  0.74280119
   0.75446673  0.26750303  0.49931136
   0.99493349  0.73546919  0.74227801
   0.25772520  0.49987732  0.74942510
   0.25946832  0.25768362  0.99545792
   0.50475310  0.26007687  0.24615686
   0.76080964  0.99179063  0.25008165
   0.73830913  0.25260271  0.00806390
   0.23665695  0.74310567  0.00153406
   0.24109057  0.24886484  0.50491161
   0.24882376  0.24987388  0.24945549
   0.24477233  0.00097133  0.00846886
   0.99859371  0.24165972  0.00083559
   0.75445785  0.24649067  0.25494285
   0.75622789  0.99653520  0.00104256
   0.50037478  0.00551049  0.24882082
   0.00567383  0.49031853  0.25730291
   0.50285430  0.74756245  0.99248022
   0.99844354  0.00438293  0.75816717
   0.74956831  0.25005299  0.74743505
   0.75319446  0.01199831  0.49636148
   0.50596413  0.25227213  0.50318011
   0.50230552  0.00271866  0.75105036
   0.00548774  0.00337181  0.24600954
   0.49920917  0.25801176  0.99543198
   0.24413164  0.74933863  0.24576153
   0.25423130  0.50135206  0.00307423
   0.99745308  0.75399145  0.99917926
   0.75410462  0.74151639  0.25157721
   0.74171548  0.49919443  0.99940998
   0.49105337  0.49911110  0.24573375
   0.25195680  0.25372022  0.74981419
   0.24814141  0.00297385  0.49212903
   0.99751211  0.25651479  0.50184021
   0.24989647  0.74598196  0.75500706
   0.25313801  0.49459520  0.49611242
   0.99237006  0.75432131  0.50073459
   0.00007214  0.49857805  0.74502861
   0.74602916  0.74566994  0.75031488
   0.75832108  0.49958090  0.49661715
   0.50522621  0.74663128  0.50700586
   0.49951073  0.50017805  0.75079610
   0.49969014  0.00356144  0.00056285
   0.99749353  0.49756835  0.00726824
   0.49943078  0.74627111  0.24938472
   0.24528753  0.99955075  0.75369825
   0.49702146  0.99996122  0.49928911
   0.75399711  0.99421281  0.74664089
   0.24746725  0.74857726  0.49963643
   0.99648139  0.76709468  0.25683835
   0.72503611  0.49641428  0.24426166
   0.01066859  0.01232027  0.48522675
   0.50587950  0.50752115  0.49759855
   0.73938908  0.50857413  0.75455608
   0.75003304  0.72383357  0.49768423
HECN                                    
           1
     8.911709   -0.005114    0.003573
    -0.005120    8.954661   -0.010425
     0.003548   -0.010445    8.869128
   Ti   Ta   Nb   N    C    Zr   Mo
     7     6     6    13    19     7     6
Direct configuration=     4
   0.99892249  0.99498207  0.00914386
   0.24052193  0.99424112  0.25005186
   0.26054755  0.49993765  0.25208722
   0.50017386  0.49741533  0.99792184
   0.49742279  0.25924009  0.75332379
   0.00702589  0.49572780  0.49374865
   0.50378540  0.73934333  0.74846261
   0.00346961  0.24532673  0.25922432
   0.75746491  0.74448621  0.00224393
   0.00376428  0.26188642  0.74280034
   0.75446616  0.26750264  0.49931165
   0.99493337  0.73546863  0.74227791
   0.25772519  0.49987763  0.74942564
   0.25946335  0.25768161  0.99546109
   0.50475229  0.26007347  0.24616170
   0.76080628  0.99179216  0.25008450
   0.73831465  0.25260098  0.00806195
   0.23665898  0.74310638  0.00153339
   0.24109268  0.24886530  0.50490944
   0.24882337  0.24987379  0.24945532
   0.24477251  0.00097095  0.00846922
   0.99859361  0.24165936  0.00083552
   0.75445820  0.24649033  0.25494108
   0.75622769  0.99653555  0.00104342
   0.50037435  0.00551024  0.24882078
   0.00567394  0.49031826  0.25730298
   0.50285423  0.74756292  0.99247990
   0.99844390  0.00438270  0.75816721
   0.74956827  0.25005286  0.74743566
   0.75319491  0.01199787  0.49636169
   0.50596425  0.25227264  0.50317979
   0.50230514  0.00271887  0.75105056
   0.00548810  0.00337222  0.24601003
   0.49920929  0.25801132  0.99543213
   0.24413218  0.74933874  0.24576125
   0.25423148  0.50135226  0.00307366
   0.99745319  0.75399087  0.99917906
   0.75410457  0.74151616  0.25157653
   0.74171575  0.49919469  0.99941041
   0.49105250  0.49911071  0.24573372
   0.25195670  0.25372054  0.74981366
   0.24814224  0.00297400  0.49212872
   0.99751267  0.25651528  0.50184012
   0.24989645  0.74598248  0.75500691
   0.25313804  0.49459546  0.49611255
   0.99237057  0.75432157  0.50073487
   0.00007223  0.49857787  0.74502855
   0.74602860  0.74567035  0.75031488
   0.75832090  0.49958156  0.49661723
   0.50522575  0.74663200  0.50700553
   0.49951015  0.50017787  0.75079644
   0.49968954  0.00356105  0.00056292
   0.99749342  0.49756922  0.00726845
   0.49943116  0.74627097  0.24938451
   0.24528765  0.99955148  0.75369723
   0.49702099  0.99996100  0.49928908
   0.75399623  0.99421287  0.74664069
   0.24746761  0.74857751  0.49963666
   0.99648180  0.76709376  0.25683839
   0.72503562  0.49641454  0.24426208
   0.01066860  0.01232037  0.48522660
   0.50587951  0.50752234  0.49759840
   0.73938845  0.50857499  0.75455682
   0.75003269  0.72383272  0.49768376
