  64  64   0   0
  0.1129557E+02  0.8932500E-09  0.9055600E-09  0.8937200E-09  0.5000000E-15
  1.000000000000000E-004
  CAR 
 HECN                                    
     13.64682377    -60.54162773  301      7.78812162      1.00000000
    -60.542  0.0000E+00  0.0000E+00
    -60.294  0.0000E+00  0.0000E+00
    -60.047  0.0000E+00  0.0000E+00
    -59.800  0.0000E+00  0.0000E+00
    -59.552  0.0000E+00  0.0000E+00
    -59.305  0.0000E+00  0.0000E+00
    -59.058  0.0000E+00  0.0000E+00
    -58.811  0.0000E+00  0.0000E+00
    -58.563  0.0000E+00  0.0000E+00
    -58.316  0.0000E+00  0.0000E+00
    -58.069  0.0000E+00  0.0000E+00
    -57.821  0.0000E+00  0.0000E+00
    -57.574  0.4830E-09  0.1194E-09
    -57.327  0.1758E-02  0.4346E-03
    -57.079  0.2939E+00  0.7311E-01
    -56.832  0.1892E+00  0.1199E+00
    -56.585  0.3867E-03  0.1200E+00
    -56.338  0.2136E-10  0.1200E+00
    -56.090  0.0000E+00  0.1200E+00
    -55.843  0.0000E+00  0.1200E+00
    -55.596  0.0000E+00  0.1200E+00
    -55.348  0.0000E+00  0.1200E+00
    -55.101  0.0000E+00  0.1200E+00
    -54.854  0.0000E+00  0.1200E+00
    -54.607  0.0000E+00  0.1200E+00
    -54.359  0.0000E+00  0.1200E+00
    -54.112  0.0000E+00  0.1200E+00
    -53.865  0.0000E+00  0.1200E+00
    -53.617  0.0000E+00  0.1200E+00
    -53.370  0.0000E+00  0.1200E+00
    -53.123  0.0000E+00  0.1200E+00
    -52.875  0.0000E+00  0.1200E+00
    -52.628  0.0000E+00  0.1200E+00
    -52.381  0.0000E+00  0.1200E+00
    -52.134  0.0000E+00  0.1200E+00
    -51.886  0.0000E+00  0.1200E+00
    -51.639  0.0000E+00  0.1200E+00
    -51.392  0.0000E+00  0.1200E+00
    -51.144  0.0000E+00  0.1200E+00
    -50.897  0.0000E+00  0.1200E+00
    -50.650  0.0000E+00  0.1200E+00
    -50.403  0.6872E-14  0.1200E+00
    -50.155  0.4469E-05  0.1200E+00
    -49.908  0.3933E-01  0.1297E+00
    -49.661  0.2453E+00  0.1904E+00
    -49.413  0.1630E+00  0.2307E+00
    -49.166  0.9307E-01  0.2537E+00
    -48.919  0.2548E-01  0.2600E+00
    -48.671  0.2798E-05  0.2600E+00
    -48.424  0.3089E-14  0.2600E+00
    -48.177  0.0000E+00  0.2600E+00
    -47.930  0.0000E+00  0.2600E+00
    -47.682  0.0000E+00  0.2600E+00
    -47.435  0.0000E+00  0.2600E+00
    -47.188  0.0000E+00  0.2600E+00
    -46.940  0.0000E+00  0.2600E+00
    -46.693  0.0000E+00  0.2600E+00
    -46.446  0.0000E+00  0.2600E+00
    -46.199  0.0000E+00  0.2600E+00
    -45.951  0.0000E+00  0.2600E+00
    -45.704  0.0000E+00  0.2600E+00
    -45.457  0.0000E+00  0.2600E+00
    -45.209  0.0000E+00  0.2600E+00
    -44.962  0.0000E+00  0.2600E+00
    -44.715  0.0000E+00  0.2600E+00
    -44.467  0.0000E+00  0.2600E+00
    -44.220  0.0000E+00  0.2600E+00
    -43.973  0.0000E+00  0.2600E+00
    -43.726  0.0000E+00  0.2600E+00
    -43.478  0.0000E+00  0.2600E+00
    -43.231  0.0000E+00  0.2600E+00
    -42.984  0.0000E+00  0.2600E+00
    -42.736  0.0000E+00  0.2600E+00
    -42.489  0.0000E+00  0.2600E+00
    -42.242  0.0000E+00  0.2600E+00
    -41.995  0.0000E+00  0.2600E+00
    -41.747  0.0000E+00  0.2600E+00
    -41.500  0.0000E+00  0.2600E+00
    -41.253  0.0000E+00  0.2600E+00
    -41.005  0.0000E+00  0.2600E+00
    -40.758  0.0000E+00  0.2600E+00
    -40.511  0.0000E+00  0.2600E+00
    -40.263  0.0000E+00  0.2600E+00
    -40.016  0.0000E+00  0.2600E+00
    -39.769  0.0000E+00  0.2600E+00
    -39.522  0.0000E+00  0.2600E+00
    -39.274  0.0000E+00  0.2600E+00
    -39.027  0.0000E+00  0.2600E+00
    -38.780  0.0000E+00  0.2600E+00
    -38.532  0.0000E+00  0.2600E+00
    -38.285  0.0000E+00  0.2600E+00
    -38.038  0.0000E+00  0.2600E+00
    -37.791  0.0000E+00  0.2600E+00
    -37.543  0.0000E+00  0.2600E+00
    -37.296  0.0000E+00  0.2600E+00
    -37.049  0.0000E+00  0.2600E+00
    -36.801  0.0000E+00  0.2600E+00
    -36.554  0.8739E-11  0.2600E+00
    -36.307  0.1758E-03  0.2600E+00
    -36.059  0.7568E-01  0.2788E+00
    -35.812  0.6837E+00  0.4478E+00
    -35.565  0.6161E+00  0.6002E+00
    -35.318  0.8005E-01  0.6200E+00
    -35.070  0.3184E-04  0.6200E+00
    -34.823  0.2276E-12  0.6200E+00
    -34.576  0.0000E+00  0.6200E+00
    -34.328  0.0000E+00  0.6200E+00
    -34.081  0.0000E+00  0.6200E+00
    -33.834  0.0000E+00  0.6200E+00
    -33.586  0.0000E+00  0.6200E+00
    -33.339  0.0000E+00  0.6200E+00
    -33.092  0.0000E+00  0.6200E+00
    -32.845  0.0000E+00  0.6200E+00
    -32.597  0.0000E+00  0.6200E+00
    -32.350  0.0000E+00  0.6200E+00
    -32.103  0.0000E+00  0.6200E+00
    -31.855  0.4489E-17  0.6200E+00
    -31.608  0.7819E-07  0.6200E+00
    -31.361  0.8832E-02  0.6222E+00
    -31.114  0.4498E+00  0.7334E+00
    -30.866  0.9184E+00  0.9605E+00
    -30.619  0.7870E-01  0.9800E+00
    -30.372  0.9123E-05  0.9800E+00
    -30.124  0.1636E-13  0.9800E+00
    -29.877  0.0000E+00  0.9800E+00
    -29.630  0.0000E+00  0.9800E+00
    -29.382  0.0000E+00  0.9800E+00
    -29.135  0.0000E+00  0.9800E+00
    -28.888  0.0000E+00  0.9800E+00
    -28.641  0.0000E+00  0.9800E+00
    -28.393  0.0000E+00  0.9800E+00
    -28.146  0.0000E+00  0.9800E+00
    -27.899  0.6466E-08  0.9800E+00
    -27.651  0.4808E-02  0.9812E+00
    -27.404  0.2869E+00  0.1052E+01
    -27.157  0.6871E+00  0.1222E+01
    -26.910  0.4674E+00  0.1338E+01
    -26.662  0.9560E-02  0.1340E+01
    -26.415  0.2108E-01  0.1345E+01
    -26.168  0.4076E+00  0.1446E+01
    -25.920  0.6661E+00  0.1611E+01
    -25.673  0.3784E+00  0.1704E+01
    -25.426  0.2201E+00  0.1759E+01
    -25.178  0.5059E-02  0.1760E+01
    -24.931  0.1051E-07  0.1760E+01
    -24.684  0.0000E+00  0.1760E+01
    -24.437  0.0000E+00  0.1760E+01
    -24.189  0.0000E+00  0.1760E+01
    -23.942  0.0000E+00  0.1760E+01
    -23.695  0.0000E+00  0.1760E+01
    -23.447  0.2316E-09  0.1760E+01
    -23.200  0.9103E-03  0.1760E+01
    -22.953  0.1688E+00  0.1802E+01
    -22.706  0.3378E+00  0.1885E+01
    -22.458  0.7323E+00  0.2067E+01
    -22.211  0.4130E+00  0.2169E+01
    -21.964  0.4557E-01  0.2180E+01
    -21.716  0.2119E-04  0.2180E+01
    -21.469  0.1346E-12  0.2180E+01
    -21.222  0.0000E+00  0.2180E+01
    -20.974  0.0000E+00  0.2180E+01
    -20.727  0.0000E+00  0.2180E+01
    -20.480  0.0000E+00  0.2180E+01
    -20.233  0.0000E+00  0.2180E+01
    -19.985  0.0000E+00  0.2180E+01
    -19.738  0.0000E+00  0.2180E+01
    -19.491  0.0000E+00  0.2180E+01
    -19.243  0.0000E+00  0.2180E+01
    -18.996  0.0000E+00  0.2180E+01
    -18.749  0.0000E+00  0.2180E+01
    -18.502  0.0000E+00  0.2180E+01
    -18.254  0.0000E+00  0.2180E+01
    -18.007  0.0000E+00  0.2180E+01
    -17.760  0.0000E+00  0.2180E+01
    -17.512  0.0000E+00  0.2180E+01
    -17.265  0.0000E+00  0.2180E+01
    -17.018  0.0000E+00  0.2180E+01
    -16.770  0.0000E+00  0.2180E+01
    -16.523  0.0000E+00  0.2180E+01
    -16.276  0.0000E+00  0.2180E+01
    -16.029  0.0000E+00  0.2180E+01
    -15.781  0.0000E+00  0.2180E+01
    -15.534  0.0000E+00  0.2180E+01
    -15.287  0.0000E+00  0.2180E+01
    -15.039  0.0000E+00  0.2180E+01
    -14.792  0.0000E+00  0.2180E+01
    -14.545  0.0000E+00  0.2180E+01
    -14.297  0.0000E+00  0.2180E+01
    -14.050  0.0000E+00  0.2180E+01
    -13.803  0.0000E+00  0.2180E+01
    -13.556  0.0000E+00  0.2180E+01
    -13.308  0.0000E+00  0.2180E+01
    -13.061  0.0000E+00  0.2180E+01
    -12.814  0.0000E+00  0.2180E+01
    -12.566  0.0000E+00  0.2180E+01
    -12.319  0.0000E+00  0.2180E+01
    -12.072  0.0000E+00  0.2180E+01
    -11.825  0.0000E+00  0.2180E+01
    -11.577  0.0000E+00  0.2180E+01
    -11.330  0.0000E+00  0.2180E+01
    -11.083  0.0000E+00  0.2180E+01
    -10.835  0.0000E+00  0.2180E+01
    -10.588  0.0000E+00  0.2180E+01
    -10.341  0.0000E+00  0.2180E+01
    -10.093  0.0000E+00  0.2180E+01
     -9.846  0.0000E+00  0.2180E+01
     -9.599  0.0000E+00  0.2180E+01
     -9.352  0.0000E+00  0.2180E+01
     -9.104  0.0000E+00  0.2180E+01
     -8.857  0.1728E-09  0.2180E+01
     -8.610  0.1498E-03  0.2180E+01
     -8.362  0.2951E-01  0.2187E+01
     -8.115  0.5456E-01  0.2201E+01
     -7.868  0.8177E-01  0.2221E+01
     -7.621  0.1215E+00  0.2251E+01
     -7.373  0.1685E+00  0.2293E+01
     -7.126  0.1594E+00  0.2332E+01
     -6.879  0.2279E+00  0.2389E+01
     -6.631  0.1880E+00  0.2435E+01
     -6.384  0.2001E-01  0.2440E+01
     -6.137  0.1255E-05  0.2440E+01
     -5.889  0.9192E-15  0.2440E+01
     -5.642  0.6651E-18  0.2440E+01
     -5.395  0.7671E-08  0.2440E+01
     -5.148  0.8932E-03  0.2440E+01
     -4.900  0.3759E-01  0.2450E+01
     -4.653  0.4222E-01  0.2460E+01
     -4.406  0.5258E-01  0.2473E+01
     -4.158  0.8829E-01  0.2495E+01
     -3.911  0.1063E+00  0.2521E+01
     -3.664  0.1532E+00  0.2559E+01
     -3.417  0.2136E+00  0.2612E+01
     -3.169  0.2417E+00  0.2672E+01
     -2.922  0.2230E+00  0.2727E+01
     -2.675  0.2014E+00  0.2776E+01
     -2.427  0.1382E+00  0.2811E+01
     -2.180  0.3740E-01  0.2820E+01
     -1.933  0.3801E-03  0.2820E+01
     -1.685  0.2267E-08  0.2820E+01
     -1.438  0.0000E+00  0.2820E+01
     -1.191  0.0000E+00  0.2820E+01
     -0.944  0.0000E+00  0.2820E+01
     -0.696  0.0000E+00  0.2820E+01
     -0.449  0.6015E-11  0.2820E+01
     -0.202  0.3783E-04  0.2820E+01
      0.046  0.6930E-02  0.2822E+01
      0.293  0.1886E-01  0.2826E+01
      0.540  0.1072E+00  0.2853E+01
      0.787  0.8385E-01  0.2874E+01
      1.035  0.1572E+00  0.2913E+01
      1.282  0.2304E+00  0.2969E+01
      1.529  0.2916E+00  0.3042E+01
      1.777  0.2778E+00  0.3110E+01
      2.024  0.2946E+00  0.3183E+01
      2.271  0.3372E+00  0.3267E+01
      2.519  0.3267E+00  0.3347E+01
      2.766  0.4068E+00  0.3448E+01
      3.013  0.4477E+00  0.3559E+01
      3.260  0.5968E+00  0.3706E+01
      3.508  0.6289E+00  0.3862E+01
      3.755  0.6568E+00  0.4024E+01
      4.002  0.5855E+00  0.4169E+01
      4.250  0.5069E+00  0.4294E+01
      4.497  0.3961E+00  0.4392E+01
      4.744  0.3709E+00  0.4484E+01
      4.992  0.3031E+00  0.4559E+01
      5.239  0.2779E+00  0.4628E+01
      5.486  0.1985E+00  0.4677E+01
      5.733  0.1534E+00  0.4715E+01
      5.981  0.8487E-01  0.4736E+01
      6.228  0.7381E-01  0.4754E+01
      6.475  0.1576E+00  0.4793E+01
      6.723  0.1977E+00  0.4842E+01
      6.970  0.2365E+00  0.4900E+01
      7.217  0.2017E+00  0.4950E+01
      7.464  0.2566E+00  0.5014E+01
      7.712  0.3079E+00  0.5090E+01
      7.959  0.2789E+00  0.5159E+01
      8.206  0.3611E+00  0.5248E+01
      8.454  0.4742E+00  0.5365E+01
      8.701  0.5293E+00  0.5496E+01
      8.948  0.5220E+00  0.5625E+01
      9.196  0.5348E+00  0.5757E+01
      9.443  0.5268E+00  0.5888E+01
      9.690  0.5091E+00  0.6014E+01
      9.937  0.4898E+00  0.6135E+01
     10.185  0.3679E+00  0.6226E+01
     10.432  0.5746E-01  0.6240E+01
     10.679  0.1459E-03  0.6240E+01
     10.927  0.3702E-10  0.6240E+01
     11.174  0.0000E+00  0.6240E+01
     11.421  0.0000E+00  0.6240E+01
     11.668  0.0000E+00  0.6240E+01
     11.916  0.0000E+00  0.6240E+01
     12.163  0.0000E+00  0.6240E+01
     12.410  0.0000E+00  0.6240E+01
     12.658  0.0000E+00  0.6240E+01
     12.905  0.0000E+00  0.6240E+01
     13.152  0.0000E+00  0.6240E+01
     13.400  0.0000E+00  0.6240E+01
     13.647  0.0000E+00  0.6240E+01
