HECN                                    
           1
     8.932500    0.000000    0.000000
     0.005753    9.055598    0.000000
     0.032102   -0.015743    8.937128
   Hf   V    Ti   N    C    Cr   Ta
   7   6   7  13  19   6   6
Direct configuration=     1
   0.99688001  0.99204997  0.99924002
   0.25398003  0.99714995  0.24912000
   0.24803003  0.50165000  0.24955001
   0.50501006  0.49745998  0.99834003
   0.50479003  0.24631001  0.74710002
   0.99427992  0.50449999  0.49779000
   0.49950005  0.75481999  0.74817004
   0.99437004  0.23617001  0.26379999
   0.75718000  0.74102998  0.01100000
   0.00201000  0.25541000  0.73894001
   0.75307001  0.26163001  0.50533002
   0.99514004  0.74492004  0.74511997
   0.25679999  0.49462002  0.74545002
   0.24788999  0.24839000  0.99657997
   0.50833000  0.25676999  0.25376001
   0.74879004  0.98787999  0.26967001
   0.75719000  0.25603001  0.99591997
   0.24762001  0.74973999  0.99974006
   0.25272001  0.24823001  0.50015003
   0.24457999  0.75048999  0.49983999
   0.24982001  0.24942998  0.24825000
   0.26146999  0.99984002  0.99295996
   0.00281000  0.25024000  0.00130000
   0.75313998  0.24617000  0.25492002
   0.74767001  0.99748000  0.01202000
   0.50714994  0.99977000  0.24673000
   0.99051999  0.48088002  0.24100998
   0.50519005  0.76130999  0.00855000
   0.98896989  0.00202000  0.73708999
   0.75744996  0.24437997  0.74896999
   0.73632001  0.00417000  0.51063000
   0.50563996  0.23264999  0.49544997
   0.50008998  0.00061000  0.73471998
   0.99720000  0.99771992  0.25899999
   0.50427997  0.24673000  0.00262000
   0.25133999  0.74958002  0.24910999
   0.24328000  0.50072997  0.99510994
   0.99837005  0.74313996  0.00460000
   0.75633000  0.73891003  0.25767000
   0.75839004  0.50315998  0.00288000
   0.50700002  0.50333002  0.25878999
   0.24900999  0.25315000  0.74854000
   0.24446000  0.99823996  0.50287998
   0.99804009  0.24229999  0.50128003
   0.24177002  0.75340997  0.75018002
   0.25841001  0.50062002  0.50129001
   0.99000004  0.76215003  0.49746000
   0.99203996  0.50055999  0.75138002
   0.75036005  0.74888000  0.74756004
   0.74036002  0.50197000  0.50067003
   0.50575006  0.74958002  0.49720000
   0.50501003  0.50217998  0.73912003
   0.51588997  0.01358000  0.98075008
   0.99841994  0.50976998  0.98613004
   0.50379003  0.73926997  0.25905001
   0.23780002  0.01082000  0.74607998
   0.47957999  0.98308000  0.49717999
   0.74279003  0.97869994  0.76450995
   0.99864998  0.77573999  0.26102000
   0.73551001  0.51468004  0.26666001
   0.02362000  0.99783001  0.49557002
   0.50539000  0.52833005  0.49917999
   0.73876003  0.52828003  0.73814999
   0.75400003  0.72937999  0.49116997
HECN                                    
           1
     8.355371    0.012369   -0.013562
     0.017921    8.484850   -0.005132
     0.016437   -0.019763    8.355540
   Hf   V    Ti   N    C    Cr   Ta
   7   6   7  13  19   6   6
Direct configuration=     2
   0.99377361  0.99734806  0.99176856
   0.26670469  0.00196519  0.24523417
   0.24536360  0.49803288  0.24771136
   0.50150958  0.50020207  0.00053553
   0.50633327  0.23938661  0.74347852
   0.00159280  0.49607378  0.50018931
   0.49331804  0.76612943  0.75419314
   0.99077762  0.23404838  0.26678915
   0.75909022  0.74054144  0.01139446
   0.00376680  0.25576939  0.73496581
   0.75482352  0.26063690  0.50333509
   0.99772639  0.74395456  0.74849181
   0.25377973  0.49272585  0.74667102
   0.24604307  0.24964605  0.99393346
   0.51105884  0.25202199  0.25435364
   0.74021611  0.99334867  0.26985892
   0.75822181  0.25575147  0.99559042
   0.24644006  0.74785831  0.99722736
   0.25316767  0.24886700  0.50244918
   0.24788682  0.75120916  0.50288043
   0.25053253  0.24903991  0.24845607
   0.25775683  0.00056014  0.99380105
   0.00224601  0.24843897  0.00029257
   0.75244314  0.24609084  0.25534821
   0.74617731  0.99784862  0.00709943
   0.50757855  0.99916775  0.24953071
   0.99286643  0.48288090  0.24455028
   0.50500996  0.75899961  0.00577714
   0.99052054  0.00182359  0.74291794
   0.75693321  0.24512350  0.74983941
   0.73786095  0.00273843  0.50602162
   0.50405802  0.23463121  0.49504217
   0.50259293  0.00047193  0.73815714
   0.99562234  0.00674638  0.25204956
   0.50529529  0.24473328  0.00276873
   0.25165405  0.74948666  0.24891963
   0.24322311  0.50113487  0.99287607
   0.99770310  0.74137560  0.00077464
   0.75151239  0.75038446  0.24801649
   0.75927424  0.50406826  0.00170246
   0.49884383  0.50082107  0.25249486
   0.24579514  0.25276612  0.74842328
   0.25899795  0.99829734  0.50460046
   0.99799890  0.24662963  0.50148040
   0.23928262  0.75261449  0.75010233
   0.25367053  0.50067887  0.50307889
   0.99866317  0.75512979  0.50393549
   0.99614753  0.50070716  0.75522924
   0.75275046  0.76097006  0.75279090
   0.74824352  0.49227078  0.50223558
   0.49870812  0.76128180  0.49469186
   0.49763362  0.50180511  0.74575368
   0.52002611  0.01487093  0.98152553
   0.99853790  0.51287515  0.98155883
   0.50327640  0.74331588  0.25698078
   0.23847643  0.01291569  0.74531151
   0.47880797  0.98278937  0.49793504
   0.74139049  0.97542401  0.76592154
   0.00313491  0.75923167  0.25091023
   0.74954544  0.49819598  0.24992355
   0.00706858  0.00616380  0.51094788
   0.48893019  0.51243521  0.49961496
   0.75093333  0.51040656  0.75046815
   0.75068206  0.75614119  0.49909251
HECN                                    
           1
     8.616945    0.006763   -0.007415
     0.012406    8.743532   -0.002806
     0.023537   -0.017941    8.619134
   Hf   V    Ti   N    C    Cr   Ta
   7   6   7  13  19   6   6
Direct configuration=     3
   0.99528851  0.99478521  0.99539146
   0.26054566 -0.00035396  0.24710652
   0.24665441  0.49978121  0.24860587
   0.50320596  0.49887257 -0.00052687
   0.50558334  0.24273773  0.74523499
  -0.00195857  0.50015418  0.49902291
   0.49631693  0.76065272  0.75127477
   0.99251439  0.23507127  0.26534351
   0.75816398  0.74077899  0.01120188
   0.00291895  0.25559792  0.73689094
   0.75397473  0.26111910  0.50430111
   0.99646985  0.74442243  0.74685546
   0.25524083  0.49363962  0.74608204
   0.24694097  0.24903793  0.99521752
   0.50973270  0.25432046  0.25406512
   0.74437433  0.99069726  0.26977246
   0.75772191  0.25588703  0.99574945
   0.24701240  0.74876841  0.99844695
   0.25294941  0.24855853  0.50133406
   0.24628266  0.75086274  0.50140367
   0.25018684  0.24922904  0.24835573
   0.25955586  0.00020894  0.99339601
   0.00251877  0.24931006  0.00078193
   0.75278039  0.24612852  0.25514120
   0.74690472  0.99767067  0.00948590
   0.50736823  0.99945857  0.24817282
   0.99172816  0.48191367  0.24283157
   0.50509773  0.76011786  0.00712219
   0.98976446  0.00191802  0.74009150
   0.75718345  0.24476323  0.74941811
   0.73711689  0.00343332  0.50825489
   0.50482629  0.23367185  0.49524052
   0.50137735  0.00053950  0.73648894
   0.99639880  0.00238097  0.25541757
   0.50480176  0.24569981  0.00269642
   0.25150195  0.74953209  0.24901170
   0.24325273  0.50093962  0.99395894
   0.99802799  0.74222969  0.00263015
   0.75386263  0.74483340  0.25269672
   0.75884740  0.50362987  0.00227234
   0.50279895  0.50203076  0.25555377
   0.24735267  0.25294958  0.74848251
   0.25195244  0.99827933  0.50375496
   0.99802184  0.24453521  0.50138202
   0.24048734  0.75299755  0.75014218
   0.25596563  0.50064655  0.50221538
   0.99445535  0.75852987  0.50079156
   0.99415433  0.50063776  0.75335994
   0.75159688  0.75512202  0.75024962
   0.74441538  0.49696761  0.50147330
   0.50213068  0.75561715  0.49590983
   0.50120228  0.50197934  0.74254372
   0.51802232  0.01424917  0.98114597
   0.99848660  0.51137451  0.98377386
   0.50352984  0.74135902  0.25798311
   0.23815081  0.01190266  0.74568290
   0.47918124  0.98292920  0.49756970
   0.74206513  0.97700726  0.76523930
   0.00095776  0.76722317  0.25581261
   0.74274594  0.50618437  0.25803092
   0.01508233  0.00211649  0.50350352
   0.49689372  0.52011217  0.49942173
   0.74501223  0.51905738  0.74449226
   0.75230294  0.74319160  0.49524650
HECN                                    
           1
     8.606938    0.006977   -0.007650
     0.012617    8.733636   -0.002895
     0.023265   -0.018011    8.609050
   Hf   V    Ti   N    C    Cr   Ta
   7   6   7  13  19   6   6
Direct configuration=     4
   0.99523248  0.99488036  0.99525712
   0.26077424 -0.00026769  0.24703688
   0.24660650  0.49971628  0.24857275
   0.50314304  0.49892187 -0.00048744
   0.50561112  0.24261336  0.74516986
  -0.00182698  0.50000278  0.49906611
   0.49620575  0.76085593  0.75138302
   0.99244990  0.23503324  0.26539719
   0.75819833  0.74077019  0.01120900
   0.00295046  0.25560433  0.73681952
   0.75400623  0.26110123  0.50426527
   0.99651640  0.74440508  0.74691611
   0.25518659  0.49360566  0.74610393
   0.24690771  0.24906049  0.99516991
   0.50978182  0.25423516  0.25407580
   0.74422015  0.99079558  0.26977575
   0.75774046  0.25588201  0.99574354
   0.24699118  0.74873462  0.99840175
   0.25295749  0.24856998  0.50137540
   0.24634214  0.75087562  0.50145838
   0.25019966  0.24922202  0.24835944
   0.25948912  0.00022193  0.99341108
   0.00250864  0.24927772  0.00076380
   0.75276787  0.24612711  0.25514889
   0.74687781  0.99767728  0.00939741
   0.50737598  0.99944776  0.24822318
   0.99177036  0.48194959  0.24289527
   0.50509448  0.76007636  0.00707233
   0.98979243  0.00191450  0.74019630
   0.75717416  0.24477659  0.74943374
   0.73714454  0.00340756  0.50817206
   0.50479782  0.23370745  0.49523317
   0.50142239  0.00053700  0.73655078
   0.99637020  0.00254304  0.25529264
   0.50482004  0.24566394  0.00269910
   0.25150760  0.74953041  0.24900828
   0.24325167  0.50094687  0.99391878
   0.99801597  0.74219799  0.00256136
   0.75377573  0.74503947  0.25252316
   0.75886326  0.50364616  0.00225119
   0.50265229  0.50198579  0.25544045
   0.24729489  0.25294273  0.74848036
   0.25221377  0.99828017  0.50378611
   0.99802104  0.24461296  0.50138564
   0.24044265  0.75298330  0.75014074
   0.25588047  0.50064768  0.50224747
   0.99461126  0.75840372  0.50090807
   0.99422822  0.50064037  0.75342921
   0.75163975  0.75533912  0.75034377
   0.74455724  0.49679333  0.50150151
   0.50200390  0.75582737  0.49586470
   0.50106981  0.50197275  0.74266287
   0.51809665  0.01427230  0.98115998
   0.99848860  0.51143024  0.98369169
   0.50352052  0.74143167  0.25794593
   0.23816292  0.01194028  0.74566911
   0.47916738  0.98292399  0.49758326
   0.74204005  0.97694846  0.76526464
   0.00103845  0.76692660  0.25563083
   0.74299818  0.50588806  0.25773014
   0.01478496  0.00226646  0.50377979
   0.49659811  0.51982696  0.49942921
   0.74523147  0.51873632  0.74471380
   0.75224305  0.74367226  0.49538904
HECN                                    
           1
     8.695039    0.016372   -0.007064
     0.022267    8.730913   -0.018587
     0.024179   -0.033413    8.717335
   Hf   V    Ti   N    C    Cr   Ta
   7   6   7  13  19   6   6
Direct configuration=     5
   0.99442026  0.99988632  0.98851905
   0.26747408  0.00349283  0.24373588
   0.24337322  0.49519198  0.24539410
   0.49827544  0.50147271  0.00065988
   0.50599329  0.23839342  0.74372532
   0.00418043  0.49474150  0.50253016
   0.49180636  0.76544851  0.75738415
   0.98939127  0.23380945  0.26637317
   0.75866940  0.74197086  0.00912062
   0.00440743  0.25491664  0.73531186
   0.75588250  0.25853955  0.50176904
   0.99985095  0.74371866  0.75227011
   0.25023092  0.49204267  0.74960991
   0.24569531  0.24986241  0.99298484
   0.51087567  0.25089189  0.25302212
   0.73863178  0.99661289  0.26588397
   0.75750088  0.25443178  0.99603485
   0.24604036  0.74761983  0.99577537
   0.25297967  0.24838441  0.50267415
   0.24891454  0.75262978  0.50406991
   0.25042838  0.24859061  0.24837880
   0.25750962  0.00102238  0.99238644
   0.00201846  0.24981225  0.00002560
   0.75249290  0.24554541  0.25468735
   0.74381190  0.99851804  0.00466603
   0.50959433  0.99883267  0.24948592
   0.99446839  0.48522321  0.24379329
   0.50441389  0.75967128  0.00624697
   0.99041275  0.00248772  0.74862540
   0.75880190  0.24610927  0.75006824
   0.74023604  0.00245823  0.50650031
   0.50340545  0.23720776  0.49372495
   0.50352565  0.00162296  0.74042624
   0.99494091  0.00633417  0.25084218
   0.50529509  0.24287883  0.00401832
   0.25390200  0.74954393  0.24844525
   0.24187348  0.50098922  0.99031703
   0.99816655  0.74075960 -0.00327369
   0.74686599  0.75285093  0.24489435
   0.76080454  0.50294672  0.00103094
   0.49825008  0.49910093  0.25066236
   0.24394366  0.25213961  0.74843528
   0.25893949  0.99924478  0.50702544
   0.99868558  0.24924838  0.50185953
   0.23696621  0.75291433  0.75038618
   0.24990479  0.49985069  0.50443452
   0.00315704  0.75235477  0.50741000
   0.00189293  0.49986411  0.75756700
   0.75432418  0.76096113  0.75729427
   0.74797581  0.49351596  0.50071001
   0.49391960  0.76179126  0.49362424
   0.49470002  0.50127256  0.74821018
   0.52094915  0.01407739  0.98213417
   0.99991834  0.51316553  0.98173603
   0.50271147  0.74495051  0.25437870
   0.23900824  0.01354568  0.74548025
   0.48118012  0.98386162  0.49762003
   0.74042990  0.97767044  0.76737114
   0.00463751  0.75724391  0.24800907
   0.75316058  0.49592237  0.24704844
   0.00515940  0.00631092  0.51084572
   0.49174549  0.50889702  0.49977897
   0.75273720  0.50703222  0.75520912
   0.74814158  0.75760034  0.50063109
HECN                                    
           1
     8.675070    0.014243   -0.007197
     0.020080    8.731531   -0.015030
     0.023972   -0.029922    8.692791
   Hf   V    Ti   N    C    Cr   Ta
   7   6   7  13  19   6   6
Direct configuration=     6
   0.99460365  0.99875372  0.99002529
   0.26597176  0.00264308  0.24447339
   0.24409746  0.49621826  0.24610742
   0.49936823  0.50089273  0.00040193
   0.50590645  0.23935088  0.74405041
   0.00283130  0.49593451  0.50175699
   0.49279470  0.76440383  0.75603886
   0.99007723  0.23408581  0.26615514
   0.75856397  0.74169955  0.00958762
   0.00408034  0.25507350  0.73564965
   0.75546084  0.25912179  0.50232889
   0.99910271  0.74387301  0.75107198
   0.25134247  0.49239450  0.74882566
   0.24596749  0.24968114  0.99347361
   0.51062939  0.25165060  0.25325937
   0.73988703  0.99529408  0.26675267
   0.75755427  0.25476042  0.99597023
   0.24625337  0.74787339  0.99636371
   0.25297467  0.24842598  0.50238351
   0.24833787  0.75223165  0.50348466
   0.25037690  0.24873382  0.24837473
   0.25795393  0.00084082  0.99261544
   0.00212856  0.24969123  0.00019062
   0.75255444  0.24567742  0.25479090
   0.74449992  0.99832852  0.00572474
   0.50909648  0.99897218  0.24920355
   0.99386388  0.48448126  0.24359099
   0.50456647  0.75976328  0.00643188
   0.99027386  0.00235462  0.74673835
   0.75843704  0.24580725  0.74992570
   0.73954214  0.00267487  0.50687497
   0.50371871  0.23641437  0.49406111
   0.50305409  0.00137573  0.73955832
   0.99526248  0.00547598  0.25183683
   0.50518783  0.24350991  0.00372416
   0.25336477  0.74954166  0.24857132
   0.24218265  0.50098069  0.99112323
   0.99813230  0.74108804 -0.00196694
   0.74841815  0.75108112  0.24659873
   0.76036878  0.50310625  0.00130441
   0.49923698  0.49975583  0.25173302
   0.24469536  0.25232092  0.74844564
   0.25743077  0.99902642  0.50630005
   0.99853766  0.24819734  0.50175157
   0.23774619  0.75292904  0.75033121
   0.25124537  0.50002911  0.50394517
   0.00123824  0.75372580  0.50595718
   0.00017310  0.50004034  0.75664122
   0.75372342  0.75968436  0.75573617
   0.74720796  0.49426018  0.50088858
   0.49573491  0.76043797  0.49412319
   0.49612910  0.50142763  0.74696860
   0.52030912  0.01412189  0.98191623
   0.99959796  0.51277319  0.98217311
   0.50289382  0.74415386  0.25517576
   0.23881898  0.01318196  0.74552188
   0.48072877  0.98364950  0.49761145
   0.74079138  0.97750553  0.76689928
   0.00382742  0.75944314  0.24971919
   0.75087778  0.49818853  0.24944375
   0.00732019  0.00538884  0.50926221
   0.49283150  0.51137392  0.49970505
   0.75105039  0.50968366  0.75286468
   0.74906542  0.75443934  0.49945192
HECN                                    
           1
     8.681966    0.017429    0.000456
     0.023309    8.713731   -0.027454
     0.031683   -0.042208    8.710166
   Hf   V    Ti   N    C    Cr   Ta
   7   6   7  13  19   6   6
Direct configuration=     7
   0.99516580  0.99984151  0.98983904
   0.26516617  0.00218770  0.24399108
   0.24339009  0.49438368  0.24476997
   0.49809524  0.50092926  0.00019059
   0.50527677  0.24002803  0.74471087
   0.00114556  0.49776423  0.50482697
   0.49242521  0.76207370  0.75703695
   0.98760262  0.23380461  0.26765543
   0.75915102  0.74184718  0.00674229
   0.00494129  0.25427078  0.73516292
   0.75753183  0.25719011  0.49998877
   0.00138754  0.74240944  0.75442658
   0.24803120  0.49108048  0.75159823
   0.24534036  0.24928481  0.99158160
   0.51126943  0.25181803  0.25178530
   0.73945782  0.99810704  0.26284745
   0.75622348  0.25354673  0.99632597
   0.24451034  0.74830306  0.99528799
   0.25185474  0.24765040  0.50333801
   0.24830390  0.75329280  0.50400125
   0.25021866  0.24775974  0.24816406
   0.25652177  0.00162531  0.99224145
   0.00188960  0.25058366 -0.00000972
   0.75254725  0.24517972  0.25388622
   0.74370882  0.99915842  0.00292197
   0.50978531  0.99924969  0.24928829
   0.99560147  0.48754686  0.24438128
   0.50346064  0.76000402  0.00618410
   0.99080463  0.00337448  0.74811519
   0.75924221  0.24742454  0.75034559
   0.74267322  0.00296990  0.50683183
   0.50301047  0.24036559  0.49378435
   0.50446853  0.00175480  0.74243450
   0.99566504  0.00313796  0.25205129
   0.50495782  0.24197544  0.00360004
   0.25393708  0.74980837  0.24773346
   0.24128736  0.50057464  0.99005324
   0.99860278  0.74259413 -0.00430167
   0.74652000  0.75160744  0.24710666
   0.76036168  0.50210601  0.00091131
   0.50144104  0.49853275  0.25263386
   0.24416992  0.25111945  0.74842084
   0.25509233  0.00050496  0.50763318
   0.99950374  0.24787678  0.50187737
   0.23685506  0.75362833  0.75096021
   0.25180858  0.49929785  0.50386130
   0.00144499  0.75309245  0.50628782
   0.00412385  0.49919401  0.75770185
   0.75393703  0.75752161  0.75840415
   0.74670714  0.49570951  0.50033175
   0.49410437  0.75784069  0.49469469
   0.49602471  0.50124010  0.74680940
   0.52227616  0.01362878  0.98149499
   0.00084840  0.51347932  0.98244246
   0.50158857  0.74449227  0.25366216
   0.23837071  0.01393599  0.74524384
   0.48296774  0.98436510  0.49726777
   0.73890241  0.97974858  0.76881404
   0.00336976  0.76057425  0.24939440
   0.75103926  0.49833178  0.24884641
   0.00784302  0.00415706  0.50895996
   0.49574871  0.51048025  0.49985414
   0.75141258  0.50871112  0.75348403
   0.74888552  0.75392248  0.49908882
HECN                                    
           1
     8.684974    0.018819    0.003795
     0.024717    8.705966   -0.032873
     0.035047   -0.047568    8.717746
   Hf   V    Ti   N    C    Cr   Ta
   7   6   7  13  19   6   6
Direct configuration=     8
   0.99541074  0.00031682  0.98975841
   0.26481527  0.00198847  0.24378112
   0.24308256  0.49358100  0.24418680
   0.49754042  0.50094530  0.00009909
   0.50500192  0.24032454  0.74499909
   0.00040926  0.49856623  0.50616537
   0.49226416  0.76105578  0.75747018
   0.98652340  0.23368300  0.26830940
   0.75940799  0.74190988  0.00550337
   0.00531691  0.25391945  0.73495017
   0.75843580  0.25634392  0.49896792
   0.00238246  0.74177133  0.75588531
   0.24658696  0.49050829  0.75280580
   0.24506779  0.24911050  0.99075784
   0.51154897  0.25189022  0.25114338
   0.73927176  0.99933439  0.26114912
   0.75564345  0.25301660  0.99648061
   0.24375089  0.74849051  0.99482058
   0.25136632  0.24731212  0.50375352
   0.24828872  0.75375699  0.50422683
   0.25014993  0.24733382  0.24807179
   0.25589749  0.00196825  0.99207965
   0.00178536  0.25097370 -0.00009630
   0.75254454  0.24496160  0.25349204
   0.74336492  0.99951962  0.00170252
   0.51008550  0.99937095  0.24932509
   0.99635808  0.48888717  0.24472661
   0.50297865  0.76010928  0.00607680
   0.99103529  0.00382107  0.74871508
   0.75959275  0.24813165  0.75052911
   0.74403804  0.00309835  0.50681203
   0.50270120  0.24209278  0.49366660
   0.50508391  0.00192204  0.74368642
   0.99584083  0.00211598  0.25214305
   0.50485786  0.24130462  0.00354513
   0.25418683  0.74992436  0.24736862
   0.24089758  0.50039662  0.98958748
   0.99880851  0.74325101 -0.00531741
   0.74569231  0.75183814  0.24732887
   0.76035891  0.50166853  0.00073954
   0.50240166  0.49799829  0.25302446
   0.24394109  0.25059431  0.74840949
   0.25407223  0.00115248  0.50821541
   0.99992487  0.24773656  0.50193157
   0.23646625  0.75393455  0.75123484
   0.25205424  0.49897804  0.50382411
   0.00153510  0.75281575  0.50643130
   0.00584573  0.49882405  0.75816159
   0.75402948  0.75657777  0.75956430
   0.74648881  0.49634281  0.50009042
   0.49339382  0.75670592  0.49494252
   0.49597929  0.50115804  0.74674002
   0.52313384  0.01341264  0.98131053
   0.00139324  0.51378797  0.98255969
   0.50102013  0.74463949  0.25300388
   0.23817529  0.01426552  0.74512343
   0.48394373  0.98467735  0.49711772
   0.73807788  0.98073058  0.76964981
   0.00317019  0.76106858  0.24925388
   0.75110986  0.49839401  0.24858636
   0.00807125  0.00361832  0.50882739
   0.49702042  0.51008921  0.49991737
   0.75157039  0.50828630  0.75375293
   0.74880733  0.75369634  0.49893048
HECN                                    
           1
     8.674122    0.016791    0.004333
     0.022645    8.707459   -0.027439
     0.035554   -0.042232    8.694541
   Hf   V    Ti   N    C    Cr   Ta
   7   6   7  13  19   6   6
Direct configuration=     9
   0.99597275  0.00151067  0.99073403
   0.26503209  0.00204311  0.24452971
   0.24335036  0.49339776  0.24523867
   0.49762167  0.50051208  0.00047054
   0.50495901  0.24151630  0.74444015
   0.00151781  0.49934031  0.50611764
   0.49248909  0.76092361  0.75714189
   0.98520386  0.23358295  0.26932320
   0.76031854  0.74206096  0.00319351
   0.00567066  0.25264287  0.73492473
   0.75974023  0.25451331  0.49638534
   0.00322289  0.74037908  0.75745370
   0.24478878  0.48917017  0.75333011
   0.24399545  0.24777099  0.99008757
   0.51166905  0.25166255  0.25065463
   0.74028434  0.00036557  0.25882858
   0.75485719  0.25234955  0.99690018
   0.24242274  0.74931525  0.99483456
   0.25098076  0.24790104  0.50407937
   0.24830333  0.75346196  0.50409529
   0.24970843  0.24677284  0.24797867
   0.25445691  0.00240737  0.99210144
   0.00153321  0.25193854 -0.00007578
   0.75245686  0.24505577  0.25231685
   0.74443825  0.99979968  0.00083970
   0.50890008  0.99967536  0.24926599
   0.99608018  0.49118224  0.24583331
   0.50198296  0.76011557  0.00598731
   0.99162944  0.00464484  0.74747907
   0.75954137  0.24854344  0.75057973
   0.74578162  0.00394869  0.50617639
   0.50253711  0.24469999  0.49399688
   0.50589307  0.00063246  0.74567780
   0.99577654  0.00231132  0.25267214
   0.50429201  0.24100629  0.00284482
   0.25360622  0.74900390  0.24682464
   0.24069945  0.49999878  0.99020418
   0.99878943  0.74476171 -0.00455948
   0.74525113  0.75183321  0.24760340
   0.76004556  0.50126134  0.00080847
   0.50322059  0.49769102  0.25281596
   0.24433115  0.24980073  0.74819510
   0.25486395  0.00110891  0.50792481
   0.00041403  0.24776385  0.50214271
   0.23684452  0.75467488  0.75152013
   0.25279187  0.49854598  0.50350755
   0.00051821  0.75359324  0.50587552
   0.00554357  0.49815004  0.75896918
   0.75390513  0.75662949  0.75962793
   0.74701706  0.49697951  0.50002630
   0.49422654  0.75606241  0.49570136
   0.49719935  0.50071339  0.74669410
   0.52432013  0.01296538  0.98017281
   0.00260545  0.51374189  0.98284728
   0.49977493  0.74466954  0.25284040
   0.23699545  0.01479077  0.74508103
   0.48483710  0.98440626  0.49692932
   0.73630036  0.98059472  0.77181368
   0.00296402  0.76037581  0.24856447
   0.75203526  0.49907163  0.24864130
   0.00710087  0.00258802  0.50934884
   0.49572848  0.50895517  0.49990895
   0.75274201  0.50752038  0.75408887
   0.74791994  0.75459328  0.49944361
HECN                                    
           1
     8.671444    0.016291    0.004466
     0.022134    8.707827   -0.026098
     0.035679   -0.040915    8.688815
   Hf   V    Ti   N    C    Cr   Ta
   7   6   7  13  19   6   6
Direct configuration=    10
   0.99611165  0.00180508  0.99097521
   0.26508564  0.00205648  0.24471490
   0.24341649  0.49335242  0.24549892
   0.49764172  0.50040515  0.00056251
   0.50494849  0.24181038  0.74430169
   0.00179172  0.49953134  0.50610569
   0.49254465  0.76089107  0.75706070
   0.98487784  0.23355804  0.26957405
   0.76054353  0.74209863  0.00262201
   0.00575798  0.25232796  0.73491862
   0.76006243  0.25406216  0.49574667
   0.00343041  0.74003543  0.75784192
   0.24434445  0.48883988  0.75346006
   0.24373046  0.24744057  0.98992196
   0.51169871  0.25160647  0.25053374
   0.74053460  0.00062036  0.25825431
   0.75466290  0.25218489  0.99700409
   0.24209466  0.74951863  0.99483792
   0.25088554  0.24804626  0.50415990
   0.24830693  0.75338919  0.50406279
   0.24959933  0.24663443  0.24795573
   0.25410103  0.00251562  0.99210678
   0.00147097  0.25217655 -0.00007085
   0.75243522  0.24507917  0.25202609
   0.74470345  0.99986896  0.00062617
   0.50860724  0.99975040  0.24925133
   0.99601164  0.49174825  0.24610676
   0.50173697  0.76011708  0.00596519
   0.99177629  0.00484828  0.74717314
   0.75952870  0.24864502  0.75059219
   0.74621243  0.00415866  0.50601897
   0.50249672  0.24534313  0.49407819
   0.50609286  0.00031407  0.74617066
   0.99576066  0.00235943  0.25280301
   0.50415220  0.24093276  0.00267162
   0.25346274  0.74877687  0.24669021
   0.24065047  0.49990052  0.99035682
   0.99878479  0.74513429 -0.00437220
   0.74514213  0.75183192  0.24767133
   0.75996812  0.50116086  0.00082559
   0.50342289  0.49761530  0.25276442
   0.24442747  0.24960501  0.74814217
   0.25505955  0.00109825  0.50785291
   0.00053488  0.24777058  0.50219493
   0.23693800  0.75485750  0.75159059
   0.25297408  0.49843948  0.50342929
   0.00026704  0.75378507  0.50573791
   0.00546887  0.49798363  0.75916909
   0.75387441  0.75664224  0.75964366
   0.74714760  0.49713662  0.50001034
   0.49443222  0.75590359  0.49588919
   0.49750074  0.50060377  0.74668279
   0.52461320  0.01285528  0.97989139
   0.00290492  0.51373055  0.98291842
   0.49946731  0.74467690  0.25279996
   0.23670400  0.01492029  0.74507048
   0.48505779  0.98433947  0.49688274
   0.73586118  0.98056078  0.77234906
   0.00291305  0.76020500  0.24839402
   0.75226392  0.49923884  0.24865477
   0.00686107  0.00233372  0.50947801
   0.49540924  0.50867534  0.49990706
   0.75303141  0.50733145  0.75417209
   0.74770075  0.75481442  0.49957044
HECN                                    
           1
     8.703437    0.015797    0.004560
     0.021687    8.723794   -0.019295
     0.035881   -0.034131    8.713179
   Hf   V    Ti   N    C    Cr   Ta
   7   6   7  13  19   6   6
Direct configuration=    11
   0.99676203  0.00312835  0.99128289
   0.26473293  0.00188255  0.24599374
   0.24401005  0.49317811  0.24595221
   0.49741050  0.50025079  0.00043067
   0.50553840  0.24147434  0.74354719
   0.00248427  0.49974288  0.50566409
   0.49239351  0.75998866  0.75696049
   0.98452584  0.23363397  0.26975370
   0.76155318  0.74245058  0.00046344
   0.00570549  0.25092538  0.73512757
   0.76107184  0.25234294  0.49285601
   0.00347524  0.73903881  0.75858750
   0.24349019  0.48750176  0.75360728
   0.24296373  0.24664198  0.99041564
   0.51156368  0.25101779  0.25063749
   0.74148527  0.00069641  0.25633913
   0.75411360  0.25192390  0.99787721
   0.24188081  0.74998627  0.99531425
   0.25063690  0.24818213  0.50384239
   0.24882185  0.75310184  0.50381144
   0.24897624  0.24658690  0.24807304
   0.25298670  0.00273286  0.99223707
   0.00119633  0.25317650  0.00005289
   0.75211963  0.24565909  0.25065207
   0.74611837  0.99969001  0.00106263
   0.50811946  0.00001051  0.24920544
   0.99584453  0.49363020  0.24696628
   0.50099724  0.75999576  0.00633385
   0.99206660  0.00542330  0.74732206
   0.75936493  0.24847588  0.75026856
   0.74694445  0.00542606  0.50523671
   0.50247038  0.24717549  0.49387153
   0.50645174  0.00072054  0.74735662
   0.99527009  0.00314857  0.25296090
   0.50356503  0.24087908  0.00199130
   0.25284865  0.74827257  0.24662084
   0.24076741  0.49944976  0.99120327
   0.99849622  0.74620882 -0.00328803
   0.74487276  0.75194685  0.24722984
   0.76003925  0.50115092  0.00098556
   0.50327786  0.49764628  0.25237204
   0.24490948  0.24916611  0.74789466
   0.25669690  0.00054797  0.50766616
   0.00075855  0.24794476  0.50251420
   0.23726848  0.75543782  0.75155806
   0.25272186  0.49830495  0.50365694
  -0.00047366  0.75398948  0.50549832
   0.00437193  0.49715809  0.75929425
   0.75431069  0.75724390  0.75878119
   0.74779653  0.49720491  0.50012068
   0.49499180  0.75616750  0.49597033
   0.49863225  0.50012127  0.74705508
   0.52520596  0.01257083  0.97897204
   0.00383342  0.51380511  0.98417307
   0.49802578  0.74457021  0.25328323
   0.23506163  0.01531061  0.74467937
   0.48607699  0.98356318  0.49689780
   0.73456560  0.97967120  0.77454627
   0.00275006  0.75947015  0.24788381
   0.75255859  0.49980529  0.24911002
   0.00629549  0.00275984  0.50899319
   0.49518084  0.50792298  0.50005081
   0.75398688  0.50652430  0.75398226
   0.74706119  0.75624388  0.50023962
HECN                                    
           1
     8.697584    0.015887    0.004543
     0.021769    8.720873   -0.020539
     0.035844   -0.035372    8.708722
   Hf   V    Ti   N    C    Cr   Ta
   7   6   7  13  19   6   6
Direct configuration=    12
   0.99664347  0.00288675  0.99122695
   0.26479723  0.00191450  0.24576041
   0.24390186  0.49321000  0.24586949