<?xml version="1.0" encoding="ISO-8859-1"?>
<modeling>
 <generator>
  <i name="program" type="string">vasp </i>
  <i name="version" type="string">6.4.3  </i>
  <i name="subversion" type="string">19Mar24 (build Sep 18 2024 11:30:23) complex                          parallel </i>
  <i name="platform" type="string">LinuxIFC </i>
  <i name="date" type="string">2026 07 08 </i>
  <i name="time" type="string">14:47:28 </i>
 </generator>
 <incar>
  <i type="string" name="SYSTEM">HECN</i>
  <i type="int" name="ISTART">     0</i>
  <i type="string" name="PREC">Normal</i>
  <i type="string" name="ALGO">Fast</i>
  <i type="int" name="ICHARG">     2</i>
  <i type="int" name="NELM">    60</i>
  <i type="int" name="IBRION">     2</i>
  <i name="EDIFF">      0.00001000</i>
  <i name="EDIFFG">     -0.01000000</i>
  <i type="int" name="NSW">   100</i>
  <i type="int" name="ISIF">     3</i>
  <i name="ENCUT">    400.00000000</i>
  <i name="POTIM">      0.50000000</i>
  <i type="logical" name="LREAL"> F  </i>
  <i type="int" name="ISMEAR">     0</i>
  <i name="SIGMA">      0.10000000</i>
  <i type="logical" name="LWAVE"> F  </i>
  <i type="logical" name="LCHARG"> F  </i>
 </incar>
 <primitive_cell>
  <structure name="primitive_cell" >
   <crystal>
    <varray name="basis" >
     <v>       8.67027485       0.03126701      -0.01187245 </v>
     <v>       0.03749153       8.70893681       0.01328117 </v>
     <v>       0.01920412      -0.00197963       8.65996742 </v>
    </varray>
    <i name="volume">    653.89647544 </i>
    <varray name="rec_basis" >
     <v>       0.11533804      -0.00049613      -0.00025588 </v>
     <v>      -0.00041405       0.11482632       0.00002717 </v>
     <v>       0.00015876      -0.00017678       0.11547348 </v>
    </varray>
   </crystal>
   <varray name="positions" >
    <v>       0.99779866       0.99624231       0.99703722 </v>
    <v>       0.26734340       0.99904488       0.24706139 </v>
    <v>       0.24006396       0.49681765       0.24495750 </v>
    <v>       0.50519085       0.50033899       0.00070641 </v>
    <v>       0.50747492       0.24647962       0.74262842 </v>
    <v>       0.99036582       0.50737581       0.49404087 </v>
    <v>       0.49807243       0.75703886       0.74696985 </v>
    <v>       0.99037843       0.23508269       0.25625915 </v>
    <v>       0.75673612       0.74499156       0.01552745 </v>
    <v>       0.99858496       0.25384429       0.74707987 </v>
    <v>       0.74837047       0.25151921       0.50109501 </v>
    <v>       0.99906561       0.75189468       0.74451755 </v>
    <v>       0.25161115       0.49836293       0.74525297 </v>
    <v>       0.25553228       0.24452040       0.99080775 </v>
    <v>       0.50970640       0.25277530       0.25439640 </v>
    <v>       0.74170213       0.98713441       0.27532918 </v>
    <v>       0.74923810       0.24980836       0.99821818 </v>
    <v>       0.24785238       0.74881592       0.00085147 </v>
    <v>       0.25227085       0.24850306       0.50219806 </v>
    <v>       0.25124786       0.75049000       0.49542179 </v>
    <v>       0.25293620       0.24770840       0.24689580 </v>
    <v>       0.25565679       0.00075375       0.99468420 </v>
    <v>       0.00176688       0.25025718       0.00040649 </v>
    <v>       0.74533349       0.24470147       0.24971719 </v>
    <v>       0.74609732       0.00036773       0.00398318 </v>
    <v>       0.51107380       0.00174677       0.25806720 </v>
    <v>       0.98906013       0.49263748       0.24452992 </v>
    <v>       0.50071035       0.76034356       0.00343944 </v>
    <v>       0.99020762       0.00297386       0.73843037 </v>
    <v>       0.75284753       0.24204549       0.75486128 </v>
    <v>       0.75188055       0.00218683       0.50117275 </v>
    <v>       0.49708036       0.24749397       0.49261452 </v>
    <v>       0.52130405       0.00038784       0.74380442 </v>
    <v>       0.99829030       0.99539673       0.25721212 </v>
    <v>       0.50323116       0.24010537       0.00248888 </v>
    <v>       0.25376503       0.74868053       0.24813945 </v>
    <v>       0.24345805       0.50008549       0.99381140 </v>
    <v>       0.00389243       0.73988972       0.00824351 </v>
    <v>       0.75313080       0.73962910       0.26251599 </v>
    <v>       0.76246450       0.49585795       0.00991761 </v>
    <v>       0.50097844       0.49945886       0.25624097 </v>
    <v>       0.24977860       0.24556928       0.74710778 </v>
    <v>       0.25303620       0.99959643       0.51006275 </v>
    <v>       0.00261502       0.24555570       0.50020016 </v>
    <v>       0.24435511       0.75875571       0.74799903 </v>
    <v>       0.25423330       0.50264783       0.49733257 </v>
    <v>       0.99366898       0.76489303       0.49191995 </v>
    <v>       0.99274129       0.50349793       0.75173131 </v>
    <v>       0.75014962       0.75088946       0.74676181 </v>
    <v>       0.73551810       0.50409850       0.50782276 </v>
    <v>       0.50337909       0.75876221       0.48746656 </v>
    <v>       0.51092183       0.50340625       0.74032300 </v>
    <v>       0.52169388       0.00798134       0.97307564 </v>
    <v>       0.99078600       0.50805140       0.98082650 </v>
    <v>       0.50550348       0.72844837       0.26316246 </v>
    <v>       0.22201557       0.01146774       0.73496614 </v>
    <v>       0.47803220       0.99326488       0.51423600 </v>
    <v>       0.74263714       0.97186897       0.77291327 </v>
    <v>       0.00660358       0.77809390       0.25955809 </v>
    <v>       0.72757543       0.51312656       0.26433674 </v>
    <v>       0.02272695       0.00013492       0.49799548 </v>
    <v>       0.50772495       0.51908523       0.48513110 </v>
    <v>       0.75679558       0.52901552       0.76718044 </v>
    <v>       0.73373595       0.72799961       0.48635738 </v>
   </varray>
  </structure>
  <varray name="primitive_index" >
   <v type="int" >        1 </v>
   <v type="int" >        2 </v>
   <v type="int" >        3 </v>
   <v type="int" >        4 </v>
   <v type="int" >        5 </v>
   <v type="int" >        6 </v>
   <v type="int" >        7 </v>
   <v type="int" >        8 </v>
   <v type="int" >        9 </v>
   <v type="int" >       10 </v>
   <v type="int" >       11 </v>
   <v type="int" >       12 </v>
   <v type="int" >       13 </v>
   <v type="int" >       14 </v>
   <v type="int" >       15 </v>
   <v type="int" >       16 </v>
   <v type="int" >       17 </v>
   <v type="int" >       18 </v>
   <v type="int" >       19 </v>
   <v type="int" >       20 </v>
   <v type="int" >       21 </v>
   <v type="int" >       22 </v>
   <v type="int" >       23 </v>
   <v type="int" >       24 </v>
   <v type="int" >       25 </v>
   <v type="int" >       26 </v>
   <v type="int" >       27 </v>
   <v type="int" >       28 </v>
   <v type="int" >       29 </v>
   <v type="int" >       30 </v>
   <v type="int" >       31 </v>
   <v type="int" >       32 </v>
   <v type="int" >       33 </v>
   <v type="int" >       34 </v>
   <v type="int" >       35 </v>
   <v type="int" >       36 </v>
   <v type="int" >       37 </v>
   <v type="int" >       38 </v>
   <v type="int" >       39 </v>
   <v type="int" >       40 </v>
   <v type="int" >       41 </v>
   <v type="int" >       42 </v>
   <v type="int" >       43 </v>
   <v type="int" >       44 </v>
   <v type="int" >       45 </v>
   <v type="int" >       46 </v>
   <v type="int" >       47 </v>
   <v type="int" >       48 </v>
   <v type="int" >       49 </v>
   <v type="int" >       50 </v>
   <v type="int" >       51 </v>
   <v type="int" >       52 </v>
   <v type="int" >       53 </v>
   <v type="int" >       54 </v>
   <v type="int" >       55 </v>
   <v type="int" >       56 </v>
   <v type="int" >       57 </v>
   <v type="int" >       58 </v>
   <v type="int" >       59 </v>
   <v type="int" >       60 </v>
   <v type="int" >       61 </v>
   <v type="int" >       62 </v>
   <v type="int" >       63 </v>
   <v type="int" >       64 </v>
  </varray>
 </primitive_cell>
 <kpoints>
  <generation param="Gamma">
   <v type="int" name="divisions">       3        3        3 </v>
   <v name="usershift">      0.00000000       0.00000000       0.00000000 </v>
   <v name="genvec1">      0.33333333       0.00000000       0.00000000 </v>
   <v name="genvec2">     -0.00000000       0.33333333       0.00000000 </v>
   <v name="genvec3">      0.00000000      -0.00000000       0.33333333 </v>
   <v name="shift">      0.00000000       0.00000000       0.00000000 </v>
  </generation>
  <varray name="kpointlist" >
   <v>       0.00000000       0.00000000       0.00000000 </v>
   <v>       0.33333333      -0.00000000       0.00000000 </v>
   <v>      -0.00000000       0.33333333      -0.00000000 </v>
   <v>       0.33333333       0.33333333       0.00000000 </v>
   <v>      -0.33333333       0.33333333      -0.00000000 </v>
   <v>      -0.00000000      -0.00000000       0.33333333 </v>
   <v>       0.33333333      -0.00000000       0.33333333 </v>
   <v>      -0.33333333       0.00000000       0.33333333 </v>
   <v>      -0.00000000       0.33333333       0.33333333 </v>
   <v>       0.33333333       0.33333333       0.33333333 </v>
   <v>      -0.33333333       0.33333333       0.33333333 </v>
   <v>       0.00000000      -0.33333333       0.33333333 </v>
   <v>       0.33333333      -0.33333333       0.33333333 </v>
   <v>      -0.33333333      -0.33333333       0.33333333 </v>
  </varray>
  <varray name="weights" >
   <v>       0.03703704 </v>
   <v>       0.07407407 </v>
   <v>       0.07407407 </v>
   <v>       0.07407407 </v>
   <v>       0.07407407 </v>
   <v>       0.07407407 </v>
   <v>       0.07407407 </v>
   <v>       0.07407407 </v>
   <v>       0.07407407 </v>
   <v>       0.07407407 </v>
   <v>       0.07407407 </v>
   <v>       0.07407407 </v>
   <v>       0.07407407 </v>
   <v>       0.07407407 </v>
  </varray>
 </kpoints>
 <parameters>
  <separator name="general" >
   <i type="string" name="SYSTEM">HECN</i>
   <i type="logical" name="LCOMPAT"> F  </i>
  </separator>
  <separator name="electronic" >
   <i type="string" name="PREC">normal</i>
   <i name="ENMAX">    400.00000000</i>
   <i name="ENAUG">    644.87300000</i>
   <i name="EDIFF">      0.00001000</i>
   <i type="int" name="IALGO">    68</i>
   <i type="int" name="IWAVPR">    11</i>
   <i type="int" name="NBANDS">   308</i>
   <i type="int" name="NBANDSLOW">    -1</i>
   <i type="int" name="NBANDSHIGH">    -1</i>
   <i name="NELECT">    491.00000000</i>
   <i type="int" name="TURBO">     0</i>
   <i type="int" name="IRESTART">     0</i>
   <i type="int" name="NREBOOT">     0</i>
   <i type="int" name="NMIN">     0</i>
   <i name="EREF">      0.00000000</i>
   <separator name="electronic smearing" >
    <i type="int" name="ISMEAR">     0</i>
    <i name="SIGMA">      0.10000000</i>
    <i name="KSPACING">      0.50000000</i>
    <i type="logical" name="KGAMMA"> T  </i>
    <i type="logical" name="KBLOWUP"> T  </i>
   </separator>
   <separator name="electronic projectors" >
    <i type="logical" name="LREAL"> F  </i>
    <v name="ROPT">      0.00000000      0.00000000      0.00000000      0.00000000      0.00000000      0.00000000      0.00000000</v>
    <i type="int" name="LMAXPAW">  -100</i>
    <i type="int" name="LMAXMIX">     2</i>
    <i type="logical" name="NLSPLINE"> F  </i>
   </separator>
   <separator name="electronic startup" >
    <i type="int" name="ISTART">     0</i>
    <i type="int" name="ICHARG">     2</i>
    <i type="int" name="INIWAV">     1</i>
   </separator>
   <separator name="electronic spin" >
    <i type="int" name="ISPIN">     1</i>
    <i type="logical" name="LNONCOLLINEAR"> F  </i>
    <v name="MAGMOM">      1.00000000      1.00000000      1.00000000      1.00000000      1.00000000      1.00000000      1.00000000      1.00000000      1.00000000      1.00000000      1.00000000      1.00000000      1.00000000      1.00000000      1.00000000      1.00000000      1.00000000      1.00000000      1.00000000      1.00000000
      1.00000000      1.00000000      1.00000000      1.00000000      1.00000000      1.00000000      1.00000000      1.00000000      1.00000000      1.00000000      1.00000000      1.00000000      1.00000000      1.00000000      1.00000000      1.00000000      1.00000000      1.00000000      1.00000000      1.00000000
      1.00000000      1.00000000      1.00000000      1.00000000      1.00000000      1.00000000      1.00000000      1.00000000      1.00000000      1.00000000      1.00000000      1.00000000      1.00000000      1.00000000      1.00000000      1.00000000      1.00000000      1.00000000      1.00000000      1.00000000
      1.00000000      1.00000000      1.00000000      1.00000000</v>
    <i name="NUPDOWN">     -1.00000000</i>
    <i type="logical" name="LSORBIT"> F  </i>
    <v name="SAXIS">      0.00000000      0.00000000      1.00000000</v>
    <i type="logical" name="LSPIRAL"> F  </i>
    <v name="QSPIRAL">      0.00000000      0.00000000      0.00000000</v>
    <i type="logical" name="LZEROZ"> F  </i>
   </separator>
   <separator name="electronic exchange-correlation" >
    <i type="logical" name="LASPH"> F  </i>
   </separator>
   <separator name="electronic convergence" >
    <i type="int" name="NELM">    60</i>
    <i type="int" name="NELMDL">    -5</i>
    <i type="int" name="NELMIN">     2</i>
    <i name="ENINI">    400.00000000</i>
    <separator name="electronic convergence detail" >
     <i type="logical" name="LDIAG"> T  </i>
     <i type="logical" name="LSUBROT"> F  </i>
     <i name="WEIMIN">      0.00100000</i>
     <i name="EBREAK">      0.00000001</i>
     <i name="DEPER">      0.30000000</i>
     <i type="int" name="NRMM">     4</i>
     <i name="TIME">      0.40000000</i>
    </separator>
   </separator>
   <separator name="electronic mixer" >
    <i name="AMIX">      0.40000000</i>
    <i name="BMIX">      1.00000000</i>
    <i name="AMIN">      0.10000000</i>
    <i name="AMIX_MAG">      1.60000000</i>
    <i name="BMIX_MAG">      1.00000000</i>
    <separator name="electronic mixer details" >
     <i type="int" name="IMIX">     4</i>
     <i type="logical" name="MIXFIRST"> F  </i>
     <i type="int" name="MAXMIX">   -45</i>
     <i name="WC">    100.00000000</i>
     <i type="int" name="INIMIX">     1</i>
     <i type="int" name="MIXPRE">     1</i>
     <i type="int" name="MREMOVE">     5</i>
    </separator>
   </separator>
   <separator name="electronic dipolcorrection" >
    <i type="logical" name="LDIPOL"> F  </i>
    <i type="logical" name="LMONO"> F  </i>
    <i type="int" name="IDIPOL">     0</i>
    <i name="EPSILON">      1.00000000</i>
    <v name="DIPOL">   -100.00000000   -100.00000000   -100.00000000</v>
    <i name="EFIELD">      0.00000000</i>
    <i type="logical" name="LVACPOTAV"> F  </i>
   </separator>
  </separator>
  <separator name="grids" >
   <i type="int" name="NGX">    42</i>
   <i type="int" name="NGY">    48</i>
   <i type="int" name="NGZ">    42</i>
   <i type="int" name="NGXF">    84</i>
   <i type="int" name="NGYF">    96</i>
   <i type="int" name="NGZF">    84</i>
   <i type="logical" name="ADDGRID"> F  </i>
  </separator>
  <separator name="ionic" >
   <i type="int" name="NSW">   100</i>
   <i type="int" name="IBRION">     2</i>
   <i type="int" name="MDALGO">     0</i>
   <i type="int" name="ISIF">     3</i>
   <i name="PSTRESS">      0.00000000</i>
   <i name="EDIFFG">     -0.01000000</i>
   <i type="int" name="NFREE">     1</i>
   <i name="POTIM">      0.50000000</i>
   <i name="SMASS">     -3.00000000</i>
   <i name="SCALEE">      1.00000000</i>
  </separator>
  <separator name="ionic md" >
   <i name="TEBEG">      0.00010000</i>
   <i name="TEEND">      0.00010000</i>
   <i type="int" name="NBLOCK">     1</i>
   <i type="int" name="KBLOCK">   100</i>
   <i type="int" name="NPACO">   256</i>
   <i name="APACO">     10.00000000</i>
  </separator>
  <separator name="symmetry" >
   <i type="int" name="ISYM">     2</i>
   <i name="SYMPREC">      0.00001000</i>
  </separator>
  <separator name="dos" >
   <i type="int" name="LORBIT">     0</i>
   <v name="RWIGS">     -1.00000000     -1.00000000     -1.00000000     -1.00000000     -1.00000000     -1.00000000     -1.00000000</v>
   <i type="int" name="NEDOS">   301</i>
   <i name="EMIN">     10.00000000</i>
   <i name="EMAX">    -10.00000000</i>
   <i name="EFERMI">      0.00000000</i>
  </separator>
  <separator name="writing" >
   <i type="int" name="NWRITE">     2</i>
   <i type="logical" name="LWAVE"> F  </i>
   <i type="logical" name="LDOWNSAMPLE"> F  </i>
   <i type="logical" name="LCHARG"> F  </i>
   <i type="logical" name="LPARD"> F  </i>
   <i type="logical" name="LVTOT"> F  </i>
   <i type="logical" name="LVHAR"> F  </i>
   <i type="logical" name="LELF"> F  </i>
   <i type="logical" name="LOPTICS"> F  </i>
   <v name="STM">      0.00000000      0.00000000      0.00000000      0.00000000      0.00000000      0.00000000      0.00000000</v>
  </separator>
  <separator name="performance" >
   <i type="int" name="NPAR">    28</i>
   <i type="int" name="NSIM">     4</i>
   <i type="int" name="NBLK">    -1</i>
   <i type="logical" name="LPLANE"> T  </i>
   <i type="logical" name="LSCALAPACK"> T  </i>
   <i type="logical" name="LSCAAWARE"> F  </i>
   <i type="logical" name="LSCALU"> F  </i>
   <i type="logical" name="LASYNC"> F  </i>
   <i type="logical" name="LORBITALREAL"> F  </i>
  </separator>
  <separator name="miscellaneous" >
   <i type="int" name="IDIOT">     3</i>
   <i type="int" name="PHON_NSTRUCT">    -1</i>
   <i type="logical" name="LMUSIC"> F  </i>
   <v name="POMASS">    178.49000000     92.00000000     47.88000000     14.00100000     12.01100000     51.99600000     95.94000000</v>
   <v name="DARWINR">      0.00000000      0.00000000      0.00000000      0.00000000      0.00000000      0.00000000      0.00000000</v>
   <v name="DARWINV">      1.00000000      1.00000000      1.00000000      1.00000000      1.00000000      1.00000000      1.00000000</v>
   <i type="logical" name="LCORR"> T  </i>
  </separator>
  <i type="logical" name="GGA_COMPAT"> T  </i>
  <i type="logical" name="LBERRY"> F  </i>
  <i type="int" name="ICORELEVEL">     0</i>
  <i type="logical" name="LDAU"> F  </i>
  <i type="int" name="I_CONSTRAINED_M">     0</i>
  <separator name="electronic exchange-correlation" >
   <i type="string" name="GGA    ">PE</i>
   <i type="string" name="XC_C">1</i>
   <i type="int" name="VOSKOWN">     0</i>
   <i type="logical" name="LHFCALC"> F  </i>
   <i type="string" name="PRECFOCK"></i>
   <i type="logical" name="LSYMGRAD"> F  </i>
   <i type="logical" name="LHFONE"> F  </i>
   <i type="logical" name="LRHFCALC"> F  </i>
   <i type="logical" name="LTHOMAS"> F  </i>
   <i type="logical" name="LMODELHF"> F  </i>
   <i type="logical" name="LFOCKACE"> F  </i>
   <i name="ENCUT4O">     -1.00000000</i>
   <i type="int" name="EXXOEP">     0</i>
   <i type="int" name="FOURORBIT">     0</i>
   <i name="AEXX">      0.00000000</i>
   <i name="HFALPHA">      0.00000000</i>
   <i name="MCALPHA">      0.00000000</i>
   <i name="ALDAX">      1.00000000</i>
   <i name="AGGAX">      1.00000000</i>
   <i name="AMGGAX">      1.00000000</i>
   <i name="ALDAC">      1.00000000</i>
   <i name="AGGAC">      1.00000000</i>
   <i name="AMGGAC">      1.00000000</i>
   <i type="int" name="NKREDX">     1</i>
   <i type="int" name="NKREDY">     1</i>
   <i type="int" name="NKREDZ">     1</i>
   <i type="logical" name="SHIFTRED"> F  </i>
   <i type="logical" name="ODDONLY"> F  </i>
   <i type="logical" name="EVENONLY"> F  </i>
   <i type="int" name="LMAXFOCK">     0</i>
   <i type="int" name="NMAXFOCKAE">     0</i>
   <i type="logical" name="LFOCKAEDFT"> F  </i>
   <i name="HFSCREEN">      0.00000000</i>
   <i name="HFSCREENC">      0.00000000</i>
   <i type="int" name="NBANDSGWLOW">     0</i>
  </separator>
  <separator name="vdW DFT" >
   <i type="logical" name="LUSE_VDW"> F  </i>
   <i type="int" name="IVDW_NL">    -1</i>
   <i type="logical" name="LSPIN_VDW"> F  </i>
   <i name="ZAB_VDW">     -0.84910000</i>
   <i name="GAMMA_VDW">      1.39626340</i>
   <i name="ALPHA_VDW">      0.00000000</i>
   <i name="PARAM1">      0.12340000</i>
   <i name="PARAM2">      1.00000000</i>
   <i name="BPARAM">      6.30000000</i>
   <i name="CPARAM">      0.00930000</i>
  </separator>
  <separator name="model GW" >
   <i type="int" name="MODEL_GW">     0</i>
   <i name="MODEL_EPS0">      6.13027946</i>
   <i name="MODEL_ALPHA">      1.00000000</i>
  </separator>
  <separator name="linear response parameters" >
   <i type="logical" name="LEPSILON"> F  </i>
   <i type="logical" name="LRPA"> F  </i>
   <i type="logical" name="LNABLA"> F  </i>
   <i type="logical" name="LVEL"> F  </i>
   <i name="CSHIFT">      0.10000000</i>
   <i name="OMEGAMAX">     -1.00000000</i>
   <i name="DEG_THRESHOLD">      0.00200000</i>
   <i name="RTIME">     -0.10000000</i>
   <i name="WPLASMAI">      0.00000000</i>
   <v name="DFIELD">      0.00000000      0.00000000      0.00000000</v>
   <v name="WPLASMA">      0.00000000      0.00000000      0.00000000      0.00000000      0.00000000      0.00000000      0.00000000      0.00000000      0.00000000</v>
  </separator>
  <separator name="orbital magnetization" >
   <i type="logical" name="NUCIND"> F  </i>
   <v name="MAGPOS">      0.00000000      0.00000000      0.00000000</v>
   <i type="logical" name="LNICSALL"> T  </i>
   <i type="logical" name="ORBITALMAG"> F  </i>
   <i type="logical" name="LMAGBLOCH"> F  </i>
   <i type="logical" name="LCHIMAG"> F  </i>
   <i type="logical" name="LGAUGE"> T  </i>
   <i type="int" name="MAGATOM">     0</i>
   <v name="MAGDIPOL">      0.00000000      0.00000000      0.00000000</v>
   <v name="AVECCONST">      0.00000000      0.00000000      0.00000000</v>
  </separator>
  <separator name="response functions" >
   <i type="logical" name="LALL_IN_ONE"> F  </i>
   <i type="int" name="IALL_IN_ONE">    -1</i>
   <i type="int" name="NBANDS_WAVE">    -1</i>
   <i type="logical" name="LFINITE_TEMPERATURE"> F  </i>
   <i type="logical" name="LADDER"> F  </i>
   <i type="logical" name="LRPAFORCE"> F  </i>
   <i type="logical" name="LFXC"> F  </i>
   <i type="logical" name="LHARTREE"> T  </i>
   <i type="int" name="IBSE">     0</i>
   <v type="int" name="KPOINT">    -1     0     0     0</v>
   <i type="logical" name="LTCTC"> F  </i>
   <i type="logical" name="LTCTE"> F  </i>
   <i type="logical" name="LTETE"> F  </i>
   <i type="logical" name="LTRIPLET"> F  </i>
   <i type="logical" name="LFXCEPS"> F  </i>
   <i type="logical" name="LFXHEG"> F  </i>
   <i type="int" name="NATURALO">     2</i>
   <i type="logical" name="LHOLEGF"> F  </i>
   <i type="logical" name="L2ORDER"> F  </i>
   <i type="logical" name="LDMP1"> F  </i>
   <i type="logical" name="LMP2LT"> F  </i>
   <i type="logical" name="LSMP2LT"> F  </i>
   <i type="logical" name="LGWLF"> F  </i>
   <i name="ENCUTGW">     -1.60000002</i>
   <i name="ENCUTGWSOFT">     -1.60000002</i>
   <i name="ENCUTLF">     -1.00000000</i>
   <i type="logical" name="ESF_SPLINES"> F  </i>
   <i name="ESF_CONV">      0.01000000</i>
   <i type="int" name="ESF_NINTER">    15</i>
   <i type="int" name="LMAXMP2">    -1</i>
   <i name="SCISSOR">      0.00000000</i>
   <i type="int" name="NOMEGA">     0</i>
   <i type="int" name="NOMEGAR">     0</i>
   <i type="int" name="NBANDSGW">    -1</i>
   <i type="int" name="NBANDSO">    -1</i>
   <i type="int" name="NBANDSV">    -1</i>
   <i type="int" name="NELMGW">     1</i>
   <i type="int" name="NELMHF">     1</i>
   <i type="int" name="DIM">     3</i>
   <i type="int" name="IESPILON">     4</i>
   <i type="int" name="ANTIRES">     0</i>
   <i name="OMEGAMAX">    -30.00000000</i>
   <i name="OMEGAMIN">    -30.00000000</i>
   <i name="OMEGATL">   -200.00000000</i>
   <i type="int" name="OMEGAGRID">     0</i>
   <i name="CSHIFT">     -0.10000000</i>
   <i type="logical" name="LSELFENERGY"> F  </i>
   <i type="logical" name="LSPECTRAL"> F  </i>
   <i type="logical" name="LSPECTRALGW"> F  </i>
   <i type="logical" name="LSINGLES"> F  </i>
   <i type="logical" name="LFERMIGW"> F  </i>
   <i type="logical" name="ODDONLYGW"> F  </i>
   <i type="logical" name="EVENONLYGW"> F  </i>
   <i type="int" name="NKREDLFX">     1</i>
   <i type="int" name="NKREDLFY">     1</i>
   <i type="int" name="NKREDLFZ">     1</i>
   <i type="int" name="MAXMEM">  2800</i>
   <i type="int" name="TELESCOPE">     0</i>
   <i type="int" name="NTAUPAR">    -1</i>
   <i type="int" name="NOMEGAPAR">    -1</i>
   <i name="DAMP_NEWTON">      0.80000001</i>
   <i name="LAMBDA">      1.00000000</i>
  </separator>
  <separator name="External order field" >
   <i name="OFIELD_KAPPA">      0.00000000</i>
   <v name="OFIELD_K">      0.00000000      0.00000000      0.00000000</v>
   <i name="OFIELD_Q6_NEAR">      0.00000000</i>
   <i name="OFIELD_Q6_FAR">      0.00000000</i>
   <i name="OFIELD_A">      0.00000000</i>
  </separator>
  <separator name="optional k-points parameters" >
   <i type="int" name="KPOINTS_OPT_MODE">     1</i>
   <i type="logical" name="LKPOINTS_OPT"> F  </i>
  </separator>
  <separator name="solvation model" >
   <i type="logical" name="LSOL"> F  </i>
  </separator>
 </parameters>
 <atominfo>
  <atoms>      64 </atoms>
  <types>       7 </types>
  <array name="atoms" >
   <dimension dim="1">ion</dimension>
   <field type="string">element</field>
   <field type="int">atomtype</field>
   <set>
    <rc><c>Hf</c><c>   1</c></rc>
    <rc><c>Hf</c><c>   1</c></rc>
    <rc><c>Hf</c><c>   1</c></rc>
    <rc><c>Hf</c><c>   1</c></rc>
    <rc><c>Hf</c><c>   1</c></rc>
    <rc><c>Hf</c><c>   1</c></rc>
    <rc><c>Hf</c><c>   1</c></rc>
    <rc><c>Nb</c><c>   2</c></rc>
    <rc><c>Nb</c><c>   2</c></rc>
    <rc><c>Nb</c><c>   2</c></rc>
    <rc><c>Nb</c><c>   2</c></rc>
    <rc><c>Nb</c><c>   2</c></rc>
    <rc><c>Nb</c><c>   2</c></rc>
    <rc><c>Ti</c><c>   3</c></rc>
    <rc><c>Ti</c><c>   3</c></rc>
    <rc><c>Ti</c><c>   3</c></rc>
    <rc><c>Ti</c><c>   3</c></rc>
    <rc><c>Ti</c><c>   3</c></rc>
    <rc><c>Ti</c><c>   3</c></rc>
    <rc><c>Ti</c><c>   3</c></rc>
    <rc><c>N </c><c>   4</c></rc>
    <rc><c>N </c><c>   4</c></rc>
    <rc><c>N </c><c>   4</c></rc>
    <rc><c>N </c><c>   4</c></rc>
    <rc><c>N </c><c>   4</c></rc>
    <rc><c>N </c><c>   4</c></rc>
    <rc><c>N </c><c>   4</c></rc>
    <rc><c>N </c><c>   4</c></rc>
    <rc><c>N </c><c>   4</c></rc>
    <rc><c>N </c><c>   4</c></rc>
    <rc><c>N </c><c>   4</c></rc>
    <rc><c>N </c><c>   4</c></rc>
    <rc><c>N </c><c>   4</c></rc>
    <rc><c>C </c><c>   5</c></rc>
    <rc><c>C </c><c>   5</c></rc>
    <rc><c>C </c><c>   5</c></rc>
    <rc><c>C </c><c>   5</c></rc>
    <rc><c>C </c><c>   5</c></rc>
    <rc><c>C </c><c>   5</c></rc>
    <rc><c>C </c><c>   5</c></rc>
    <rc><c>C </c><c>   5</c></rc>
    <rc><c>C </c><c>   5</c></rc>
    <rc><c>C </c><c>   5</c></rc>
    <rc><c>C </c><c>   5</c></rc>
    <rc><c>C </c><c>   5</c></rc>
    <rc><c>C </c><c>   5</c></rc>
    <rc><c>C </c><c>   5</c></rc>
    <rc><c>C </c><c>   5</c></rc>
    <rc><c>C </c><c>   5</c></rc>
    <rc><c>C </c><c>   5</c></rc>
    <rc><c>C </c><c>   5</c></rc>
    <rc><c>C </c><c>   5</c></rc>
    <rc><c>Cr</c><c>   6</c></rc>
    <rc><c>Cr</c><c>   6</c></rc>
    <rc><c>Cr</c><c>   6</c></rc>
    <rc><c>Cr</c><c>   6</c></rc>
    <rc><c>Cr</c><c>   6</c></rc>
    <rc><c>Cr</c><c>   6</c></rc>
    <rc><c>Mo</c><c>   7</c></rc>
    <rc><c>Mo</c><c>   7</c></rc>
    <rc><c>Mo</c><c>   7</c></rc>
    <rc><c>Mo</c><c>   7</c></rc>
    <rc><c>Mo</c><c>   7</c></rc>
    <rc><c>Mo</c><c>   7</c></rc>
   </set>
  </array>
  <array name="atomtypes" >
   <dimension dim="1">type</dimension>
   <field type="int">atomspertype</field>
   <field type="string">element</field>
   <field>mass</field>
   <field>valence</field>
   <field type="string">pseudopotential</field>
   <set>
    <rc><c>   7</c><c>Hf</c><c>    178.49000000</c><c>     10.00000000</c><c> PAW_PBE Hf_pv 06Sep2000                </c></rc>
    <rc><c>   6</c><c>Nb</c><c>     92.00000000</c><c>     11.00000000</c><c> PAW_PBE Nb_pv 08Apr2002                </c></rc>
    <rc><c>   7</c><c>Ti</c><c>     47.88000000</c><c>     10.00000000</c><c> PAW_PBE Ti_pv 07Sep2000                </c></rc>
    <rc><c>  13</c><c>N </c><c>     14.00100000</c><c>      5.00000000</c><c> PAW_PBE N 08Apr2002                    </c></rc>
    <rc><c>  19</c><c>C </c><c>     12.01100000</c><c>      4.00000000</c><c> PAW_PBE C 08Apr2002                    </c></rc>
    <rc><c>   6</c><c>Cr</c><c>     51.99600000</c><c>     12.00000000</c><c> PAW_PBE Cr_pv 07Sep2000                </c></rc>
    <rc><c>   6</c><c>Mo</c><c>     95.94000000</c><c>     12.00000000</c><c> PAW_PBE Mo_pv 08Apr2002                </c></rc>
   </set>
  </array>
 </atominfo>
 <structure name="initialpos" >
  <crystal>
   <varray name="basis" >
    <v>       8.67027485       0.03126701      -0.01187245 </v>
    <v>       0.03749153       8.70893681       0.01328117 </v>
    <v>       0.01920412      -0.00197963       8.65996742 </v>
   </varray>
   <i name="volume">    653.89647544 </i>
   <varray name="rec_basis" >
    <v>       0.11533804      -0.00049613      -0.00025588 </v>
    <v>      -0.00041405       0.11482632       0.00002717 </v>
    <v>       0.00015876      -0.00017678       0.11547348 </v>
   </varray>
  </crystal>
  <varray name="positions" >
   <v>       0.99779866       0.99624231       0.99703722 </v>
   <v>       0.26734340       0.99904488       0.24706139 </v>
   <v>       0.24006396       0.49681765       0.24495750 </v>
   <v>       0.50519085       0.50033899       0.00070641 </v>
   <v>       0.50747492       0.24647962       0.74262842 </v>
   <v>       0.99036582       0.50737581       0.49404087 </v>
   <v>       0.49807243       0.75703886       0.74696985 </v>
   <v>       0.99037843       0.23508269       0.25625915 </v>
   <v>       0.75673612       0.74499156       0.01552745 </v>
   <v>       0.99858496       0.25384429       0.74707987 </v>
   <v>       0.74837047       0.25151921       0.50109501 </v>
   <v>       0.99906561       0.75189468       0.74451755 </v>
   <v>       0.25161115       0.49836293       0.74525297 </v>
   <v>       0.25553228       0.24452040       0.99080775 </v>
   <v>       0.50970640       0.25277530       0.25439640 </v>
   <v>       0.74170213       0.98713441       0.27532918 </v>
   <v>       0.74923810       0.24980836       0.99821818 </v>
   <v>       0.24785238       0.74881592       0.00085147 </v>
   <v>       0.25227085       0.24850306       0.50219806 </v>
   <v>       0.25124786       0.75049000       0.49542179 </v>
   <v>       0.25293620       0.24770840       0.24689580 </v>
   <v>       0.25565679       0.00075375       0.99468420 </v>
   <v>       0.00176688       0.25025718       0.00040649 </v>
   <v>       0.74533349       0.24470147       0.24971719 </v>
   <v>       0.74609732       0.00036773       0.00398318 </v>
   <v>       0.51107380       0.00174677       0.25806720 </v>
   <v>       0.98906013       0.49263748       0.24452992 </v>
   <v>       0.50071035       0.76034356       0.00343944 </v>
   <v>       0.99020762       0.00297386       0.73843037 </v>
   <v>       0.75284753       0.24204549       0.75486128 </v>
   <v>       0.75188055       0.00218683       0.50117275 </v>
   <v>       0.49708036       0.24749397       0.49261452 </v>
   <v>       0.52130405       0.00038784       0.74380442 </v>
   <v>       0.99829030       0.99539673       0.25721212 </v>
   <v>       0.50323116       0.24010537       0.00248888 </v>
   <v>       0.25376503       0.74868053       0.24813945 </v>
   <v>       0.24345805       0.50008549       0.99381140 </v>
   <v>       0.00389243       0.73988972       0.00824351 </v>
   <v>       0.75313080       0.73962910       0.26251599 </v>
   <v>       0.76246450       0.49585795       0.00991761 </v>
   <v>       0.50097844       0.49945886       0.25624097 </v>
   <v>       0.24977860       0.24556928       0.74710778 </v>
   <v>       0.25303620       0.99959643       0.51006275 </v>
   <v>       0.00261502       0.24555570       0.50020016 </v>
   <v>       0.24435511       0.75875571       0.74799903 </v>
   <v>       0.25423330       0.50264783       0.49733257 </v>
   <v>       0.99366898       0.76489303       0.49191995 </v>
   <v>       0.99274129       0.50349793       0.75173131 </v>
   <v>       0.75014962       0.75088946       0.74676181 </v>
   <v>       0.73551810       0.50409850       0.50782276 </v>
   <v>       0.50337909       0.75876221       0.48746656 </v>
   <v>       0.51092183       0.50340625       0.74032300 </v>
   <v>       0.52169388       0.00798134       0.97307564 </v>
   <v>       0.99078600       0.50805140       0.98082650 </v>
   <v>       0.50550348       0.72844837       0.26316246 </v>
   <v>       0.22201557       0.01146774       0.73496614 </v>
   <v>       0.47803220       0.99326488       0.51423600 </v>
   <v>       0.74263714       0.97186897       0.77291327 </v>
   <v>       0.00660358       0.77809390       0.25955809 </v>
   <v>       0.72757543       0.51312656       0.26433674 </v>
   <v>       0.02272695       0.00013492       0.49799548 </v>
   <v>       0.50772495       0.51908523       0.48513110 </v>
   <v>       0.75679558       0.52901552       0.76718044 </v>
   <v>       0.73373595       0.72799961       0.48635738 </v>
  </varray>
 </structure>
 <calculation>
  <scstep>
   <time name="dav">   16.63   16.69</time>
   <time name="total">   16.65   16.74</time>
   <energy>
    <i name="alphaZ">   4360.72774515 </i>
    <i name="ewald"> -39101.41390210 </i>
    <i name="hartreedc">  -6955.47126638 </i>
    <i name="XCdc">   1658.92133844 </i>
    <i name="pawpsdc">  27541.62783412 </i>
    <i name="pawaedc"> -27564.15538854 </i>
    <i name="eentropy">     -0.07571428 </i>
    <i name="bandstr">   2798.93869349 </i>
    <i name="atom">  43398.86083869 </i>
    <i name="e_fr_energy">   6137.96017860 </i>
    <i name="e_wo_entrp">   6138.03589287 </i>
    <i name="e_0_energy">   6137.99803573 </i>
   </energy>
  </scstep>
  <scstep>
   <time name="dav">   16.59   17.04</time>
   <time name="total">   16.59   17.04</time>
   <energy>
    <i name="e_fr_energy">    321.36373559 </i>
    <i name="e_wo_entrp">    321.49723067 </i>
    <i name="e_0_energy">    321.43048313 </i>
   </energy>
  </scstep>
  <scstep>
   <time name="dav">   23.23   23.42</time>
   <time name="total">   23.23   23.42</time>
   <energy>
    <i name="e_fr_energy">   -667.04934134 </i>
    <i name="e_wo_entrp">   -666.96105820 </i>
    <i name="e_0_energy">   -667.00519977 </i>
   </energy>
  </scstep>
  <scstep>
   <time name="dav">   24.96   25.12</time>
   <time name="total">   24.96   25.12</time>
   <energy>
    <i name="e_fr_energy">   -773.94862459 </i>
    <i name="e_wo_entrp">   -773.86189559 </i>
    <i name="e_0_energy">   -773.90526009 </i>
   </energy>
  </scstep>
  <scstep>
   <time name="dav">   25.14   25.36</time>
   <time name="total">   25.27   25.49</time>
   <energy>
    <i name="e_fr_energy">   -781.37876589 </i>
    <i name="e_wo_entrp">   -781.29246041 </i>
    <i name="e_0_energy">   -781.33561315 </i>
   </energy>
  </scstep>
  <scstep>
   <time name="diag">    1.17    1.18</time>
   <time name="diis">   13.44   13.55</time>
   <time name="orth">    0.32    0.32</time>
   <time name="total">   15.07   15.20</time>
   <energy>
    <i name="e_fr_energy">   -801.81926473 </i>
    <i name="e_wo_entrp">   -801.68442184 </i>
    <i name="e_0_energy">   -801.75184328 </i>
   </energy>
  </scstep>
  <scstep>
   <time name="diag">    1.18    1.20</time>
   <time name="diis">   14.08   14.17</time>
   <time name="orth">    0.37    0.37</time>
   <time name="total">   15.78   15.89</time>
   <energy>
    <i name="e_fr_energy">   -631.03615078 </i>
    <i name="e_wo_entrp">   -630.90416278 </i>
    <i name="e_0_energy">   -630.97015678 </i>
   </energy>
  </scstep>
  <scstep>
   <time name="diag">    1.12    1.14</time>
   <time name="diis">   15.03   15.21</time>
   <time name="orth">    0.31    0.31</time>
   <time name="total">   16.60   16.81</time>
   <energy>
    <i name="e_fr_energy">   -641.63001752 </i>
    <i name="e_wo_entrp">   -641.50952516 </i>
    <i name="e_0_energy">   -641.56977134 </i>
   </energy>
  </scstep>
  <scstep>
   <time name="diag">    1.12    1.13</time>
   <time name="diis">   15.05   15.22</time>
   <time name="orth">    0.31    0.32</time>
   <time name="total">   16.62   16.80</time>
   <energy>
    <i name="e_fr_energy">   -635.26008294 </i>
    <i name="e_wo_entrp">   -635.16043762 </i>
    <i name="e_0_energy">   -635.21026028 </i>
   </energy>
  </scstep>
  <scstep>
   <time name="diag">    1.22    1.23</time>
   <time name="diis">   14.96   15.08</time>
   <time name="orth">    0.32    0.32</time>
   <time name="total">   16.64   16.78</time>
   <energy>
    <i name="e_fr_energy">   -633.43253565 </i>
    <i name="e_wo_entrp">   -633.33404993 </i>
    <i name="e_0_energy">   -633.38329279 </i>
   </energy>
  </scstep>
  <scstep>
   <time name="diag">    1.19    1.20</time>
   <time name="diis">   14.37   14.46</time>
   <time name="orth">    0.36    0.39</time>
   <time name="total">   16.05   16.20</time>
   <energy>
    <i name="e_fr_energy">   -632.91332154 </i>
    <i name="e_wo_entrp">   -632.80781508 </i>
    <i name="e_0_energy">   -632.86056831 </i>
   </energy>
  </scstep>
  <scstep>
   <time name="diag">    1.35    1.40</time>
   <time name="diis">   14.27   14.40</time>
   <time name="orth">    0.32    0.32</time>
   <time name="total">   16.08   16.26</time>
   <energy>
    <i name="e_fr_energy">   -631.34093992 </i>
    <i name="e_wo_entrp">   -631.23954051 </i>
    <i name="e_0_energy">   -631.29024022 </i>
   </energy>
  </scstep>
  <scstep>
   <time name="diag">    1.11    1.12</time>
   <time name="diis">   15.06   15.20</time>
   <time name="orth">    0.36    0.36</time>
   <time name="total">   16.68   16.83</time>
   <energy>
    <i name="e_fr_energy">   -631.87774818 </i>
    <i name="e_wo_entrp">   -631.77308171 </i>
    <i name="e_0_energy">   -631.82541494 </i>
   </energy>
  </scstep>
  <scstep>
   <time name="diag">    1.12    1.13</time>
   <time name="diis">   14.74   14.91</time>
   <time name="orth">    0.32    0.32</time>
   <time name="total">   16.32   16.50</time>
   <energy>
    <i name="e_fr_energy">   -631.37815218 </i>
    <i name="e_wo_entrp">   -631.25290925 </i>
    <i name="e_0_energy">   -631.31553071 </i>
   </energy>
  </scstep>
  <scstep>
   <time name="diag">    1.19    1.21</time>
   <time name="diis">   14.67   14.85</time>
   <time name="orth">    0.38    0.38</time>
   <time name="total">   16.38   16.59</time>
   <energy>
    <i name="e_fr_energy">   -631.36329197 </i>
    <i name="e_wo_entrp">   -631.23982269 </i>
    <i name="e_0_energy">   -631.30155733 </i>
   </energy>
  </scstep>
  <scstep>
   <time name="diag">    1.12    1.12</time>
   <time name="diis">   14.67   14.77</time>
   <time name="orth">    0.32    0.32</time>
   <time name="total">   16.25   16.36</time>
   <energy>
    <i name="e_fr_energy">   -631.08256173 </i>
    <i name="e_wo_entrp">   -630.96583661 </i>
    <i name="e_0_energy">   -631.02419917 </i>
   </energy>
  </scstep>
  <scstep>
   <time name="diag">    1.19    1.20</time>
   <time name="diis">   14.85   15.02</time>
   <time name="orth">    0.32    0.33</time>
   <time name="total">   16.54   16.72</time>
   <energy>
    <i name="e_fr_energy">   -631.07116703 </i>
    <i name="e_wo_entrp">   -630.94941249 </i>
    <i name="e_0_energy">   -631.01028976 </i>
   </energy>
  </scstep>
  <scstep>
   <time name="diag">    1.13    1.14</time>
   <time name="diis">   15.98   16.07</time>
   <time name="orth">    0.32    0.32</time>
   <time name="total">   17.57   17.68</time>
   <energy>
    <i name="e_fr_energy">   -631.04302673 </i>
    <i name="e_wo_entrp">   -630.92606646 </i>
    <i name="e_0_energy">   -630.98454659 </i>
   </energy>
  </scstep>
  <scstep>
   <time name="diag">    1.17    1.18</time>
   <time name="diis">   15.13   15.37</time>
   <time name="orth">    0.35    0.36</time>
   <time name="total">   16.80   17.05</time>
   <energy>
    <i name="e_fr_energy">   -631.04593466 </i>
    <i name="e_wo_entrp">   -630.93078854 </i>
    <i name="e_0_energy">   -630.98836160 </i>
   </energy>
  </scstep>
  <scstep>
   <time name="diag">    1.16    1.16</time>
   <time name="diis">   15.19   15.33</time>
   <time name="orth">    0.32    0.32</time>
   <time name="total">   16.81   16.96</time>
   <energy>
    <i name="e_fr_energy">   -631.04401829 </i>
    <i name="e_wo_entrp">   -630.92875491 </i>
    <i name="e_0_energy">   -630.98638660 </i>
   </energy>
  </scstep>
  <scstep>
   <time name="diag">    1.15    1.16</time>
   <time name="diis">   14.47   14.61</time>
   <time name="orth">    0.32    0.32</time>
   <time name="total">   16.08   16.24</time>
   <energy>
    <i name="e_fr_energy">   -631.04341743 </i>
    <i name="e_wo_entrp">   -630.92744760 </i>
    <i name="e_0_energy">   -630.98543251 </i>
   </energy>
  </scstep>
  <scstep>
   <time name="diag">    1.17    1.18</time>
   <time name="diis">   14.80   14.94</time>
   <time name="orth">    0.38    0.38</time>
   <time name="total">   16.48   16.65</time>
   <energy>
    <i name="e_fr_energy">   -631.04413542 </i>
    <i name="e_wo_entrp">   -630.92832325 </i>
    <i name="e_0_energy">   -630.98622933 </i>
   </energy>
  </scstep>
  <scstep>
   <time name="diag">    1.18    1.19</time>
   <time name="diis">   13.06   13.13</time>
   <time name="orth">    0.32    0.32</time>
   <time name="total">   14.70   14.79</time>
   <energy>
    <i name="e_fr_energy">   -631.04450028 </i>
    <i name="e_wo_entrp">   -630.92869978 </i>
    <i name="e_0_energy">   -630.98660003 </i>
   </energy>
  </scstep>
  <scstep>
   <time name="diag">    1.21    1.22</time>
   <time name="diis">   10.28   10.46</time>
   <time name="orth">    0.34    0.34</time>
   <time name="total">   11.98   12.17</time>
   <energy>
    <i name="e_fr_energy">   -631.04472474 </i>
    <i name="e_wo_entrp">   -630.92888939 </i>
    <i name="e_0_energy">   -630.98680707 </i>
   </energy>
  </scstep>
  <scstep>
   <time name="diag">    1.15    1.16</time>
   <time name="diis">    8.73    8.79</time>
   <time name="orth">    0.32    0.32</time>
   <time name="total">   10.35   10.42</time>
   <energy>
    <i name="e_fr_energy">   -631.04484793 </i>
    <i name="e_wo_entrp">   -630.92904317 </i>
    <i name="e_0_energy">   -630.98694555 </i>
   </energy>
  </scstep>
  <scstep>
   <time name="diag">    1.12    1.13</time>
   <time name="diis">    8.34    8.42</time>
   <time name="orth">    0.32    0.32</time>
   <time name="total">    9.93   10.02</time>
   <energy>
    <i name="e_fr_energy">   -631.04492999 </i>
    <i name="e_wo_entrp">   -630.92912433 </i>
    <i name="e_0_energy">   -630.98702716 </i>
   </energy>
  </scstep>
  <scstep>
   <time name="diag">    1.14    1.14</time>
   <time name="diis">    7.72    7.83</time>
   <time name="orth">    0.32    0.32</time>
   <time name="total">    9.35    9.46</time>
   <energy>
    <i name="e_fr_energy">   -631.04497566 </i>
    <i name="e_wo_entrp">   -630.92915174 </i>
    <i name="e_0_energy">   -630.98706370 </i>
   </energy>
  </scstep>
  <scstep>
   <time name="diag">    1.37    1.40</time>
   <time name="diis">    7.51    7.57</time>
   <time name="orth">    0.36    0.37</time>
   <time name="total">    9.39    9.49</time>
   <energy>
    <i name="e_fr_energy">   -631.04500521 </i>
    <i name="e_wo_entrp">   -630.92917113 </i>
    <i name="e_0_energy">   -630.98708817 </i>
   </energy>
  </scstep>
  <scstep>
   <time name="diag">    1.17    1.18</time>
   <time name="diis">    7.39    7.45</time>
   <time name="orth">    0.32    0.32</time>
   <time name="total">    9.03    9.10</time>
   <energy>
    <i name="e_fr_energy">   -631.04502242 </i>
    <i name="e_wo_entrp">   -630.92919257 </i>
    <i name="e_0_energy">   -630.98710749 </i>
   </energy>
  </scstep>
  <scstep>
   <time name="diag">    1.19    1.21</time>
   <time name="diis">    7.10    7.30</time>
   <time name="orth">    0.31    0.32</time>
   <time name="total">    8.75    8.98</time>
   <energy>
    <i name="e_fr_energy">   -631.04503402 </i>
    <i name="e_wo_entrp">   -630.92919878 </i>
    <i name="e_0_energy">   -630.98711640 </i>
   </energy>
  </scstep>
  <scstep>
   <time name="diag">    1.15    1.15</time>
   <time name="diis">    7.08    7.13</time>
   <time name="orth">    0.32    0.32</time>
   <time name="total">    8.56    8.62</time>
   <energy>
    <i name="alphaZ">   4360.72774515 </i>
    <i name="ewald"> -39101.41390210 </i>
    <i name="hartreedc">  -6434.93018915 </i>
    <i name="XCdc">   1646.86268539 </i>
    <i name="pawpsdc">  30486.63131966 </i>
    <i name="pawaedc"> -30614.17166081 </i>
    <i name="eentropy">     -0.11583716 </i>
    <i name="bandstr">  -4373.49604040 </i>
    <i name="atom">  43398.86083869 </i>
    <i name="e_fr_energy">   -631.04504073 </i>
    <i name="e_wo_entrp">   -630.92920357 </i>
    <i name="e_0_energy">   -630.98712215 </i>
   </energy>
  </scstep>
  <structure>
   <crystal>
    <varray name="basis" >
     <v>       8.67027485       0.03126701      -0.01187245 </v>
     <v>       0.03749153       8.70893681       0.01328117 </v>
     <v>       0.01920412      -0.00197963       8.65996742 </v>
    </varray>
    <i name="volume">    653.89647544 </i>
    <varray name="rec_basis" >
     <v>       0.11533804      -0.00049613      -0.00025588 </v>
     <v>      -0.00041405       0.11482632       0.00002717 </v>
     <v>       0.00015876      -0.00017678       0.11547348 </v>
    </varray>
   </crystal>
   <varray name="positions" >
    <v>       0.99779866       0.99624231       0.99703722 </v>
    <v>       0.26734340       0.99904488       0.24706139 </v>
    <v>       0.24006396       0.49681765       0.24495750 </v>
    <v>       0.50519085       0.50033899       0.00070641 </v>
    <v>       0.50747492       0.24647962       0.74262842 </v>
    <v>       0.99036582       0.50737581       0.49404087 </v>
    <v>       0.49807243       0.75703886       0.74696985 </v>
    <v>       0.99037843       0.23508269       0.25625915 </v>
    <v>       0.75673612       0.74499156       0.01552745 </v>
    <v>       0.99858496       0.25384429       0.74707987 </v>
    <v>       0.74837047       0.25151921       0.50109501 </v>
    <v>       0.99906561       0.75189468       0.74451755 </v>
    <v>       0.25161115       0.49836293       0.74525297 </v>
    <v>       0.25553228       0.24452040       0.99080775 </v>
    <v>       0.50970640       0.25277530       0.25439640 </v>
    <v>       0.74170213       0.98713441       0.27532918 </v>
    <v>       0.74923810       0.24980836       0.99821818 </v>
    <v>       0.24785238       0.74881592       0.00085147 </v>
    <v>       0.25227085       0.24850306       0.50219806 </v>
    <v>       0.25124786       0.75049000       0.49542179 </v>
    <v>       0.25293620       0.24770840       0.24689580 </v>
    <v>       0.25565679       0.00075375       0.99468420 </v>
    <v>       0.00176688       0.25025718       0.00040649 </v>
    <v>       0.74533349       0.24470147       0.24971719 </v>
    <v>       0.74609732       0.00036773       0.00398318 </v>
    <v>       0.51107380       0.00174677       0.25806720 </v>
    <v>       0.98906013       0.49263748       0.24452992 </v>
    <v>       0.50071035       0.76034356       0.00343944 </v>
    <v>       0.99020762       0.00297386       0.73843037 </v>
    <v>       0.75284753       0.24204549       0.75486128 </v>
    <v>       0.75188055       0.00218683       0.50117275 </v>
    <v>       0.49708036       0.24749397       0.49261452 </v>
    <v>       0.52130405       0.00038784       0.74380442 </v>
    <v>       0.99829030       0.99539673       0.25721212 </v>
    <v>       0.50323116       0.24010537       0.00248888 </v>
    <v>       0.25376503       0.74868053       0.24813945 </v>
    <v>       0.24345805       0.50008549       0.99381140 </v>
    <v>       0.00389243       0.73988972       0.00824351 </v>
    <v>       0.75313080       0.73962910       0.26251599 </v>
    <v>       0.76246450       0.49585795       0.00991761 </v>
    <v>       0.50097844       0.49945886       0.25624097 </v>
    <v>       0.24977860       0.24556928       0.74710778 </v>
    <v>       0.25303620       0.99959643       0.51006275 </v>
    <v>       0.00261502       0.24555570       0.50020016 </v>
    <v>       0.24435511       0.75875571       0.74799903 </v>
    <v>       0.25423330       0.50264783       0.49733257 </v>
    <v>       0.99366898       0.76489303       0.49191995 </v>
    <v>       0.99274129       0.50349793       0.75173131 </v>
    <v>       0.75014962       0.75088946       0.74676181 </v>
    <v>       0.73551810       0.50409850       0.50782276 </v>
    <v>       0.50337909       0.75876221       0.48746656 </v>
    <v>       0.51092183       0.50340625       0.74032300 </v>
    <v>       0.52169388       0.00798134       0.97307564 </v>
    <v>       0.99078600       0.50805140       0.98082650 </v>
    <v>       0.50550348       0.72844837       0.26316246 </v>
    <v>       0.22201557       0.01146774       0.73496614 </v>
    <v>       0.47803220       0.99326488       0.51423600 </v>
    <v>       0.74263714       0.97186897       0.77291327 </v>
    <v>       0.00660358       0.77809390       0.25955809 </v>
    <v>       0.72757543       0.51312656       0.26433674 </v>
    <v>       0.02272695       0.00013492       0.49799548 </v>
    <v>       0.50772495       0.51908523       0.48513110 </v>
    <v>       0.75679558       0.52901552       0.76718044 </v>
    <v>       0.73373595       0.72799961       0.48635738 </v>
   </varray>
  </structure>
  <varray name="forces" >
   <v>      -0.00094453       0.34228877      -0.40975246 </v>
   <v>       0.48692035       0.37881758      -0.20798896 </v>
   <v>       0.34960671      -0.33106882      -0.19648418 </v>
   <v>      -0.61495568      -0.07548520       0.24726605 </v>
   <v>      -0.21975198      -0.37193276       0.26693018 </v>
   <v>       0.70753681      -0.76523293       0.54367416 </v>
   <v>      -0.67751384       0.65957090       0.47804543 </v>
   <v>       0.11463172      -0.15332102      -0.32245196 </v>
   <v>      -0.07552716       0.81436018      -0.28426301 </v>
   <v>       0.37820730       0.09469394       0.14553973 </v>
   <v>       0.23239212       0.05803472      -0.01249085 </v>
   <v>       0.60379042       0.00984656       0.57534501 </v>
   <v>      -0.38471717      -0.14180364       0.26883729 </v>
   <v>       0.04279363       0.00206445      -0.02257033 </v>
   <v>      -0.24095390      -0.34631388      -0.36445552 </v>
   <v>      -0.39236593       0.74927479      -0.68911720 </v>
   <v>      -0.14485419      -0.32767909       0.08700336 </v>
   <v>       0.02594871      -0.02062755      -0.25064691 </v>
   <v>       0.03771481       0.00656062       0.10531250 </v>
   <v>       0.29217485       0.04850468       0.37974144 </v>
   <v>       0.16676706       0.03853787      -0.02334544 </v>
   <v>      -0.00017501      -0.00028196       0.01365164 </v>
   <v>       0.03695756       0.08913736       0.01626097 </v>
   <v>      -0.26275251      -0.24922382      -0.32823275 </v>
   <v>       0.02417249       0.20955300      -0.01915034 </v>
   <v>       0.01709709      -0.09614910       0.02867023 </v>
   <v>       0.44714192       0.08569240      -0.07117890 </v>
   <v>      -0.22072374       0.04171633      -0.00561614 </v>
   <v>      -0.27205317       0.10462688       0.99532718 </v>
   <v>      -0.22223001      -0.11161130       0.22672993 </v>
   <v>      -0.17164811       0.05803988       0.11708786 </v>
   <v>      -0.26051537      -0.15859341       0.01234537 </v>
   <v>       0.00907908       0.08431208       0.06520745 </v>
   <v>      -0.15687635       2.14575931      -1.29798095 </v>
   <v>       0.00666935      -0.00801975       0.00308489 </v>
   <v>       0.60670591      -0.10027678      -0.07879233 </v>
   <v>      -0.01573356      -0.00399448       0.12211245 </v>
   <v>       0.25338408      -0.02102856      -0.62563262 </v>
   <v>      -0.26268813       1.99477582      -2.40949100 </v>
   <v>      -0.16487251      -0.40525452       0.28522285 </v>
   <v>      -2.35297058      -0.68369020      -2.17254985 </v>
   <v>       0.20632373      -0.13380721       0.02635868 </v>
   <v>       1.50013849      -0.04983595      -0.14604263 </v>
   <v>       0.13851793       0.97914373       0.08787115 </v>
   <v>       0.21565140       0.11948475       0.03089910 </v>
   <v>      -0.77126518      -0.02710831      -0.16151390 </v>
   <v>       0.37739720      -1.41683721       1.57069505 </v>
   <v>       1.27501672      -0.17465786      -0.21907272 </v>
   <v>      -0.24416976       1.89091326       0.49431065 </v>
   <v>       2.21964724      -2.32465799       1.20589259 </v>
   <v>      -1.78520185       1.42803375       0.38419263 </v>
   <v>      -0.79889838      -0.19535599       0.74419244 </v>
   <v>      -0.02210821       0.08155892      -0.01777913 </v>
   <v>       0.43931840       0.12017700       0.06722286 </v>
   <v>      -0.45853484       0.78324881      -0.75835114 </v>
   <v>       0.34486883       0.15127013       0.43511175 </v>
   <v>      -0.26505329       0.13942107      -0.09877752 </v>
   <v>      -0.24306985       0.03907736       0.25273568 </v>
   <v>       0.13704211      -2.50214623      -1.21107207 </v>
   <v>       1.97536364      -2.37037166      -1.66872889 </v>
   <v>      -0.76426177       0.72187054       0.50503564 </v>
   <v>      -2.33167250      -1.44847300       1.43893393 </v>
   <v>      -0.33818009      -2.42010205      -0.21772530 </v>
   <v>       1.46826149       2.96457479       2.06440688 </v>
  </varray>
  <varray name="stress" >
   <v>     130.95750221       0.15996966       0.16594879 </v>
   <v>       0.15996973     127.62164060      -2.93664597 </v>
   <v>       0.16594729      -2.93664661     138.05233770 </v>
  </varray>
  <energy>
   <i name="e_fr_energy">   -631.04504073 </i>
   <i name="e_wo_entrp">   -630.92920357 </i>
   <i name="e_0_energy">   -630.98712215 </i>
  </energy>
  <time name="totalsc">  508.16  513.50</time>
 </calculation>
 <calculation>
  <scstep>
   <time name="dav">   21.24   21.50</time>
   <time name="total">   21.39   21.64</time>
   <energy>
    <i name="alphaZ">   3869.15761113 </i>
    <i name="ewald"> -37748.45606828 </i>
    <i name="hartreedc">  -6032.85203068 </i>
    <i name="XCdc">   1573.33511367 </i>
    <i name="pawpsdc">  30486.62068188 </i>
    <i name="pawaedc"> -30614.16118994 </i>
    <i name="eentropy">     -0.16126876 </i>
    <i name="bandstr">  -5616.44215250 </i>
    <i name="atom">  43398.86083869 </i>
    <i name="e_fr_energy">   -684.09846480 </i>
    <i name="e_wo_entrp">   -683.93719604 </i>
    <i name="e_0_energy">   -684.01783042 </i>
   </energy>
  </scstep>
  <scstep>
   <time name="diag">    1.14    1.15</time>
   <time name="diis">   15.32   15.48</time>
   <time name="orth">    0.32    0.32</time>
   <time name="total">   16.92   17.10</time>
   <energy>
    <i name="e_fr_energy">  -1014.24321490 </i>
    <i name="e_wo_entrp">  -1014.08651748 </i>
    <i name="e_0_energy">  -1014.16486619 </i>
   </energy>
  </scstep>
  <scstep>
   <time name="diag">    1.22    1.23</time>
   <time name="diis">   15.92   16.10</time>
   <time name="orth">    0.32    0.32</time>
   <time name="total">   17.61   17.80</time>
   <energy>
    <i name="e_fr_energy">   -704.61468333 </i>
    <i name="e_wo_entrp">   -704.49248251 </i>
    <i name="e_0_energy">   -704.55358292 </i>
   </energy>
  </scstep>
  <scstep>
   <time name="diag">    1.18    1.19</time>
   <time name="diis">   12.73   12.92</time>
   <time name="orth">    0.31    0.32</time>
   <time name="total">   14.37   14.58</time>
   <energy>
    <i name="e_fr_energy">   -633.57974546 </i>
    <i name="e_wo_entrp">   -633.43227982 </i>
    <i name="e_0_energy">   -633.50601264 </i>
   </energy>
  </scstep>
  <scstep>
   <time name="diag">    1.13    1.14</time>
   <time name="diis">   14.85   14.99</time>
   <time name="orth">    0.31    0.31</time>
   <time name="total">   16.46   16.60</time>
   <energy>
    <i name="e_fr_energy">   -639.25604969 </i>
    <i name="e_wo_entrp">   -639.09913770 </i>
    <i name="e_0_energy">   -639.17759369 </i>
   </energy>
  </scstep>
  <scstep>
   <time name="diag">    1.12    1.13</time>
   <time name="diis">   14.32   14.48</time>
   <time name="orth">    0.31    0.31</time>
   <time name="total">   15.91   16.07</time>
   <energy>
    <i name="e_fr_energy">   -631.00621793 </i>
    <i name="e_wo_entrp">   -630.85155168 </i>
    <i name="e_0_energy">   -630.92888480 </i>
   </energy>
  </scstep>
  <scstep>
   <time name="diag">    1.13    1.14</time>
   <time name="diis">   14.29   14.46</time>
   <time name="orth">    0.31    0.32</time>
   <time name="total">   15.88   16.07</time>
   <energy>
    <i name="e_fr_energy">   -634.94709601 </i>
    <i name="e_wo_entrp">   -634.78820891 </i>
    <i name="e_0_energy">   -634.86765246 </i>
   </energy>
  </scstep>
  <scstep>
   <time name="diag">    1.24    1.24</time>
   <time name="diis">   15.01   15.16</time>
   <time name="orth">    0.36    0.36</time>
   <time name="total">   16.75   16.91</time>
   <energy>
    <i name="e_fr_energy">   -631.64987188 </i>
    <i name="e_wo_entrp">   -631.50347606 </i>
    <i name="e_0_energy">   -631.57667397 </i>
   </energy>
  </scstep>
  <scstep>
   <time name="diag">    1.15    1.15</time>
   <time name="diis">   13.55   13.66</time>
   <time name="orth">    0.32    0.32</time>
   <time name="total">   15.17   15.29</time>
   <energy>
    <i name="e_fr_energy">   -628.59061316 </i>
    <i name="e_wo_entrp">   -628.44516847 </i>
    <i name="e_0_energy">   -628.51789082 </i>
   </energy>
  </scstep>
  <scstep>
   <time name="diag">    1.13    1.14</time>
   <time name="diis">   14.70   14.85</time>
   <time name="orth">    0.31    0.32</time>
   <time name="total">   16.30   16.46</time>
   <energy>
    <i name="e_fr_energy">   -628.47385025 </i>
    <i name="e_wo_entrp">   -628.32353931 </i>
    <i name="e_0_energy">   -628.39869478 </i>
   </energy>
  </scstep>
  <scstep>
   <time name="diag">    1.13    1.14</time>
   <time name="diis">   14.27   14.41</time>
   <time name="orth">    0.32    0.32</time>
   <time name="total">   15.87   16.02</time>
   <energy>
    <i name="e_fr_energy">   -628.39959126 </i>
    <i name="e_wo_entrp">   -628.26020466 </i>
    <i name="e_0_energy">   -628.32989796 </i>
   </energy>
  </scstep>
  <scstep>
   <time name="diag">    1.13    1.13</time>
   <time name="diis">   14.14   14.26</time>
   <time name="orth">    0.33    0.33</time>
   <time name="total">   15.74   15.87</time>
   <energy>
    <i name="e_fr_energy">   -628.15829166 </i>
    <i name="e_wo_entrp">   -628.00411092 </i>
    <i name="e_0_energy">   -628.08120129 </i>
   </energy>
  </scstep>
  <scstep>
   <time name="diag">    1.12    1.13</time>
   <time name="diis">   14.33   14.48</time>
   <time name="orth">    0.33    0.33</time>
   <time name="total">   15.93   16.10</time>
   <energy>
    <i name="e_fr_energy">   -628.12259635 </i>
    <i name="e_wo_entrp">   -627.97360243 </i>
    <i name="e_0_energy">   -628.04809939 </i>
   </energy>
  </scstep>
  <scstep>
   <time name="diag">    1.18    1.18</time>
   <time name="diis">   14.84   14.97</time>
   <time name="orth">    0.32    0.32</time>
   <time name="total">   16.57   16.71</time>
   <energy>
    <i name="e_fr_energy">   -628.15151015 </i>
    <i name="e_wo_entrp">   -628.00371499 </i>
    <i name="e_0_energy">   -628.07761257 </i>
   </energy>
  </scstep>
  <scstep>
   <time name="diag">    1.27    1.29</time>
   <time name="diis">   14.54   14.72</time>
   <time name="orth">    0.32    0.32</time>
   <time name="total">   16.30   16.51</time>
   <energy>
    <i name="e_fr_energy">   -628.14771283 </i>
    <i name="e_wo_entrp">   -627.98735603 </i>
    <i name="e_0_energy">   -628.06753443 </i>
   </energy>
  </scstep>
  <scstep>
   <time name="diag">    1.12    1.12</time>
   <time name="diis">   14.76   14.91</time>
   <time name="orth">    0.32    0.32</time>
   <time name="total">   16.34   16.50</time>
   <energy>
    <i name="e_fr_energy">   -628.10147653 </i>
    <i name="e_wo_entrp">   -627.95413190 </i>
    <i name="e_0_energy">   -628.02780421 </i>
   </energy>
  </scstep>
  <scstep>
   <time name="diag">    1.15    1.16</time>
   <time name="diis">   13.16   13.27</time>
   <time name="orth">    0.32    0.32</time>
   <time name="total">   14.77   14.90</time>
   <energy>
    <i name="e_fr_energy">   -628.09041253 </i>
    <i name="e_wo_entrp">   -627.93753447 </i>
    <i name="e_0_energy">   -628.01397350 </i>
   </energy>
  </scstep>
  <scstep>
   <time name="diag">    1.12    1.13</time>
   <time name="diis">   14.39   14.60</time>
   <time name="orth">    0.32    0.32</time>
   <time name="total">   15.99   16.20</time>
   <energy>
    <i name="e_fr_energy">   -628.09172023 </i>
    <i name="e_wo_entrp">   -627.94116020 </i>
    <i name="e_0_energy">   -628.01644021 </i>
   </energy>
  </scstep>
  <scstep>
   <time name="diag">    1.12    1.15</time>
   <time name="diis">   14.04   14.22</time>
   <time name="orth">    0.32    0.32</time>
   <time name="total">   15.62   15.84</time>
   <energy>
    <i name="e_fr_energy">   -628.09065058 </i>
    <i name="e_wo_entrp">   -627.93931155 </i>
    <i name="e_0_energy">   -628.01498106 </i>
   </energy>
  </scstep>
  <scstep>
   <time name="diag">    1.16    1.16</time>
   <time name="diis">   13.13   13.33</time>
   <time name="orth">    0.32    0.32</time>
   <time name="total">   14.74   14.96</time>
   <energy>
    <i name="e_fr_energy">   -628.09064582 </i>
    <i name="e_wo_entrp">   -627.93897522 </i>
    <i name="e_0_energy">   -628.01481052 </i>
   </energy>
  </scstep>
  <scstep>
   <time name="diag">    1.14    1.15</time>
   <time name="diis">   12.69   12.83</time>
   <time name="orth">    0.32    0.33</time>
   <time name="total">   14.31   14.45</time>
   <energy>
    <i name="e_fr_energy">   -628.09079477 </i>
    <i name="e_wo_entrp">   -627.93893210 </i>
    <i name="e_0_energy">   -628.01486344 </i>
   </energy>
  </scstep>
  <scstep>
   <time name="diag">    1.13    1.14</time>
   <time name="diis">   12.18   12.34</time>
   <time name="orth">    0.37    0.37</time>
   <time name="total">   13.82   14.00</time>
   <energy>
    <i name="e_fr_energy">   -628.09093658 </i>
    <i name="e_wo_entrp">   -627.93896345 </i>
    <i name="e_0_energy">   -628.01495001 </i>
   </energy>
  </scstep>
  <scstep>
   <time name="diag">    1.16    1.17</time>
   <time name="diis">   10.80   10.94</time>
   <time name="orth">    0.31    0.32</time>
   <time name="total">   12.45   12.60</time>
   <energy>
    <i name="e_fr_energy">   -628.09097948 </i>
    <i name="e_wo_entrp">   -627.93925729 </i>
    <i name="e_0_energy">   -628.01511838 </i>
   </energy>
  </scstep>
  <scstep>
   <time name="diag">    1.12    1.13</time>
   <time name="diis">    9.15    9.45</time>
   <time name="orth">    0.35    0.36</time>
   <time name="total">   10.77   11.09</time>
   <energy>
    <i name="e_fr_energy">   -628.09102839 </i>
    <i name="e_wo_entrp">   -627.93926412 </i>
    <i name="e_0_energy">   -628.01514626 </i>
   </energy>
  </scstep>
  <scstep>
   <time name="diag">    1.17    1.18</time>
   <time name="diis">    7.94    8.08</time>
   <time name="orth">    0.31    0.32</time>
   <time name="total">    9.58    9.73</time>
   <energy>
    <i name="e_fr_energy">   -628.09105209 </i>
    <i name="e_wo_entrp">   -627.93926918 </i>
    <i name="e_0_energy">   -628.01516063 </i>
   </energy>
  </scstep>
  <scstep>
   <time name="diag">    1.19    1.20</time>
   <time name="diis">    7.64    7.72</time>
   <time name="orth">    0.32    0.32</time>
   <time name="total">    9.30    9.40</time>
   <energy>
    <i name="e_fr_energy">   -628.09107103 </i>
    <i name="e_wo_entrp">   -627.93925159 </i>
    <i name="e_0_energy">   -628.01516131 </i>
   </energy>
  </scstep>
  <scstep>
   <time name="diag">    1.13    1.13</time>
   <time name="diis">    7.44    7.55</time>
   <time name="orth">    0.32    0.32</time>
   <time name="total">    9.04    9.15</time>
   <energy>
    <i name="e_fr_energy">   -628.09108268 </i>
    <i name="e_wo_entrp">   -627.93923590 </i>
    <i name="e_0_energy">   -628.01515929 </i>
   </energy>
  </scstep>
  <scstep>
   <time name="diag">    1.13    1.14</time>
   <time name="diis">    7.33    7.41</time>
   <time name="orth">    0.40    0.40</time>
   <time name="total">    8.87    8.97</time>
   <energy>
    <i name="alphaZ">   3869.15761113 </i>
    <i name="ewald"> -37748.45606828 </i>
    <i name="hartreedc">  -6767.01131956 </i>
    <i name="XCdc">   1615.44206044 </i>
    <i name="pawpsdc">  28880.92978710 </i>
    <i name="pawaedc"> -28991.28557845 </i>
    <i name="eentropy">     -0.15182560 </i>
    <i name="bandstr">  -4885.57659595 </i>
    <i name="atom">  43398.86083869 </i>
    <i name="e_fr_energy">   -628.09109049 </i>
    <i name="e_wo_entrp">   -627.93926490 </i>
    <i name="e_0_energy">   -628.01517770 </i>
   </energy>
  </scstep>
  <structure>
   <crystal>
    <varray name="basis" >
     <v>       9.01958728       0.03293204      -0.01196228 </v>
     <v>       0.03943128       9.05085815       0.00597911 </v>
     <v>       0.02041984      -0.00988020       9.02776844 </v>
    </varray>
    <i name="volume">    736.97295109 </i>
    <varray name="rec_basis" >
     <v>       0.11087125      -0.00048286      -0.00025131 </v>
     <v>      -0.00040325       0.11048844       0.00012183 </v>
     <v>       0.00014718      -0.00007382       0.11076893 </v>
    </varray>
   </crystal>
   <varray name="positions" >
    <v>       0.99779027       0.99813790       0.99475166 </v>
    <v>       0.27004623       0.00113335       0.24590323 </v>
    <v>       0.24201959       0.49497645       0.24386844 </v>
    <v>       0.50176786       0.49993345       0.00207980 </v>
    <v>       0.50625778       0.24442403       0.74411691 </v>
    <v>       0.99431431       0.50312336       0.49708149 </v>
    <v>       0.49428091       0.76070673       0.74962211 </v>
    <v>       0.99102392       0.23423065       0.25446504 </v>
    <v>       0.75629989       0.74950386       0.01393637 </v>
    <v>       0.00068532       0.25436148       0.74789273 </v>
    <v>       0.74966231       0.25183603       0.50102671 </v>
    <v>       0.00241789       0.75193792       0.74772719 </v>
    <v>       0.24947058       0.49758544       0.74674886 </v>
    <v>       0.25577062       0.24453095       0.99068233 </v>
    <v>       0.50837847       0.25086122       0.25236722 </v>
    <v>       0.73950950       0.99129197       0.27148089 </v>
    <v>       0.74843886       0.24799618       0.99870454 </v>
    <v>       0.24800036       0.74870081       0.99945556 </v>
    <v>       0.25247924       0.24853878       0.50278497 </v>
    <v>       0.25286773       0.75075336       0.49753906 </v>
    <v>       0.25386350       0.24791852       0.24676670 </v>
    <v>       0.25565566       0.00075221       0.99476025 </v>
    <v>       0.00197018       0.25075025       0.00049660 </v>
    <v>       0.74388149       0.24332570       0.24788880 </v>
    <v>       0.74622704       0.00152805       0.00387489 </v>
    <v>       0.51117087       0.00121385       0.25822787 </v>
    <v>       0.99154695       0.49310315       0.24413610 </v>
    <v>       0.49948127       0.76057905       0.00340611 </v>
    <v>       0.98867907       0.00356019       0.74397211 </v>
    <v>       0.75161087       0.24143195       0.75612358 </v>
    <v>       0.75092263       0.00251193       0.50182320 </v>
    <v>       0.49563444       0.24662066       0.49268265 </v>
    <v>       0.52135175       0.00085479       0.74416703 </v>
    <v>       0.99738207       0.00728465       0.24996190 </v>
    <v>       0.50326842       0.24006082       0.00250619 </v>
    <v>       0.25714425       0.74811282       0.24770602 </v>
    <v>       0.24336909       0.50006383       0.99449157 </v>
    <v>       0.00531054       0.73976735       0.00476039 </v>
    <v>       0.75165114       0.75068131       0.24907430 </v>
    <v>       0.76155330       0.49361670       0.01150871 </v>
    <v>       0.48792919       0.49571570       0.24412606 </v>
    <v>       0.25092951       0.24482396       0.74725734 </v>
    <v>       0.26138628       0.99929020       0.50926109 </v>
    <v>       0.00336124       0.25097704       0.50068238 </v>
    <v>       0.24555180       0.75941333       0.74817180 </v>
    <v>       0.24994446       0.50251286       0.49642714 </v>
    <v>       0.99578342       0.75703894       0.50068487 </v>
    <v>       0.99984264       0.50250465       0.75052217 </v>
    <v>       0.74873964       0.76136974       0.74949749 </v>
    <v>       0.74790945       0.49117824       0.51457731 </v>
    <v>       0.49340692       0.76670901       0.48958095 </v>
    <v>       0.50647208       0.50234100       0.74446425 </v>
    <v>       0.52156913       0.00843355       0.97297573 </v>
    <v>       0.99322675       0.50870844       0.98120332 </v>
    <v>       0.50294271       0.73279536       0.25892769 </v>
    <v>       0.22392550       0.01229939       0.73739139 </v>
    <v>       0.47655527       0.99404237       0.51368252 </v>
    <v>       0.74128059       0.97209063       0.77431900 </v>
    <v>       0.00744095       0.76422887       0.25283391 </v>
    <v>       0.73864411       0.49995418       0.25507602 </v>
    <v>       0.01845092       0.00414967       0.50079690 </v>
    <v>       0.49476793       0.51110983       0.49314153 </v>
    <v>       0.75497449       0.51561577       0.76598560 </v>
    <v>       0.74180923       0.74439533       0.49784363 </v>
   </varray>
  </structure>
  <varray name="forces" >
   <v>       0.12199266      -0.01646115       0.07572049 </v>
   <v>      -0.07990287      -0.25472326      -0.14981213 </v>
   <v>      -0.10605600       0.13821390      -0.03341709 </v>
   <v>      -0.00664750      -0.03785278      -0.34927147 </v>
   <v>       0.09813805      -0.14594310       0.07350800 </v>
   <v>       0.41070649       0.08649416       0.21905815 </v>
   <v>       0.19406474      -0.06229417       0.01480032 </v>
   <v>      -0.39384447       0.31498318       0.30534013 </v>
   <v>       0.23649192      -0.51194789      -0.48971261 </v>
   <v>       0.10719580      -0.00003105      -0.09669041 </v>
   <v>       0.37699364      -0.00210464      -0.30922486 </v>
   <v>      -0.16971579      -0.54467111       0.16394581 </v>
   <v>       0.07855670      -0.24964532       0.24672030 </v>
   <v>       0.07352979      -0.18377921      -0.31921055 </v>
   <v>       0.31800097       0.48537003      -0.07697097 </v>
   <v>      -0.22101490      -0.03090347       0.20094655 </v>
   <v>      -0.31414787      -0.09570227      -0.02404228 </v>
   <v>      -0.24886089      -0.07285482       0.08994671 </v>
   <v>      -0.19269105      -0.20264475       0.41244528 </v>
   <v>      -0.20724958       0.10083035      -0.02601756 </v>
   <v>      -0.04813353      -0.21908415       0.01043699 </v>
   <v>      -0.38325644       0.18654659       0.42648525 </v>
   <v>      -0.00762599      -0.33441092      -0.05234545 </v>
   <v>       0.02211071      -0.09672724       0.14131308 </v>
   <v>       0.02577004       0.01745926      -0.47339304 </v>
   <v>      -0.13942234       0.27495083       0.12507325 </v>
   <v>       0.32552393       0.23045496       0.40607062 </v>
   <v>       0.06342982      -0.17348615      -0.36954489 </v>
   <v>       0.31480303       0.11223524       0.20148104 </v>
   <v>      -0.01844530       0.38857199      -0.08380370 </v>
   <v>       0.28308183       0.07477668      -0.64078353 </v>
   <v>       0.10766788       0.05734742       0.23103186 </v>
   <v>       0.31108542       0.07709919       0.27871507 </v>
   <v>       0.29591652      -1.67461310       0.23149020 </v>
   <v>      -0.00872540      -0.04853397      -0.20881555 </v>
   <v>       0.01186527       0.19904268      -0.05068537 </v>
   <v>       0.02893044       0.01927820      -0.07334467 </v>
   <v>      -0.16416994       0.24437544      -0.15927731 </v>
   <v>      -0.61070050      -0.36820486       1.13593396 </v>
   <v>       0.01664134       0.33693449      -0.31651663 </v>
   <v>       1.47269573       0.40750502       1.23827199 </v>
   <v>      -0.07529544       0.04598513       0.00045697 </v>
   <v>      -0.53706680       0.26458255       0.20541474 </v>
   <v>      -0.00404362      -0.23666599      -0.07877087 </v>
   <v>      -0.06306558      -0.09672181       0.03544752 </v>
   <v>       0.09211135      -0.05538741       0.12969248 </v>
   <v>       0.31249765       0.05088910      -0.21514245 </v>
   <v>      -0.05702250       0.10250339       0.42248585 </v>
   <v>       0.06668465      -0.56846696       0.01406883 </v>
   <v>      -0.81637806       0.97553976      -0.67885914 </v>
   <v>       0.60010107      -0.40392230      -0.18061886 </v>
   <v>      -0.33858710       0.02124405       0.10312428 </v>
   <v>       0.62862432       0.19151257      -0.50668608 </v>
   <v>      -0.04269192       0.33782883      -0.59298032 </v>
   <v>      -0.44016970      -1.08273856       0.71785966 </v>
   <v>      -0.38959518       0.14165329      -0.44486417 </v>
   <v>      -0.48756852      -0.42388787       0.22773364 </v>
   <v>      -0.73882863      -0.23207834       0.79323454 </v>
   <v>      -0.01564037       1.77773544       0.14299874 </v>
   <v>      -1.42570323       0.69310422      -0.01076482 </v>
   <v>       0.59541838      -0.14615465      -0.19651691 </v>
   <v>       1.17515596       0.68554948      -1.04869286 </v>
   <v>       0.25020160       0.91324756       0.12480274 </v>
   <v>      -0.26372073      -1.38120171      -0.88927851 </v>
  </varray>
  <varray name="stress" >
   <v>    -223.06060349      -2.26320343      -0.24814527 </v>
   <v>      -2.26320524    -235.56040710      -0.93951404 </v>
   <v>      -0.24814587      -0.93951476    -227.07388620 </v>
  </varray>
  <energy>
   <i name="e_fr_energy">   -628.09109049 </i>
   <i name="e_wo_entrp">   -627.93926490 </i>
   <i name="e_0_energy">   -628.01517770 </i>
  </energy>
  <time name="totalsc">  443.75  448.77</time>
 </calculation>
 <calculation>
  <scstep>
   <time name="dav">   21.21   21.45</time>
   <time name="total">   21.36   21.60</time>
   <energy>
    <i name="alphaZ">   4169.90853949 </i>
    <i name="ewald"> -38622.20448053 </i>
    <i name="hartreedc">  -7010.18512632 </i>
    <i name="XCdc">   1662.51934289 </i>
    <i name="pawpsdc">  28880.90376926 </i>
    <i name="pawaedc"> -28991.25831408 </i>
    <i name="eentropy">     -0.10755013 </i>
    <i name="bandstr">  -4137.74128155 </i>
    <i name="atom">  43398.86083869 </i>
    <i name="e_fr_energy">   -649.30426229 </i>
    <i name="e_wo_entrp">   -649.19671216 </i>
    <i name="e_0_energy">   -649.25048722 </i>
   </energy>
  </scstep>
  <scstep>
   <time name="diag">    1.15    1.15</time>
   <time name="diis">   12.37   12.56</time>
   <time name="orth">    0.32    0.32</time>
   <time name="total">   13.97   14.18</time>
   <energy>
    <i name="e_fr_energy">   -749.03025180 </i>
    <i name="e_wo_entrp">   -748.94012985 </i>
    <i name="e_0_energy">   -748.98519082 </i>
   </energy>
  </scstep>
  <scstep>
   <time name="diag">    1.14    1.15</time>
   <time name="diis">   12.84   13.00</time>
   <time name="orth">    0.40    0.41</time>
   <time name="total">   14.53   14.70</time>
   <energy>
    <i name="e_fr_energy">   -634.66770547 </i>
    <i name="e_wo_entrp">   -634.57213234 </i>
    <i name="e_0_energy">   -634.61991891 </i>
   </energy>
  </scstep>
  <scstep>
   <time name="diag">    1.15    1.16</time>
   <time name="diis">   15.65   15.80</time>
   <time name="orth">    0.32    0.32</time>
   <time name="total">   17.29   17.45</time>
   <energy>
    <i name="e_fr_energy">   -641.17874263 </i>
    <i name="e_wo_entrp">   -641.04409368 </i>
    <i name="e_0_energy">   -641.11141816 </i>
   </energy>
  </scstep>
  <scstep>
   <time name="diag">    1.16    1.17</time>
   <time name="diis">   14.13   14.28</time>
   <time name="orth">    0.57    0.59</time>
   <time name="total">   16.00   16.18</time>
   <energy>
    <i name="e_fr_energy">   -634.41136944 </i>
    <i name="e_wo_entrp">   -634.29450662 </i>
    <i name="e_0_energy">   -634.35293803 </i>
   </energy>
  </scstep>
  <scstep>
   <time name="diag">    1.14    1.15</time>
   <time name="diis">   14.88   15.08</time>
   <time name="orth">    0.32    0.32</time>
   <time name="total">   16.49   16.69</time>
   <energy>
    <i name="e_fr_energy">   -634.96965796 </i>
    <i name="e_wo_entrp">   -634.82944233 </i>
    <i name="e_0_energy">   -634.89955014 </i>
   </energy>
  </scstep>
  <scstep>
   <time name="diag">    1.21    1.22</time>
   <time name="diis">   13.98   14.19</time>
   <time name="orth">    0.37    0.37</time>
   <time name="total">   15.70   15.92</time>
   <energy>
    <i name="e_fr_energy">   -633.53573797 </i>
    <i name="e_wo_entrp">   -633.40705975 </i>
    <i name="e_0_energy">   -633.47139886 </i>
   </energy>
  </scstep>
  <scstep>
   <time name="diag">    1.18    1.21</time>
   <time name="diis">   14.55   14.71</time>
   <time name="orth">    0.31    0.32</time>
   <time name="total">   16.18   16.39</time>
   <energy>
    <i name="e_fr_energy">   -633.90673352 </i>
    <i name="e_wo_entrp">   -633.78413897 </i>
    <i name="e_0_energy">   -633.84543624 </i>
   </energy>
  </scstep>
  <scstep>
   <time name="diag">    1.15    1.16</time>
   <time name="diis">   14.37   14.61</time>
   <time name="orth">    0.32    0.32</time>
   <time name="total">   15.99   16.24</time>
   <energy>
    <i name="e_fr_energy">   -633.31476626 </i>
    <i name="e_wo_entrp">   -633.19223585 </i>
    <i name="e_0_energy">   -633.25350106 </i>
   </energy>
  </scstep>
  <scstep>
   <time name="diag">    1.13    1.13</time>
   <time name="diis">   14.67   14.80</time>
   <time name="orth">    0.32    0.32</time>
   <time name="total">   16.26   16.40</time>
   <energy>
    <i name="e_fr_energy">   -633.42154115 </i>
    <i name="e_wo_entrp">   -633.29970368 </i>
    <i name="e_0_energy">   -633.36062242 </i>
   </energy>
  </scstep>
  <scstep>
   <time name="diag">    1.17    1.18</time>
   <time name="diis">   14.01   14.15</time>
   <time name="orth">    0.32    0.32</time>
   <time name="total">   15.64   15.80</time>
   <energy>
    <i name="e_fr_energy">   -633.26121020 </i>
    <i name="e_wo_entrp">   -633.13515038 </i>
    <i name="e_0_energy">   -633.19818029 </i>
   </energy>
  </scstep>
  <scstep>
   <time name="diag">    1.18    1.19</time>
   <time name="diis">   14.56   14.76</time>
   <time name="orth">    0.31    0.34</time>
   <time name="total">   16.20   16.44</time>
   <energy>
    <i name="e_fr_energy">   -633.28041365 </i>
    <i name="e_wo_entrp">   -633.15096113 </i>
    <i name="e_0_energy">   -633.21568739 </i>
   </energy>
  </scstep>
  <scstep>
   <time name="diag">    1.22    1.26</time>
   <time name="diis">   14.28   14.43</time>
   <time name="orth">    0.32    0.32</time>
   <time name="total">   15.97   16.16</time>
   <energy>
[...]
      </set>
     </set>
    </set>
   </array>
  </eigenvalues>
  <separator name="orbital magnetization" >
   <v name="MAGDIPOLOUT">      0.00000000      0.00000000      0.00000000</v>
  </separator>
  <dos>
   <i name="efermi">      8.05757977 </i>
   <total>
    <array>
     <dimension dim="1">gridpoints</dimension>
     <dimension dim="2">spin</dimension>
     <field>energy</field>
     <field>total</field>
     <field>integrated</field>
     <set>
      <set comment="spin 1">
       <r>   -38.1561     0.0000     0.0000 </r>
       <r>   -37.9849     0.0000     0.0000 </r>
       <r>   -37.8136     0.0000     0.0000 </r>
       <r>   -37.6423     0.0000     0.0000 </r>
       <r>   -37.4710     0.0000     0.0000 </r>
       <r>   -37.2997     0.0000     0.0000 </r>
       <r>   -37.1284     0.0000     0.0000 </r>
       <r>   -36.9571     0.0000     0.0000 </r>
       <r>   -36.7858     0.0000     0.0000 </r>
       <r>   -36.6146     0.0000     0.0000 </r>
       <r>   -36.4433     0.0000     0.0000 </r>
       <r>   -36.2720     0.0000     0.0000 </r>
       <r>   -36.1007     0.0004     0.0001 </r>
       <r>   -35.9294     0.7207     0.1235 </r>
       <r>   -35.7581    10.7302     1.9615 </r>
       <r>   -35.5868    38.4256     8.5432 </r>
       <r>   -35.4156   115.8745    28.3909 </r>
       <r>   -35.2443    43.4241    35.8289 </r>
       <r>   -35.0730     0.9988    36.0000 </r>
       <r>   -34.9017     0.0003    36.0000 </r>
       <r>   -34.7304     0.0000    36.0000 </r>
       <r>   -34.5591     0.0000    36.0000 </r>
       <r>   -34.3878     0.0000    36.0000 </r>
       <r>   -34.2166     0.0000    36.0000 </r>
       <r>   -34.0453     0.0000    36.0000 </r>
       <r>   -33.8740     0.0000    36.0000 </r>
       <r>   -33.7027     0.0000    36.0000 </r>
       <r>   -33.5314     0.0000    36.0000 </r>
       <r>   -33.3601     0.0000    36.0000 </r>
       <r>   -33.1888     0.0000    36.0000 </r>
       <r>   -33.0176     0.0000    36.0000 </r>
       <r>   -32.8463     0.0000    36.0000 </r>
       <r>   -32.6750     0.0000    36.0000 </r>
       <r>   -32.5037     0.0000    36.0000 </r>
       <r>   -32.3324     0.0000    36.0000 </r>
       <r>   -32.1611     0.0000    36.0000 </r>
       <r>   -31.9898     0.0000    36.0000 </r>
       <r>   -31.8185     0.0000    36.0000 </r>
       <r>   -31.6473     0.0000    36.0000 </r>
       <r>   -31.4760     0.0000    36.0000 </r>
       <r>   -31.3047     0.0000    36.0000 </r>
       <r>   -31.1334     0.0000    36.0000 </r>
       <r>   -30.9621     0.0000    36.0000 </r>
       <r>   -30.7908     0.0000    36.0000 </r>
       <r>   -30.6195     0.0000    36.0000 </r>
       <r>   -30.4483     0.0000    36.0000 </r>
       <r>   -30.2770     0.0000    36.0000 </r>
       <r>   -30.1057     0.0000    36.0000 </r>
       <r>   -29.9344     0.0000    36.0000 </r>
       <r>   -29.7631     0.0000    36.0000 </r>
       <r>   -29.5918     0.0000    36.0000 </r>
       <r>   -29.4205     0.0000    36.0000 </r>
       <r>   -29.2493     0.0000    36.0000 </r>
       <r>   -29.0780     0.0000    36.0000 </r>
       <r>   -28.9067     0.0000    36.0000 </r>
       <r>   -28.7354     0.0000    36.0000 </r>
       <r>   -28.5641     0.0000    36.0000 </r>
       <r>   -28.3928     0.0369    36.0063 </r>
       <r>   -28.2215     7.6613    37.3186 </r>
       <r>   -28.0503    50.8524    46.0289 </r>
       <r>   -27.8790    85.8497    60.7338 </r>
       <r>   -27.7077    51.2910    69.5192 </r>
       <r>   -27.5364    14.3341    71.9745 </r>
       <r>   -27.3651     0.1491    72.0000 </r>
       <r>   -27.1938     0.0000    72.0000 </r>
       <r>   -27.0225     0.0000    72.0000 </r>
       <r>   -26.8513     0.0000    72.0000 </r>
       <r>   -26.6800     0.0000    72.0000 </r>
       <r>   -26.5087     0.0000    72.0000 </r>
       <r>   -26.3374     0.0029    72.0005 </r>
       <r>   -26.1661     2.4240    72.4157 </r>
       <r>   -25.9948    40.1191    79.2875 </r>
       <r>   -25.8235    71.4315    91.5228 </r>
       <r>   -25.6522    70.4219   103.5851 </r>
       <r>   -25.4810    43.1182   110.9706 </r>
       <r>   -25.3097    17.3744   113.9466 </r>
       <r>   -25.1384     0.3117   114.0000 </r>
       <r>   -24.9671     0.0000   114.0000 </r>
       <r>   -24.7958     0.0000   114.0000 </r>
       <r>   -24.6245     0.0003   114.0001 </r>
       <r>   -24.4532     0.6360   114.1090 </r>
       <r>   -24.2820    15.1214   116.6991 </r>
       <r>   -24.1107    29.1647   121.6946 </r>
       <r>   -23.9394    54.9715   131.1104 </r>
       <r>   -23.7681    53.2905   140.2383 </r>
       <r>   -23.5968    35.3217   146.2885 </r>
       <r>   -23.4255    20.8130   149.8534 </r>
       <r>   -23.2542     0.8573   150.0003 </r>
       <r>   -23.0830     1.8405   150.3155 </r>
       <r>   -22.9117    20.8227   153.8822 </r>
       <r>   -22.7404    13.0649   156.1200 </r>
       <r>   -22.5691    33.1385   161.7962 </r>
       <r>   -22.3978    68.2219   173.4817 </r>
       <r>   -22.2265    69.6770   185.4164 </r>
       <r>   -22.0552    30.6256   190.6621 </r>
       <r>   -21.8840     7.6088   191.9654 </r>
       <r>   -21.7127     0.2020   192.0000 </r>
       <r>   -21.5414     0.0000   192.0000 </r>
       <r>   -21.3701     0.0000   192.0000 </r>
       <r>   -21.1988     0.0000   192.0000 </r>
       <r>   -21.0275     0.0000   192.0000 </r>
       <r>   -20.8562     0.0000   192.0000 </r>
       <r>   -20.6849     0.0000   192.0000 </r>
       <r>   -20.5137     0.0000   192.0000 </r>
       <r>   -20.3424     0.0000   192.0000 </r>
       <r>   -20.1711     0.0000   192.0000 </r>
       <r>   -19.9998     0.0000   192.0000 </r>
       <r>   -19.8285     0.0000   192.0000 </r>
       <r>   -19.6572     0.0000   192.0000 </r>
       <r>   -19.4859     0.0000   192.0000 </r>
       <r>   -19.3147     0.0000   192.0000 </r>
       <r>   -19.1434     0.0000   192.0000 </r>
       <r>   -18.9721     0.0000   192.0000 </r>
       <r>   -18.8008     0.0000   192.0000 </r>
       <r>   -18.6295     0.0000   192.0000 </r>
       <r>   -18.4582     0.0000   192.0000 </r>
       <r>   -18.2869     0.0000   192.0000 </r>
       <r>   -18.1157     0.0000   192.0000 </r>
       <r>   -17.9444     0.0000   192.0000 </r>
       <r>   -17.7731     0.0000   192.0000 </r>
       <r>   -17.6018     0.0000   192.0000 </r>
       <r>   -17.4305     0.0000   192.0000 </r>
       <r>   -17.2592     0.0000   192.0000 </r>
       <r>   -17.0879     0.0000   192.0000 </r>
       <r>   -16.9167     0.0000   192.0000 </r>
       <r>   -16.7454     0.0000   192.0000 </r>
       <r>   -16.5741     0.0000   192.0000 </r>
       <r>   -16.4028     0.0000   192.0000 </r>
       <r>   -16.2315     0.0000   192.0000 </r>
       <r>   -16.0602     0.0000   192.0000 </r>
       <r>   -15.8889     0.0000   192.0000 </r>
       <r>   -15.7177     0.0000   192.0000 </r>
       <r>   -15.5464     0.0000   192.0000 </r>
       <r>   -15.3751     0.0000   192.0000 </r>
       <r>   -15.2038     0.0000   192.0000 </r>
       <r>   -15.0325     0.0000   192.0000 </r>
       <r>   -14.8612     0.0000   192.0000 </r>
       <r>   -14.6899     0.0000   192.0000 </r>
       <r>   -14.5186     0.0000   192.0000 </r>
       <r>   -14.3474     0.0000   192.0000 </r>
       <r>   -14.1761     0.0000   192.0000 </r>
       <r>   -14.0048     0.0000   192.0000 </r>
       <r>   -13.8335     0.0000   192.0000 </r>
       <r>   -13.6622     0.0000   192.0000 </r>
       <r>   -13.4909     0.0000   192.0000 </r>
       <r>   -13.3196     0.0000   192.0000 </r>
       <r>   -13.1484     0.0000   192.0000 </r>
       <r>   -12.9771     0.0000   192.0000 </r>
       <r>   -12.8058     0.0000   192.0000 </r>
       <r>   -12.6345     0.0000   192.0000 </r>
       <r>   -12.4632     0.0000   192.0000 </r>
       <r>   -12.2919     0.0000   192.0000 </r>
       <r>   -12.1206     0.0000   192.0000 </r>
       <r>   -11.9494     0.0000   192.0000 </r>
       <r>   -11.7781     0.0000   192.0000 </r>
       <r>   -11.6068     0.0000   192.0000 </r>
       <r>   -11.4355     0.0000   192.0000 </r>
       <r>   -11.2642     0.0000   192.0000 </r>
       <r>   -11.0929     0.0000   192.0000 </r>
       <r>   -10.9216     0.0000   192.0000 </r>
       <r>   -10.7504     0.0000   192.0000 </r>
       <r>   -10.5791     0.0000   192.0000 </r>
       <r>   -10.4078     0.0000   192.0000 </r>
       <r>   -10.2365     0.0000   192.0000 </r>
       <r>   -10.0652     0.0000   192.0000 </r>
       <r>    -9.8939     0.0000   192.0000 </r>
       <r>    -9.7226     0.0000   192.0000 </r>
       <r>    -9.5513     0.0000   192.0000 </r>
       <r>    -9.3801     0.0000   192.0000 </r>
       <r>    -9.2088     0.0000   192.0000 </r>
       <r>    -9.0375     0.0000   192.0000 </r>
       <r>    -8.8662     0.0000   192.0000 </r>
       <r>    -8.6949     0.0000   192.0000 </r>
       <r>    -8.5236     0.0000   192.0000 </r>
       <r>    -8.3523     0.0007   192.0001 </r>
       <r>    -8.1811     0.2999   192.0515 </r>
       <r>    -8.0098     4.9022   192.8912 </r>
       <r>    -7.8385     6.2261   193.9576 </r>
       <r>    -7.6672     5.3656   194.8767 </r>
       <r>    -7.4959    16.5721   197.7152 </r>
       <r>    -7.3246    12.8405   199.9146 </r>
       <r>    -7.1533     7.6950   201.2327 </r>
       <r>    -6.9821    16.8948   204.1265 </r>
       <r>    -6.8108    18.9974   207.3805 </r>
       <r>    -6.6395    22.4131   211.2196 </r>
       <r>    -6.4682    22.6099   215.0923 </r>
       <r>    -6.2969    12.2895   217.1974 </r>
       <r>    -6.1256     4.6423   217.9925 </r>
       <r>    -5.9543     0.0437   218.0000 </r>
       <r>    -5.7831     0.0000   218.0000 </r>
       <r>    -5.6118     0.0000   218.0000 </r>
       <r>    -5.4405     0.0000   218.0000 </r>
       <r>    -5.2692     0.0000   218.0000 </r>
       <r>    -5.0979     0.0000   218.0000 </r>
       <r>    -4.9266     0.0000   218.0000 </r>
       <r>    -4.7553     0.0279   218.0048 </r>
       <r>    -4.5840     1.3054   218.2284 </r>
       <r>    -4.4128     5.7071   219.2059 </r>
       <r>    -4.2415     4.5935   219.9927 </r>
       <r>    -4.0702     5.6657   220.9632 </r>
       <r>    -3.8989    11.2508   222.8903 </r>
       <r>    -3.7276    14.3164   225.3425 </r>
       <r>    -3.5563    19.0658   228.6082 </r>
       <r>    -3.3850    22.4959   232.4614 </r>
       <r>    -3.2138    23.7472   236.5290 </r>
       <r>    -3.0425    23.5564   240.5639 </r>
       <r>    -2.8712    21.3221   244.2161 </r>
       <r>    -2.6999    20.7420   247.7689 </r>
       <r>    -2.5286    19.5679   251.1206 </r>
       <r>    -2.3573    13.5921   253.4487 </r>
       <r>    -2.1860     8.9697   254.9851 </r>
       <r>    -2.0148     4.2105   255.7063 </r>
       <r>    -1.8435     1.5974   255.9799 </r>
       <r>    -1.6722     0.1170   256.0000 </r>
       <r>    -1.5009     0.0002   256.0000 </r>
       <r>    -1.3296     0.0000   256.0000 </r>
       <r>    -1.1583     0.0000   256.0000 </r>
       <r>    -0.9870     0.0000   256.0000 </r>
       <r>    -0.8158     0.0000   256.0000 </r>
       <r>    -0.6445     0.0000   256.0000 </r>
       <r>    -0.4732     0.0000   256.0000 </r>
       <r>    -0.3019     0.0000   256.0000 </r>
       <r>    -0.1306     0.0000   256.0000 </r>
       <r>     0.0407     0.0074   256.0013 </r>
       <r>     0.2120     0.3889   256.0679 </r>
       <r>     0.3832     0.8579   256.2148 </r>
       <r>     0.5545     3.7113   256.8505 </r>
       <r>     0.7258     8.5760   258.3195 </r>
       <r>     0.8971    10.2061   260.0676 </r>
       <r>     1.0684    11.5763   262.0505 </r>
       <r>     1.2397    18.3284   265.1899 </r>
       <r>     1.4110    21.0284   268.7918 </r>
       <r>     1.5823    26.6222   273.3518 </r>
       <r>     1.7535    31.8826   278.8128 </r>
       <r>     1.9248    29.4419   283.8558 </r>
       <r>     2.0961    27.1764   288.5108 </r>
       <r>     2.2674    33.6047   294.2668 </r>
       <r>     2.4387    34.2622   300.1354 </r>
       <r>     2.6100    37.2187   306.5105 </r>
       <r>     2.7813    41.3381   313.5911 </r>
       <r>     2.9525    43.6301   321.0644 </r>
       <r>     3.1238    53.6399   330.2521 </r>
       <r>     3.2951    60.7636   340.6601 </r>
       <r>     3.4664    64.6274   351.7299 </r>
       <r>     3.6377    66.1424   363.0591 </r>
       <r>     3.8090    64.6848   374.1388 </r>
       <r>     3.9803    60.1006   384.4332 </r>
       <r>     4.1515    56.8628   394.1730 </r>
       <r>     4.3228    51.7380   403.0350 </r>
       <r>     4.4941    45.0213   410.7465 </r>
       <r>     4.6654    39.5285   417.5172 </r>
       <r>     4.8367    34.5059   423.4276 </r>
       <r>     5.0080    29.5055   428.4815 </r>
       <r>     5.1793    28.8327   433.4201 </r>
       <r>     5.3505    24.9694   437.6970 </r>
       <r>     5.5218    19.9579   441.1155 </r>
       <r>     5.6931    15.7202   443.8082 </r>
       <r>     5.8644    15.5028   446.4636 </r>
       <r>     6.0357     8.2434   447.8756 </r>
       <r>     6.2070    10.2373   449.6291 </r>
       <r>     6.3783    13.4899   451.9397 </r>
       <r>     6.5496    18.6991   455.1426 </r>
       <r>     6.7208    16.6352   457.9920 </r>
       <r>     6.8921    22.9158   461.9172 </r>
       <r>     7.0634    24.7838   466.1623 </r>
       <r>     7.2347    19.8759   469.5667 </r>
       <r>     7.4060    19.0668   472.8326 </r>
       <r>     7.5773    25.8363   477.2580 </r>
       <r>     7.7486    30.0953   482.4129 </r>
       <r>     7.9198    29.2993   487.4315 </r>
       <r>     8.0911    25.5041   491.8000 </r>
       <r>     8.2624    27.2913   496.4746 </r>
       <r>     8.4337    31.5907   501.8856 </r>
       <r>     8.6050    39.4777   508.6476 </r>
       <r>     8.7763    42.7983   515.9784 </r>
       <r>     8.9476    45.9819   523.8545 </r>
       <r>     9.1188    52.8091   532.8999 </r>
       <r>     9.2901    52.0884   541.8219 </r>
       <r>     9.4614    51.8632   550.7054 </r>
       <r>     9.6327    54.3947   560.0225 </r>
       <r>     9.8040    52.4323   569.0034 </r>
       <r>     9.9753    52.1201   577.9308 </r>
       <r>    10.1466    51.8696   586.8154 </r>
       <r>    10.3178    51.6647   595.6648 </r>
       <r>    10.4891    49.8630   604.2057 </r>
       <r>    10.6604    44.1596   611.7696 </r>
       <r>    10.8317    20.9617   615.3600 </r>
       <r>    11.0030     3.6468   615.9847 </r>
       <r>    11.1743     0.0893   616.0000 </r>
       <r>    11.3456     0.0000   616.0000 </r>
       <r>    11.5168     0.0000   616.0000 </r>
       <r>    11.6881     0.0000   616.0000 </r>
       <r>    11.8594     0.0000   616.0000 </r>
       <r>    12.0307     0.0000   616.0000 </r>
       <r>    12.2020     0.0000   616.0000 </r>
       <r>    12.3733     0.0000   616.0000 </r>
       <r>    12.5446     0.0000   616.0000 </r>
       <r>    12.7159     0.0000   616.0000 </r>
       <r>    12.8871     0.0000   616.0000 </r>
       <r>    13.0584     0.0000   616.0000 </r>
       <r>    13.2297     0.0000   616.0000 </r>
      </set>
     </set>
    </array>
   </total>
  </dos>
 </calculation>
 <structure name="finalpos" >
  <crystal>
   <varray name="basis" >
    <v>       8.77265486       0.02570661      -0.00828711 </v>
    <v>       0.03210994       8.77347635      -0.00132814 </v>
    <v>       0.02323135      -0.01674396       8.77745344 </v>
   </varray>
   <i name="volume">    675.56570129 </i>
   <varray name="rec_basis" >
    <v>       0.11399152      -0.00041724      -0.00030250 </v>
    <v>      -0.00033379       0.11398116       0.00021832 </v>
    <v>       0.00010757       0.00001685       0.11392801 </v>
   </varray>
  </crystal>
  <varray name="positions" >
   <v>       0.00043099       0.99828698       0.99677011 </v>
   <v>       0.26844573       0.00105171       0.24732152 </v>
   <v>       0.24279490       0.49484216       0.24559750 </v>
   <v>       0.50078199       0.50042984       0.00028721 </v>
   <v>       0.50711364       0.24419014       0.74337950 </v>
   <v>       0.99875168       0.50244814       0.49947987 </v>
   <v>       0.49603712       0.75917394       0.74899354 </v>
   <v>       0.99055041       0.23650040       0.25378335 </v>
   <v>       0.75696619       0.74675103       0.00937084 </v>
   <v>       0.00087320       0.25234994       0.74885851 </v>
   <v>       0.75190925       0.25037540       0.49770309 </v>
   <v>       0.99959391       0.74910851       0.75092384 </v>
   <v>       0.25061865       0.49529505       0.74879830 </v>
   <v>       0.25648286       0.24258895       0.99046481 </v>
   <v>       0.50808898       0.25470600       0.25174405 </v>
   <v>       0.73570607       0.99152908       0.26334997 </v>
   <v>       0.74572418       0.24728249       0.00002580 </v>
   <v>       0.24800900       0.74907444       0.99868426 </v>
   <v>       0.25211619       0.24676717       0.50499531 </v>
   <v>       0.25073651       0.75188610       0.50068334 </v>
   <v>       0.25401257       0.24761885       0.24757398 </v>
   <v>       0.25441388       0.00165761       0.99723891 </v>
   <v>       0.00224576       0.25138982       0.00038550 </v>
   <v>       0.74398381       0.24312630       0.24569818 </v>
   <v>       0.74668297       0.00229551       0.00588104 </v>
   <v>       0.50909600       0.00607524       0.25370138 </v>
   <v>       0.99463167       0.49711486       0.24637146 </v>
   <v>       0.49759960       0.76002248       0.00157637 </v>
   <v>       0.98766912       0.00357275       0.74565849 </v>
   <v>       0.75210255       0.24357574       0.75422138 </v>
   <v>       0.75281339       0.00464150       0.49160077 </v>
   <v>       0.49726792       0.24570761       0.49298004 </v>
   <v>       0.52143427       0.00122119       0.74634203 </v>
   <v>       0.99846277       0.99933310       0.25135526 </v>
   <v>       0.50227149       0.24065839       0.00164554 </v>
   <v>       0.25776238       0.74912895       0.24910801 </v>
   <v>       0.24213141       0.49977466       0.99560443 </v>
   <v>       0.00548566       0.74179125       0.00450376 </v>
   <v>       0.74116111       0.74900331       0.25288210 </v>
   <v>       0.76206384       0.49478287       0.00772101 </v>
   <v>       0.49443400       0.49862211       0.24976602 </v>
   <v>       0.25158292       0.24316587       0.74814084 </v>
   <v>       0.25810917       0.00000895       0.51106751 </v>
   <v>       0.00529662       0.24929304       0.50062636 </v>
   <v>       0.24536285       0.75983969       0.74994276 </v>
   <v>       0.25332259       0.50131539       0.49867250 </v>
   <v>       0.00013572       0.75640616       0.49946045 </v>
   <v>       0.00008095       0.50171045       0.75349717 </v>
   <v>       0.74886940       0.75859706       0.74800746 </v>
   <v>       0.74736157       0.49832263       0.50688555 </v>
   <v>       0.49741320       0.76384644       0.48790821 </v>
   <v>       0.50443616       0.50221242       0.74485793 </v>
   <v>       0.52175577       0.00929948       0.97507542 </v>
   <v>       0.99620608       0.51102633       0.97969987 </v>
   <v>       0.48957915       0.72731216       0.26317894 </v>
   <v>       0.22158468       0.01218310       0.73544079 </v>
   <v>       0.47804447       0.99241028       0.51659381 </v>
   <v>       0.73785195       0.97417470       0.78391380 </v>
   <v>       0.00893864       0.76837689       0.25532783 </v>
   <v>       0.73290884       0.50536455       0.25575458 </v>
   <v>       0.01809158       0.00234802       0.49835422 </v>
   <v>       0.50444705       0.51425438       0.48926963 </v>
   <v>       0.75465561       0.51653746       0.76339070 </v>
   <v>       0.74450777       0.73624273       0.49190341 </v>
  </varray>
 </structure>
</modeling>
