HECN                                    
           1
     8.670275    0.031267   -0.011872
     0.037492    8.708937    0.013281
     0.019204   -0.001980    8.659967
   Hf   Nb   Ti   N    C    Cr   Mo
     7     6     7    13    19     6     6
Direct configuration=     1
   0.99779866  0.99624231  0.99703722
   0.26734340  0.99904488  0.24706139
   0.24006396  0.49681765  0.24495750
   0.50519085  0.50033899  0.00070641
   0.50747492  0.24647962  0.74262842
   0.99036582  0.50737581  0.49404087
   0.49807243  0.75703886  0.74696985
   0.99037843  0.23508269  0.25625915
   0.75673612  0.74499156  0.01552745
   0.99858496  0.25384429  0.74707987
   0.74837047  0.25151921  0.50109501
   0.99906561  0.75189468  0.74451755
   0.25161115  0.49836293  0.74525297
   0.25553228  0.24452040  0.99080775
   0.50970640  0.25277530  0.25439640
   0.74170213  0.98713441  0.27532918
   0.74923810  0.24980836  0.99821818
   0.24785238  0.74881592  0.00085147
   0.25227085  0.24850306  0.50219806
   0.25124786  0.75049000  0.49542179
   0.25293620  0.24770840  0.24689580
   0.25565679  0.00075375  0.99468420
   0.00176688  0.25025718  0.00040649
   0.74533349  0.24470147  0.24971719
   0.74609732  0.00036773  0.00398318
   0.51107380  0.00174677  0.25806720
   0.98906013  0.49263748  0.24452992
   0.50071035  0.76034356  0.00343944
   0.99020762  0.00297386  0.73843037
   0.75284753  0.24204549  0.75486128
   0.75188055  0.00218683  0.50117275
   0.49708036  0.24749397  0.49261452
   0.52130405  0.00038784  0.74380442
   0.99829030  0.99539673  0.25721212
   0.50323116  0.24010537  0.00248888
   0.25376503  0.74868053  0.24813945
   0.24345805  0.50008549  0.99381140
   0.00389243  0.73988972  0.00824351
   0.75313080  0.73962910  0.26251599
   0.76246450  0.49585795  0.00991761
   0.50097844  0.49945886  0.25624097
   0.24977860  0.24556928  0.74710778
   0.25303620  0.99959643  0.51006275
   0.00261502  0.24555570  0.50020016
   0.24435511  0.75875571  0.74799903
   0.25423330  0.50264783  0.49733257
   0.99366898  0.76489303  0.49191995
   0.99274129  0.50349793  0.75173131
   0.75014962  0.75088946  0.74676181
   0.73551810  0.50409850  0.50782276
   0.50337909  0.75876221  0.48746656
   0.51092183  0.50340625  0.74032300
   0.52169388  0.00798134  0.97307564
   0.99078600  0.50805140  0.98082650
   0.50550348  0.72844837  0.26316246
   0.22201557  0.01146774  0.73496614
   0.47803220  0.99326488  0.51423600
   0.74263714  0.97186897  0.77291327
   0.00660358  0.77809390  0.25955809
   0.72757543  0.51312656  0.26433674
   0.02272695  0.00013492  0.49799548
   0.50772495  0.51908523  0.48513110
   0.75679558  0.52901552  0.76718044
   0.73373595  0.72799961  0.48635738
HECN                                    
           1
     9.019587    0.032932   -0.011962
     0.039431    9.050858    0.005979
     0.020420   -0.009880    9.027768
   Hf   Nb   Ti   N    C    Cr   Mo
     7     6     7    13    19     6     6
Direct configuration=     2
   0.99779027  0.99813790  0.99475166
   0.27004623  0.00113335  0.24590323
   0.24201959  0.49497645  0.24386844
   0.50176786  0.49993345  0.00207980
   0.50625778  0.24442403  0.74411691
   0.99431431  0.50312336  0.49708149
   0.49428091  0.76070673  0.74962211
   0.99102392  0.23423065  0.25446504
   0.75629989  0.74950386  0.01393637
   0.00068532  0.25436148  0.74789273
   0.74966231  0.25183603  0.50102671
   0.00241789  0.75193792  0.74772719
   0.24947058  0.49758544  0.74674886
   0.25577062  0.24453095  0.99068233
   0.50837847  0.25086122  0.25236722
   0.73950950  0.99129197  0.27148089
   0.74843886  0.24799618  0.99870454
   0.24800036  0.74870081  0.99945556
   0.25247924  0.24853878  0.50278497
   0.25286773  0.75075336  0.49753906
   0.25386350  0.24791852  0.24676670
   0.25565566  0.00075221  0.99476025
   0.00197018  0.25075025  0.00049660
   0.74388149  0.24332570  0.24788880
   0.74622704  0.00152805  0.00387489
   0.51117087  0.00121385  0.25822787
   0.99154695  0.49310315  0.24413610
   0.49948127  0.76057905  0.00340611
   0.98867907  0.00356019  0.74397211
   0.75161087  0.24143195  0.75612358
   0.75092263  0.00251193  0.50182320
   0.49563444  0.24662066  0.49268265
   0.52135175  0.00085479  0.74416703
   0.99738207  0.00728465  0.24996190
   0.50326842  0.24006082  0.00250619
   0.25714425  0.74811282  0.24770602
   0.24336909  0.50006383  0.99449157
   0.00531054  0.73976735  0.00476039
   0.75165114  0.75068131  0.24907430
   0.76155330  0.49361670  0.01150871
   0.48792919  0.49571570  0.24412606
   0.25092951  0.24482396  0.74725734
   0.26138628  0.99929020  0.50926109
   0.00336124  0.25097704  0.50068238
   0.24555180  0.75941333  0.74817180
   0.24994446  0.50251286  0.49642714
   0.99578342  0.75703894  0.50068487
   0.99984264  0.50250465  0.75052217
   0.74873964  0.76136974  0.74949749
   0.74790945  0.49117824  0.51457731
   0.49340692  0.76670901  0.48958095
   0.50647208  0.50234100  0.74446425
   0.52156913  0.00843355  0.97297573
   0.99322675  0.50870844  0.98120332
   0.50294271  0.73279536  0.25892769
   0.22392550  0.01229939  0.73739139
   0.47655527  0.99404237  0.51368252
   0.74128059  0.97209063  0.77431900
   0.00744095  0.76422887  0.25283391
   0.73864411  0.49995418  0.25507602
   0.01845092  0.00414967  0.50079690
   0.49476793  0.51110983  0.49314153
   0.75497449  0.51561577  0.76598560
   0.74180923  0.74439533  0.49784363
HECN                                    
           1
     8.799328    0.031882   -0.011906
     0.038208    8.835259    0.010583
     0.019653   -0.004898    8.795851
   Hf   Nb   Ti   N    C    Cr   Mo
     7     6     7    13    19     6     6
Direct configuration=     3
   0.99779536  0.99698898  0.99613311
   0.26840800  0.99986689  0.24660273
   0.24083413  0.49609419  0.24452819
   0.50384267  0.50017869  0.00124922
   0.50699550  0.24567041  0.74321763
   0.99192095  0.50570197  0.49524467
   0.49657927  0.75847983  0.74801583
   0.99063259  0.23474857  0.25555069
   0.75656440  0.74676692  0.01489637
   0.99941226  0.25404731  0.74740085
   0.74887929  0.25164388  0.50106789
   0.00038606  0.75191010  0.74578586
   0.25076807  0.49805633  0.74584441
   0.25562615  0.24452462  0.99075819
   0.50918325  0.25202357  0.25359556
   0.74083855  0.98877139  0.27380633
   0.74892326  0.24909541  0.99841129
   0.24791062  0.74877139  0.00029996
   0.25235295  0.24851680  0.50242996
   0.25188595  0.75059251  0.49625831
   0.25330144  0.24779113  0.24684471
   0.25565635  0.00075310  0.99471425
   0.00184697  0.25045105  0.00044184
   0.74476150  0.24416134  0.24899541
   0.74614845  0.00082411  0.00393978
   0.51111202  0.00153711  0.25813097
   0.99003962  0.49282089  0.24437413
   0.50022626  0.76043616  0.00342612
   0.98960575  0.00320151  0.74061978
   0.75236046  0.24180351  0.75536035
   0.75150328  0.00231432  0.50142957
   0.49651083  0.24715045  0.49264186
   0.52132287  0.00057129  0.74394746
   0.99793275  0.00007564  0.25434101
   0.50324584  0.24008784  0.00249574
   0.25509597  0.74845759  0.24796857
   0.24342303  0.50007661  0.99408017
   0.00445087  0.73984346  0.00686730
   0.75254798  0.74398257  0.25719882
   0.76210558  0.49497568  0.01054747
   0.49583828  0.49799277  0.25145554
   0.25023189  0.24527612  0.74716730
   0.25632500  0.99947664  0.50974636
   0.00290912  0.24768751  0.50038787
   0.24482647  0.75901428  0.74806698
   0.25254403  0.50259510  0.49697476
   0.99450179  0.76179974  0.49538749
   0.99553822  0.50310813  0.75125424
   0.74959470  0.75500955  0.74783724
   0.74039843  0.49901418  0.51049886
   0.49945169  0.76188606  0.48829760
   0.50916930  0.50298504  0.74195981
   0.52164476  0.00815923  0.97303592
   0.99174737  0.50830966  0.98097511
   0.50449489  0.73016005  0.26148679
   0.22276793  0.01179359  0.73592406
   0.47745049  0.99357089  0.51401685
   0.74210289  0.97195537  0.77346857
   0.00693274  0.77264476  0.25690842
   0.73193433  0.50795141  0.26068469
   0.02104297  0.00171221  0.49910020
   0.50262156  0.51594422  0.48830018
   0.75607784  0.52374639  0.76671531
   0.73691663  0.73444175  0.49088763
HECN                                    
           1
     8.794467    0.031859   -0.011904
     0.038181    8.830501    0.010685
     0.019636   -0.004789    8.790733
   Hf   Nb   Ti   N    C    Cr   Mo
     7     6     7    13    19     6     6
Direct configuration=     4
   0.99779547  0.99696299  0.99616441
   0.26837094  0.99983825  0.24661859
   0.24080731  0.49611945  0.24454312
   0.50388960  0.50018425  0.00123040
   0.50701219  0.24569860  0.74319725
   0.99186681  0.50576029  0.49520304
   0.49663126  0.75842951  0.74797948
   0.99062374  0.23476026  0.25557528
   0.75657038  0.74670504  0.01491815
   0.99938347  0.25404022  0.74738971
   0.74886158  0.25163953  0.50106883
   0.00034010  0.75190949  0.74574189
   0.25079742  0.49806699  0.74582392
   0.25562288  0.24452447  0.99075991
   0.50920145  0.25204984  0.25362337
   0.74086861  0.98871439  0.27385904
   0.74893422  0.24912026  0.99840463
   0.24790859  0.74877297  0.00031908
   0.25235009  0.24851631  0.50242192
   0.25186374  0.75058889  0.49622930
   0.25328872  0.24778825  0.24684647
   0.25565636  0.00075312  0.99471321
   0.00184418  0.25044428  0.00044060
   0.74478140  0.24418021  0.24902046
   0.74614667  0.00080819  0.00394126
   0.51111069  0.00154442  0.25812877
   0.99000552  0.49281450  0.24437952
   0.50024311  0.76043293  0.00342657
   0.98962671  0.00319344  0.74054385
   0.75237742  0.24181192  0.75534306
   0.75151642  0.00230986  0.50142066
   0.49653066  0.24716242  0.49264093
   0.52132221  0.00056488  0.74394249
   0.99794520  0.99991262  0.25444028
   0.50324533  0.24008845  0.00249551
   0.25504963  0.74846538  0.24797451
   0.24342425  0.50007691  0.99407086
   0.00443143  0.73984515  0.00691502
   0.75256827  0.74383104  0.25738292
   0.76211807  0.49500641  0.01052568
   0.49601719  0.49804416  0.25162153
   0.25021611  0.24528634  0.74716525
   0.25621051  0.99948085  0.50975735
   0.00289889  0.24761315  0.50038124
   0.24481007  0.75900526  0.74806461
   0.25260283  0.50259696  0.49698717
   0.99447280  0.76190743  0.49526745
   0.99544086  0.50312176  0.75127081
   0.74961403  0.75486579  0.74779971
   0.74022854  0.49919136  0.51040638
   0.49958842  0.76177705  0.48826859
   0.50923031  0.50299963  0.74190308
   0.52164647  0.00815303  0.97303728
   0.99171390  0.50830065  0.98096995
   0.50453000  0.73010044  0.26154479
   0.22274174  0.01178217  0.73589083
   0.47747074  0.99356023  0.51402443
   0.74212149  0.97195232  0.77344931
   0.00692126  0.77283496  0.25700061
   0.73178256  0.50813213  0.26081162
   0.02110160  0.00165713  0.49906181
   0.50279921  0.51605357  0.48819047
   0.75610280  0.52393019  0.76673174
   0.73680595  0.73421681  0.49073019
HECN                                    
           1
     8.759650    0.028282   -0.011045
     0.034662    8.766407    0.003678
     0.020405   -0.011705    8.761509
   Hf   Nb   Ti   N    C    Cr   Mo
     7     6     7    13    19     6     6
Direct configuration=     5
   0.99805694  0.99784346  0.99518615
   0.26933825  0.00026974  0.24576783
   0.24181260  0.49538574  0.24394751
   0.50211111  0.49993730  0.00132761
   0.50654490  0.24425747  0.74410049
   0.99480748  0.50370028  0.49721769
   0.49520323  0.76002957  0.74941578
   0.99018565  0.23491822  0.25520370
   0.75690019  0.74771963  0.01271360
   0.00068055  0.25429037  0.74772320
   0.75006883  0.25163756  0.50039225
   0.00137285  0.75053276  0.74792935
   0.24975243  0.49718419  0.74707631
   0.25586690  0.24417280  0.99007953
   0.50913833  0.25199709  0.25245600
   0.73960396  0.99091666  0.27221500
   0.74790854  0.24790272  0.99856174
   0.24746792  0.74860095  0.99975607
   0.25206631  0.24794019  0.50354425
   0.25217730  0.75106798  0.49727870
   0.25366871  0.24751850  0.24683843
   0.25490240  0.00110008  0.99560430
   0.00194755  0.25011316  0.00041871
   0.74410825  0.24313381  0.24836903
   0.74627145  0.00147589  0.00305010
   0.51087404  0.00179283  0.25844179
   0.99219568  0.49348026  0.24506730
   0.49971114  0.76024278  0.00269525
   0.98943382  0.00377935  0.74396680
   0.75173298  0.24217263  0.75579921
   0.75151452  0.00285821  0.50038939
   0.49601694  0.24671260  0.49308884
   0.52196225  0.00103979  0.74460038
   0.99820380  0.00081315  0.25129118
   0.50324357  0.24000070  0.00210614
   0.25696098  0.74855520  0.24764453
   0.24342985  0.50009344  0.99430191
   0.00487137  0.74036216  0.00461943
   0.74978069  0.74746539  0.25417466
   0.76170913  0.49457422  0.01061687
   0.49325228  0.49744256  0.24867690
   0.25074014  0.24499615  0.74725153
   0.25915959  0.99976031  0.50974491
   0.00330693  0.25029124  0.50046207
   0.24537554  0.75916795  0.74820342
   0.25013923  0.50245379  0.49680387
   0.99667379  0.75805939  0.49901986
   0.99914496  0.50290968  0.75149609
   0.74906040  0.75781184  0.74966859
   0.74378710  0.49659307  0.51134744
   0.49610399  0.76457009  0.48880409
   0.50599590  0.50255890  0.74460811
   0.52279248  0.00871865  0.97197516
   0.99278107  0.50921282  0.97979874
   0.50309169  0.72936600  0.26143376
   0.22291635  0.01253416  0.73612024
   0.47569636  0.99347960  0.51425603
   0.73988637  0.97179526  0.77587849
   0.00718029  0.77191652  0.25467577
   0.73214768  0.50499775  0.25800647
   0.02068008  0.00284337  0.49950589
   0.50156031  0.51436124  0.48836707
   0.75583176  0.52050016  0.76634525
   0.73909272  0.73607041  0.49257340
HECN                                    
           1
     8.760676    0.028387   -0.011070
     0.034765    8.768295    0.003884
     0.020383   -0.011501    8.762370
   Hf   Nb   Ti   N    C    Cr   Mo
     7     6     7    13    19     6     6
Direct configuration=     6
   0.99804919  0.99781735  0.99521504
   0.26930963  0.00025695  0.24579297
   0.24178287  0.49540751  0.24396513
   0.50216371  0.49994465  0.00132473
   0.50655873  0.24430022  0.74407383
   0.99472055  0.50376132  0.49715820
   0.49524544  0.75998208  0.74937329
   0.99019860  0.23491355  0.25521468
   0.75689041  0.74768957  0.01277873
   0.00064219  0.25428292  0.74771334
   0.75003313  0.25163762  0.50041225
   0.00134233  0.75057354  0.74786473
   0.24978335  0.49721037  0.74703932
   0.25585969  0.24418325  0.99009965
   0.50914019  0.25199869  0.25249050
   0.73964133  0.99085137  0.27226353
   0.74793888  0.24793885  0.99855712
   0.24748095  0.74860607  0.99977271
   0.25207471  0.24795726  0.50351109
   0.25216803  0.75105374  0.49724767
   0.25365748  0.24752650  0.24683867
   0.25492470  0.00108977  0.99557795
   0.00194449  0.25012299  0.00041936
   0.74412817  0.24316488  0.24838830
   0.74626775  0.00145610  0.00307642
   0.51088104  0.00178545  0.25843253
   0.99213090  0.49346047  0.24504696
   0.49972687  0.76024845  0.00271687
   0.98943953  0.00376189  0.74386562
   0.75175204  0.24216192  0.75578572
   0.75151457  0.00284196  0.50041986
   0.49603214  0.24672595  0.49307561
   0.52194332  0.00102568  0.74458093
   0.99819614  0.00078650  0.25138423
   0.50324362  0.24000331  0.00211765
   0.25690445  0.74855252  0.24765429
   0.24342969  0.50009295  0.99429508
   0.00485834  0.74034686  0.00468726
   0.74986307  0.74735766  0.25426939
   0.76172122  0.49458705  0.01061418
   0.49333405  0.49746051  0.24876394
   0.25072464  0.24500475  0.74724899
   0.25907238  0.99975198  0.50974528
   0.00329484  0.25021177  0.50045962
   0.24535881  0.75916311  0.74819931
   0.25021209  0.50245807  0.49680928
   0.99660875  0.75817345  0.49890906
   0.99903542  0.50291592  0.75148945
   0.74907674  0.75772439  0.74961329
   0.74368189  0.49667010  0.51131969
   0.49620700  0.76448724  0.48878819
   0.50609156  0.50257195  0.74452816
   0.52275858  0.00870188  0.97200654
   0.99274949  0.50918577  0.97983333
   0.50313423  0.72938781  0.26143705
   0.22291118  0.01251184  0.73611344
   0.47574883  0.99348201  0.51424918
   0.73995248  0.97179989  0.77580669
   0.00717263  0.77194383  0.25474450
   0.73213690  0.50509082  0.25808945
   0.02069254  0.00280817  0.49949274
   0.50159697  0.51441146  0.48836189
   0.75583982  0.52060195  0.76635676
   0.73902508  0.73601534  0.49251889
HECN                                    
           1
     8.786484    0.027451   -0.008378
     0.033887    8.781283    0.000726
     0.023174   -0.014697    8.783774
   Hf   Nb   Ti   N    C    Cr   Mo
     7     6     7    13    19     6     6
Direct configuration=     7
   0.99884883  0.99855742  0.99474516
   0.26940099  0.00043717  0.24506585
   0.24167401  0.49497760  0.24404225
   0.50120622  0.50003781  0.00039192
   0.50615834  0.24422257  0.74424709
   0.99695428  0.50312256  0.49797818
   0.49456653  0.75972435  0.75004593
   0.99010614  0.23631482  0.25467684
   0.75704347  0.74763702  0.01060837
   0.00098117  0.25406970  0.74843714
   0.75067274  0.25121985  0.50000998
   0.00142494  0.74944995  0.75003592
   0.25021030  0.49655249  0.74787588
   0.25579088  0.24348246  0.98986732
   0.50865729  0.25249403  0.25166155
   0.73912958  0.99246953  0.27059526
   0.74705408  0.24687078  0.99874032
   0.24711884  0.74877312  0.99949360
   0.25168292  0.24764452  0.50412011
   0.25132489  0.75134298  0.49792748
   0.25394212  0.24715424  0.24679534
   0.25455324  0.00143503  0.99592607
   0.00210086  0.25053144  0.00037768
   0.74366036  0.24245542  0.24761721
   0.74643406  0.00228588  0.00275056
   0.51065715  0.00207091  0.25861100
   0.99340020  0.49460111  0.24532882
   0.49915848  0.76044842  0.00231149
   0.98928255  0.00425639  0.74538239
   0.75185474  0.24303703  0.75593064
   0.75205960  0.00290150  0.49947366
   0.49586539  0.24646923  0.49331853
   0.52179379  0.00143949  0.74471011
   0.99864664  0.99967022  0.25038446
   0.50299616  0.23968599  0.00194918
   0.25827105  0.74867647  0.24735676
   0.24287312  0.49997553  0.99444941
   0.00535675  0.74095272  0.00357695
   0.74700075  0.74885370  0.25421098
   0.76168851  0.49447544  0.01028464
   0.49337916  0.49726302  0.24888907
   0.25122244  0.24452416  0.74740752
   0.25900634  0.00021270  0.50987838
   0.00410325  0.25073620  0.50057546
   0.24557616  0.75965126  0.74848641
   0.25005303  0.50221618  0.49690783
   0.99856313  0.75688260  0.49978288
   0.00054350  0.50279852  0.75219770
   0.74880792  0.75792070  0.75026994
   0.74462445  0.49698211  0.51071734
   0.49569597  0.76526232  0.48878070
   0.50408911  0.50253452  0.74564027
   0.52327838  0.00873839  0.97185682
   0.99403424  0.50957541  0.97941185
   0.50132637  0.72861531  0.26190685
   0.22323846  0.01271207  0.73650513
   0.47583471  0.99374579  0.51465824
   0.73853606  0.97320774  0.77800767
   0.00698759  0.77116438  0.25411767
   0.73154044  0.50396468  0.25698443
   0.02025861  0.00285569  0.49953421
   0.50228418  0.51357467  0.48798751
   0.75561338  0.51848218  0.76568004
   0.73980154  0.73560226  0.49250418
HECN                                    
           1
     8.785294    0.027495   -0.008502
     0.033927    8.780684    0.000872
     0.023045   -0.014550    8.782787
   Hf   Nb   Ti   N    C    Cr   Mo
     7     6     7    13    19     6     6
Direct configuration=     8
   0.99881206  0.99852335  0.99476678
   0.26939678  0.00042889  0.24509929
   0.24167901  0.49499739  0.24403871
   0.50125022  0.50003354  0.00043481
   0.50617675  0.24422615  0.74423912
   0.99685159  0.50315194  0.49794050
   0.49459776  0.75973620  0.75001499
   0.99011037  0.23625031  0.25470156
   0.75703640  0.74763947  0.01070820
   0.00096560  0.25407950  0.74840386
   0.75064333  0.25123908  0.50002850
   0.00142117  0.74950165  0.74993606
   0.25019069  0.49658276  0.74783742
   0.25579404  0.24351473  0.98987802
   0.50867948  0.25247124  0.25169966
   0.73915308  0.99239506  0.27067196
   0.74709476  0.24691996  0.99873190
   0.24713549  0.74876544  0.99950643
   0.25170095  0.24765891  0.50409210
   0.25136366  0.75132966  0.49789619
   0.25392903  0.24717138  0.24679734
   0.25457032  0.00141913  0.99591005
   0.00209367  0.25051263  0.00037960
   0.74368186  0.24248810  0.24765269
   0.74642640  0.00224768  0.00276554
   0.51066744  0.00205776  0.25860278
   0.99334184  0.49454858  0.24531585
   0.49918461  0.76043923  0.00233012
   0.98928979  0.00423360  0.74531261
   0.75185002  0.24299674  0.75592396
   0.75203453  0.00289877  0.49951719
   0.49587307  0.24648104  0.49330736
   0.52180066  0.00142044  0.74470416
   0.99862592  0.99972163  0.25043047
   0.50300754  0.23970060  0.00195693
   0.25820822  0.74867076  0.24737046
   0.24289872  0.49998094  0.99444231
   0.00533382  0.74092484  0.00362802
   0.74713234  0.74878484  0.25421360
   0.76169001  0.49448058  0.01029980
   0.49337709  0.49727211  0.24888332
   0.25119956  0.24454628  0.74740024
   0.25900938  0.00019149  0.50987225
   0.00406608  0.25071204  0.50057013
   0.24556617  0.75962878  0.74847320
   0.25006034  0.50222732  0.49690329
   0.99847330  0.75694201  0.49974274
   0.00047418  0.50280390  0.75216514
   0.74882028  0.75791166  0.75023973
   0.74458111  0.49696775  0.51074506
   0.49571946  0.76522664  0.48878102
   0.50418119  0.50253624  0.74558908
   0.52325448  0.00873671  0.97186372
   0.99397517  0.50955747  0.97943125
   0.50140949  0.72865088  0.26188523
   0.22322342  0.01270284  0.73648711
   0.47583077  0.99373364  0.51463942
   0.73860121  0.97314289  0.77790639
   0.00699609  0.77120028  0.25414652
   0.73156786  0.50401655  0.25703527
   0.02027856  0.00285350  0.49953230
   0.50225259  0.51361320  0.48800475
   0.75562379  0.51857979  0.76571120
   0.73976584  0.73562127  0.49250487
HECN                                    
           1
     8.773367    0.027588   -0.007040
     0.034019    8.766370    0.000399
     0.024463   -0.015003    8.769057
   Hf   Nb   Ti   N    C    Cr   Mo
     7     6     7    13    19     6     6
Direct configuration=     9
   0.99956174  0.99897660  0.99494460
   0.26935812  0.00041989  0.24486555
   0.24174279  0.49488844  0.24426643
   0.50082257  0.50020015  0.00014459
   0.50614202  0.24465806  0.74394488
   0.99781386  0.50321058  0.49842058
   0.49472196  0.75930272  0.74991602
   0.99009164  0.23651828  0.25435612
   0.75727991  0.74723593  0.00971115
   0.00102036  0.25387348  0.74880713
   0.75120153  0.25102514  0.49972280
   0.00102437  0.74875939  0.75133478
   0.25087490  0.49605690  0.74820240
   0.25576070  0.24286448  0.98981682
   0.50815942  0.25305043  0.25129242
   0.73883722  0.99323785  0.26936734
   0.74615533  0.24629253  0.99891858
   0.24680450  0.74893828  0.99943535
   0.25144332  0.24745344  0.50447966
   0.25056103  0.75156806  0.49835655
   0.25407112  0.24700244  0.24678587
   0.25423839  0.00170992  0.99604969
   0.00223412  0.25110187  0.00032424
   0.74340848  0.24224220  0.24703003
   0.74673832  0.00275141  0.00288181
   0.51032572  0.00262122  0.25866346
   0.99410146  0.49557762  0.24565002
   0.49879323  0.76059851  0.00186626
   0.98939689  0.00447193  0.74566863
   0.75203787  0.24397569  0.75574504
   0.75284924  0.00308176  0.49808180
   0.49607821  0.24640765  0.49338231
   0.52141572  0.00146985  0.74471561
   0.99897036  0.99932537  0.25056879
   0.50263411  0.23943331  0.00183274
   0.25880517  0.74873101  0.24724113
   0.24232197  0.49980901  0.99466855
   0.00555213  0.74161589  0.00351338
   0.74468413  0.74916453  0.25438273
   0.76181407  0.49459859  0.00961842
   0.49395644  0.49723386  0.24938509
   0.25144309  0.24410986  0.74759883
   0.25804481  0.00051970  0.50996143
   0.00467552  0.25013509  0.50072423
   0.24543858  0.76002870  0.74884962
   0.25120590  0.50197377  0.49721279
   0.99978982  0.75689937  0.49948596
   0.00066725  0.50255049  0.75286581
   0.74870553  0.75763279  0.75002437
   0.74508546  0.49786734  0.50944187
   0.49651075  0.76485915  0.48857289
   0.50330550  0.50256664  0.74564258
   0.52355454  0.00871238  0.97198913
   0.99494537  0.50994930  0.97929874
   0.49954782  0.72795765  0.26288002
   0.22325378  0.01268387  0.73672580
   0.47611874  0.99391504  0.51521023
   0.73749534  0.97409571  0.77970759
   0.00662563  0.77034187  0.25414933
   0.73126026  0.50398560  0.25677238
   0.01984249  0.00244443  0.49927648
   0.50315952  0.51345701  0.48798795
   0.75551994  0.51723351  0.76520072
   0.74000031  0.73462619  0.49206202
HECN                                    
           1
     8.773698    0.027586   -0.007081
     0.034017    8.766768    0.000412
     0.024424   -0.014990    8.769438
   Hf   Nb   Ti   N    C    Cr   Mo
     7     6     7    13    19     6     6
Direct configuration=    10
   0.99954086  0.99896398  0.99493965
   0.26935919  0.00042014  0.24487206
   0.24174102  0.49489147  0.24426009
   0.50083447  0.50019551  0.00015267
   0.50614298  0.24464603  0.74395307
   0.99778707  0.50320895  0.49840722
   0.49471850  0.75931479  0.74991878
   0.99009216  0.23651081  0.25436574
   0.75727312  0.74724717  0.00973892
   0.00101884  0.25387922  0.74879590
   0.75118599  0.25103109  0.49973132
   0.00103542  0.74878006  0.75129583
   0.25085585  0.49607155  0.74819224
   0.25576163  0.24288259  0.98981852
   0.50817389  0.25303430  0.25130375
   0.73884601  0.99321438  0.26940367
   0.74618149  0.24631000  0.99891338
   0.24681372  0.74893347  0.99943733
   0.25145049  0.24745916  0.50446887
   0.25058338  0.75156142  0.49834372
   0.25406716  0.24700715  0.24678619
   0.25424763  0.00170182  0.99604580
   0.00223021  0.25108546  0.00032578
   0.74341609  0.24224905  0.24704737
   0.74672963  0.00273738  0.00287857
   0.51033524  0.00260552  0.25866177
   0.99408031  0.49554897  0.24564072
   0.49880413  0.76059407  0.00187918
   0.98939391  0.00446529  0.74565872
   0.75203264  0.24394842  0.75575002
   0.75282655  0.00307666  0.49812178
   0.49607249  0.24640970  0.49338022
   0.52142644  0.00146848  0.74471529
   0.99896077  0.99933641  0.25056494
   0.50264450  0.23944076  0.00183620
   0.25878855  0.74872933  0.24724473
   0.24233803  0.49981380  0.99466225
   0.00554605  0.74159665  0.00351657
   0.74475230  0.74915396  0.25437801
   0.76181061  0.49459531  0.00963739
   0.49394031  0.49723493  0.24937112
   0.25143631  0.24412202  0.74759330
   0.25807167  0.00051056  0.50995894
   0.00465856  0.25015116  0.50071995
   0.24544214  0.76001756  0.74883913
   0.25117400  0.50198083  0.49720418
   0.99975317  0.75690055  0.49949311
   0.00066188  0.50255755  0.75284630
   0.74870872  0.75764056  0.75003036
   0.74507142  0.49784229  0.50947816
   0.49648872  0.76486938  0.48857869
   0.50332988  0.50256580  0.74564108
   0.52354618  0.00871305  0.97198564
   0.99491836  0.50993838  0.97930244
   0.49959966  0.72797696  0.26285231
   0.22325293  0.01268440  0.73671915
   0.47611072  0.99390998  0.51519433
   0.73752614  0.97406917  0.77965743
   0.00663595  0.77036577  0.25414925
   0.73126882  0.50398646  0.25677970
   0.01985463  0.00245583  0.49928360
   0.50313427  0.51346136  0.48798842
   0.75552283  0.51727100  0.76521494
   0.73999378  0.73465390  0.49207436
HECN                                    
           1
     8.779170    0.027848   -0.007305
     0.034278    8.774111    0.000982
     0.024220   -0.014432    8.777856
   Hf   Nb   Ti   N    C    Cr   Mo
     7     6     7    13    19     6     6
Direct configuration=    11
   0.99991630  0.99906988  0.99553082
   0.26929518  0.00030044  0.24525905
   0.24215631  0.49498471  0.24455450
   0.50071855  0.50039743  0.00050420
   0.50635752  0.24500668  0.74350319
   0.99795645  0.50338273  0.49874206
   0.49517081  0.75914702  0.74935092
   0.99025477  0.23615766  0.25418206
   0.75738200  0.74705592  0.00977363
   0.00099866  0.25372426  0.74886762
   0.75160087  0.25116412  0.49952372
   0.00046628  0.74864966  0.75164579
   0.25108183  0.49584212  0.74817410
   0.25584058  0.24259858  0.98995298
   0.50766345  0.25335907  0.25132223
   0.73866859  0.99328310  0.26830434
   0.74545999  0.24621729  0.99914807
   0.24673967  0.74899947  0.99938517
   0.25146321  0.24726707  0.50455872
   0.25046637  0.75177899  0.49872584
   0.25408677  0.24708892  0.24684431
   0.25413595  0.00177696  0.99595038
   0.00231144  0.25171999  0.00035558
   0.74333464  0.24241090  0.24659457
   0.74708995  0.00278605  0.00359350
   0.51002862  0.00329652  0.25853300
   0.99429216  0.49631779  0.24589797
   0.49858635  0.76066573  0.00150760
   0.98948634  0.00434968  0.74542964
   0.75208945  0.24463563  0.75538279
   0.75351650  0.00341333  0.49662157
   0.49645470  0.24638892  0.49323232
   0.52087046  0.00139931  0.74468722
   0.99899871  0.99959620  0.25101997
   0.50225506  0.23942513  0.00177719
   0.25874703  0.74868052  0.24738382
   0.24197263  0.49966433  0.99492747
   0.00554756  0.74210980  0.00405585
   0.74308997  0.74913195  0.25391352
   0.76196532  0.49467234  0.00901510
   0.49402985  0.49720013  0.24942241
   0.25150204  0.24382347  0.74777246
   0.25750849  0.00047933  0.50992130
   0.00493824  0.24952213  0.50084018
   0.24524159  0.76021408  0.74918353
   0.25246916  0.50179693  0.49758188
   0.00017999  0.75711146  0.49915876
   0.00036671  0.50220934  0.75315048
   0.74871511  0.75774399  0.74929159
   0.74587883  0.49808813  0.50832228
   0.49720413  0.76430515  0.48851711
   0.50349330  0.50252396  0.74518078
   0.52334058  0.00865761  0.97235257
   0.99556990  0.51023043  0.97959853
   0.49798032  0.72769527  0.26370803
   0.22312685  0.01245038  0.73688713
   0.47618676  0.99399585  0.51569844
   0.73711146  0.97426043  0.78052684
   0.00629028  0.76951462  0.25426357
   0.73186151  0.50421099  0.25663110
   0.01928311  0.00203017  0.49892779
   0.50344405  0.51333856  0.48856421
   0.75528904  0.51626901  0.76481720
   0.74047212  0.73441213  0.49194956
HECN                                    
           1
     8.780232    0.027899   -0.007348
     0.034328    8.775537    0.001092
     0.024180   -0.014324    8.779490
   Hf   Nb   Ti   N    C    Cr   Mo