       N       E                     dE             d eps       ncg     rms          rms(c)
DAV:   1     0.485911421364E+04    0.48591E+04   -0.21690E+05  8624   0.135E+03
DAV:   2    -0.124553079429E+03   -0.49837E+04   -0.47373E+04  9268   0.541E+02
DAV:   3    -0.751496081402E+03   -0.62694E+03   -0.60748E+03 13916   0.161E+02
DAV:   4    -0.791207228923E+03   -0.39711E+02   -0.39049E+02 14000   0.448E+01
DAV:   5    -0.795016438444E+03   -0.38092E+01   -0.37912E+01 16520   0.126E+01    0.664E+01
RMM:   6    -0.730605230452E+03    0.64411E+02   -0.11054E+03 11511   0.640E+01    0.743E+01
RMM:   7    -0.676125538789E+03    0.54480E+02   -0.21508E+02 11090   0.359E+01    0.360E+01
RMM:   8    -0.660077569636E+03    0.16048E+02   -0.66386E+01 13322   0.151E+01    0.114E+01
RMM:   9    -0.659670462642E+03    0.40711E+00   -0.19996E+01 13464   0.696E+00    0.946E+00
RMM:  10    -0.659565337505E+03    0.10513E+00   -0.59111E+00 13404   0.517E+00    0.966E+00
RMM:  11    -0.658819910280E+03    0.74543E+00   -0.43817E+00 12953   0.397E+00    0.462E+00
RMM:  12    -0.659244480724E+03   -0.42457E+00   -0.27639E+00 13475   0.289E+00    0.711E+00
RMM:  13    -0.659006697098E+03    0.23778E+00   -0.11364E+00 13854   0.219E+00    0.314E+00
RMM:  14    -0.658924361046E+03    0.82336E-01   -0.83625E-01 13659   0.132E+00    0.196E+00
RMM:  15    -0.658934532773E+03   -0.10172E-01   -0.57139E-01 14295   0.106E+00    0.144E+00
RMM:  16    -0.658953612760E+03   -0.19080E-01   -0.53123E-01 13886   0.101E+00    0.883E-01
RMM:  17    -0.658983264761E+03   -0.29652E-01   -0.29618E-01 14197   0.807E-01    0.114E+00
RMM:  18    -0.658990750431E+03   -0.74857E-02   -0.16916E-01 13883   0.689E-01    0.616E-01
RMM:  19    -0.658998153925E+03   -0.74035E-02   -0.12452E-01 14215   0.499E-01    0.523E-01
RMM:  20    -0.659004079136E+03   -0.59252E-02   -0.90042E-02 14674   0.406E-01    0.260E-01
RMM:  21    -0.659009727241E+03   -0.56481E-02   -0.63820E-02 14783   0.333E-01    0.173E-01
RMM:  22    -0.659014223680E+03   -0.44964E-02   -0.47419E-02 15022   0.280E-01    0.151E-01
RMM:  23    -0.659017318294E+03   -0.30946E-02   -0.31381E-02 14675   0.243E-01    0.154E-01
RMM:  24    -0.659019553310E+03   -0.22350E-02   -0.24258E-02 14649   0.208E-01    0.909E-02
RMM:  25    -0.659021030133E+03   -0.14768E-02   -0.17490E-02 14488   0.184E-01    0.548E-02
RMM:  26    -0.659022360773E+03   -0.13306E-02   -0.13913E-02 14200   0.159E-01    0.416E-02
RMM:  27    -0.659023292071E+03   -0.93130E-03   -0.95413E-03 14033   0.139E-01    0.241E-02
RMM:  28    -0.659024035219E+03   -0.74315E-03   -0.76385E-03 13702   0.121E-01    0.241E-02
RMM:  29    -0.659024589917E+03   -0.55470E-03   -0.56580E-03 13471   0.107E-01    0.166E-02
RMM:  30    -0.659024978308E+03   -0.38839E-03   -0.38745E-03 13477   0.953E-02    0.281E-02
RMM:  31    -0.659025318372E+03   -0.34006E-03   -0.36433E-03 13377   0.865E-02    0.447E-02
RMM:  32    -0.659025532794E+03   -0.21442E-03   -0.22456E-03 13077   0.752E-02    0.232E-02
RMM:  33    -0.659025731536E+03   -0.19874E-03   -0.20508E-03 13216   0.672E-02    0.305E-02
RMM:  34    -0.659025860886E+03   -0.12935E-03   -0.13484E-03 12826   0.591E-02    0.356E-02
RMM:  35    -0.659025979987E+03   -0.11910E-03   -0.12062E-03 12780   0.546E-02    0.738E-02
RMM:  36    -0.659026064613E+03   -0.84626E-04   -0.88248E-04 12689   0.490E-02    0.803E-02
RMM:  37    -0.659026132740E+03   -0.68127E-04   -0.69519E-04 12415   0.443E-02    0.945E-02
RMM:  38    -0.659026174511E+03   -0.41770E-04   -0.49906E-04 12033   0.400E-02    0.834E-02
RMM:  39    -0.659026223960E+03   -0.49450E-04   -0.46163E-04 12015   0.377E-02    0.103E-01
RMM:  40    -0.659026256502E+03   -0.32542E-04   -0.34870E-04 11464   0.333E-02    0.105E-01
RMM:  41    -0.659026282793E+03   -0.26291E-04   -0.28169E-04 11008   0.308E-02    0.109E-01
RMM:  42    -0.659026302717E+03   -0.19924E-04   -0.21734E-04 10120   0.288E-02    0.110E-01
RMM:  43    -0.659026319904E+03   -0.17187E-04   -0.18242E-04  9737   0.275E-02    0.114E-01
RMM:  44    -0.659026333652E+03   -0.13748E-04   -0.14697E-04  9030   0.252E-02    0.116E-01
RMM:  45    -0.659026345137E+03   -0.11485E-04   -0.12624E-04  8696   0.243E-02    0.118E-01
RMM:  46    -0.659026353871E+03   -0.87346E-05   -0.99904E-05  8127   0.230E-02
   1 F= -.65902635E+03 E0= -.65897844E+03  d E =-.659026E+03
       N       E                     dE             d eps       ncg     rms          rms(c)
DAV:   1    -0.659109590329E+03   -0.83245E-01   -0.24466E+00 11172   0.550E+00    0.269E+00
RMM:   2    -0.659593741608E+03   -0.48415E+00   -0.98858E-01  9694   0.278E+00    0.749E+00
RMM:   3    -0.659054022439E+03    0.53972E+00   -0.22749E-01  9245   0.154E+00    0.184E+00
RMM:   4    -0.659031856533E+03    0.22166E-01   -0.46608E-02 11322   0.687E-01    0.972E-01
RMM:   5    -0.659020801067E+03    0.11055E-01   -0.24972E-02 11382   0.391E-01    0.471E-01
RMM:   6    -0.659021788919E+03   -0.98785E-03   -0.93233E-03 11899   0.237E-01    0.629E-01
RMM:   7    -0.659019324355E+03    0.24646E-02   -0.39824E-03 11948   0.160E-01    0.187E-01
RMM:   8    -0.659019192708E+03    0.13165E-03   -0.13259E-03 13640   0.791E-02    0.160E-01
RMM:   9    -0.659019075586E+03    0.11712E-03   -0.52340E-04 13047   0.528E-02    0.769E-02
RMM:  10    -0.659019101217E+03   -0.25632E-04   -0.28223E-04 12654   0.353E-02    0.623E-02
RMM:  11    -0.659019124231E+03   -0.23013E-04   -0.19112E-04 11680   0.281E-02    0.530E-02
RMM:  12    -0.659019148001E+03   -0.23770E-04   -0.12673E-04 11095   0.236E-02    0.226E-02
RMM:  13    -0.659019168157E+03   -0.20157E-04   -0.92293E-05  9866   0.193E-02    0.236E-02
RMM:  14    -0.659019172522E+03   -0.43647E-05   -0.51532E-05  8266   0.181E-02
   2 F= -.65901917E+03 E0= -.65897168E+03  d E =0.718135E-02
       N       E                     dE             d eps       ncg     rms          rms(c)
DAV:   1    -0.659075044204E+03   -0.55876E-01   -0.11781E+00 11144   0.380E+00    0.195E+00
RMM:   2    -0.659329328871E+03   -0.25428E+00   -0.45691E-01  9817   0.187E+00    0.505E+00
RMM:   3    -0.659040817974E+03    0.28851E+00   -0.12083E-01  9165   0.110E+00    0.107E+00
RMM:   4    -0.659036030858E+03    0.47871E-02   -0.22725E-02 11268   0.478E-01    0.798E-01
RMM:   5    -0.659029401922E+03    0.66289E-02   -0.11530E-02 11474   0.257E-01    0.353E-01
RMM:   6    -0.659029899659E+03   -0.49774E-03   -0.44239E-03 11693   0.166E-01    0.474E-01
RMM:   7    -0.659028372038E+03    0.15276E-02   -0.20357E-03 11385   0.116E-01    0.120E-01
RMM:   8    -0.659028312343E+03    0.59695E-04   -0.65900E-04 13030   0.571E-02    0.120E-01
RMM:   9    -0.659028230987E+03    0.81356E-04   -0.23933E-04 11418   0.387E-02    0.610E-02
RMM:  10    -0.659028201234E+03    0.29753E-04   -0.12134E-04 10851   0.241E-02    0.374E-02
RMM:  11    -0.659028200617E+03    0.61699E-06   -0.74330E-05  8982   0.199E-02
   3 F= -.65902820E+03 E0= -.65898045E+03  d E =-.184675E-02
       N       E                     dE             d eps       ncg     rms          rms(c)
DAV:   1    -0.659028578557E+03   -0.37732E-03   -0.55038E-02 10360   0.780E-01    0.146E-01
RMM:   2    -0.659028797581E+03   -0.21902E-03   -0.42906E-03 11255   0.200E-01    0.194E-01
RMM:   3    -0.659028594367E+03    0.20321E-03   -0.10200E-03 11666   0.882E-02    0.124E-01
RMM:   4    -0.659028610406E+03   -0.16039E-04   -0.40853E-04 11145   0.484E-02    0.146E-01
RMM:   5    -0.659028393651E+03    0.21675E-03   -0.19210E-04  8641   0.380E-02    0.270E-02
RMM:   6    -0.659028402171E+03   -0.85199E-05   -0.79933E-05  9033   0.217E-02
   4 F= -.65902840E+03 E0= -.65898056E+03  d E =-.201554E-03
       N       E                     dE             d eps       ncg     rms          rms(c)
DAV:   1    -0.659028396304E+03   -0.26525E-05   -0.35714E-04 12544   0.610E-02    0.205E-02
RMM:   2    -0.659028445297E+03   -0.48994E-04   -0.77623E-05  7642   0.224E-02    0.799E-02
RMM:   3    -0.659028393400E+03    0.51898E-04   -0.23222E-05  5794   0.168E-02    0.138E-02
RMM:   4    -0.659028391364E+03    0.20360E-05   -0.41605E-06  5204   0.909E-03
   5 F= -.65902839E+03 E0= -.65898056E+03  d E =-.190746E-03
       N       E                     dE             d eps       ncg     rms          rms(c)
DAV:   1    -0.659028392538E+03    0.86118E-06   -0.24687E-04 11088   0.524E-02    0.162E-02
RMM:   2    -0.659028415780E+03   -0.23241E-04   -0.37326E-05  6327   0.186E-02    0.582E-02
RMM:   3    -0.659028390442E+03    0.25337E-04   -0.11465E-05  5376   0.136E-02    0.961E-03
RMM:   4    -0.659028390491E+03   -0.48465E-07   -0.32498E-06  4795   0.799E-03
   6 F= -.65902839E+03 E0= -.65898056E+03  d E =-.189874E-03
       N       E                     dE             d eps       ncg     rms          rms(c)
DAV:   1    -0.659028166246E+03    0.22420E-03   -0.29172E-02  9800   0.629E-01    0.707E-02
RMM:   2    -0.659028657259E+03   -0.49101E-03   -0.34363E-03 11069   0.172E-01    0.156E-01
RMM:   3    -0.659028468031E+03    0.18923E-03   -0.75258E-04 11257   0.735E-02    0.492E-02
RMM:   4    -0.659028476299E+03   -0.82685E-05   -0.13706E-04 10303   0.291E-02    0.500E-02
RMM:   5    -0.659028454734E+03    0.21566E-04   -0.43194E-05  6857   0.196E-02    0.158E-02
RMM:   6    -0.659028457513E+03   -0.27787E-05   -0.21969E-05  5951   0.132E-02
   7 F= -.65902846E+03 E0= -.65898061E+03  d E =-.670218E-04
