 vasp.6.4.3 19Mar24 (build Sep 18 2024 11:30:23) complex                        
  
 executed on             LinuxIFC date 2026.07.03  21:09:42
 running   28 mpi-ranks, on    1 nodes
 distrk:  each k-point on   28 cores,    1 groups
 distr:  one band on NCORE=   1 cores,   28 groups


--------------------------------------------------------------------------------------------------------


 INCAR:
   SYSTEM = HECN
   ISTART = 0
   ICHARG = 2
   PREC = Normal
   LREAL = .F.
   IBRION = 2
   ISIF = 3
   NSW = 100
   POTIM = 0.5
   EDIFFG = -0.01
   ENCUT = 400
   NELM = 60
   EDIFF = 1E-5
   LCHARG = .F.
   LWAVE = .F.
   ISMEAR = 0
   SIGMA = 0.1
   ALGO = Fast

 POTCAR:   PAW_PBE Hf_pv 06Sep2000                
 POTCAR:   PAW_PBE Nb_sv 17Jan2003                
 POTCAR:   PAW_PBE V_sv 07Sep2000                 
 POTCAR:   PAW_PBE N 08Apr2002                    
 POTCAR:   PAW_PBE C 08Apr2002                    
 POTCAR:   PAW_PBE Mo 08Apr2002                   
 POTCAR:   PAW_PBE Ta_pv 07Sep2000                
 -----------------------------------------------------------------------------
|                                                                             |
|           W    W    AA    RRRRR   N    N  II  N    N   GGGG   !!!           |
|           W    W   A  A   R    R  NN   N  II  NN   N  G    G  !!!           |
|           W    W  A    A  R    R  N N  N  II  N N  N  G       !!!           |
|           W WW W  AAAAAA  RRRRR   N  N N  II  N  N N  G  GGG   !            |
|           WW  WW  A    A  R   R   N   NN  II  N   NN  G    G                |
|           W    W  A    A  R    R  N    N  II  N    N   GGGG   !!!           |
|                                                                             |
|     For optimal performance we recommend to set                             |
|       NCORE = 2 up to number-of-cores-per-socket                            |
|     NCORE specifies how many cores store one orbital (NPAR=cpu/NCORE).      |
|     This setting can greatly improve the performance of VASP for DFT.       |
|     The default, NCORE=1 might be grossly inefficient on modern             |
|     multi-core architectures or massively parallel machines. Do your        |
|     own testing! More info at https://www.vasp.at/wiki/index.php/NCORE      |
|     Unfortunately you need to use the default for GW and RPA                |
|     calculations (for HF NCORE is supported but not extensively tested      |
|     yet).                                                                   |
|                                                                             |
 -----------------------------------------------------------------------------

 POTCAR:   PAW_PBE Hf_pv 06Sep2000                
   VRHFIN =Hf: 5p6s5d                                                                               
   LEXCH  = PE                                                                                      
   EATOM  =   859.6195 eV,   63.1803 Ry                                                             
                                                                                                    
   TITEL  = PAW_PBE Hf_pv 06Sep2000                                                                 
   LULTRA =        F    use ultrasoft PP ?                                                          
   IUNSCR =        1    unscreen: 0-lin 1-nonlin 2-no                                               
   RPACOR =    2.500    partial core radius                                                         
   POMASS =  178.490; ZVAL   =   10.000    mass and valenz                                          
   RCORE  =    2.600    outmost cutoff radius                                                       
   RWIGS  =    3.050; RWIGS  =    1.614    wigner-seitz radius (au A)                               
   ENMAX  =  220.342; ENMIN  =  165.256 eV                                                          
   RCLOC  =    2.212    cutoff for local pot                                                        
   LCOR   =        T    correct aug charges                                                         
   LPAW   =        T    paw PP                                                                      
   EAUG   =  380.878                                                                                
   DEXC   =    -.057                                                                                
   RMAX   =    3.106    core radius for proj-oper                                                   
   RAUG   =    1.300    factor for augmentation sphere                                              
   RDEP   =    2.681    radius for radial grids                                                     
   QCUT   =   -4.024; QGAM   =    8.049    optimization parameters                                  
                                                                                                    
   Description                                                                                      
     l     E      TYP  RCUT    TYP  RCUT                                                            
     1   .000     23  2.500                                                                         
     1   .000     23  2.500                                                                         
     2   .000     23  2.500                                                                         
     2   .000     23  2.500                                                                         
     0   .000     23  2.600                                                                         
     0   .000     23  2.600                                                                         
     3   .000      7   .000                                                                         
  local pseudopotential read in
  partial core-charges read in
  atomic valenz-charges read in
  non local Contribution for L=           1  read in
    real space projection operators read in
  non local Contribution for L=           1  read in
    real space projection operators read in
  non local Contribution for L=           2  read in
    real space projection operators read in
  non local Contribution for L=           2  read in
    real space projection operators read in
  non local Contribution for L=           0  read in
    real space projection operators read in
  non local Contribution for L=           0  read in
    real space projection operators read in
    PAW grid and wavefunctions read in
 
   number of l-projection  operators is LMAX  =           6
   number of lm-projection operators is LMMAX =          18
 
 POTCAR:   PAW_PBE Nb_sv 17Jan2003                
   VRHFIN =Nb: 4p5s4d                                                                               
   LEXCH  = PE                                                                                      
   EATOM  =  1555.1913 eV,  114.3033 Ry                                                             
                                                                                                    
   TITEL  = PAW_PBE Nb_sv 17Jan2003                                                                 
   LULTRA =        F    use ultrasoft PP ?                                                          
   IUNSCR =        1    unscreen: 0-lin 1-nonlin 2-no                                               
   RPACOR =    1.800    partial core radius                                                         
   POMASS =   92.910; ZVAL   =   13.000    mass and valenz                                          
   RCORE  =    2.200    outmost cutoff radius                                                       
   RWIGS  =    2.400; RWIGS  =    1.270    wigner-seitz radius (au A)                               
   ENMAX  =  293.235; ENMIN  =  219.927 eV                                                          
   RCLOC  =    1.411    cutoff for local pot                                                        
   LCOR   =        T    correct aug charges                                                         
   LPAW   =        T    paw PP                                                                      
   EAUG   =  455.659                                                                                
   DEXC   =     .000                                                                                
   RMAX   =    2.693    core radius for proj-oper                                                   
   RAUG   =    1.300    factor for augmentation sphere                                              
   RDEP   =    2.299    radius for radial grids                                                     
   QCUT   =   -4.642; QGAM   =    9.285    optimization parameters                                  
                                                                                                    
   Description                                                                                      
     l     E      TYP  RCUT    TYP  RCUT                                                            
     0   .000     23  2.200                                                                         
     0   .000     23  2.200                                                                         
     0   .000     23  2.200                                                                         
     0   .000     23  2.200                                                                         
     1   .000     23  2.200                                                                         
     1  1.000     23  2.200                                                                         
     2   .000     23  2.200                                                                         
     2   .000     23  2.200                                                                         
     3   .000      7   .000                                                                         
  local pseudopotential read in
  partial core-charges read in
  atomic valenz-charges read in
  non local Contribution for L=           0  read in
    real space projection operators read in
  non local Contribution for L=           0  read in
    real space projection operators read in
  non local Contribution for L=           1  read in
    real space projection operators read in
  non local Contribution for L=           1  read in
    real space projection operators read in
  non local Contribution for L=           2  read in
    real space projection operators read in
  non local Contribution for L=           2  read in
    real space projection operators read in
    PAW grid and wavefunctions read in
 
   number of l-projection  operators is LMAX  =           6
   number of lm-projection operators is LMMAX =          18
 
 POTCAR:   PAW_PBE V_sv 07Sep2000                 
   VRHFIN =V: p6 d4 s1                                                                              
   LEXCH  = PE                                                                                      
   EATOM  =  1951.3925 eV,  143.4233 Ry                                                             
                                                                                                    
   TITEL  = PAW_PBE V_sv 07Sep2000                                                                  
   LULTRA =        F    use ultrasoft PP ?                                                          
   IUNSCR =        1    unscreen: 0-lin 1-nonlin 2-no                                               
   RPACOR =    2.000    partial core radius                                                         
   POMASS =   50.941; ZVAL   =   13.000    mass and valenz                                          
   RCORE  =    2.300    outmost cutoff radius                                                       
   RWIGS  =    2.300; RWIGS  =    1.217    wigner-seitz radius (au A)                               
   ENMAX  =  263.675; ENMIN  =  197.756 eV                                                          
   RCLOC  =    1.779    cutoff for local pot                                                        
   LCOR   =        T    correct aug charges                                                         
   LPAW   =        T    paw PP                                                                      
   EAUG   =  526.568                                                                                
   DEXC   =     .000                                                                                
   RMAX   =    2.839    core radius for proj-oper                                                   
   RAUG   =    1.300    factor for augmentation sphere                                              
   RDEP   =    2.430    radius for radial grids                                                     
   QCUT   =   -4.402; QGAM   =    8.804    optimization parameters                                  
                                                                                                    
   Description                                                                                      
     l     E      TYP  RCUT    TYP  RCUT                                                            
     0   .000     23  1.800                                                                         
     0   .000     23  2.300                                                                         
     0   .000     23  1.800                                                                         
     0   .000     23  2.300                                                                         
     1   .000     23  2.000                                                                         
     1   .400     23  2.000                                                                         
     2   .000     23  2.300                                                                         
     2   .000     23  2.300                                                                         
     3   .000      7   .000                                                                         
  local pseudopotential read in
  partial core-charges read in
  atomic valenz-charges read in
  non local Contribution for L=           0  read in
    real space projection operators read in
  non local Contribution for L=           0  read in
    real space projection operators read in
  non local Contribution for L=           1  read in
    real space projection operators read in
  non local Contribution for L=           1  read in
    real space projection operators read in
  non local Contribution for L=           2  read in
    real space projection operators read in
  non local Contribution for L=           2  read in
    real space projection operators read in
    PAW grid and wavefunctions read in
 
   number of l-projection  operators is LMAX  =           6
   number of lm-projection operators is LMMAX =          18
 
 POTCAR:   PAW_PBE N 08Apr2002                    
   VRHFIN =N: s2p3                                                                                  
   LEXCH  = PE                                                                                      
   EATOM  =   264.5486 eV,   19.4438 Ry                                                             
                                                                                                    
   TITEL  = PAW_PBE N 08Apr2002                                                                     
   LULTRA =        F    use ultrasoft PP ?                                                          
   IUNSCR =        0    unscreen: 0-lin 1-nonlin 2-no                                               
   RPACOR =     .000    partial core radius                                                         
   POMASS =   14.001; ZVAL   =    5.000    mass and valenz                                          
   RCORE  =    1.500    outmost cutoff radius                                                       
   RWIGS  =    1.400; RWIGS  =     .741    wigner-seitz radius (au A)                               
   ENMAX  =  400.000; ENMIN  =  300.000 eV                                                          
   ICORE  =        2    local potential                                                             
   LCOR   =        T    correct aug charges                                                         
   LPAW   =        T    paw PP                                                                      
   EAUG   =  627.112                                                                                
   DEXC   =     .000                                                                                
   RMAX   =    2.247    core radius for proj-oper                                                   
   RAUG   =    1.300    factor for augmentation sphere                                              
   RDEP   =    1.514    radius for radial grids                                                     
   QCUT   =   -5.562; QGAM   =   11.124    optimization parameters                                  
                                                                                                    
   Description                                                                                      
     l     E      TYP  RCUT    TYP  RCUT                                                            
     0   .000     23  1.200                                                                         
     0   .000     23  1.200                                                                         
     1   .000     23  1.500                                                                         
     1   .700     23  1.500                                                                         
     2   .000      7  1.500                                                                         
  local pseudopotential read in
  atomic valenz-charges read in
  non local Contribution for L=           0  read in
    real space projection operators read in
  non local Contribution for L=           0  read in
    real space projection operators read in
  non local Contribution for L=           1  read in
    real space projection operators read in
  non local Contribution for L=           1  read in
    real space projection operators read in
    PAW grid and wavefunctions read in
 
   number of l-projection  operators is LMAX  =           4
   number of lm-projection operators is LMMAX =           8
 
 POTCAR:   PAW_PBE C 08Apr2002                    
   VRHFIN =C: s2p2                                                                                  
   LEXCH  = PE                                                                                      
   EATOM  =   147.1560 eV,   10.8157 Ry                                                             
                                                                                                    
   TITEL  = PAW_PBE C 08Apr2002                                                                     
   LULTRA =        F    use ultrasoft PP ?                                                          
   IUNSCR =        0    unscreen: 0-lin 1-nonlin 2-no                                               
   RPACOR =     .000    partial core radius                                                         
   POMASS =   12.011; ZVAL   =    4.000    mass and valenz                                          
   RCORE  =    1.500    outmost cutoff radius                                                       
   RWIGS  =    1.630; RWIGS  =     .863    wigner-seitz radius (au A)                               
   ENMAX  =  400.000; ENMIN  =  300.000 eV                                                          
   ICORE  =        2    local potential                                                             
   LCOR   =        T    correct aug charges                                                         
   LPAW   =        T    paw PP                                                                      
   EAUG   =  644.873                                                                                
   DEXC   =     .000                                                                                
   RMAX   =    2.266    core radius for proj-oper                                                   
   RAUG   =    1.300    factor for augmentation sphere                                              
   RDEP   =    1.501    radius for radial grids                                                     
   RDEPT  =    1.300    core radius for aug-charge                                                  
   QCUT   =   -5.516; QGAM   =   11.032    optimization parameters                                  
                                                                                                    
   Description                                                                                      
     l     E      TYP  RCUT    TYP  RCUT                                                            
     0   .000     23  1.200                                                                         
     0   .000     23  1.200                                                                         
     1   .000     23  1.500                                                                         
     1  2.500     23  1.500                                                                         
     2   .000      7  1.500                                                                         
  local pseudopotential read in
  atomic valenz-charges read in
  non local Contribution for L=           0  read in
    real space projection operators read in
  non local Contribution for L=           0  read in
    real space projection operators read in
  non local Contribution for L=           1  read in
    real space projection operators read in
  non local Contribution for L=           1  read in
    real space projection operators read in
    PAW grid and wavefunctions read in
 
   number of l-projection  operators is LMAX  =           4
   number of lm-projection operators is LMMAX =           8
 
 POTCAR:   PAW_PBE Mo 08Apr2002                   
   VRHFIN =Mo: 4p5s4d                                                                               
   LEXCH  = PE                                                                                      
   EATOM  =   217.5180 eV,   15.9871 Ry                                                             
                                                                                                    
   TITEL  = PAW_PBE Mo 08Apr2002                                                                    
   LULTRA =        F    use ultrasoft PP ?                                                          
   IUNSCR =        1    unscreen: 0-lin 1-nonlin 2-no                                               
   RPACOR =    2.200    partial core radius                                                         
   POMASS =   95.940; ZVAL   =    6.000    mass and valenz                                          
   RCORE  =    2.750    outmost cutoff radius                                                       
   RWIGS  =    2.750; RWIGS  =    1.455    wigner-seitz radius (au A)                               
   ENMAX  =  224.584; ENMIN  =  168.438 eV                                                          
   RCLOC  =    2.111    cutoff for local pot                                                        
   LCOR   =        T    correct aug charges                                                         
   LPAW   =        T    paw PP                                                                      
   EAUG   =  345.278                                                                                
   DEXC   =    -.088                                                                                
   RMAX   =    3.077    core radius for proj-oper                                                   
   RAUG   =    1.300    factor for augmentation sphere                                              
   RDEP   =    2.815    radius for radial grids                                                     
   QCUT   =   -4.063; QGAM   =    8.126    optimization parameters                                  
                                                                                                    
   Description                                                                                      
     l     E      TYP  RCUT    TYP  RCUT                                                            
     2   .000     23  2.500                                                                         
     2   .000     23  2.500                                                                         
     0   .000     23  2.600                                                                         
     0  1.000     23  2.600                                                                         
     1   .400     23  2.750                                                                         
     1  2.000     23  2.750                                                                         
     3   .000      7   .000                                                                         
  local pseudopotential read in
  partial core-charges read in
  atomic valenz-charges read in
  non local Contribution for L=           2  read in
    real space projection operators read in
  non local Contribution for L=           2  read in
    real space projection operators read in
  non local Contribution for L=           0  read in
    real space projection operators read in
  non local Contribution for L=           0  read in
    real space projection operators read in
  non local Contribution for L=           1  read in
    real space projection operators read in
  non local Contribution for L=           1  read in
    real space projection operators read in
    PAW grid and wavefunctions read in
 
   number of l-projection  operators is LMAX  =           6
   number of lm-projection operators is LMMAX =          18
 
 POTCAR:   PAW_PBE Ta_pv 07Sep2000                
   VRHFIN =Ta:  5p6s5d                                                                              
   LEXCH  = PE                                                                                      
   EATOM  =  1045.8051 eV,   76.8645 Ry                                                             
                                                                                                    
   TITEL  = PAW_PBE Ta_pv 07Sep2000                                                                 
   LULTRA =        F    use ultrasoft PP ?                                                          
   IUNSCR =        1    unscreen: 0-lin 1-nonlin 2-no                                               
   RPACOR =    2.330    partial core radius                                                         
   POMASS =  180.948; ZVAL   =   11.000    mass and valenz                                          
   RCORE  =    2.500    outmost cutoff radius                                                       
   RWIGS  =    2.840; RWIGS  =    1.503    wigner-seitz radius (au A)                               
   ENMAX  =  223.675; ENMIN  =  167.756 eV                                                          
   RCLOC  =    2.205    cutoff for local pot                                                        
   LCOR   =        T    correct aug charges                                                         
   LPAW   =        T    paw PP                                                                      
   EAUG   =  377.421                                                                                
   DEXC   =    -.043                                                                                
   RMAX   =    3.083    core radius for proj-oper                                                   
   RAUG   =    1.300    factor for augmentation sphere                                              
   RDEP   =    2.526    radius for radial grids                                                     
   QCUT   =   -4.055; QGAM   =    8.109    optimization parameters                                  
                                                                                                    
   Description                                                                                      
     l     E      TYP  RCUT    TYP  RCUT                                                            
     1   .000     23  2.500                                                                         
     1   .100     23  2.500                                                                         
     2   .000     23  2.500                                                                         
     2   .000     23  2.500                                                                         
     0   .000     23  2.500                                                                         
     0   .000     23  2.500                                                                         
     3   .000      7   .000                                                                         
  local pseudopotential read in
  partial core-charges read in
  atomic valenz-charges read in
  non local Contribution for L=           1  read in
    real space projection operators read in
  non local Contribution for L=           1  read in
    real space projection operators read in
  non local Contribution for L=           2  read in
    real space projection operators read in
  non local Contribution for L=           2  read in
    real space projection operators read in
  non local Contribution for L=           0  read in
    real space projection operators read in
  non local Contribution for L=           0  read in
    real space projection operators read in
    PAW grid and wavefunctions read in
 
   number of l-projection  operators is LMAX  =           6
   number of lm-projection operators is LMMAX =          18
 
 -----------------------------------------------------------------------------
|                                                                             |
|               ----> ADVICE to this user running VASP <----                  |
|                                                                             |
|     You have a (more or less) 'large supercell' and for larger cells it     |
|     might be more efficient to use real-space projection operators.         |
|     Therefore, try LREAL= Auto in the INCAR file.                           |
|     Mind: If you want to do very accurate calculations, keep the            |
|     reciprocal projection scheme (i.e. LREAL=.FALSE.).                      |
|                                                                             |
 -----------------------------------------------------------------------------

 PAW_PBE Hf_pv 06Sep2000                :
 energy of atom  1       EATOM= -859.6195
 kinetic energy error for atom=    0.0038 (will be added to EATOM!!)
 PAW_PBE Nb_sv 17Jan2003                :
 energy of atom  2       EATOM=-1555.1913
 kinetic energy error for atom=    0.0212 (will be added to EATOM!!)
 PAW_PBE V_sv 07Sep2000                 :
 energy of atom  3       EATOM=-1951.3925
 kinetic energy error for atom=    0.0321 (will be added to EATOM!!)
 PAW_PBE N 08Apr2002                    :
 energy of atom  4       EATOM= -264.5486
 kinetic energy error for atom=    0.0736 (will be added to EATOM!!)
 PAW_PBE C 08Apr2002                    :
 energy of atom  5       EATOM= -147.1560
 kinetic energy error for atom=    0.0288 (will be added to EATOM!!)
 PAW_PBE Mo 08Apr2002                   :
 energy of atom  6       EATOM= -217.5180
 kinetic energy error for atom=    0.0025 (will be added to EATOM!!)
 PAW_PBE Ta_pv 07Sep2000                :
 energy of atom  7       EATOM=-1045.8051
 kinetic energy error for atom=    0.0046 (will be added to EATOM!!)
 
 
 POSCAR: 51-HfVNbTaMo
  positions in direct lattice
  velocities in cartesian coordinates


 exchange-correlation table for PE
   RHO(1)=    0.500       N(1)  =     2000
   RHO(2)=  100.500       N(2)  =     4000
 


--------------------------------------------------------------------------------------------------------


 ion  position               nearest neighbor table
   1  0.007  0.007  0.997-  23 2.16  22 2.20  29 2.21  25 2.22  38 2.27  34 2.28  56 3.04   8 3.06
                            10 3.11  12 3.12  58 3.13  59 3.14  18 3.15   9 3.15   2 3.16  14 3.18
   2  0.266  0.007  0.241-  21 2.14  22 2.18  26 2.18  36 2.26  43 2.26  34 2.36  57 3.01  55 3.09
                            20 3.13   8 3.14  15 3.14  59 3.16   1 3.16  53 3.20  19 3.20  61 3.22
   3  0.249  0.493  0.252-  21 2.15  46 2.21  27 2.22  37 2.24  41 2.24  36 2.27  18 3.06  14 3.09
                             6 3.10  62 3.12   4 3.12  55 3.13  15 3.13   8 3.18  20 3.19  59 3.20
   4  0.499  0.501  0.001-  35 2.23  37 2.23  28 2.23  41 2.24  40 2.25  52 2.26  14 3.00  15 3.02
                            17 3.02  63 3.09  18 3.11  60 3.12   3 3.12  55 3.14   7 3.15  13 3.15
   5  0.500  0.241  0.747-  33 2.13  30 2.21  42 2.23  35 2.26  32 2.27  52 2.28  53 2.94  14 3.00
                            58 3.06  17 3.08  19 3.12  56 3.17  62 3.17  13 3.20   4 3.20  11 3.21
   6  0.002  0.501  0.503-  48 2.19  44 2.23  46 2.23  47 2.24  27 2.24  50 2.26  19 3.08  10 3.09
                            13 3.10   3 3.10  12 3.11  63 3.14  11 3.16   8 3.18  60 3.20  64 3.20
   7  0.492  0.759  0.756-  33 2.14  28 2.19  45 2.20  51 2.24  49 2.26  52 2.29  58 2.92  53 3.01
                            56 3.10  20 3.10  13 3.14   4 3.15  18 3.17  64 3.18  63 3.19  62 3.20
   8  0.995  0.237  0.256-  34 2.10  44 2.18  24 2.21  21 2.23  23 2.25  27 2.31  11 2.94  61 3.05
                             1 3.06   2 3.14  60 3.18   6 3.18   3 3.18
   9  0.759  0.752  0.005-  38 2.16  39 2.20  49 2.24  25 2.26  40 2.29  28 2.32  58 2.90  54 3.07
                            63 3.10  53 3.10  59 3.11  60 3.11   1 3.15   4 3.19  55 3.23   7 3.24
  10  0.002  0.255  0.749-  42 2.17  48 2.18  44 2.19  29 2.22  30 2.23  23 2.24  19 2.90  54 3.04
                            56 3.06  61 3.09   6 3.09   1 3.11  63 3.13
  11  0.757  0.242  0.489-  31 2.16  44 2.19  24 2.21  32 2.26  50 2.26  30 2.33  16 2.87   8 2.94
                            61 3.12  60 3.13  57 3.15   6 3.16   5 3.21  62 3.23  63 3.29
  12  0.001  0.749  0.754-  45 2.15  48 2.18  38 2.21  49 2.24  47 2.24  29 2.25  54 3.02  56 3.03
                            63 3.10   6 3.11   1 3.12  61 3.14  58 3.16  64 3.23
  13  0.247  0.501  0.751-  48 2.20  37 2.21  46 2.21  45 2.22  42 2.23  52 2.24  14 2.92  54 3.01
                             6 3.10  62 3.11   7 3.14   4 3.15   5 3.20
  14  0.254  0.268  0.983-  37 2.04  42 2.06  35 2.11  23 2.27  22 2.34  13 2.92   4 3.00   5 3.00
                            54 3.04   3 3.09   1 3.18   2 3.26
  15  0.516  0.259  0.239-  24 2.05  41 2.08  35 2.11  32 2.24  26 2.25  17 2.74  60 2.96   4 3.02
                            53 3.13   3 3.13  62 3.14   2 3.14
  16  0.738  0.997  0.275-  26 2.03  31 2.12  39 2.16  24 2.20  25 2.30  34 2.32  57 2.69  11 2.87
                            64 2.92  55 3.09  59 3.16  61 3.21
  17  0.725  0.245  0.010-  24 2.05  35 2.08  25 2.10  40 2.20  30 2.29  15 2.74  53 2.75   4 3.02
                            58 3.07  60 3.08   5 3.08  63 3.24   1 3.25
  18  0.231  0.729  0.001-  38 2.02  37 2.04  36 2.18  45 2.22  54 2.84  59 2.98   3 3.06   4 3.11
                             1 3.15   7 3.17   2 3.25
  19  0.235  0.242  0.517-  44 2.05  42 2.08  43 2.13  46 2.26  61 2.88  10 2.90  56 2.92   6 3.08
                             5 3.12   2 3.20   3 3.24  62 3.25
  20  0.260  0.762  0.495-  51 2.08  43 2.13  36 2.21  47 2.27  45 2.28  46 2.33  55 2.94  57 2.97
                            56 2.99  61 3.03   7 3.10  62 3.11  59 3.12   2 3.13   3 3.19   6 3.24
  21  0.247  0.249  0.248-   2 2.14   3 2.15   8 2.23
  22  0.256  0.003  0.996-   2 2.18   1 2.20  56 2.29  14 2.34  53 2.35
  23  0.999  0.252  0.002-   1 2.16  54 2.22  10 2.24   8 2.25  14 2.27
  24  0.747  0.244  0.240-  15 2.05  17 2.05  16 2.20   8 2.21  11 2.21  60 2.25
  25  0.757  0.008  0.016-  53 2.10  17 2.10  58 2.14   1 2.22   9 2.26  16 2.30
  26  0.512  0.003  0.235-  16 2.03  57 2.14   2 2.18  53 2.22  15 2.25  55 2.30
  27  0.998  0.500  0.250-  60 2.21   3 2.22   6 2.24  54 2.31  59 2.31   8 2.31
  28  0.496  0.755  0.003-   7 2.19   4 2.23  53 2.28  55 2.29   9 2.32
  29  0.983  0.004  0.749-  61 2.16   1 2.21  10 2.22  56 2.23  58 2.24  12 2.25
  30  0.750  0.248  0.752-   5 2.21  10 2.23  63 2.27  17 2.29  11 2.33  58 2.33
  31  0.760  0.999  0.513-  16 2.12  11 2.16  64 2.16  57 2.25  61 2.26  58 2.36
  32  0.501  0.248  0.491-  62 2.22  15 2.24  11 2.26   5 2.27  57 2.31
  33  0.492  0.000  0.736-   5 2.13   7 2.14  58 2.16  53 2.23  56 2.26  57 2.30
  34  0.999  1.000  0.254-   8 2.10  59 2.10  61 2.24   1 2.28  16 2.32   2 2.36
  35  0.491  0.249  0.002-  17 2.08  15 2.11  14 2.11  53 2.12   4 2.23   5 2.26
  36  0.253  0.750  0.246-  55 2.17  59 2.18  18 2.18  20 2.21   2 2.26   3 2.27
  37  0.247  0.498  1.000-  18 2.04  14 2.04  54 2.17  13 2.21   4 2.23   3 2.24
  38  0.003  0.750  0.003-  18 2.02   9 2.16  54 2.18  59 2.21  12 2.21   1 2.27
  39  0.752  0.754  0.253-  16 2.16  64 2.16   9 2.20  60 2.25  59 2.25  55 2.26
  40  0.753  0.493  0.001-  60 2.19  63 2.19  17 2.20  54 2.21   4 2.25   9 2.29
  41  0.503  0.494  0.253-  15 2.08  60 2.17  62 2.19  55 2.21   4 2.24   3 2.24
  42  0.248  0.248  0.751-  14 2.06  19 2.08  10 2.17  56 2.21   5 2.23  13 2.23
  43  0.265  0.003  0.497-  19 2.13  20 2.13  56 2.15  57 2.17  61 2.21   2 2.26
  44  0.004  0.249  0.502-  19 2.05  61 2.18   8 2.18  10 2.19  11 2.19   6 2.23
  45  0.244  0.753  0.752-  12 2.15  56 2.17   7 2.20  13 2.22  18 2.22  20 2.28
  46  0.254  0.498  0.501-  62 2.15  13 2.21   3 2.21   6 2.23  19 2.26  20 2.33
  47  0.004  0.755  0.501-  61 2.18  59 2.20   6 2.24  12 2.24  20 2.27  64 2.30
  48  0.998  0.502  0.750-  54 2.12  10 2.18  12 2.18   6 2.19  63 2.20  13 2.20
  49  0.747  0.749  0.752-  58 2.10  63 2.15   9 2.24  12 2.24   7 2.26  64 2.26
  50  0.747  0.498  0.498-  62 2.21  60 2.22   6 2.26  11 2.26  64 2.26  63 2.27
  51  0.495  0.747  0.503-  20 2.08  57 2.13  55 2.14  62 2.18  64 2.20   7 2.24
  52  0.500  0.499  0.746-  62 2.18  63 2.21  13 2.24   4 2.26   5 2.28   7 2.29
  53  0.522  0.011  0.985-  25 2.10  35 2.12  26 2.22  33 2.23  28 2.28  22 2.35  58 2.61  17 2.75
                             5 2.94   7 3.01   9 3.10  15 3.13   2 3.20  56 3.36  55 3.41
  54  0.002  0.503  0.989-  48 2.12  37 2.17  38 2.18  40 2.21  23 2.22  27 2.31  18 2.84  13 3.01
                            12 3.02  10 3.04  14 3.04  63 3.07   9 3.07  60 3.20   3 3.20  59 3.25
  55  0.497  0.745  0.261-  51 2.14  36 2.17  41 2.21  39 2.26  28 2.29  26 2.30  57 2.85  20 2.94
                            64 3.03  62 3.04  16 3.09   2 3.09  60 3.10   3 3.13   4 3.14   9 3.23
  56  0.236  0.998  0.738-  43 2.15  45 2.17  42 2.21  29 2.23  33 2.26  22 2.29  61 2.85  19 2.92
                            20 2.99  12 3.03   1 3.04  10 3.06   7 3.10   5 3.17  57 3.33  53 3.36
  57  0.509  0.986  0.476-  51 2.13  26 2.14  43 2.17  31 2.25  33 2.30  32 2.31  16 2.69  55 2.85
                            64 2.92  20 2.97   2 3.01  11 3.15   7 3.20   5 3.27  58 3.33  56 3.33
  58  0.732  0.985  0.777-  49 2.10  25 2.14  33 2.16  29 2.24  30 2.33  31 2.36  53 2.61   9 2.90
                             7 2.92   5 3.06  17 3.07   1 3.13  12 3.16  64 3.20  57 3.33  61 3.46
  59  0.006  0.762  0.252-  34 2.10  36 2.18  47 2.20  38 2.21  39 2.25  27 2.31  18 2.98  61 3.08
                             9 3.11  20 3.12   1 3.14   2 3.16  16 3.16  64 3.16   3 3.20   6 3.21
  60  0.748  0.499  0.248-  41 2.17  40 2.19  27 2.21  50 2.22  39 2.25  24 2.25  15 2.96  17 3.08
                            55 3.10   9 3.11   4 3.12  11 3.13  62 3.14  64 3.14   8 3.18   6 3.20
  61  0.015  0.002  0.507-  29 2.16  44 2.18  47 2.18  43 2.21  34 2.24  31 2.26  56 2.85  19 2.88
                            20 3.03   8 3.05  59 3.08  10 3.09  11 3.12  12 3.14  16 3.21   2 3.22
  62  0.497  0.500  0.500-  46 2.15  51 2.18  52 2.18  41 2.19  50 2.21  32 2.22  55 3.04  20 3.11
                            13 3.11   3 3.12  15 3.14  60 3.14  64 3.14   5 3.17  63 3.19   7 3.20
  63  0.750  0.505  0.755-  49 2.15  40 2.19  48 2.20  52 2.21  30 2.27  50 2.27  54 3.07   4 3.09
                             9 3.10  12 3.10  10 3.13   6 3.14  62 3.19  64 3.19   7 3.19   5 3.21
  64  0.744  0.755  0.497-  31 2.16  39 2.16  51 2.20  49 2.26  50 2.26  47 2.30  16 2.92  57 2.92
                            55 3.03  62 3.14  60 3.14  59 3.16   7 3.18  63 3.19  58 3.20   6 3.20
 
  LATTYP: Found a triclinic cell.
 ALAT       =     8.8566048276
 B/A-ratio  =     1.4166094744
 C/A-ratio  =     1.7177479602
 COS(alpha) =     0.0006443392
 COS(beta)  =     0.5723439257
 COS(gamma) =     0.7113714844
  
  Lattice vectors:
  
 A1 = (  -0.0564497159,   0.0419256394,  -8.8563256909)
 A2 = (  -0.0444154089,   8.8599209620,  -8.8831713877)
 A3 = (   8.7750719089,  -8.7702651402,  -8.8050300728)


Analysis of symmetry for initial positions (statically):
=====================================================================
 Subroutine PRICEL returns:
 Original cell was already a primitive cell.
 

 Routine SETGRP: Setting up the symmetry group for a 
 triclinic supercell.


 Subroutine GETGRP returns: Found  1 space group operations
 (whereof  1 operations were pure point group operations)
 out of a pool of  2 trial point group operations.


The static configuration has the point symmetry C_1 .


Analysis of symmetry for dynamics (positions and initial velocities):
=====================================================================
 Subroutine PRICEL returns:
 Original cell was already a primitive cell.
 

 Routine SETGRP: Setting up the symmetry group for a 
 triclinic supercell.


 Subroutine GETGRP returns: Found  1 space group operations
 (whereof  1 operations were pure point group operations)
 out of a pool of  2 trial point group operations.


The dynamic configuration has the point symmetry C_1 .


 Subroutine INISYM returns: Found  1 space group operations
 (whereof  1 operations are pure point group operations),
 and found     1 'primitive' translations


----------------------------------------------------------------------------------------

                                     Primitive cell                                     

  volume of cell :     690.6151

  direct lattice vectors                    reciprocal lattice vectors
     8.843555932  0.005804543  0.024449921     0.113078784 -0.000156520 -0.000721499
     0.012034307  8.817995323 -0.026845697    -0.000075921  0.113406200  0.000537346
     0.056449716 -0.041925639  8.856325691    -0.000312410  0.000344194  0.112917264

  length of vectors
     8.843591635  8.818044399  8.856604828     0.113081194  0.113407498  0.112918221

  position of ions in fractional coordinates (direct lattice)
     0.007072287  0.006890826  0.996851331
     0.265748060  0.006597204  0.241449765
     0.249164382  0.492652013  0.251749477
     0.499152021  0.501344223  0.000617295
     0.499849733  0.240862025  0.747063014
     0.002171087  0.501183721  0.502557877
     0.492296032  0.758710435  0.755640362
     0.995493315  0.237307148  0.256152463
     0.758869761  0.751915913  0.004572582
     0.002161687  0.255168609  0.749071762
     0.756553291  0.242240041  0.489213623
     0.000822869  0.749326387  0.753847867
     0.247416329  0.501359182  0.750558711
     0.254353261  0.267657899  0.982538701
     0.515556572  0.258991781  0.238621521
     0.737578753  0.997305513  0.274664166
     0.725499886  0.244685075  0.010011015
     0.230950354  0.729296368  0.001244941
     0.235031242  0.242060461  0.516686787
     0.260097308  0.761549420  0.494960591
     0.247447364  0.248844793  0.247958267
     0.256066053  0.003283357  0.995510976
     0.999283834  0.252206648  0.002488001
     0.746772089  0.244478654  0.240216288
     0.757140411  0.008310168  0.016128055
     0.512307172  0.003425041  0.235241947
     0.998020471  0.499602586  0.249942997
     0.496215267  0.754608414  0.002879340
     0.983317626  0.004171156  0.749033616
     0.749659335  0.247881081  0.751855807
     0.759736180  0.999002619  0.512969223
     0.500988038  0.248327324  0.491369739
     0.491726077  0.000063498  0.735769950
     0.998813361  0.999598157  0.253918104
     0.491023679  0.248774060  0.002397869
     0.253001336  0.750491346  0.245951089
     0.247101923  0.498450019  0.999512966
     0.003454880  0.749804181  0.003106931
     0.752109276  0.753914363  0.253028934
     0.753194486  0.492753748  0.001364696
     0.502573812  0.493798901  0.252951552
     0.247668416  0.248232675  0.750791500
     0.264512054  0.003069194  0.496990143
     0.003979418  0.248561523  0.501928108
     0.244135611  0.752748313  0.752201707
     0.254190768  0.497569450  0.501185224
     0.004041098  0.754816577  0.500663433
     0.998152293  0.502143904  0.749973754
     0.747457126  0.748776013  0.752197778
     0.746931332  0.498469295  0.498358077
     0.495048325  0.746798831  0.503030171
     0.500238101  0.499327540  0.745891678
     0.522069299  0.010588390  0.984775880
     0.002439725  0.503035959  0.989301892
     0.497240204  0.744590164  0.260892272
     0.235746098  0.998076874  0.738306067
     0.508600969  0.986271905  0.476236114
     0.731789472  0.985199376  0.777303793
     0.006434194  0.761586212  0.252063943
     0.748323477  0.499271865  0.248123985
     0.015004121  0.001969326  0.506538220
     0.496769245  0.500016090  0.500238170
     0.749638806  0.504777128  0.754500420
     0.743799322  0.755208793  0.496837607

  ion indices of the primitive-cell ions
   primitive index   ion index
                 1           1
                 2           2
                 3           3
                 4           4
                 5           5
                 6           6
                 7           7
                 8           8
                 9           9
                10          10
                11          11
                12          12
                13          13
                14          14
                15          15
                16          16
                17          17
                18          18
                19          19
                20          20
                21          21
                22          22
                23          23
                24          24
                25          25
                26          26
                27          27
                28          28
                29          29
                30          30
                31          31
                32          32
                33          33
                34          34
                35          35
                36          36
                37          37
                38          38
                39          39
                40          40
                41          41
                42          42
                43          43
                44          44
                45          45
                46          46
                47          47
                48          48
                49          49
                50          50
                51          51
                52          52
                53          53
                54          54
                55          55
                56          56
                57          57
                58          58
                59          59
                60          60
                61          61
                62          62
                63          63
                64          64

----------------------------------------------------------------------------------------

 
 
 KPOINTS: HECN                                    

Automatic generation of k-mesh.
 Grid dimensions read from file:
 generate k-points for:    3    3    3

 Generating k-lattice:

  Cartesian coordinates                     Fractional coordinates (reciprocal lattice)
     0.037692928 -0.000052173 -0.000240500     0.333333333 -0.000000000 -0.000000000
    -0.000025307  0.037802067  0.000179115     0.000000000  0.333333333  0.000000000
    -0.000104137  0.000114731  0.037639088    -0.000000000  0.000000000  0.333333333

  Length of vectors
     0.037693731  0.037802499  0.037639407

  Shift w.r.t. Gamma in fractional coordinates (k-lattice)
     0.000000000  0.000000000  0.000000000

 
 Subroutine IBZKPT returns following result:
 ===========================================
 
 Found     14 irreducible k-points:
 
 Following reciprocal coordinates:
            Coordinates               Weight
  0.000000  0.000000  0.000000      1.000000
  0.333333 -0.000000 -0.000000      2.000000
 -0.000000  0.333333 -0.000000      2.000000
  0.333333  0.333333  0.000000      2.000000
 -0.333333  0.333333 -0.000000      2.000000
 -0.000000  0.000000  0.333333      2.000000
  0.333333 -0.000000  0.333333      2.000000
 -0.333333  0.000000  0.333333      2.000000
 -0.000000  0.333333  0.333333      2.000000
  0.333333  0.333333  0.333333      2.000000
 -0.333333  0.333333  0.333333      2.000000
 -0.000000 -0.333333  0.333333      2.000000
  0.333333 -0.333333  0.333333      2.000000
 -0.333333 -0.333333  0.333333      2.000000
 
 Following cartesian coordinates:
            Coordinates               Weight
  0.000000  0.000000  0.000000      1.000000
  0.037693 -0.000052 -0.000240      2.000000
 -0.000025  0.037802  0.000179      2.000000
  0.037668  0.037750 -0.000061      2.000000
 -0.037718  0.037854  0.000420      2.000000
 -0.000104  0.000115  0.037639      2.000000
  0.037589  0.000063  0.037399      2.000000
 -0.037797  0.000167  0.037880      2.000000
 -0.000129  0.037917  0.037818      2.000000
  0.037563  0.037865  0.037578      2.000000
 -0.037822  0.037969  0.038059      2.000000
 -0.000079 -0.037687  0.037460      2.000000
  0.037614 -0.037740  0.037219      2.000000
 -0.037772 -0.037635  0.037700      2.000000
 


--------------------------------------------------------------------------------------------------------




 Dimension of arrays:
   k-points           NKPTS =     14   k-points in BZ     NKDIM =     14   number of bands    NBANDS=    308
   number of dos      NEDOS =    301   number of ions     NIONS =     64
   non local maximal  LDIM  =      6   non local SUM 2l+1 LMDIM =     18
   total plane-waves  NPLWV = 110592
   max r-space proj   IRMAX =      1   max aug-charges    IRDMAX=  10480
   dimension x,y,z NGX =    48 NGY =   48 NGZ =   48
   dimension x,y,z NGXF=    96 NGYF=   96 NGZF=   96
   support grid    NGXF=    96 NGYF=   96 NGZF=   96
   ions per type =               7   6   7  13  19   6   6
   NGX,Y,Z   is equivalent  to a cutoff of   9.02,  9.05,  9.01 a.u.
   NGXF,Y,Z  is equivalent  to a cutoff of  18.05, 18.10, 18.02 a.u.

 SYSTEM =  HECN                                    
 POSCAR =  51-HfVNbTaMo                            

 Startparameter for this run:
   NWRITE =      2    write-flag & timer
   PREC   = normal    normal or accurate (medium, high low for compatibility)
   ISTART =      0    job   : 0-new  1-cont  2-samecut
   ICHARG =      2    charge: 1-file 2-atom 10-const
   ISPIN  =      1    spin polarized calculation?
   LNONCOLLINEAR =      F non collinear calculations
   LSORBIT =      F    spin-orbit coupling
   INIWAV =      1    electr: 0-lowe 1-rand  2-diag
   LASPH  =      F    aspherical Exc in radial PAW
 Electronic Relaxation 1
   ENCUT  =  400.0 eV  29.40 Ry    5.42 a.u.  14.42 14.38 14.44*2*pi/ulx,y,z
   ENINI  =  400.0     initial cutoff
   ENAUG  =  644.9 eV  augmentation charge cutoff
   NELM   =     60;   NELMIN=  2; NELMDL= -5     # of ELM steps 
   EDIFF  = 0.1E-04   stopping-criterion for ELM
   LREAL  =      F    real-space projection
   NLSPLINE    = F    spline interpolate recip. space projectors
   LCOMPAT=      F    compatible to vasp.4.4
   GGA_COMPAT  = T    GGA compatible to vasp.4.4-vasp.4.6
   LMAXPAW     = -100 max onsite density
   LMAXMIX     =    2 max onsite mixed and CHGCAR
   VOSKOWN=      0    Vosko Wilk Nusair interpolation
   ROPT   =    0.00000   0.00000   0.00000   0.00000
   ROPT   =    0.00000   0.00000   0.00000
 Ionic relaxation
   EDIFFG = -.1E-01   stopping-criterion for IOM
   NSW    =    100    number of steps for IOM
   NBLOCK =      1;   KBLOCK =    100    inner block; outer block 
   IBRION =      2    ionic relax: 0-MD 1-quasi-New 2-CG
   NFREE  =      1    steps in history (QN), initial steepest desc. (CG)
   ISIF   =      3    stress and relaxation
   IWAVPR =     11    prediction:  0-non 1-charg 2-wave 3-comb
   ISYM   =      2    0-nonsym 1-usesym 2-fastsym
   LCORR  =      T    Harris-Foulkes like correction to forces

   POTIM  = 0.5000    time-step for ionic-motion
   TEIN   =    0.0    initial temperature
   TEBEG  =    0.0;   TEEND  =   0.0 temperature during run
   SMASS  =  -3.00    Nose mass-parameter (am)
   estimated Nose-frequenzy (Omega)   =  0.10E-29 period in steps = 0.13E+47 mass=  -0.179E-26a.u.
   SCALEE = 1.0000    scale energy and forces
   NPACO  =    256;   APACO  = 10.0  distance and # of slots for P.C.
   PSTRESS=    0.0 pullay stress

  Mass of Ions in am
   POMASS = 178.49 92.91 50.94 14.00 12.01 95.94180.95
  Ionic Valenz
   ZVAL   =  10.00 13.00 13.00  5.00  4.00  6.00 11.00
  Atomic Wigner-Seitz radii
   RWIGS  =  -1.00 -1.00 -1.00 -1.00 -1.00 -1.00 -1.00
  virtual crystal weights 
   VCA    =   1.00  1.00  1.00  1.00  1.00  1.00  1.00
   NELECT =     482.0000    total number of electrons
   NUPDOWN=      -1.0000    fix difference up-down

 DOS related values:
   EMIN   =  10.00;   EMAX   =-10.00  energy-range for DOS
   EFERMI =   0.00;   METHOD = LEGACY      
   ISMEAR =     0;   SIGMA  =   0.10  broadening in eV -4-tet -1-fermi 0-gaus

 Electronic relaxation 2 (details)
   IALGO  =     68    algorithm
   LDIAG  =      T    sub-space diagonalisation (order eigenvalues)
   LSUBROT=      F    optimize rotation matrix (better conditioning)
   TURBO    =      0    0=normal 1=particle mesh
   IRESTART =      0    0=no restart 2=restart with 2 vectors
   NREBOOT  =      0    no. of reboots
   NMIN     =      0    reboot dimension
   EREF     =   0.00    reference energy to select bands
   IMIX   =      4    mixing-type and parameters
     AMIX     =   0.40;   BMIX     =  1.00
     AMIX_MAG =   1.60;   BMIX_MAG =  1.00
     AMIN     =   0.10
     WC   =   100.;   INIMIX=   1;  MIXPRE=   1;  MAXMIX= -45

 Intra band minimization:
   WEIMIN = 0.0010     energy-eigenvalue tresh-hold
   EBREAK =  0.81E-08  absolut break condition
   DEPER  =   0.30     relativ break condition  

   TIME   =   0.40     timestep for ELM

  volume/ion in A,a.u.               =      10.79        72.82
  Fermi-wavevector in a.u.,A,eV,Ry     =   1.452151  2.744168 28.691190  2.108743
  Thomas-Fermi vector in A             =   2.569566
 
 Write flags
   LWAVE        =      F    write WAVECAR
   LDOWNSAMPLE  =      F    k-point downsampling of WAVECAR
   LCHARG       =      F    write CHGCAR
   LVTOT        =      F    write LOCPOT, total local potential
   LVHAR        =      F    write LOCPOT, Hartree potential only
   WRT_POTENTIAL= false  ! write potential to hdf5 file
   LELF         =      F    write electronic localiz. function (ELF)
   LORBIT       =      0    0 simple, 1 ext, 2 COOP (PROOUT), +10 PAW based schemes


 Dipole corrections
   LMONO      =      F    monopole corrections only (constant potential shift)
   LDIPOL     =      F    correct potential (dipole corrections)
   IDIPOL     =      0    1-x, 2-y, 3-z, 4-all directions 
   EPSILON    =  1.0000000 bulk dielectric constant
   LVACPOTAV  =      F  vacuum potentials using an averaging scheme for the charge density
   VACPOTFLAT =  0.1000000 required flatness to determine vacuum potential
 Exchange correlation treatment:
   GGA     = PE    functional components
   XC_C    = 1    coefficients multiplying the functional components
   LIBXC   =     F    Libxc                    
   VOSKOWN =     0    Vosko Wilk Nusair interpolation
   LHFCALC =     F    Hartree Fock is set to
   LHFONE  =     F    Hartree Fock one center treatment
   AEXX    =    0.0000 exact exchange contribution

 Parameters of functionals:
   PE:
     No parameter
 
 Van der Waals corrections
   IVDW    =     0    specifies the selected vdW correction

 Linear response parameters
   LEPSILON=     F    determine dielectric tensor
   LRPA    =     F    only Hartree local field effects (RPA)
   LNABLA  =     F    use nabla operator in PAW spheres
   LVEL    =     F    velocity operator in full k-point grid
   CSHIFT  =0.1000    complex shift for real part using Kramers Kronig
   OMEGAMAX=  -1.0    maximum frequency
   DEG_THRESHOLD= 0.2000000E-02 threshold for treating states as degnerate
   RTIME   =   -0.100 relaxation time in fs
  (WPLASMAI=    0.000 imaginary part of plasma frequency in eV, 0.658/RTIME)
   DFIELD  = 0.0000000 0.0000000 0.0000000 field for delta impulse in time
 
  Optional k-point grid parameters
   LKPOINTS_OPT  =     F    use optional k-point grid
   KPOINTS_OPT_MODE=     1    mode for optional k-point grid
 
 Orbital magnetization related:
   ORBITALMAG=     F  switch on orbital magnetization
   LCHIMAG   =     F  perturbation theory with respect to B field
   DQ        =  0.001000  dq finite difference perturbation B field
   LLRAUG    =     F  two centre corrections for induced B field
   LBONE     =     F  B-component reconstruction in AE one-centre
   LVGVCALC  =     T  calculate vGv susceptibility
   LVGVAPPL  =     F  apply vGv susceptibility instead of pGv for G=0

 Random number generation:
   RANDOM_GENERATOR = DEFAULT
   PCG_SEED         = not used


--------------------------------------------------------------------------------------------------------


 conjugate gradient relaxation of ions
 charge density and potential will be updated during run
 non-spin polarized calculation
 RMM-DIIS sequential band-by-band and
  variant of blocked Davidson during initial phase
 perform sub-space diagonalisation
    before iterative eigenvector-optimisation
 modified Broyden-mixing scheme, WC =      100.0
 initial mixing is a Kerker type mixing with AMIX =  0.4000 and BMIX =      1.0000
 Hartree-type preconditioning will be used
 using additional bands           67
 reciprocal scheme for non local part
 use partial core corrections
 calculate Harris-corrections to forces 
   (improved forces if not selfconsistent)
 use gradient corrections 
 use of overlap-Matrix (Vanderbilt PP)
 Gauss-broadening in eV      SIGMA  =   0.10


--------------------------------------------------------------------------------------------------------


  energy-cutoff  :      400.00
  volume of cell :      690.62
      direct lattice vectors                 reciprocal lattice vectors
     8.843555932  0.005804543  0.024449921     0.113078784 -0.000156520 -0.000721499
     0.012034307  8.817995323 -0.026845697    -0.000075921  0.113406200  0.000537346
     0.056449716 -0.041925639  8.856325691    -0.000312410  0.000344194  0.112917264

  length of vectors
     8.843591635  8.818044399  8.856604828     0.113081194  0.113407498  0.112918221


 
 k-points in units of 2pi/SCALE and weight: HECN                                    
   0.00000000  0.00000000  0.00000000       0.037
   0.03769293 -0.00005217 -0.00024050       0.074
  -0.00002531  0.03780207  0.00017912       0.074
   0.03766762  0.03774989 -0.00006138       0.074
  -0.03771823  0.03785424  0.00041961       0.074
  -0.00010414  0.00011473  0.03763909       0.074
   0.03758879  0.00006256  0.03739859       0.074
  -0.03779706  0.00016690  0.03787959       0.074
  -0.00012944  0.03791680  0.03781820       0.074
   0.03756348  0.03786462  0.03757770       0.074
  -0.03782237  0.03796897  0.03805870       0.074
  -0.00007883 -0.03768734  0.03745997       0.074
   0.03761410 -0.03773951  0.03721947       0.074
  -0.03777176 -0.03763516  0.03770047       0.074
 
 k-points in reciprocal lattice and weights: HECN                                    
   0.00000000  0.00000000  0.00000000       0.037
   0.33333333 -0.00000000 -0.00000000       0.074
  -0.00000000  0.33333333 -0.00000000       0.074
   0.33333333  0.33333333  0.00000000       0.074
  -0.33333333  0.33333333 -0.00000000       0.074
  -0.00000000  0.00000000  0.33333333       0.074
   0.33333333 -0.00000000  0.33333333       0.074
  -0.33333333  0.00000000  0.33333333       0.074
  -0.00000000  0.33333333  0.33333333       0.074
   0.33333333  0.33333333  0.33333333       0.074
  -0.33333333  0.33333333  0.33333333       0.074
  -0.00000000 -0.33333333  0.33333333       0.074
   0.33333333 -0.33333333  0.33333333       0.074
  -0.33333333 -0.33333333  0.33333333       0.074
 
 position of ions in fractional coordinates (direct lattice) 
   0.00707229  0.00689083  0.99685133
   0.26574806  0.00659720  0.24144976
   0.24916438  0.49265201  0.25174948
   0.49915202  0.50134422  0.00061730
   0.49984973  0.24086203  0.74706301
   0.00217109  0.50118372  0.50255788
   0.49229603  0.75871043  0.75564036
   0.99549332  0.23730715  0.25615246
   0.75886976  0.75191591  0.00457258
   0.00216169  0.25516861  0.74907176
   0.75655329  0.24224004  0.48921362
   0.00082287  0.74932639  0.75384787
   0.24741633  0.50135918  0.75055871
   0.25435326  0.26765790  0.98253870
   0.51555657  0.25899178  0.23862152
   0.73757875  0.99730551  0.27466417
   0.72549989  0.24468507  0.01001102
   0.23095035  0.72929637  0.00124494
   0.23503124  0.24206046  0.51668679
   0.26009731  0.76154942  0.49496059
   0.24744736  0.24884479  0.24795827
   0.25606605  0.00328336  0.99551098
   0.99928383  0.25220665  0.00248800
   0.74677209  0.24447865  0.24021629
   0.75714041  0.00831017  0.01612805
   0.51230717  0.00342504  0.23524195
   0.99802047  0.49960259  0.24994300
   0.49621527  0.75460841  0.00287934
   0.98331763  0.00417116  0.74903362
   0.74965933  0.24788108  0.75185581
   0.75973618  0.99900262  0.51296922
   0.50098804  0.24832732  0.49136974
   0.49172608  0.00006350  0.73576995
   0.99881336  0.99959816  0.25391810
   0.49102368  0.24877406  0.00239787
   0.25300134  0.75049135  0.24595109
   0.24710192  0.49845002  0.99951297
   0.00345488  0.74980418  0.00310693
   0.75210928  0.75391436  0.25302893
   0.75319449  0.49275375  0.00136470
   0.50257381  0.49379890  0.25295155
   0.24766842  0.24823267  0.75079150
   0.26451205  0.00306919  0.49699014
   0.00397942  0.24856152  0.50192811
   0.24413561  0.75274831  0.75220171
   0.25419077  0.49756945  0.50118522
   0.00404110  0.75481658  0.50066343
   0.99815229  0.50214390  0.74997375
   0.74745713  0.74877601  0.75219778
   0.74693133  0.49846930  0.49835808
   0.49504833  0.74679883  0.50303017
   0.50023810  0.49932754  0.74589168
   0.52206930  0.01058839  0.98477588
   0.00243973  0.50303596  0.98930189
   0.49724020  0.74459016  0.26089227
   0.23574610  0.99807687  0.73830607
   0.50860097  0.98627190  0.47623611
   0.73178947  0.98519938  0.77730379
   0.00643419  0.76158621  0.25206394
   0.74832348  0.49927186  0.24812398
   0.01500412  0.00196933  0.50653822
   0.49676924  0.50001609  0.50023817
   0.74963881  0.50477713  0.75450042
   0.74379932  0.75520879  0.49683761
 
 position of ions in cartesian coordinates  (Angst):
   0.11889907  0.01901070  8.82842798
   2.36386699  0.04959372  2.14467817
   2.22363906  4.33509467  2.22244182
   4.42034699  4.42372248  0.00421226
   4.46551917  2.09550052  6.62198854
   0.05360078  4.39837825  4.43741469
   4.40543373  6.66148191  6.68386564
   8.82101638  2.08761235  2.28653869
   6.72041409  6.63460418  0.03886488
   0.06447266  2.21868284  6.62722617
   6.72115251  2.11995240  4.34462975
   0.05884921  6.57595580  6.65622616
   2.23644248  4.39095140  6.63978237
   2.30807240  2.32048894  8.70071619
   4.57594028  2.27677652  2.11896241
   6.55032555  8.78700119  2.42377569
   6.41950855  2.16142332  0.09983049
   2.05126923  6.43222033 -0.00290615
   2.11059178  2.11418984  4.57519468
   2.33729019  6.69609743  4.36944723
   2.20530645  2.18535273  2.19536883
   2.32077029 -0.01129846  8.82274209
   8.84039806  2.22965312  0.03969629
   6.62062301  2.15007508  2.13912901
   6.69682401  0.07699770  0.16112424
   4.54393769  0.02331303  2.09581322
   8.84617144  4.40080730  2.22456592
   4.39755120  6.65689305  0.01737481
   8.73835736  0.01108523  6.65761572
   6.67507938  2.15864361  6.67035447
   6.75974867  8.79210378  4.53477908
   4.46124186  2.17205620  4.35731304
   4.39014184 -0.02743346  6.52823927
   8.85942490  8.80960385  2.24636742
   4.34552455  2.19643813  0.02656329
   2.26034698  6.60898608  2.16426135
   2.24768040  4.35485903  8.84467274
   0.03975218  6.61165955  0.00747145
   6.67467670  6.64177058  2.23905630
   6.66692455  4.34941498  0.01727342
   4.46476119  4.34662846  2.23925285
   2.23563877  2.15887475  6.64864555
   2.36731903  0.00776288  4.40789148
   0.06651717  2.17079379  4.43866329
   2.21054731  6.60761166  6.64750434
   2.28222994  4.36802804  4.43151692
   0.07308368  6.63500186  4.41387365
   8.87559439  4.40225328  6.65293616
   6.66165125  6.57550565  6.65988236
   6.63965992  4.37894153  4.41850210
   4.41537067  6.56705226  4.44705458
   4.47199806  4.37469958  6.60468562
   4.67266679  0.05511138  8.73397623
   0.08347535  4.39430578  8.74813506
   4.42105948  6.55774076  2.30271537
   2.13852214  8.77145165  6.51764890
   4.53659361  8.67992673  4.20366023
   6.52735590  8.65914223  6.87549938
   0.08029526  6.70513306  2.21207237
   6.63785544  4.39651789  2.20235997
   0.16130742 -0.00378434  4.48638143
   4.42746225  4.39105026  4.42899485
   6.67813869  4.42384075  6.68687897
   6.61496566  6.64291478  4.39806739
 


--------------------------------------------------------------------------------------------------------


 k-point     1 :   0.0000 0.0000 0.0000  plane waves:   12569
 k-point     2 :   0.3333-0.0000-0.0000  plane waves:   12566
 k-point     3 :  -0.0000 0.3333-0.0000  plane waves:   12567
 k-point     4 :   0.3333 0.3333 0.0000  plane waves:   12538
 k-point     5 :  -0.3333 0.3333-0.0000  plane waves:   12535
 k-point     6 :  -0.0000 0.0000 0.3333  plane waves:   12562
 k-point     7 :   0.3333-0.0000 0.3333  plane waves:   12543
 k-point     8 :  -0.3333 0.0000 0.3333  plane waves:   12532
 k-point     9 :  -0.0000 0.3333 0.3333  plane waves:   12528
 k-point    10 :   0.3333 0.3333 0.3333  plane waves:   12539
 k-point    11 :  -0.3333 0.3333 0.3333  plane waves:   12549
 k-point    12 :  -0.0000-0.3333 0.3333  plane waves:   12539
 k-point    13 :   0.3333-0.3333 0.3333  plane waves:   12545
 k-point    14 :  -0.3333-0.3333 0.3333  plane waves:   12535

 maximum and minimum number of plane-waves per node :     12569    12528

 maximum number of plane-waves:     12569
 maximum index in each direction: 
   IXMAX=   14   IYMAX=   14   IZMAX=   14
   IXMIN=  -14   IYMIN=  -14   IZMIN=  -14


 serial   3D FFT for wavefunctions
 parallel 3D FFT for charge:
    minimum data exchange during FFTs selected (reduces bandwidth)


 total amount of memory used by VASP MPI-rank0   264071. kBytes
=======================================================================

   base      :      30000. kBytes
   nonl-proj :     190289. kBytes
   fftplans  :       1680. kBytes
   grid      :       8060. kBytes
   one-center:        995. kBytes
   wavefun   :      33047. kBytes
 
     INWAV:  cpu time      0.0000: real time      0.0003
 Broyden mixing: mesh for mixing (old mesh)
   NGX = 29   NGY = 29   NGZ = 29
  (NGX  = 96   NGY  = 96   NGZ  = 96)
  gives a total of  24389 points

 initial charge density was supplied:
 charge density of overlapping atoms calculated
 number of electron     482.0000000 magnetization 
 keeping initial charge density in first step


--------------------------------------------------------------------------------------------------------


 Maximum index for augmentation-charges          656 (set IRDMAX)


--------------------------------------------------------------------------------------------------------


 First call to EWALD:  gamma=   0.201
 Maximum number of real-space cells 3x 3x 3
 Maximum number of reciprocal cells 3x 3x 3

    FEWALD:  cpu time      0.0020: real time      0.0021


--------------------------------------- Ionic step        1  -------------------------------------------




--------------------------------------- Iteration      1(   1)  ---------------------------------------


    POTLOK:  cpu time      0.0220: real time      0.0299
    SETDIJ:  cpu time      0.0059: real time      0.0088
     EDDAV:  cpu time     18.5629: real time     18.7121
       DOS:  cpu time      0.0015: real time      0.0043
    --------------------------------------------
      LOOP:  cpu time     18.5924: real time     18.7551

 eigenvalue-minimisations  :  8624
 total energy-change (2. order) : 0.4859114E+04  (-0.2169040E+05)
 number of electron     482.0000000 magnetization 
 augmentation part      482.0000000 magnetization 

 Free energy of the ion-electron system (eV)
  ---------------------------------------------------
  alpha Z        PSCENC =      3919.49510533
  Ewald energy   TEWEN  =    -37569.07838342
  -Hartree energ DENC   =     -7598.48183666
  -exchange      EXHF   =         0.00000000
  -V(xc)+E(xc)   XCENC  =      1298.55390317
  PAW double counting   =     26655.23559995   -26071.32907419
  entropy T*S    EENTRO =        -0.08556221
  eigenvalues    EBANDS =      1403.46305073
  atomic energy  EATOM  =     42821.34141094
  Solvation  Ediel_sol  =         0.00000000
  ---------------------------------------------------
  free energy    TOTEN  =      4859.11421364 eV

  energy without entropy =     4859.19977584  energy(sigma->0) =     4859.15699474


--------------------------------------------------------------------------------------------------------




--------------------------------------- Iteration      1(   2)  ---------------------------------------


     EDDAV:  cpu time     19.3648: real time     20.0631
       DOS:  cpu time      0.0008: real time      0.0008
    --------------------------------------------
      LOOP:  cpu time     19.3657: real time     20.0639

 eigenvalue-minimisations  :  9268
 total energy-change (2. order) :-0.4983667E+04  (-0.4737277E+04)
 number of electron     482.0000000 magnetization 
 augmentation part      482.0000000 magnetization 

 Free energy of the ion-electron system (eV)
  ---------------------------------------------------
  alpha Z        PSCENC =      3919.49510533
  Ewald energy   TEWEN  =    -37569.07838342
  -Hartree energ DENC   =     -7598.48183666
  -exchange      EXHF   =         0.00000000
  -V(xc)+E(xc)   XCENC  =      1298.55390317
  PAW double counting   =     26655.23559995   -26071.32907419
  entropy T*S    EENTRO =        -0.10454258
  eigenvalues    EBANDS =     -3580.18526196
  atomic energy  EATOM  =     42821.34141094
  Solvation  Ediel_sol  =         0.00000000
  ---------------------------------------------------
  free energy    TOTEN  =      -124.55307943 eV

  energy without entropy =     -124.44853685  energy(sigma->0) =     -124.50080814


--------------------------------------------------------------------------------------------------------




--------------------------------------- Iteration      1(   3)  ---------------------------------------


     EDDAV:  cpu time     27.4373: real time     27.9531
       DOS:  cpu time      0.0009: real time      0.0009
    --------------------------------------------
      LOOP:  cpu time     27.4382: real time     27.9539

 eigenvalue-minimisations  : 13916
 total energy-change (2. order) :-0.6269430E+03  (-0.6074802E+03)
 number of electron     482.0000000 magnetization 
 augmentation part      482.0000000 magnetization 

 Free energy of the ion-electron system (eV)
  ---------------------------------------------------
  alpha Z        PSCENC =      3919.49510533
  Ewald energy   TEWEN  =    -37569.07838342
  -Hartree energ DENC   =     -7598.48183666
  -exchange      EXHF   =         0.00000000
  -V(xc)+E(xc)   XCENC  =      1298.55390317
  PAW double counting   =     26655.23559995   -26071.32907419
  entropy T*S    EENTRO =        -0.08035817
  eigenvalues    EBANDS =     -4207.15244834
  atomic energy  EATOM  =     42821.34141094
  Solvation  Ediel_sol  =         0.00000000
  ---------------------------------------------------
  free energy    TOTEN  =      -751.49608140 eV

  energy without entropy =     -751.41572323  energy(sigma->0) =     -751.45590232


--------------------------------------------------------------------------------------------------------




--------------------------------------- Iteration      1(   4)  ---------------------------------------


     EDDAV:  cpu time     27.8992: real time     28.4000
       DOS:  cpu time      0.0014: real time      0.0016
    --------------------------------------------
      LOOP:  cpu time     27.9007: real time     28.4017

 eigenvalue-minimisations  : 14000
 total energy-change (2. order) :-0.3971115E+02  (-0.3904919E+02)
 number of electron     482.0000000 magnetization 
 augmentation part      482.0000000 magnetization 

 Free energy of the ion-electron system (eV)
  ---------------------------------------------------
  alpha Z        PSCENC =      3919.49510533
  Ewald energy   TEWEN  =    -37569.07838342
  -Hartree energ DENC   =     -7598.48183666
  -exchange      EXHF   =         0.00000000
  -V(xc)+E(xc)   XCENC  =      1298.55390317
  PAW double counting   =     26655.23559995   -26071.32907419
  entropy T*S    EENTRO =        -0.09087553
  eigenvalues    EBANDS =     -4246.85307850
  atomic energy  EATOM  =     42821.34141094
  Solvation  Ediel_sol  =         0.00000000
  ---------------------------------------------------
  free energy    TOTEN  =      -791.20722892 eV

  energy without entropy =     -791.11635339  energy(sigma->0) =     -791.16179116


--------------------------------------------------------------------------------------------------------




--------------------------------------- Iteration      1(   5)  ---------------------------------------


     EDDAV:  cpu time     32.4086: real time     32.9797
       DOS:  cpu time      0.0008: real time      0.0008
    CHARGE:  cpu time      0.1823: real time      0.1919
    MIXING:  cpu time      0.0025: real time      0.0074
    --------------------------------------------
      LOOP:  cpu time     32.5942: real time     33.1799

 eigenvalue-minimisations  : 16520
 total energy-change (2. order) :-0.3809210E+01  (-0.3791243E+01)
 number of electron     481.9999938 magnetization 
 augmentation part       82.4826050 magnetization 

 Broyden mixing:
  rms(total) = 0.66383E+01    rms(broyden)= 0.66370E+01
  rms(prec ) = 0.10504E+02
  weight for this iteration     100.00

 Free energy of the ion-electron system (eV)
  ---------------------------------------------------
  alpha Z        PSCENC =      3919.49510533
  Ewald energy   TEWEN  =    -37569.07838342
  -Hartree energ DENC   =     -7598.48183666
  -exchange      EXHF   =         0.00000000
  -V(xc)+E(xc)   XCENC  =      1298.55390317
  PAW double counting   =     26655.23559995   -26071.32907419
  entropy T*S    EENTRO =        -0.09378390
  eigenvalues    EBANDS =     -4250.65937966
  atomic energy  EATOM  =     42821.34141094
  Solvation  Ediel_sol  =         0.00000000
  ---------------------------------------------------
  free energy    TOTEN  =      -795.01643844 eV

  energy without entropy =     -794.92265455  energy(sigma->0) =     -794.96954649


--------------------------------------------------------------------------------------------------------




--------------------------------------- Iteration      1(   6)  ---------------------------------------


    POTLOK:  cpu time      0.0191: real time      0.0192
    SETDIJ:  cpu time      0.0051: real time      0.0053
    EDDIAG:  cpu time      1.3206: real time      1.3377
  RMM-DIIS:  cpu time     15.9930: real time     16.2276
    ORTHCH:  cpu time      0.3360: real time      0.3373
       DOS:  cpu time      0.0009: real time      0.0009
    CHARGE:  cpu time      0.1696: real time      0.1703
    MIXING:  cpu time      0.0012: real time      0.0023
    --------------------------------------------
      LOOP:  cpu time     17.8455: real time     18.1006

 eigenvalue-minimisations  : 11511
 total energy-change (2. order) : 0.6441121E+02  (-0.1105353E+03)
 number of electron     481.9999979 magnetization 
 augmentation part      106.0918140 magnetization 

 Broyden mixing:
  rms(total) = 0.74334E+01    rms(broyden)= 0.74302E+01
  rms(prec ) = 0.12206E+02
  weight for this iteration     100.00

 eigenvalues of (default mixing * dielectric matrix)
  average eigenvalue GAMMA=   0.4635
  0.4635

 Free energy of the ion-electron system (eV)
  ---------------------------------------------------
  alpha Z        PSCENC =      3919.49510533
  Ewald energy   TEWEN  =    -37569.07838342
  -Hartree energ DENC   =     -7077.17099064
  -exchange      EXHF   =         0.00000000
  -V(xc)+E(xc)   XCENC  =      1296.34792281
  PAW double counting   =     25961.64082378   -25417.60287097
  entropy T*S    EENTRO =        -0.12427169
  eigenvalues    EBANDS =     -4665.45397658
  atomic energy  EATOM  =     42821.34141094
  Solvation  Ediel_sol  =         0.00000000
  ---------------------------------------------------
  free energy    TOTEN  =      -730.60523045 eV

  energy without entropy =     -730.48095876  energy(sigma->0) =     -730.54309461


--------------------------------------------------------------------------------------------------------




--------------------------------------- Iteration      1(   7)  ---------------------------------------


    POTLOK:  cpu time      0.0173: real time      0.0173
    SETDIJ:  cpu time      0.0052: real time      0.0052
    EDDIAG:  cpu time      1.3242: real time      1.3303
  RMM-DIIS:  cpu time     15.8694: real time     16.0308
    ORTHCH:  cpu time      0.3789: real time      0.3808
       DOS:  cpu time      0.0008: real time      0.0008
    CHARGE:  cpu time      0.1556: real time      0.1561
    MIXING:  cpu time      0.0010: real time      0.0010
    --------------------------------------------
      LOOP:  cpu time     17.7524: real time     17.9223

 eigenvalue-minimisations  : 11090
 total energy-change (2. order) : 0.5447969E+02  (-0.2150781E+02)
 number of electron     481.9999951 magnetization 
 augmentation part       87.5552731 magnetization 

 Broyden mixing:
  rms(total) = 0.36013E+01    rms(broyden)= 0.35957E+01
  rms(prec ) = 0.63391E+01
  weight for this iteration     100.00

 eigenvalues of (default mixing * dielectric matrix)
  average eigenvalue GAMMA=   0.5977
  0.8861  0.3093

 Free energy of the ion-electron system (eV)
  ---------------------------------------------------
  alpha Z        PSCENC =      3919.49510533
  Ewald energy   TEWEN  =    -37569.07838342
  -Hartree energ DENC   =     -7437.04609978
[...]
 -0.000  -0.008  -0.000   0.004   0.029   0.000  -0.003  -0.001  -0.039  -0.557   0.006   0.006   0.006   0.135   0.954  -0.037
 -0.012   0.001  -0.000   0.074   0.006  -0.037  -0.000   0.000  -0.025   0.005  -1.160   0.006   0.001   0.016  -0.037   2.814
 -0.004  -0.011  -0.006   0.011   0.029   0.022   0.001   0.007  -0.000   0.010  -0.015  -0.008  -0.005   0.006  -0.022   0.047
 -0.005  -0.036  -0.015  -0.003   0.008   0.004   0.002   0.003  -0.003   0.001   0.014  -0.004  -0.005  -0.002   0.006  -0.026


------------------------ aborting loop because EDIFF is reached ----------------------------------------


    CHARGE:  cpu time      0.1606: real time      0.1621
    FORLOC:  cpu time      0.0075: real time      0.0075
    FORNL :  cpu time      6.0395: real time      6.1720
    STRESS:  cpu time     24.6717: real time     25.1782
    FORCOR:  cpu time      0.0205: real time      0.0208
    FORHAR:  cpu time      0.0100: real time      0.0100
    MIXING:  cpu time      0.0010: real time      0.0010
    OFIELD:  cpu time      0.0001: real time      0.0001

  FORCE on cell =-STRESS in cart. coord.  units (eV):
  Direction    XX          YY          ZZ          XY          YZ          ZX
  --------------------------------------------------------------------------------------
  Alpha Z  3925.58377  3925.58377  3925.58377
  Ewald  -12528.63567-12689.85928-12370.93411  -114.96263    -3.84329   113.75695
  Hartree  2419.20401  2180.21439  2591.39615  -105.01605    -3.84686    76.48643
  E(xc)   -2163.49991 -2162.93475 -2162.89243     0.15593    -0.05088     0.37472
  Local    1399.82158  1801.82280  1062.85999   221.99841     5.88668  -194.91529
  n-local -1222.35765 -1216.12570 -1222.10135    -0.67591    -2.13999    -0.96185
  augment   813.92586   811.37321   814.87280    -0.59975     0.52444     1.59729
  Kinetic  7355.94062  7349.97580  7361.22435    -0.90968     3.49323     3.65630
  Fock        0.00000     0.00000     0.00000     0.00000     0.00000     0.00000
  -------------------------------------------------------------------------------------
  Total      -0.01738     0.05024     0.00917    -0.00968     0.02333    -0.00544
  in kB      -0.04039     0.11672     0.02132    -0.02248     0.05421    -0.01263
  external pressure =        0.03 kB  Pullay stress =        0.00 kB


 VOLUME and BASIS-vectors are now :
 -----------------------------------------------------------------------------
  energy-cutoff  :      400.00
  volume of cell :      689.54
      direct lattice vectors                 reciprocal lattice vectors
     8.840755107  0.006106402  0.026028338     0.113114806 -0.000160821 -0.000741978
     0.012337150  8.809155502 -0.028552750    -0.000080057  0.113520185  0.000559581
     0.058017871 -0.043605024  8.854296101    -0.000332774  0.000366545  0.112943511

  length of vectors
     8.840795531  8.809210414  8.854593549     0.113117353  0.113521593  0.112944596


 FORCES acting on ions
    electron-ion (+dipol)            ewald-force                    non-local-force                 convergence-correction
 -----------------------------------------------------------------------------------------------
   -.419E+02 0.643E+02 0.340E+02   0.423E+02 -.643E+02 -.329E+02   -.389E+00 -.200E-01 -.108E+01   0.251E-01 0.222E-01 0.677E-02
   -.706E+02 0.113E+03 0.205E+02   0.701E+02 -.113E+03 -.205E+02   0.457E+00 -.913E-01 0.596E-02   0.233E-01 0.406E-01 -.436E-02
   -.255E+02 -.108E+03 -.922E+00   0.265E+02 0.108E+03 0.147E+01   -.951E+00 0.131E+00 -.549E+00   0.251E-01 -.417E-01 -.226E-02
   -.221E+02 -.122E+03 0.116E+02   0.220E+02 0.121E+03 -.120E+02   0.987E-01 0.941E+00 0.447E+00   -.187E-01 -.251E-01 0.188E-01
   -.172E+02 0.914E+02 0.197E+02   0.165E+02 -.908E+02 -.189E+02   0.733E+00 -.610E+00 -.803E+00   -.414E-01 0.280E-02 0.578E-02
   0.320E+02 -.958E+02 0.305E+02   -.312E+02 0.962E+02 -.296E+02   -.832E+00 -.407E+00 -.816E+00   0.891E-02 -.160E-01 -.229E-02
   -.342E+02 -.866E+02 0.290E+01   0.334E+02 0.859E+02 -.301E+01   0.790E+00 0.760E+00 0.106E+00   0.382E-02 -.163E-02 0.125E-02
   -.957E+02 -.562E+02 0.705E+02   0.960E+02 0.558E+02 -.709E+02   -.335E+00 0.377E+00 0.387E+00   0.378E-01 -.155E-01 0.471E-02
   0.112E+03 0.123E+02 0.140E+02   -.112E+03 -.123E+02 -.137E+02   -.234E+00 0.288E-01 -.257E+00   -.170E-01 -.909E-02 0.160E-01
   0.761E+02 0.437E+02 -.672E+02   -.764E+02 -.436E+02 0.673E+02   0.202E+00 -.304E-01 -.127E+00   0.536E-01 0.889E-02 -.343E-02
   0.907E+02 -.299E+02 -.198E+03   -.909E+02 0.298E+02 0.199E+03   0.199E+00 0.142E+00 -.162E+00   -.195E-01 0.642E-02 -.220E-01
   0.595E+02 -.617E+02 0.238E+02   -.591E+02 0.616E+02 -.238E+02   -.345E+00 0.744E-01 0.738E-01   -.607E-02 -.101E-01 -.119E-01
   -.856E+02 -.769E+02 0.197E+02   0.856E+02 0.771E+02 -.198E+02   -.132E-01 -.119E+00 0.246E-01   0.129E-01 -.550E-01 0.169E-03
   -.338E+02 0.125E+03 -.267E+02   0.360E+02 -.124E+03 0.256E+02   -.221E+01 -.992E+00 0.111E+01   0.299E-01 -.980E-02 0.946E-02
   0.204E+03 0.306E+02 -.513E+02   -.204E+03 -.289E+02 0.503E+02   0.643E+00 -.167E+01 0.986E+00   -.413E-01 0.564E-02 0.148E-01
   0.492E+02 0.215E+03 0.256E+02   -.490E+02 -.217E+03 -.266E+02   -.206E+00 0.158E+01 0.990E+00   -.400E-01 0.783E-02 0.276E-02
   -.409E+02 -.173E+02 0.226E+03   0.393E+02 0.181E+02 -.225E+03   0.160E+01 -.768E+00 -.586E+00   -.430E-01 -.731E-02 0.157E-01
   -.148E+03 -.138E+03 -.537E+02   0.148E+03 0.137E+03 0.541E+02   0.361E+00 0.872E+00 -.404E+00   0.140E-01 -.174E-01 0.137E-01
   -.175E+03 0.599E+02 0.292E+02   0.175E+03 -.599E+02 -.283E+02   0.474E+00 -.678E-01 -.905E+00   0.174E-01 -.388E-02 -.694E-02
   -.843E+02 -.394E+02 0.241E+02   0.838E+02 0.392E+02 -.243E+02   0.541E+00 0.165E+00 0.147E+00   0.147E-01 0.902E-02 -.154E-01
   -.280E+02 0.110E+02 0.166E+01   0.298E+02 -.111E+02 -.135E+01   -.187E+01 0.103E+00 -.295E+00   0.177E-01 -.255E-03 -.103E-01
   -.822E+02 0.450E+02 0.508E+02   0.832E+02 -.461E+02 -.508E+02   -.101E+01 0.104E+01 -.274E-01   0.104E-01 0.445E-01 0.505E-02
   0.150E+02 -.391E+02 0.487E+01   -.161E+02 0.385E+02 -.395E+01   0.108E+01 0.573E+00 -.921E+00   0.412E-01 -.237E-02 -.174E-03
   -.383E+02 -.343E+02 -.106E+02   0.389E+02 0.321E+02 0.886E+01   -.535E+00 0.218E+01 0.172E+01   -.260E-01 0.581E-02 0.192E-01
   0.302E+02 0.689E+02 0.737E+02   -.261E+02 -.676E+02 -.685E+02   -.417E+01 -.126E+01 -.524E+01   -.115E-01 -.144E-01 0.849E-02
   0.102E+03 0.117E+03 0.306E+02   -.102E+03 -.116E+03 -.333E+02   -.172E-02 -.109E+01 0.273E+01   -.142E-01 0.162E-01 -.415E-02
   -.103E+02 -.520E+02 0.433E+02   0.113E+02 0.518E+02 -.429E+02   -.993E+00 0.154E+00 -.359E+00   0.420E-02 -.724E-02 0.446E-02
   0.794E+01 -.629E+02 -.421E+02   -.984E+01 0.636E+02 0.422E+02   0.189E+01 -.745E+00 -.929E-01   0.155E-01 0.236E-02 0.101E-01
   0.292E+02 0.294E+02 -.220E+02   -.318E+02 -.287E+02 0.218E+02   0.258E+01 -.693E+00 0.150E+00   0.151E-01 0.812E-02 -.111E-02
   0.454E+02 0.533E+02 0.480E+01   -.448E+02 -.543E+02 -.416E+01   -.597E+00 0.988E+00 -.630E+00   -.485E-02 0.934E-02 -.983E-02
   0.631E+02 0.586E+02 -.142E+03   -.616E+02 -.574E+02 0.145E+03   -.150E+01 -.115E+01 -.278E+01   -.501E-02 0.130E-02 -.859E-02
   0.295E+02 0.655E+02 -.613E+02   -.321E+02 -.662E+02 0.599E+02   0.264E+01 0.765E+00 0.141E+01   -.143E-01 0.454E-02 -.208E-01
   0.113E+02 0.243E+02 0.117E+02   -.138E+02 -.239E+02 -.145E+02   0.245E+01 -.356E+00 0.277E+01   -.144E-01 0.939E-02 0.694E-02
   -.391E+02 0.498E+02 0.212E+02   0.388E+02 -.499E+02 -.220E+02   0.246E+00 0.484E-01 0.812E+00   0.828E-02 0.612E-02 0.586E-03
   0.320E+02 0.469E+02 0.638E+02   -.329E+02 -.457E+02 -.639E+02   0.959E+00 -.115E+01 0.606E-01   -.363E-01 -.232E-02 0.144E-01
   -.622E+02 -.835E+01 0.369E+01   0.621E+02 0.842E+01 -.410E+01   0.649E-01 -.717E-01 0.400E+00   0.108E-01 0.143E-02 0.726E-02
   0.771E+01 -.224E+02 -.436E+02   -.641E+01 0.225E+02 0.442E+02   -.131E+01 -.325E-01 -.668E+00   0.823E-02 -.412E-01 0.226E-02
   0.255E+02 0.102E+02 -.199E+02   -.250E+02 -.890E+01 0.200E+02   -.424E+00 -.126E+01 -.134E-01   -.144E-01 0.802E-03 0.181E-02
   0.483E+02 0.398E+02 -.813E+00   -.479E+02 -.390E+02 0.191E+00   -.343E+00 -.781E+00 0.624E+00   -.981E-02 -.535E-02 -.773E-03
   -.257E+02 -.383E+02 0.126E+02   0.249E+02 0.375E+02 -.128E+02   0.901E+00 0.818E+00 0.194E+00   -.576E-02 0.126E-01 0.332E-02
   0.251E+02 -.114E+03 0.302E+01   -.261E+02 0.113E+03 -.387E+01   0.104E+01 0.103E+01 0.852E+00   -.380E-02 -.163E-01 -.482E-03
   -.596E+02 0.793E+02 -.437E+01   0.605E+02 -.790E+02 0.448E+01   -.878E+00 -.271E+00 -.118E+00   0.432E-02 0.334E-03 0.108E-01
   -.781E+02 0.234E+02 -.210E+02   0.785E+02 -.230E+02 0.201E+02   -.472E+00 -.414E+00 0.903E+00   0.411E-02 0.215E-01 -.280E-02
   0.187E+02 -.182E+02 -.720E+01   -.183E+02 0.193E+02 0.712E+01   -.423E+00 -.106E+01 0.791E-01   0.164E-01 0.146E-03 -.775E-03
   -.556E+02 -.770E+02 0.467E+01   0.563E+02 0.766E+02 -.446E+01   -.712E+00 0.427E+00 -.210E+00   0.380E-02 0.827E-03 -.719E-02
   -.668E+01 -.321E+02 0.343E+02   0.599E+01 0.321E+02 -.349E+02   0.692E+00 0.576E-01 0.513E+00   0.393E-02 -.197E-01 -.297E-02
   0.210E+02 0.159E+02 0.851E+01   -.204E+02 -.170E+02 -.829E+01   -.671E+00 0.104E+01 -.216E+00   -.347E-02 -.788E-03 -.195E-02
   0.368E+02 -.176E+02 -.238E+02   -.363E+02 0.178E+02 0.221E+02   -.508E+00 -.106E+00 0.168E+01   0.400E-02 -.617E-02 -.229E-02
   0.469E+02 -.422E+02 0.238E+02   -.474E+02 0.415E+02 -.238E+02   0.500E+00 0.754E+00 0.386E-01   -.343E-02 -.797E-02 0.453E-03
   0.505E+01 -.467E+02 -.189E+02   -.432E+01 0.464E+02 0.190E+02   -.723E+00 0.260E+00 -.161E+00   -.506E-02 -.140E-02 -.440E-02
   -.339E+02 -.405E+02 0.933E+01   0.329E+02 0.397E+02 -.739E+01   0.102E+01 0.825E+00 -.193E+01   0.551E-02 -.154E-02 -.880E-02
   -.291E+02 -.192E+02 -.702E+01   0.287E+02 0.193E+02 0.807E+01   0.464E+00 -.112E+00 -.105E+01   -.460E-02 -.617E-02 0.102E-03
   0.773E+02 0.880E+02 0.510E+02   -.771E+02 -.871E+02 -.506E+02   -.153E+00 -.962E+00 -.477E+00   -.196E-01 0.957E-02 0.126E-01
   0.374E+02 -.138E+02 -.395E+02   -.374E+02 0.141E+02 0.385E+02   -.416E-01 -.297E+00 0.908E+00   0.896E-02 -.134E-01 0.258E-03
   0.989E+01 -.138E+02 0.263E+02   -.108E+02 0.128E+02 -.260E+02   0.958E+00 0.994E+00 -.353E+00   0.429E-02 -.650E-03 -.302E-03
   -.841E+02 0.321E+02 -.375E+02   0.846E+02 -.325E+02 0.367E+02   -.496E+00 0.417E+00 0.810E+00   0.717E-02 0.251E-01 0.969E-03
   0.408E+02 0.354E+02 -.760E+02   -.422E+02 -.363E+02 0.755E+02   0.140E+01 0.840E+00 0.512E+00   -.889E-02 0.124E-01 -.126E-01
   0.491E+02 0.135E+02 0.414E+02   -.492E+02 -.148E+02 -.408E+02   0.155E+00 0.129E+01 -.599E+00   -.899E-02 -.531E-03 0.165E-02
   -.115E+02 0.530E+02 -.984E+00   0.123E+02 -.513E+02 0.126E+01   -.765E+00 -.169E+01 -.290E+00   -.570E-02 0.519E-02 0.845E-02
   -.209E+01 -.185E+03 0.398E+01   0.127E+01 0.186E+03 -.420E+01   0.848E+00 -.109E+01 0.212E+00   -.280E-01 -.980E-03 0.102E-01
   -.203E+02 0.111E+03 -.370E+02   0.213E+02 -.112E+03 0.363E+02   -.102E+01 0.609E+00 0.770E+00   0.200E-01 0.216E-01 -.683E-02
   -.289E+02 -.968E+02 -.122E+02   0.278E+02 0.970E+02 0.125E+02   0.105E+01 -.149E+00 -.299E+00   -.672E-02 -.229E-01 -.215E-01
   0.578E+02 -.493E+02 0.631E+01   -.586E+02 0.500E+02 -.605E+01   0.813E+00 -.690E+00 -.251E+00   -.819E-02 0.544E-02 -.704E-02
   0.727E+02 0.272E+02 -.608E+02   -.722E+02 -.279E+02 0.605E+02   -.422E+00 0.733E+00 0.245E+00   -.122E-01 -.793E-02 -.129E-01
 -----------------------------------------------------------------------------------------------
   -.226E+01 -.754E+00 -.259E-01   0.341E-12 -.185E-12 0.540E-12   0.228E+01 0.820E+00 0.223E-03   -.221E-01 -.641E-01 0.221E-01
 
 
 POSITION                                       TOTAL-FORCE (eV/Angst)
 -----------------------------------------------------------------------------------
      0.12062      0.01700      8.82638        -0.001543      0.000934      0.003176
      2.36347      0.04861      2.14459        -0.001253     -0.001934      0.001246
      2.22377      4.33087      2.22126         0.003161      0.001190     -0.000649
      4.41914      4.41952      0.00409        -0.001172      0.001190      0.001176
      4.46521      2.09268      6.62104        -0.000378     -0.005643      0.001698
      0.05463      4.39308      4.43533        -0.000325     -0.001280      0.002389
      4.40528      6.65322      6.68190         0.002176      0.005755     -0.002828
      8.81923      2.08637      2.28737         0.002310     -0.002664      0.000072
      6.71812      6.62830      0.03847         0.000126      0.003378     -0.000284
      0.06585      2.21527      6.62523         0.001470     -0.002026     -0.003254
      6.71980      2.11761      4.34439         0.003407     -0.000494     -0.001481
      0.06043      6.56796      6.65378        -0.000479      0.001501      0.000372
      2.23694      4.38519      6.63797        -0.001570      0.000288      0.000421
      2.30863      2.31663      8.69923        -0.000514      0.000745      0.001508
      4.57401      2.27400      2.11816        -0.004762     -0.004793     -0.007141
      6.54958      8.77773      2.42244         0.001934     -0.000037      0.002076
      6.41749      2.16011      0.10160        -0.003525      0.001533      0.005009
      2.05122      6.42664     -0.00400        -0.001524     -0.001123     -0.000703
      2.11111      2.11162      4.57374         0.000202      0.000747      0.000818
      2.33775      6.68818      4.36775         0.000213     -0.001567      0.000834
      2.20610      2.18265      2.19481         0.007496      0.001200     -0.000620
      2.32211     -0.01348      8.82074         0.002545     -0.006403      0.000051
      8.83724      2.22815      0.04076        -0.002159     -0.000630     -0.000058
      6.61846      2.14747      2.13932        -0.001903      0.000153      0.000062
      6.69502      0.07797      0.16243        -0.000204      0.001986      0.000081
      4.54360      0.02316      2.09597         0.002077      0.000412     -0.000934
      8.84408      4.39649      2.22444         0.001532      0.001295     -0.001100
      4.39561      6.65117      0.01692        -0.003524      0.001973      0.001419
      8.73636      0.00992      6.65773         0.001708     -0.000980     -0.001069
      6.67440      2.15473      6.66944        -0.001273     -0.001440     -0.003459
      6.75864      8.78266      4.53344         0.000832      0.000206      0.000167
      4.46015      2.16855      4.35644        -0.003254     -0.001686      0.000752
      4.38994     -0.02852      6.52723         0.000968      0.000048     -0.001264
      8.85726      8.80064      2.24559         0.001373      0.001002      0.000382
      4.34353      2.19396      0.02699         0.000682     -0.000945     -0.001072
      2.26038      6.60195      2.16286         0.001842     -0.000643      0.000410
      2.24877      4.34911      8.84219        -0.000289      0.003775      0.000133
      0.04018      6.60514      0.00629        -0.001797     -0.000107     -0.001280
      6.67308      6.63553      2.23851        -0.000218      0.000298      0.000279
      6.66504      4.34449      0.01761        -0.000359     -0.002049     -0.000432
      4.46383      4.34164      2.23873         0.000983      0.001392      0.000753
      2.23640      2.15531      6.64746        -0.001726      0.000936      0.000611
      2.36737      0.00707      4.40716        -0.001318     -0.000753     -0.001195
      0.06758      2.16792      4.43741         0.000381     -0.000550     -0.000625
      2.21135      6.60002      6.64505        -0.000562     -0.000481     -0.000284
      2.28234      4.36296      4.42984         0.000434      0.001083      0.000125
      0.07380      6.62725      4.41167        -0.000957      0.000064     -0.000919
      8.87415      4.39681      6.65186        -0.000639     -0.000206      0.001666
      6.66105      6.56785      6.65808        -0.000530      0.001790      0.001183
      6.63845      4.37416      4.41799        -0.000656     -0.000508     -0.000153
      4.41476      6.55953      4.44586         0.001468      0.001759     -0.000227
      4.47182      4.36918      6.60307         0.000037     -0.001444      0.000618
      4.67230      0.05267      8.73305         0.005229      0.002394      0.000400
      0.08518      4.38792      8.74538         0.002138      0.003325     -0.001315
      4.42070      6.55120      2.30202         0.001830      0.002390      0.003790
      2.13954      8.76159      6.51486        -0.000482      0.001047     -0.001333
      4.53646      8.67131      4.20179         0.000502     -0.001235      0.000052
      6.52707      8.65045      6.87330        -0.004109     -0.001194      0.003310
      0.08068      6.69685      2.21000        -0.001422      0.001317     -0.003049
      6.63617      4.39174      2.20230        -0.002536     -0.002822     -0.000952
      0.16208     -0.00480      4.48522        -0.000514      0.001381     -0.002000
      4.42679      4.38574      4.42798        -0.000767     -0.003179     -0.000125
      6.67730      4.41778      6.68548         0.001122     -0.001274      0.000826
      6.61393      6.63524      4.39716        -0.001937      0.001606      0.001940
 -----------------------------------------------------------------------------------
    total drift:                               -0.002427      0.002355     -0.003581


--------------------------------------------------------------------------------------------------------



  FREE ENERGIE OF THE ION-ELECTRON SYSTEM (eV)
  ---------------------------------------------------
  free  energy   TOTEN  =      -659.02845751 eV

  energy  without entropy=     -658.93276479  energy(sigma->0) =     -658.98061115
 
 d Force = 0.7300958E-04[ 0.255E-04, 0.120E-03]  d Energy = 0.6702182E-04 0.599E-05
 d Force = 0.3637584E+00[ 0.363E+00, 0.365E+00]  d Ewald  = 0.1661524E+01-0.130E+01


--------------------------------------------------------------------------------------------------------


    POTLOK:  cpu time      0.0290: real time      0.0293


--------------------------------------------------------------------------------------------------------


 Conjugate gradient step on ions:
 trial-energy change:   -0.000067  1 .order   -0.000081   -0.000140   -0.000023
  (g-gl).g = 0.175E-03      g.g   = 0.168E-03  gl.gl    = 0.484E-03
 g(Force)  = 0.108E-03   g(Stress)= 0.599E-04 ortho     =-0.316E-05
 gamma     =   0.36029
 trial     =   0.83950
 opt step  =   1.00448  (harmonic =   1.00448) maximal distance =0.00101116
 next E    =  -659.028474   (d E  =  -0.00008)


--------------------------------------------------------------------------------------------------------


  
 reached required accuracy - stopping structural energy minimisation
     LOOP+:  cpu time    126.5284: real time    129.1745
    4ORBIT:  cpu time      0.0000: real time      0.0000

 total amount of memory used by VASP MPI-rank0   264071. kBytes
=======================================================================

   base      :      30000. kBytes
   nonl-proj :     190289. kBytes
   fftplans  :       1680. kBytes
   grid      :       8060. kBytes
   one-center:        995. kBytes
   wavefun   :      33047. kBytes
 
  
  
 General timing and accounting informations for this job:
 ========================================================
  
                  Total CPU time used (sec):     1979.146
                            User time (sec):     1967.464
                          System time (sec):       11.682
                         Elapsed time (sec):     2005.455
  
                   Maximum memory used (kb):      357964.
                   Average memory used (kb):          N/A
  
                          Minor page faults:       589657
                          Major page faults:            0
                 Voluntary context switches:         1758
