       N       E                     dE             d eps       ncg     rms          rms(c)
DAV:   1     0.591218169758E+04    0.59122E+04   -0.23899E+05  9408   0.143E+03
DAV:   2     0.387547785750E+02   -0.58734E+04   -0.56210E+04  9576   0.573E+02
DAV:   3    -0.724364733790E+03   -0.76312E+03   -0.72715E+03 14712   0.172E+02
DAV:   4    -0.787692636684E+03   -0.63328E+02   -0.62003E+02 15984   0.542E+01
DAV:   5    -0.793916406921E+03   -0.62238E+01   -0.61773E+01 17592   0.138E+01    0.666E+01
RMM:   6    -0.780715176386E+03    0.13201E+02   -0.15501E+03 12679   0.621E+01    0.865E+01
RMM:   7    -0.681609196587E+03    0.99106E+02   -0.19478E+02 11097   0.390E+01    0.357E+01
RMM:   8    -0.658435688618E+03    0.23174E+02   -0.31106E+01 14014   0.982E+00    0.134E+01
RMM:   9    -0.656629357657E+03    0.18063E+01   -0.67590E+00 13523   0.629E+00    0.768E+00
RMM:  10    -0.657115079546E+03   -0.48572E+00   -0.40556E+00 14629   0.338E+00    0.114E+01
RMM:  11    -0.656432193312E+03    0.68289E+00   -0.23234E+00 14618   0.292E+00    0.588E+00
RMM:  12    -0.656415873456E+03    0.16320E-01   -0.11291E+00 14429   0.169E+00    0.458E+00
RMM:  13    -0.656312777642E+03    0.10310E+00   -0.43698E-01 14807   0.110E+00    0.232E+00
RMM:  14    -0.656327146840E+03   -0.14369E-01   -0.29253E-01 14808   0.690E-01    0.263E+00
RMM:  15    -0.656298356473E+03    0.28790E-01   -0.15561E-01 14928   0.529E-01    0.129E+00
RMM:  16    -0.656298949311E+03   -0.59284E-03   -0.87878E-02 14171   0.439E-01    0.783E-01
RMM:  17    -0.656309715247E+03   -0.10766E-01   -0.46199E-02 14392   0.387E-01    0.132E+00
RMM:  18    -0.656298809488E+03    0.10906E-01   -0.25971E-02 14351   0.246E-01    0.385E-01
RMM:  19    -0.656298445888E+03    0.36360E-03   -0.13858E-02 14647   0.181E-01    0.337E-01
RMM:  20    -0.656298148353E+03    0.29754E-03   -0.62221E-03 14956   0.101E-01    0.159E-01
RMM:  21    -0.656298163149E+03   -0.14796E-04   -0.32929E-03 14248   0.807E-02    0.117E-01
RMM:  22    -0.656298261319E+03   -0.98170E-04   -0.18999E-03 13552   0.502E-02    0.996E-02
RMM:  23    -0.656298231392E+03    0.29927E-04   -0.11759E-03 13941   0.465E-02    0.234E-02
RMM:  24    -0.656298266193E+03   -0.34801E-04   -0.62429E-04 11992   0.283E-02    0.129E-02
RMM:  25    -0.656298291613E+03   -0.25420E-04   -0.34551E-04 10685   0.214E-02    0.110E-02
RMM:  26    -0.656298312696E+03   -0.21083E-04   -0.22243E-04  9895   0.197E-02    0.528E-03
RMM:  27    -0.656298319564E+03   -0.68683E-05   -0.10111E-04  7950   0.155E-02    0.236E-03
RMM:  28    -0.656298326744E+03   -0.71797E-05   -0.84178E-05  8493   0.136E-02
   1 F= -.65629833E+03 E0= -.65623891E+03  d E =-.656298E+03
       N       E                     dE             d eps       ncg     rms          rms(c)
DAV:   1    -0.655871913857E+03    0.42641E+00   -0.41437E+01 10248   0.270E+01    0.354E+00
RMM:   2    -0.657291410904E+03   -0.14195E+01   -0.91358E+00 12430   0.733E+00    0.857E+00
RMM:   3    -0.656513510410E+03    0.77790E+00   -0.10308E+00 11515   0.354E+00    0.253E+00
RMM:   4    -0.656532904408E+03   -0.19394E-01   -0.26411E-01 13386   0.115E+00    0.295E+00
RMM:   5    -0.656463895764E+03    0.69009E-01   -0.62447E-02 12792   0.667E-01    0.100E+00
RMM:   6    -0.656469626445E+03   -0.57307E-02   -0.33180E-02 13213   0.366E-01    0.149E+00
RMM:   7    -0.656453663784E+03    0.15963E-01   -0.21666E-02 13890   0.317E-01    0.530E-01
RMM:   8    -0.656456672582E+03   -0.30088E-02   -0.10502E-02 14299   0.207E-01    0.865E-01
RMM:   9    -0.656451533474E+03    0.51391E-02   -0.46733E-03 14451   0.140E-01    0.158E-01
RMM:  10    -0.656451768662E+03   -0.23519E-03   -0.18603E-03 14599   0.769E-02    0.224E-01
RMM:  11    -0.656451480968E+03    0.28769E-03   -0.88635E-04 14031   0.496E-02    0.758E-02
RMM:  12    -0.656451520741E+03   -0.39774E-04   -0.46434E-04 13279   0.315E-02    0.615E-02
RMM:  13    -0.656451609524E+03   -0.88783E-04   -0.30527E-04 12832   0.296E-02    0.103E-01
RMM:  14    -0.656451566406E+03    0.43118E-04   -0.22887E-04 12664   0.265E-02    0.279E-02
RMM:  15    -0.656451569440E+03   -0.30340E-05   -0.13775E-04 11669   0.213E-02    0.266E-02
RMM:  16    -0.656451570365E+03   -0.92501E-06   -0.68745E-05  9906   0.171E-02
   2 F= -.65645157E+03 E0= -.65639461E+03  d E =-.153244E+00
       N       E                     dE             d eps       ncg     rms          rms(c)
DAV:   1    -0.656130414162E+03    0.32116E+00   -0.26328E+01 10224   0.216E+01    0.280E+00
RMM:   2    -0.657033338666E+03   -0.90292E+00   -0.57880E+00 12486   0.579E+00    0.693E+00
RMM:   3    -0.656530365394E+03    0.50297E+00   -0.61431E-01 11247   0.268E+00    0.203E+00
RMM:   4    -0.656537917896E+03   -0.75525E-02   -0.16028E-01 13231   0.906E-01    0.223E+00
RMM:   5    -0.656497353280E+03    0.40565E-01   -0.38536E-02 12702   0.505E-01    0.788E-01
RMM:   6    -0.656501359730E+03   -0.40064E-02   -0.21553E-02 13033   0.296E-01    0.120E+00
RMM:   7    -0.656490885699E+03    0.10474E-01   -0.13863E-02 13845   0.253E-01    0.382E-01
RMM:   8    -0.656492685286E+03   -0.17996E-02   -0.62839E-03 14045   0.161E-01    0.659E-01
RMM:   9    -0.656489708019E+03    0.29773E-02   -0.27973E-03 14433   0.107E-01    0.127E-01
RMM:  10    -0.656489813339E+03   -0.10532E-03   -0.11089E-03 13981   0.579E-02    0.161E-01
RMM:  11    -0.656489673845E+03    0.13949E-03   -0.53924E-04 13049   0.369E-02    0.619E-02
RMM:  12    -0.656489693240E+03   -0.19395E-04   -0.28364E-04 12026   0.249E-02    0.470E-02
RMM:  13    -0.656489742577E+03   -0.49337E-04   -0.20974E-04 12351   0.253E-02    0.702E-02
RMM:  14    -0.656489719136E+03    0.23441E-04   -0.13810E-04 11780   0.217E-02    0.280E-02
RMM:  15    -0.656489717412E+03    0.17248E-05   -0.84584E-05 10157   0.177E-02
   3 F= -.65648972E+03 E0= -.65643420E+03  d E =-.191391E+00
       N       E                     dE             d eps       ncg     rms          rms(c)
DAV:   1    -0.656386391863E+03    0.10333E+00   -0.97766E+00 10416   0.136E+01    0.139E+00
RMM:   2    -0.656685456906E+03   -0.29907E+00   -0.23248E+00 12923   0.376E+00    0.344E+00
RMM:   3    -0.656572756625E+03    0.11270E+00   -0.21280E-01 12000   0.154E+00    0.116E+00
RMM:   4    -0.656573893116E+03   -0.11365E-02   -0.57168E-02 13800   0.507E-01    0.109E+00
RMM:   5    -0.656563838256E+03    0.10055E-01   -0.10502E-02 12840   0.284E-01    0.431E-01
RMM:   6    -0.656564689066E+03   -0.85081E-03   -0.57919E-03 13070   0.152E-01    0.591E-01
RMM:   7    -0.656562000822E+03    0.26882E-02   -0.52613E-03 13715   0.159E-01    0.170E-01
RMM:   8    -0.656562315287E+03   -0.31446E-03   -0.17841E-03 14011   0.893E-02    0.290E-01
RMM:   9    -0.656561756407E+03    0.55888E-03   -0.75490E-04 14004   0.535E-02    0.601E-02
RMM:  10    -0.656561779325E+03   -0.22918E-04   -0.29036E-04 12544   0.306E-02    0.445E-02
RMM:  11    -0.656561807630E+03   -0.28305E-04   -0.14890E-04 11950   0.199E-02    0.547E-02
RMM:  12    -0.656561818243E+03   -0.10613E-04   -0.86350E-05 10282   0.176E-02    0.272E-02
RMM:  13    -0.656561854978E+03   -0.36736E-04   -0.74041E-05 10472   0.177E-02    0.387E-02
RMM:  14    -0.656561857104E+03   -0.21256E-05   -0.45982E-05  8838   0.164E-02
   4 F= -.65656186E+03 E0= -.65650762E+03  d E =-.721397E-01
       N       E                     dE             d eps       ncg     rms          rms(c)
DAV:   1    -0.655647972926E+03    0.91388E+00   -0.54920E+01  9744   0.322E+01    0.326E+00
RMM:   2    -0.657352903117E+03   -0.17049E+01   -0.13392E+01 12858   0.912E+00    0.830E+00
RMM:   3    -0.656703324152E+03    0.64958E+00   -0.12104E+00 11954   0.369E+00    0.278E+00
RMM:   4    -0.656697426525E+03    0.58976E-02   -0.33144E-01 13766   0.121E+00    0.229E+00
RMM:   5    -0.656648358238E+03    0.49068E-01   -0.58183E-02 12858   0.669E-01    0.958E-01
RMM:   6    -0.656654774840E+03   -0.64166E-02   -0.34319E-02 12876   0.376E-01    0.142E+00
RMM:   7    -0.656638896683E+03    0.15878E-01   -0.30636E-02 13703   0.385E-01    0.403E-01
RMM:   8    -0.656640019758E+03   -0.11231E-02   -0.94562E-03 14371   0.208E-01    0.612E-01
RMM:   9    -0.656637524024E+03    0.24957E-02   -0.39999E-03 15163   0.116E-01    0.155E-01
RMM:  10    -0.656637635406E+03   -0.11138E-03   -0.15822E-03 14621   0.686E-02    0.129E-01
RMM:  11    -0.656637706865E+03   -0.71459E-04   -0.81201E-04 13994   0.428E-02    0.115E-01
RMM:  12    -0.656637793711E+03   -0.86845E-04   -0.49339E-04 13548   0.350E-02    0.682E-02
RMM:  13    -0.656637975987E+03   -0.18228E-03   -0.42690E-04 13523   0.329E-02    0.907E-02
RMM:  14    -0.656637973952E+03    0.20355E-05   -0.28277E-04 12522   0.286E-02    0.340E-02
RMM:  15    -0.656637998230E+03   -0.24278E-04   -0.17666E-04 11897   0.220E-02    0.241E-02
RMM:  16    -0.656638001756E+03   -0.35262E-05   -0.80490E-05 10480   0.190E-02
   5 F= -.65663800E+03 E0= -.65658641E+03  d E =-.148284E+00
       N       E                     dE             d eps       ncg     rms          rms(c)
DAV:   1    -0.656640421403E+03   -0.24232E-02   -0.31287E+00 10416   0.652E+00    0.793E-01
RMM:   2    -0.656693941775E+03   -0.53520E-01   -0.52192E-01 13686   0.186E+00    0.138E+00
RMM:   3    -0.656678575267E+03    0.15367E-01   -0.46228E-02 13087   0.723E-01    0.664E-01
RMM:   4    -0.656679469457E+03   -0.89419E-03   -0.14853E-02 13501   0.271E-01    0.780E-01
RMM:   5    -0.656673817030E+03    0.56524E-02   -0.53123E-03 12843   0.185E-01    0.186E-01
RMM:   6    -0.656674298756E+03   -0.48173E-03   -0.26532E-03 13525   0.106E-01    0.360E-01
RMM:   7    -0.656673438307E+03    0.86045E-03   -0.12537E-03 13260   0.748E-02    0.142E-01
RMM:   8    -0.656673314367E+03    0.12394E-03   -0.46046E-04 12990   0.416E-02    0.102E-01
RMM:   9    -0.656673249949E+03    0.64418E-04   -0.20160E-04 11970   0.255E-02    0.420E-02
RMM:  10    -0.656673242736E+03    0.72127E-05   -0.96246E-05 10605   0.171E-02
   6 F= -.65667324E+03 E0= -.65662196E+03  d E =-.352410E-01
       N       E                     dE             d eps       ncg     rms          rms(c)
DAV:   1    -0.656635133794E+03    0.38116E-01   -0.56175E+00  9744   0.874E+00    0.106E+00
RMM:   2    -0.656730871330E+03   -0.95738E-01   -0.93582E-01 13635   0.250E+00    0.183E+00
RMM:   3    -0.656703364236E+03    0.27507E-01   -0.82802E-02 13034   0.970E-01    0.880E-01
RMM:   4    -0.656704986709E+03   -0.16225E-02   -0.26269E-02 13458   0.360E-01    0.104E+00
RMM:   5    -0.656694963071E+03    0.10024E-01   -0.95062E-03 12916   0.246E-01    0.243E-01
RMM:   6    -0.656695756994E+03   -0.79392E-03   -0.46860E-03 13626   0.140E-01    0.467E-01
RMM:   7    -0.656694343106E+03    0.14139E-02   -0.22050E-03 13736   0.974E-02    0.190E-01
RMM:   8    -0.656694093746E+03    0.24936E-03   -0.82607E-04 13802   0.521E-02    0.118E-01
RMM:   9    -0.656694023811E+03    0.69935E-04   -0.35948E-04 12604   0.318E-02    0.618E-02
RMM:  10    -0.656694006411E+03    0.17400E-04   -0.17774E-04 11701   0.208E-02    0.342E-02
RMM:  11    -0.656694008705E+03   -0.22948E-05   -0.91409E-05 10395   0.164E-02
   7 F= -.65669401E+03 E0= -.65664302E+03  d E =-.560069E-01
       N       E                     dE             d eps       ncg     rms          rms(c)
DAV:   1    -0.656692514911E+03    0.14915E-02   -0.19340E-01 10416   0.162E+00    0.197E-01
RMM:   2    -0.656695855109E+03   -0.33402E-02   -0.32461E-02 13602   0.463E-01    0.347E-01
RMM:   3    -0.656694904307E+03    0.95080E-03   -0.29341E-03 12866   0.181E-01    0.166E-01
RMM:   4    -0.656694948551E+03   -0.44244E-04   -0.93626E-04 12953   0.685E-02    0.190E-01
RMM:   5    -0.656694613038E+03    0.33551E-03   -0.35913E-04 11997   0.477E-02    0.482E-02
RMM:   6    -0.656694643138E+03   -0.30100E-04   -0.18956E-04 11935   0.292E-02    0.892E-02
RMM:   7    -0.656694591046E+03    0.52092E-04   -0.94889E-05 10388   0.226E-02    0.369E-02
RMM:   8    -0.656694581818E+03    0.92277E-05   -0.36361E-05  7872   0.150E-02
   8 F= -.65669458E+03 E0= -.65664367E+03  d E =-.565801E-01
       N       E                     dE             d eps       ncg     rms          rms(c)
DAV:   1    -0.656685514064E+03    0.90770E-02   -0.14953E+00  9936   0.477E+00    0.366E-01
RMM:   2    -0.656710279132E+03   -0.24765E-01   -0.26008E-01 13567   0.131E+00    0.536E-01
RMM:   3    -0.656709430741E+03    0.84839E-03   -0.19440E-02 12934   0.468E-01    0.391E-01
RMM:   4    -0.656708801615E+03    0.62913E-03   -0.47018E-03 13410   0.171E-01    0.272E-01
RMM:   5    -0.656708179469E+03    0.62215E-03   -0.11563E-03 12826   0.859E-02    0.120E-01
RMM:   6    -0.656708282154E+03   -0.10268E-03   -0.68600E-04 12917   0.544E-02    0.185E-01
RMM:   7    -0.656708043191E+03    0.23896E-03   -0.42454E-04 12196   0.432E-02    0.787E-02
RMM:   8    -0.656708004115E+03    0.39076E-04   -0.15656E-04 10672   0.285E-02    0.591E-02
RMM:   9    -0.656707986082E+03    0.18033E-04   -0.69401E-05  9133   0.192E-02    0.270E-02
RMM:  10    -0.656707982974E+03    0.31077E-05   -0.29544E-05  6731   0.132E-02
   9 F= -.65670798E+03 E0= -.65665722E+03  d E =-.134012E-01
       N       E                     dE             d eps       ncg     rms          rms(c)
DAV:   1    -0.656549678300E+03    0.15831E+00   -0.11601E+01  9744   0.133E+01    0.102E+00
RMM:   2    -0.656744090771E+03   -0.19441E+00   -0.20148E+00 13543   0.366E+00    0.162E+00
RMM:   3    -0.656734524792E+03    0.95660E-02   -0.15641E-01 12970   0.133E+00    0.105E+00
RMM:   4    -0.656730587143E+03    0.39376E-02   -0.37329E-02 13603   0.475E-01    0.771E-01
RMM:   5    -0.656725471706E+03    0.51154E-02   -0.88680E-03 13137   0.239E-01    0.346E-01
RMM:   6    -0.656726573967E+03   -0.11023E-02   -0.54312E-03 13318   0.151E-01    0.554E-01
RMM:   7    -0.656724296298E+03    0.22777E-02   -0.33722E-03 13596   0.117E-01    0.190E-01
RMM:   8    -0.656724092165E+03    0.20413E-03   -0.11693E-03 13386   0.717E-02    0.167E-01
RMM:   9    -0.656723952501E+03    0.13966E-03   -0.55666E-04 12303   0.398E-02    0.763E-02
RMM:  10    -0.656723923842E+03    0.28659E-04   -0.25183E-04 11802   0.267E-02    0.317E-02
RMM:  11    -0.656723934446E+03   -0.10605E-04   -0.12252E-04  9844   0.174E-02    0.375E-02
RMM:  12    -0.656723929699E+03    0.47468E-05   -0.68197E-05  8942   0.155E-02
  10 F= -.65672393E+03 E0= -.65667352E+03  d E =-.293479E-01
       N       E                     dE             d eps       ncg     rms          rms(c)
DAV:   1    -0.656685151049E+03    0.38783E-01   -0.32955E+00  9744   0.708E+00    0.434E-01
RMM:   2    -0.656740140993E+03   -0.54990E-01   -0.56893E-01 13515   0.190E+00    0.604E-01
RMM:   3    -0.656740574161E+03   -0.43317E-03   -0.40231E-02 13178   0.659E-01    0.586E-01
RMM:   4    -0.656738504970E+03    0.20692E-02   -0.85590E-03 13891   0.219E-01    0.189E-01
RMM:   5    -0.656738382243E+03    0.12273E-03   -0.15882E-03 13125   0.921E-02    0.190E-01
RMM:   6    -0.656738175919E+03    0.20632E-03   -0.55478E-04 12534   0.487E-02    0.112E-01
RMM:   7    -0.656738134698E+03    0.41220E-04   -0.73925E-04 13218   0.486E-02    0.104E-01
RMM:   8    -0.656738060216E+03    0.74483E-04   -0.20812E-04 11299   0.362E-02    0.490E-02
RMM:   9    -0.656738065260E+03   -0.50444E-05   -0.11360E-04 10346   0.196E-02    0.448E-02
RMM:  10    -0.656738049902E+03    0.15358E-04   -0.42762E-05  7570   0.164E-02    0.147E-02
RMM:  11    -0.656738051048E+03   -0.11457E-05   -0.25988E-05  6668   0.133E-02
  11 F= -.65673805E+03 E0= -.65668779E+03  d E =-.141213E-01
       N       E                     dE             d eps       ncg     rms          rms(c)
DAV:   1    -0.656617944888E+03    0.12011E+00   -0.82737E+00  9744   0.112E+01    0.694E-01
RMM:   2    -0.656756249261E+03   -0.13830E+00   -0.14284E+00 13505   0.302E+00    0.980E-01
RMM:   3    -0.656757160062E+03   -0.91080E-03   -0.10350E-01 13175   0.106E+00    0.927E-01
RMM:   4    -0.656752068109E+03    0.50920E-02   -0.23030E-02 13966   0.353E-01    0.303E-01
RMM:   5    -0.656751686232E+03    0.38188E-03   -0.39283E-03 13417   0.146E-01    0.300E-01
RMM:   6    -0.656751187757E+03    0.49848E-03   -0.13845E-03 13562   0.755E-02    0.182E-01
RMM:   7    -0.656751118418E+03    0.69338E-04   -0.17940E-03 13444   0.763E-02    0.178E-01
RMM:   8    -0.656750870785E+03    0.24763E-03   -0.57787E-04 12553   0.577E-02    0.714E-02
RMM:   9    -0.656750902858E+03   -0.32073E-04   -0.29978E-04 11922   0.289E-02    0.804E-02
RMM:  10    -0.656750853803E+03    0.49055E-04   -0.11404E-04 10764   0.227E-02    0.212E-02
RMM:  11    -0.656750857927E+03   -0.41240E-05   -0.70710E-05  8136   0.140E-02
  12 F= -.65675086E+03 E0= -.65670089E+03  d E =-.269282E-01
       N       E                     dE             d eps       ncg     rms          rms(c)
DAV:   1    -0.656209416903E+03    0.54144E+00   -0.33125E+01  9744   0.224E+01    0.139E+00
RMM:   2    -0.656764262069E+03   -0.55485E+00   -0.57039E+00 13454   0.608E+00    0.210E+00
RMM:   3    -0.656764494515E+03   -0.23245E-03   -0.43845E-01 13172   0.220E+00    0.175E+00
RMM:   4    -0.656745911320E+03    0.18583E-01   -0.90821E-02 14055   0.694E-01    0.610E-01
RMM:   5    -0.656744351339E+03    0.15600E-02   -0.15321E-02 13506   0.297E-01    0.610E-01
RMM:   6    -0.656742223830E+03    0.21275E-02   -0.55656E-03 13885   0.149E-01    0.366E-01
RMM:   7    -0.656742254982E+03   -0.31152E-04   -0.69644E-03 13502   0.152E-01    0.399E-01
RMM:   8    -0.656740905465E+03    0.13495E-02   -0.26733E-03 13390   0.120E-01    0.141E-01
RMM:   9    -0.656741057504E+03   -0.15204E-03   -0.12144E-03 13431   0.585E-02    0.165E-01
RMM:  10    -0.656740844501E+03    0.21300E-03   -0.46522E-04 12726   0.432E-02    0.361E-02
RMM:  11    -0.656740853659E+03   -0.91577E-05   -0.28206E-04 11764   0.237E-02    0.398E-02
RMM:  12    -0.656740856347E+03   -0.26881E-05   -0.14774E-04 10727   0.197E-02    0.299E-02
RMM:  13    -0.656740857039E+03   -0.69205E-06   -0.84619E-05  9191   0.159E-02
  13 F= -.65674086E+03 E0= -.65669187E+03  d E =-.169273E-01
       N       E                     dE             d eps       ncg     rms          rms(c)
DAV:   1    -0.656475278732E+03    0.26558E+00   -0.17530E+01  9744   0.164E+01    0.101E+00
RMM:   2    -0.656763707156E+03   -0.28843E+00   -0.30026E+00 13477   0.434E+00    0.127E+00
RMM:   3    -0.656768616992E+03   -0.49098E-02   -0.21999E-01 13193   0.157E+00    0.151E+00
RMM:   4    -0.656755643174E+03    0.12974E-01   -0.45751E-02 13966   0.502E-01    0.461E-01
RMM:   5    -0.656754493725E+03    0.11494E-02   -0.79557E-03 13426   0.210E-01    0.408E-01
RMM:   6    -0.656753652373E+03    0.84135E-03   -0.28030E-03 13619   0.107E-01    0.277E-01
RMM:   7    -0.656753354457E+03    0.29792E-03   -0.35499E-03 13520   0.105E-01    0.241E-01
RMM:   8    -0.656752931355E+03    0.42310E-03   -0.10771E-03 13061   0.775E-02    0.106E-01
RMM:   9    -0.656752919473E+03    0.11882E-04   -0.50106E-04 12686   0.375E-02    0.762E-02
RMM:  10    -0.656752891081E+03    0.28392E-04   -0.20589E-04 11672   0.273E-02    0.482E-02
RMM:  11    -0.656752887240E+03    0.38416E-05   -0.12772E-04 10839   0.181E-02    0.371E-02
RMM:  12    -0.656752881770E+03    0.54698E-05   -0.65709E-05  9008   0.158E-02
  14 F= -.65675288E+03 E0= -.65670312E+03  d E =-.289521E-01
       N       E                     dE             d eps       ncg     rms          rms(c)
DAV:   1    -0.656660238550E+03    0.92649E-01   -0.66950E+00  9600   0.985E+00    0.630E-01
RMM:   2    -0.656772645941E+03   -0.11241E+00   -0.11546E+00 13568   0.260E+00    0.881E-01
RMM:   3    -0.656772868680E+03   -0.22274E-03   -0.89041E-02 13138   0.949E-01    0.822E-01
RMM:   4    -0.656769616417E+03    0.32523E-02   -0.19152E-02 13737   0.328E-01    0.397E-01
RMM:   5    -0.656768465531E+03    0.11509E-02   -0.37499E-03 13088   0.148E-01    0.214E-01
RMM:   6    -0.656768154664E+03    0.31087E-03   -0.13276E-03 13217   0.768E-02    0.180E-01
RMM:   7    -0.656768320056E+03   -0.16539E-03   -0.12725E-03 13074   0.625E-02    0.242E-01
RMM:   8    -0.656767809755E+03    0.51030E-03   -0.91481E-04 13219   0.644E-02    0.451E-02
RMM:   9    -0.656767876458E+03   -0.66702E-04   -0.27290E-04 11984   0.351E-02    0.878E-02
RMM:  10    -0.656767818862E+03    0.57595E-04   -0.10303E-04 10670   0.224E-02    0.182E-02
RMM:  11    -0.656767823427E+03   -0.45644E-05   -0.59817E-05  8229   0.141E-02
  15 F= -.65676782E+03 E0= -.65671842E+03  d E =-.149417E-01
       N       E                     dE             d eps       ncg     rms          rms(c)
DAV:   1    -0.656626209661E+03    0.14161E+00   -0.92038E+00  9600   0.115E+01    0.731E-01
RMM:   2    -0.656780808273E+03   -0.15460E+00   -0.15984E+00 13569   0.305E+00    0.989E-01
RMM:   3    -0.656781952189E+03   -0.11439E-02   -0.11813E-01 13155   0.109E+00    0.963E-01
RMM:   4    -0.656777073834E+03    0.48784E-02   -0.24723E-02 13935   0.377E-01    0.439E-01
RMM:   5    -0.656775708719E+03    0.13651E-02   -0.51877E-03 13265   0.168E-01    0.249E-01
RMM:   6    -0.656775323425E+03    0.38529E-03   -0.19132E-03 13385   0.918E-02    0.213E-01
RMM:   7    -0.656775530776E+03   -0.20735E-03   -0.18514E-03 13415   0.745E-02    0.279E-01
RMM:   8    -0.656774857307E+03    0.67347E-03   -0.12738E-03 13399   0.757E-02    0.556E-02
RMM:   9    -0.656774957230E+03   -0.99923E-04   -0.40379E-04 12334   0.406E-02    0.107E-01
RMM:  10    -0.656774871534E+03    0.85696E-04   -0.16193E-04 11616   0.258E-02    0.217E-02
RMM:  11    -0.656774881335E+03   -0.98011E-05   -0.93213E-05 10070   0.163E-02
  16 F= -.65677488E+03 E0= -.65672609E+03  d E =-.219996E-01
       N       E                     dE             d eps       ncg     rms          rms(c)
DAV:   1    -0.656641932245E+03    0.13294E+00   -0.95012E+00  9720   0.112E+01    0.103E+00
RMM:   2    -0.656820749151E+03   -0.17882E+00   -0.17276E+00 13443   0.309E+00    0.178E+00
RMM:   3    -0.656795202776E+03    0.25546E-01   -0.14416E-01 13176   0.125E+00    0.906E-01
RMM:   4    -0.656793038355E+03    0.21644E-02   -0.32500E-02 13917   0.388E-01    0.710E-01
RMM:   5    -0.656788895170E+03    0.41432E-02   -0.72885E-03 13227   0.221E-01    0.294E-01
RMM:   6    -0.656788208621E+03    0.68655E-03   -0.34117E-03 13768   0.105E-01    0.263E-01
RMM:   7    -0.656788655308E+03   -0.44669E-03   -0.23856E-03 13977   0.933E-02    0.378E-01
RMM:   8    -0.656787499992E+03    0.11553E-02   -0.15689E-03 14104   0.809E-02    0.790E-02
RMM:   9    -0.656787597610E+03   -0.97618E-04   -0.48251E-04 13599   0.475E-02    0.128E-01
RMM:  10    -0.656787477444E+03    0.12017E-03   -0.23491E-04 13103   0.269E-02    0.291E-02
RMM:  11    -0.656787484410E+03   -0.69663E-05   -0.11231E-04 11289   0.183E-02    0.340E-02
RMM:  12    -0.656787482019E+03    0.23907E-05   -0.60676E-05  9044   0.155E-02
  17 F= -.65678748E+03 E0= -.65673911E+03  d E =-.126007E-01
       N       E                     dE             d eps       ncg     rms          rms(c)
DAV:   1    -0.656779985857E+03    0.74986E-02   -0.52068E-01 10032   0.263E+00    0.243E-01
RMM:   2    -0.656790256425E+03   -0.10271E-01   -0.97198E-02 13453   0.740E-01    0.446E-01
RMM:   3    -0.656788587922E+03    0.16685E-02   -0.76114E-03 13060   0.278E-01    0.213E-01
RMM:   4    -0.656788467714E+03    0.12021E-03   -0.17929E-03 13436   0.921E-02    0.169E-01
RMM:   5    -0.656788231012E+03    0.23670E-03   -0.43540E-04 11989   0.544E-02    0.684E-02
RMM:   6    -0.656788202864E+03    0.28148E-04   -0.21123E-04 12010   0.276E-02    0.685E-02
RMM:   7    -0.656788210890E+03   -0.80253E-05   -0.14526E-04 11054   0.246E-02    0.800E-02
RMM:   8    -0.656788158172E+03    0.52718E-04   -0.10099E-04 11210   0.226E-02    0.220E-02
RMM:   9    -0.656788159569E+03   -0.13978E-05   -0.32604E-05  7296   0.158E-02
  18 F= -.65678816E+03 E0= -.65673988E+03  d E =-.132782E-01
       N       E                     dE             d eps       ncg     rms          rms(c)
DAV:   1    -0.656735578458E+03    0.52580E-01   -0.64089E+00  9408   0.885E+00    0.162E+00
RMM:   2    -0.656979355779E+03   -0.24378E+00   -0.13626E+00 12256   0.303E+00    0.422E+00
RMM:   3    -0.656806137074E+03    0.17322E+00   -0.19256E-01 11877   0.145E+00    0.114E+00
RMM:   4    -0.656803383245E+03    0.27538E-02   -0.47763E-02 13433   0.477E-01    0.926E-01
RMM:   5    -0.656794344062E+03    0.90392E-02   -0.11185E-02 13252   0.269E-01    0.349E-01
RMM:   6    -0.656796166252E+03   -0.18222E-02   -0.72831E-03 13164   0.173E-01    0.668E-01
RMM:   7    -0.656792924665E+03    0.32416E-02   -0.45982E-03 13552   0.150E-01    0.153E-01
RMM:   8    -0.656792845546E+03    0.79118E-04   -0.12941E-03 14370   0.760E-02    0.124E-01
RMM:   9    -0.656792787697E+03    0.57850E-04   -0.52084E-04 13673   0.411E-02    0.726E-02
RMM:  10    -0.656792786777E+03    0.91948E-06   -0.24703E-04 12630   0.271E-02    0.396E-02
RMM:  11    -0.656792816734E+03   -0.29957E-04   -0.12592E-04 11286   0.191E-02    0.445E-02
RMM:  12    -0.656792833436E+03   -0.16702E-04   -0.79057E-05 10795   0.181E-02    0.265E-02
RMM:  13    -0.656792872857E+03   -0.39421E-04   -0.76710E-05 10296   0.170E-02    0.315E-02
RMM:  14    -0.656792875497E+03   -0.26402E-05   -0.47218E-05  8784   0.169E-02
  19 F= -.65679288E+03 E0= -.65674505E+03  d E =-.471593E-02
       N       E                     dE             d eps       ncg     rms          rms(c)
DAV:   1    -0.656789131700E+03    0.37412E-02   -0.52453E-01 10032   0.253E+00    0.472E-01
RMM:   2    -0.656809324778E+03   -0.20193E-01   -0.11060E-01 12441   0.849E-01    0.118E+00
RMM:   3    -0.656794821802E+03    0.14503E-01   -0.15687E-02 11962   0.406E-01    0.304E-01
RMM:   4    -0.656794719104E+03    0.10270E-03   -0.38594E-03 13293   0.139E-01    0.275E-01
RMM:   5    -0.656793942554E+03    0.77655E-03   -0.91959E-04 13117   0.770E-02    0.965E-02
RMM:   6    -0.656794072865E+03   -0.13031E-03   -0.59053E-04 12888   0.501E-02    0.188E-01
RMM:   7    -0.656793817422E+03    0.25544E-03   -0.36226E-04 12474   0.417E-02    0.510E-02
RMM:   8    -0.656793795022E+03    0.22399E-04   -0.10471E-04 11162   0.234E-02    0.371E-02
RMM:   9    -0.656793785801E+03    0.92215E-05   -0.37737E-05  7445   0.153E-02
  20 F= -.65679379E+03 E0= -.65674586E+03  d E =-.562623E-02
       N       E                     dE             d eps       ncg     rms          rms(c)
DAV:   1    -0.656770111409E+03    0.23684E-01   -0.27692E+00  9432   0.577E+00    0.647E-01
RMM:   2    -0.656814786116E+03   -0.44675E-01   -0.39760E-01 13418   0.165E+00    0.119E+00
RMM:   3    -0.656800568907E+03    0.14217E-01   -0.38622E-02 12977   0.663E-01    0.452E-01
RMM:   4    -0.656800853646E+03   -0.28474E-03   -0.96718E-03 13817   0.222E-01    0.485E-01
RMM:   5    -0.656798743814E+03    0.21098E-02   -0.25633E-03 13027   0.130E-01    0.164E-01
RMM:   6    -0.656798628317E+03    0.11550E-03   -0.14829E-03 13596   0.750E-02    0.194E-01
RMM:   7    -0.656798571986E+03    0.56331E-04   -0.80511E-04 13706   0.605E-02    0.179E-01
RMM:   8    -0.656798313234E+03    0.25875E-03   -0.38564E-04 13723   0.403E-02    0.444E-02
RMM:   9    -0.656798319682E+03   -0.64476E-05   -0.13802E-04 12164   0.241E-02    0.512E-02
RMM:  10    -0.656798300214E+03    0.19468E-04   -0.70119E-05  9877   0.150E-02    0.165E-02
RMM:  11    -0.656798301445E+03   -0.12306E-05   -0.32704E-05  7211   0.134E-02
  21 F= -.65679830E+03 E0= -.65675023E+03  d E =-.451564E-02
       N       E                     dE             d eps       ncg     rms          rms(c)
DAV:   1    -0.656798174071E+03    0.12614E-03   -0.15517E-02 10608   0.432E-01    0.501E-02
RMM:   2    -0.656798446672E+03   -0.27260E-03   -0.22527E-03 13071   0.123E-01    0.102E-01
RMM:   3    -0.656798348814E+03    0.97859E-04   -0.24322E-04 10999   0.514E-02    0.377E-02
RMM:   4    -0.656798347027E+03    0.17868E-05   -0.57959E-05  7592   0.214E-02
  22 F= -.65679835E+03 E0= -.65675027E+03  d E =-.456123E-02
       N       E                     dE             d eps       ncg     rms          rms(c)
DAV:   1    -0.656790515461E+03    0.78334E-02   -0.86448E-01  9984   0.338E+00    0.262E-01
RMM:   2    -0.656802199018E+03   -0.11684E-01   -0.12105E-01 13549   0.912E-01    0.395E-01
RMM:   3    -0.656801494362E+03    0.70466E-03   -0.10058E-02 13090   0.352E-01    0.256E-01
RMM:   4    -0.656801345561E+03    0.14880E-03   -0.24488E-03 13671   0.122E-01    0.213E-01
RMM:   5    -0.656800961319E+03    0.38424E-03   -0.64587E-04 12373   0.664E-02    0.792E-02
RMM:   6    -0.656801067172E+03   -0.10585E-03   -0.41193E-04 12547   0.420E-02    0.152E-01
RMM:   7    -0.656800892782E+03    0.17439E-03   -0.22356E-04 11741   0.314E-02    0.331E-02
RMM:   8    -0.656800878929E+03    0.13853E-04   -0.79069E-05  9969   0.196E-02    0.118E-02
RMM:   9    -0.656800884733E+03   -0.58032E-05   -0.34336E-05  7140   0.134E-02
  23 F= -.65680088E+03 E0= -.65675275E+03  d E =-.253771E-02
       N       E                     dE             d eps       ncg     rms          rms(c)
DAV:   1    -0.656798777334E+03    0.21016E-02   -0.20830E-01 10224   0.166E+00    0.131E-01
RMM:   2    -0.656801605810E+03   -0.28285E-02   -0.29311E-02 13548   0.447E-01    0.197E-01
RMM:   3    -0.656801429838E+03    0.17597E-03   -0.24737E-03 12974   0.173E-01    0.126E-01
RMM:   4    -0.656801390399E+03    0.39439E-04   -0.60199E-04 12572   0.607E-02    0.103E-01
RMM:   5    -0.656801301654E+03    0.88745E-04   -0.17272E-04 11404   0.357E-02    0.379E-02
RMM:   6    -0.656801331778E+03   -0.30124E-04   -0.11042E-04 10396   0.216E-02    0.772E-02
RMM:   7    -0.656801287965E+03    0.43814E-04   -0.56578E-05  8887   0.177E-02    0.150E-02
RMM:   8    -0.656801286327E+03    0.16382E-05   -0.20232E-05  6342   0.133E-02
  24 F= -.65680129E+03 E0= -.65675312E+03  d E =-.293930E-02
       N       E                     dE             d eps       ncg     rms          rms(c)
DAV:   1    -0.656794019039E+03    0.72689E-02   -0.64543E-01  9408   0.303E+00    0.199E-01
RMM:   2    -0.656803014428E+03   -0.89954E-02   -0.94753E-02 13284   0.802E-01    0.248E-01
RMM:   3    -0.656803037172E+03   -0.22744E-04   -0.73241E-03 12992   0.290E-01    0.237E-01
RMM:   4    -0.656802770762E+03    0.26641E-03   -0.16312E-03 13139   0.102E-01    0.129E-01
RMM:   5    -0.656802650616E+03    0.12015E-03   -0.37952E-04 12180   0.498E-02    0.613E-02
RMM:   6    -0.656802689136E+03   -0.38520E-04   -0.22731E-04 11481   0.314E-02    0.101E-01
RMM:   7    -0.656802610695E+03    0.78441E-04   -0.13328E-04 10828   0.247E-02    0.243E-02
RMM:   8    -0.656802605620E+03    0.50758E-05   -0.44714E-05  7988   0.168E-02
  25 F= -.65680261E+03 E0= -.65675433E+03  d E =-.131929E-02
       N       E                     dE             d eps       ncg     rms          rms(c)
DAV:   1    -0.656800979964E+03    0.16307E-02   -0.13162E-01 10032   0.137E+00    0.921E-02
RMM:   2    -0.656802882760E+03   -0.19028E-02   -0.19471E-02 13291   0.362E-01    0.144E-01
RMM:   3    -0.656802799906E+03    0.82854E-04   -0.15239E-03 12913   0.133E-01    0.930E-02
RMM:   4    -0.656802766274E+03    0.33632E-04   -0.33142E-04 11502   0.468E-02    0.608E-02
RMM:   5    -0.656802744640E+03    0.21634E-04   -0.95138E-05 10308   0.256E-02    0.322E-02
RMM:   6    -0.656802749975E+03   -0.53351E-05   -0.47888E-05  8120   0.162E-02
  26 F= -.65680275E+03 E0= -.65675443E+03  d E =-.146365E-02
       N       E                     dE             d eps       ncg     rms          rms(c)
DAV:   1    -0.656796436316E+03    0.63083E-02   -0.62941E-01  9720   0.313E+00    0.439E-01
RMM:   2    -0.656815922043E+03   -0.19486E-01   -0.12201E-01 11863   0.894E-01    0.108E+00
RMM:   3    -0.656804059964E+03    0.11862E-01   -0.15228E-02 11255   0.442E-01    0.309E-01
RMM:   4    -0.656804010386E+03    0.49578E-04   -0.41399E-03 13684   0.140E-01    0.279E-01
RMM:   5    -0.656803237918E+03    0.77247E-03   -0.96471E-04 12789   0.834E-02    0.103E-01
RMM:   6    -0.656803403970E+03   -0.16605E-03   -0.59023E-04 12663   0.493E-02    0.194E-01
RMM:   7    -0.656803114315E+03    0.28965E-03   -0.38040E-04 12926   0.441E-02    0.352E-02
RMM:   8    -0.656803123180E+03   -0.88642E-05   -0.11439E-04 11567   0.247E-02    0.537E-02
RMM:   9    -0.656803098845E+03    0.24335E-04   -0.46125E-05  8097   0.155E-02    0.128E-02
RMM:  10    -0.656803096474E+03    0.23714E-05   -0.17425E-05  6271   0.127E-02
  27 F= -.65680310E+03 E0= -.65675466E+03  d E =-.346499E-03
       N       E                     dE             d eps       ncg     rms          rms(c)
DAV:   1    -0.656802530319E+03    0.56853E-03   -0.60113E-02 10368   0.969E-01    0.137E-01
RMM:   2    -0.656804401059E+03   -0.18707E-02   -0.11790E-02 12018   0.282E-01    0.339E-01
RMM:   3    -0.656803254056E+03    0.11470E-02   -0.14923E-03 11420   0.137E-01    0.983E-02
RMM:   4    -0.656803244436E+03    0.96199E-05   -0.40574E-04 12675   0.437E-02    0.869E-02
RMM:   5    -0.656803167298E+03    0.77137E-04   -0.89369E-05  9296   0.278E-02    0.332E-02
RMM:   6    -0.656803183855E+03   -0.16557E-04   -0.55547E-05  7437   0.191E-02    0.634E-02
RMM:   7    -0.656803152523E+03    0.31332E-04   -0.31905E-05  6273   0.187E-02    0.121E-02
RMM:   8    -0.656803156031E+03   -0.35078E-05   -0.13058E-05  5739   0.149E-02
  28 F= -.65680316E+03 E0= -.65675476E+03  d E =-.406055E-03
       N       E                     dE             d eps       ncg     rms          rms(c)
DAV:   1    -0.656800140732E+03    0.30118E-02   -0.25781E-01  9456   0.200E+00    0.190E-01
RMM:   2    -0.656805232216E+03   -0.50915E-02   -0.44750E-02 12778   0.539E-01    0.373E-01
RMM:   3    -0.656803747890E+03    0.14843E-02   -0.41330E-03 12077   0.219E-01    0.132E-01
RMM:   4    -0.656803837630E+03   -0.89739E-04   -0.10157E-03 12995   0.725E-02    0.163E-01
RMM:   5    -0.656803611487E+03    0.22614E-03   -0.23029E-04 10969   0.443E-02    0.438E-02
RMM:   6    -0.656803648164E+03   -0.36677E-04   -0.13196E-04 10193   0.252E-02    0.881E-02
RMM:   7    -0.656803591759E+03    0.56405E-04   -0.72110E-05  8427   0.219E-02    0.235E-02
RMM:   8    -0.656803592253E+03   -0.49358E-06   -0.27038E-05  6498   0.164E-02
  29 F= -.65680359E+03 E0= -.65675521E+03  d E =-.436222E-03
       N       E                     dE             d eps       ncg     rms          rms(c)
DAV:   1    -0.656803247306E+03    0.34445E-03   -0.26029E-02 10080   0.638E-01    0.603E-02
RMM:   2    -0.656803776329E+03   -0.52902E-03   -0.45988E-03 12682   0.173E-01    0.121E-01
RMM:   3    -0.656803622331E+03    0.15400E-03   -0.43004E-04 11342   0.682E-02    0.424E-02
RMM:   4    -0.656803630138E+03   -0.78069E-05   -0.99464E-05  8494   0.253E-02
  30 F= -.65680363E+03 E0= -.65675525E+03  d E =-.474107E-03
       N       E                     dE             d eps       ncg     rms          rms(c)
DAV:   1    -0.656804597289E+03   -0.97496E-03   -0.46540E-02 11376   0.776E-01    0.300E-01
RMM:   2    -0.656810032390E+03   -0.54351E-02   -0.16279E-02 11758   0.316E-01    0.759E-01
RMM:   3    -0.656803963909E+03    0.60685E-02   -0.41274E-03 11261   0.187E-01    0.187E-01
RMM:   4    -0.656803865765E+03    0.98144E-04   -0.92654E-04 11970   0.742E-02    0.159E-01
RMM:   5    -0.656803586484E+03    0.27928E-03   -0.37405E-04 11588   0.425E-02    0.413E-02
RMM:   6    -0.656803601688E+03   -0.15204E-04   -0.21835E-04 12040   0.373E-02    0.690E-02
RMM:   7    -0.656803573520E+03    0.28168E-04   -0.58241E-05  8651   0.190E-02    0.275E-02
RMM:   8    -0.656803573828E+03   -0.30793E-06   -0.14832E-05  5884   0.140E-02
  31 F= -.65680357E+03 E0= -.65675523E+03  d E =0.563100E-04
       N       E                     dE             d eps       ncg     rms          rms(c)
DAV:   1    -0.656804106134E+03   -0.53261E-03   -0.20146E-02 11304   0.511E-01    0.194E-01
RMM:   2    -0.656806340793E+03   -0.22347E-02   -0.68793E-03 12200   0.206E-01    0.485E-01
RMM:   3    -0.656803847876E+03    0.24929E-02   -0.17571E-03 11599   0.118E-01    0.118E-01
RMM:   4    -0.656803813668E+03    0.34208E-04   -0.38868E-04 11650   0.485E-02    0.106E-01
RMM:   5    -0.656803688112E+03    0.12556E-03   -0.16348E-04 11215   0.280E-02    0.301E-02
RMM:   6    -0.656803701550E+03   -0.13438E-04   -0.87659E-05  8852   0.262E-02    0.651E-02
RMM:   7    -0.656803670636E+03    0.30915E-04   -0.26598E-05  6224   0.169E-02    0.141E-02
RMM:   8    -0.656803667291E+03    0.33451E-05   -0.73337E-06  5351   0.111E-02
  32 F= -.65680367E+03 E0= -.65675530E+03  d E =-.371528E-04
       N       E                     dE             d eps       ncg     rms          rms(c)
DAV:   1    -0.656803691333E+03   -0.20698E-04   -0.12253E-03 11568   0.126E-01    0.475E-02
RMM:   2    -0.656803823321E+03   -0.13199E-03   -0.42864E-04 11716   0.516E-02    0.119E-01
RMM:   3    -0.656803671895E+03    0.15143E-03   -0.10746E-04  9199   0.306E-02    0.296E-02
RMM:   4    -0.656803668945E+03    0.29506E-05   -0.19834E-05  5941   0.154E-02
  33 F= -.65680367E+03 E0= -.65675530E+03  d E =-.388068E-04
       N       E                     dE             d eps       ncg     rms          rms(c)
DAV:   1    -0.656803710243E+03   -0.38348E-04   -0.27487E-03 11520   0.190E-01    0.778E-02
RMM:   2    -0.656804055167E+03   -0.34492E-03   -0.10200E-03 11631   0.784E-02    0.194E-01
RMM:   3    -0.656803662416E+03    0.39275E-03   -0.27388E-04  9931   0.475E-02    0.508E-02
RMM:   4    -0.656803654544E+03    0.78716E-05   -0.58939E-05  7916   0.227E-02
  34 F= -.65680365E+03 E0= -.65675530E+03  d E =-.244061E-04
       N       E                     dE             d eps       ncg     rms          rms(c)
DAV:   1    -0.656803637979E+03    0.24437E-04   -0.64808E-04 12432   0.926E-02    0.450E-02
RMM:   2    -0.656803753304E+03   -0.11533E-03   -0.29698E-04 10321   0.400E-02    0.118E-01
RMM:   3    -0.656803623589E+03    0.12972E-03   -0.83806E-05  7808   0.279E-02    0.374E-02
RMM:   4    -0.656803617368E+03    0.62205E-05   -0.18739E-05  6035   0.155E-02
  35 F= -.65680362E+03 E0= -.65675528E+03  d E =0.127695E-04
       N       E                     dE             d eps       ncg     rms          rms(c)
DAV:   1    -0.656803510152E+03    0.11344E-03   -0.22503E-02  9696   0.539E-01    0.519E-02
RMM:   2    -0.656803758929E+03   -0.24878E-03   -0.31149E-03 13773   0.147E-01    0.417E-02
RMM:   3    -0.656803788824E+03   -0.29896E-04   -0.27296E-04 11918   0.550E-02    0.733E-02
RMM:   4    -0.656803741966E+03    0.46858E-04   -0.60601E-05  7204   0.231E-02    0.174E-02
RMM:   5    -0.656803749928E+03   -0.79614E-05   -0.30843E-05  7051   0.177E-02
  36 F= -.65680375E+03 E0= -.65675539E+03  d E =-.132560E-03
       N       E                     dE             d eps       ncg     rms          rms(c)
DAV:   1    -0.656803499820E+03    0.24215E-03   -0.25089E-02  9600   0.570E-01    0.568E-02
RMM:   2    -0.656803813716E+03   -0.31390E-03   -0.36018E-03 13723   0.158E-01    0.793E-02
RMM:   3    -0.656803797888E+03    0.15827E-04   -0.32009E-04 12184   0.576E-02    0.584E-02
RMM:   4    -0.656803766056E+03    0.31832E-04   -0.65275E-05  8099   0.232E-02    0.298E-02
RMM:   5    -0.656803766254E+03   -0.19742E-06   -0.35010E-05  7643   0.179E-02
  37 F= -.65680377E+03 E0= -.65675539E+03  d E =-.148885E-03
       N       E                     dE             d eps       ncg     rms          rms(c)
DAV:   1    -0.656803890930E+03   -0.12487E-03   -0.90343E-03 10320   0.367E-01    0.106E-01
RMM:   2    -0.656804663058E+03   -0.77213E-03   -0.27764E-03 10995   0.141E-01    0.270E-01
RMM:   3    -0.656803886923E+03    0.77614E-03   -0.58833E-04 10358   0.774E-02    0.614E-02
RMM:   4    -0.656803880915E+03    0.60076E-05   -0.12976E-04 10568   0.273E-02    0.563E-02
RMM:   5    -0.656803844503E+03    0.36412E-04   -0.42548E-05  7012   0.171E-02    0.177E-02
RMM:   6    -0.656803850660E+03   -0.61564E-05   -0.25091E-05  6114   0.176E-02
  38 F= -.65680385E+03 E0= -.65675549E+03  d E =-.844063E-04
       N       E                     dE             d eps       ncg     rms          rms(c)
DAV:   1    -0.656803882925E+03   -0.38421E-04   -0.67637E-03 10248   0.319E-01    0.879E-02
RMM:   2    -0.656804424340E+03   -0.54142E-03   -0.19567E-03 10247   0.119E-01    0.228E-01
RMM:   3    -0.656803894616E+03    0.52972E-03   -0.39138E-04  9396   0.659E-02    0.597E-02
RMM:   4    -0.656803882008E+03    0.12608E-04   -0.90620E-05  8844   0.238E-02    0.455E-02
RMM:   5    -0.656803858433E+03    0.23575E-04   -0.27682E-05  6208   0.171E-02    0.200E-02
RMM:   6    -0.656803860515E+03   -0.20822E-05   -0.16486E-05  5893   0.148E-02
  39 F= -.65680386E+03 E0= -.65675547E+03  d E =-.942617E-04
       N       E                     dE             d eps       ncg     rms          rms(c)
DAV:   1    -0.656803940068E+03   -0.81635E-04   -0.29547E-03 10080   0.185E-01    0.480E-02
RMM:   2    -0.656804067118E+03   -0.12705E-03   -0.62572E-04 10447   0.674E-02    0.111E-01
RMM:   3    -0.656803941190E+03    0.12593E-03   -0.10676E-04  8205   0.381E-02    0.322E-02
RMM:   4    -0.656803941269E+03   -0.79439E-07   -0.28908E-05  6423   0.162E-02
  40 F= -.65680394E+03 E0= -.65675558E+03  d E =-.807539E-04
       N       E                     dE             d eps       ncg     rms          rms(c)
DAV:   1    -0.656804113898E+03   -0.17271E-03   -0.26670E-02  9744   0.555E-01    0.146E-01
RMM:   2    -0.656805189072E+03   -0.10752E-02   -0.55970E-03 11408   0.202E-01    0.328E-01
RMM:   3    -0.656804115988E+03    0.10731E-02   -0.98134E-04 10959   0.104E-01    0.104E-01
RMM:   4    -0.656804118926E+03   -0.29378E-05   -0.32948E-04 11460   0.406E-02    0.111E-01
RMM:   5    -0.656803985731E+03    0.13319E-03   -0.13645E-04 10475   0.289E-02    0.344E-02
RMM:   6    -0.656804007201E+03   -0.21470E-04   -0.75094E-05  8420   0.225E-02    0.700E-02
RMM:   7    -0.656803967546E+03    0.39655E-04   -0.27781E-05  6193   0.175E-02    0.704E-03
RMM:   8    -0.656803966163E+03    0.13829E-05   -0.78906E-06  5665   0.133E-02
  41 F= -.65680397E+03 E0= -.65675560E+03  d E =-.105647E-03
       N       E                     dE             d eps       ncg     rms          rms(c)
DAV:   1    -0.656803990246E+03   -0.22701E-04   -0.23158E-03 10176   0.163E-01    0.420E-02
RMM:   2    -0.656804081619E+03   -0.91372E-04   -0.48761E-04 11332   0.591E-02    0.960E-02
RMM:   3    -0.656803988204E+03    0.93415E-04   -0.79209E-05  8428   0.316E-02    0.292E-02
RMM:   4    -0.656803987617E+03    0.58680E-06   -0.22905E-05  6117   0.151E-02
  42 F= -.65680399E+03 E0= -.65675562E+03  d E =-.127102E-03
       N       E                     dE             d eps       ncg     rms          rms(c)
DAV:   1    -0.656803988092E+03    0.11177E-06   -0.32969E-03 10080   0.196E-01    0.543E-02
RMM:   2    -0.656804132803E+03   -0.14471E-03   -0.72009E-04 11543   0.709E-02    0.125E-01
RMM:   3    -0.656803983806E+03    0.14900E-03   -0.13095E-04  8922   0.383E-02    0.418E-02
RMM:   4    -0.656803981385E+03    0.24206E-05   -0.42714E-05  6986   0.189E-02
  43 F= -.65680398E+03 E0= -.65675562E+03  d E =-.120870E-03
       N       E                     dE             d eps       ncg     rms          rms(c)
DAV:   1    -0.656803955675E+03    0.28130E-04   -0.79038E-04 10584   0.981E-02    0.320E-02
RMM:   2    -0.656804016629E+03   -0.60953E-04   -0.21940E-04 10289   0.379E-02    0.890E-02
RMM:   3    -0.656803952271E+03    0.64358E-04   -0.41543E-05  6659   0.232E-02    0.266E-02
RMM:   4    -0.656803950160E+03    0.21109E-05   -0.13614E-05  5848   0.131E-02
  44 F= -.65680395E+03 E0= -.65675559E+03  d E =-.896447E-04
       N       E                     dE             d eps       ncg     rms          rms(c)
DAV:   1    -0.656803978963E+03   -0.26692E-04   -0.15244E-03 10104   0.138E-01    0.298E-02
RMM:   2    -0.656804035127E+03   -0.56164E-04   -0.31658E-04 10990   0.466E-02    0.665E-02
RMM:   3    -0.656803987425E+03    0.47702E-04   -0.41773E-05  6583   0.264E-02    0.208E-02
RMM:   4    -0.656803987687E+03   -0.26241E-06   -0.11874E-05  5527   0.131E-02
  45 F= -.65680399E+03 E0= -.65675563E+03  d E =-.375272E-04
