<?xml version="1.0" encoding="ISO-8859-1"?>
<modeling>
 <generator>
  <i name="program" type="string">vasp </i>
  <i name="version" type="string">5.4.4.18Apr17-6-g9f103f2a35  </i>
  <i name="subversion" type="string">(build Oct 18 2021 20:38:43) complex            parallel </i>
  <i name="platform" type="string">LinuxIFC </i>
  <i name="date" type="string">2024 06 24 </i>
  <i name="time" type="string">10:44:01 </i>
 </generator>
 <incar>
  <i type="string" name="SYSTEM">HECN</i>
  <i type="int" name="ISTART">     0</i>
  <i type="string" name="PREC">normal</i>
  <i type="string" name="ALGO">Fast</i>
  <i type="int" name="ICHARG">     2</i>
  <i type="int" name="NELM">    60</i>
  <i type="int" name="IBRION">     2</i>
  <i name="EDIFF">      0.00001000</i>
  <i name="EDIFFG">     -0.01000000</i>
  <i type="int" name="NSW">   100</i>
  <i type="int" name="ISIF">     3</i>
  <i name="ENCUT">    400.00000000</i>
  <i name="POTIM">      0.50000000</i>
  <i type="logical" name="LREAL"> F  </i>
  <i type="int" name="ISMEAR">     0</i>
  <i name="SIGMA">      0.10000000</i>
  <i type="logical" name="LWAVE"> F  </i>
  <i type="logical" name="LCHARG"> F  </i>
  <v type="int" name="KPOINT_BSE">    -1     0     0     0</v>
  <i type="int" name="NELM">    60</i>
 </incar>
 <structure name="primitive_cell" >
  <crystal>
   <varray name="basis" >
    <v>       8.83885041       0.00910293       0.03180267 </v>
    <v>       0.01503565       8.88291007      -0.01638786 </v>
    <v>       0.06364643      -0.03162632       8.87348814 </v>
   </varray>
   <i name="volume">    696.67557623 </i>
   <varray name="rec_basis" >
    <v>       0.11314001      -0.00019300      -0.00081220 </v>
    <v>      -0.00011739       0.11257666       0.00040208 </v>
    <v>      -0.00040571       0.00020860       0.11269891 </v>
   </varray>
  </crystal>
  <varray name="positions" >
   <v>      -0.00194701       0.00217450      -0.00092713 </v>
   <v>      -0.25239273       0.00519308       0.01484178 </v>
   <v>       0.00209379       0.25504853       0.00179162 </v>
   <v>      -0.00922428       0.00306399      -0.25582449 </v>
   <v>      -0.00517995      -0.00300137       0.25427671 </v>
   <v>       0.00454475      -0.25474800       0.00312593 </v>
   <v>       0.26185346       0.00049913      -0.01000663 </v>
   <v>      -0.00835401       0.23577705       0.25601324 </v>
   <v>      -0.26149235      -0.01462618      -0.22838631 </v>
   <v>       0.24399449       0.00919987      -0.25185962 </v>
   <v>       0.00388245      -0.23799713       0.25156638 </v>
   <v>      -0.24019671      -0.25541273       0.00636235 </v>
   <v>       0.23232855      -0.26385249       0.00053652 </v>
   <v>       0.00251471      -0.25430339      -0.24686626 </v>
   <v>      -0.25688332       0.25500990       0.00072668 </v>
   <v>       0.00581640       0.25495568      -0.25393927 </v>
   <v>       0.25984304       0.00373474       0.24469067 </v>
   <v>       0.25587144       0.25656819      -0.01260125 </v>
   <v>      -0.25091027      -0.00852199       0.27194705 </v>
   <v>       0.24241812      -0.24401217      -0.24932818 </v>
   <v>      -0.24356843       0.24702878      -0.24591795 </v>
   <v>      -0.25513985       0.24470267       0.24686245 </v>
   <v>      -0.25009867      -0.24872280      -0.24793327 </v>
   <v>       0.25055248       0.24785718       0.24819370 </v>
   <v>       0.24937514       0.25052667      -0.25186113 </v>
   <v>      -0.24951647      -0.24886734       0.25288383 </v>
   <v>       0.25382690      -0.25021846       0.24652190 </v>
   <v>      -0.48136268       0.01384306      -0.01592309 </v>
   <v>       0.00358826      -0.49543173      -0.01166782 </v>
   <v>       0.01116059       0.00337344       0.49950463 </v>
   <v>      -0.48414164      -0.00054204       0.24346633 </v>
   <v>      -0.24291376       0.49396132       0.00115806 </v>
   <v>      -0.00627561       0.49419440       0.24194378 </v>
   <v>      -0.49899134       0.24561537       0.01000822 </v>
   <v>      -0.25606054       0.00123833      -0.48923297 </v>
   <v>       0.49902132      -0.23848890       0.00932007 </v>
   <v>       0.25060404       0.00025160      -0.49678433 </v>
   <v>       0.00206025      -0.24376154      -0.49988481 </v>
   <v>       0.24360816       0.49952893      -0.00484279 </v>
   <v>       0.00491770       0.24649747      -0.49953326 </v>
   <v>      -0.00114248      -0.49940183      -0.24798542 </v>
   <v>       0.49718315       0.00244261      -0.26502697 </v>
   <v>      -0.48567608       0.26462315       0.24524971 </v>
   <v>       0.49248916      -0.24240988      -0.24513481 </v>
   <v>       0.24086187       0.24862816      -0.49069751 </v>
   <v>      -0.24429844       0.25159133       0.49452964 </v>
   <v>       0.24794272       0.49406366       0.24783922 </v>
   <v>      -0.25144677      -0.49134745      -0.24783762 </v>
   <v>      -0.25329960       0.49725872       0.25030625 </v>
   <v>      -0.49834560       0.24634472      -0.24990531 </v>
   <v>       0.24923206       0.49539658      -0.25054163 </v>
   <v>      -0.25091105      -0.24732086       0.49590209 </v>
   <v>       0.25044200      -0.24940014       0.49934607 </v>
   <v>       0.49749267      -0.25963806       0.25714690 </v>
   <v>       0.48616102      -0.01285645       0.48452060 </v>
   <v>       0.49844017       0.49607954       0.00087923 </v>
   <v>       0.00111789       0.49915304      -0.49803587 </v>
   <v>       0.49890507       0.24059547       0.48935452 </v>
   <v>      -0.49686277       0.49595360       0.25490204 </v>
   <v>       0.49382782      -0.24934026       0.49881111 </v>
   <v>      -0.25487573      -0.49964871       0.49935848 </v>
   <v>       0.25608943       0.49913070      -0.49884035 </v>
   <v>      -0.49945694      -0.49890954      -0.25555206 </v>
   <v>       0.49690437      -0.48832398       0.49899046 </v>
  </varray>
 </structure>
 <varray name="primitive_index" >
  <v type="int" >        1 </v>
  <v type="int" >       25 </v>
  <v type="int" >       23 </v>
  <v type="int" >       29 </v>
  <v type="int" >       34 </v>
  <v type="int" >       38 </v>
  <v type="int" >       22 </v>
  <v type="int" >        8 </v>
  <v type="int" >       58 </v>
  <v type="int" >       56 </v>
  <v type="int" >       59 </v>
  <v type="int" >        9 </v>
  <v type="int" >       18 </v>
  <v type="int" >       12 </v>
  <v type="int" >       17 </v>
  <v type="int" >       10 </v>
  <v type="int" >        2 </v>
  <v type="int" >       14 </v>
  <v type="int" >       16 </v>
  <v type="int" >       45 </v>
  <v type="int" >       30 </v>
  <v type="int" >       24 </v>
  <v type="int" >       49 </v>
  <v type="int" >       21 </v>
  <v type="int" >       42 </v>
  <v type="int" >       39 </v>
  <v type="int" >       36 </v>
  <v type="int" >       53 </v>
  <v type="int" >       54 </v>
  <v type="int" >       61 </v>
  <v type="int" >       26 </v>
  <v type="int" >       40 </v>
  <v type="int" >       27 </v>
  <v type="int" >       35 </v>
  <v type="int" >       31 </v>
  <v type="int" >       28 </v>
  <v type="int" >       43 </v>
  <v type="int" >       47 </v>
  <v type="int" >       37 </v>
  <v type="int" >       44 </v>
  <v type="int" >       48 </v>
  <v type="int" >       33 </v>
  <v type="int" >       15 </v>
  <v type="int" >        7 </v>
  <v type="int" >       19 </v>
  <v type="int" >       11 </v>
  <v type="int" >        3 </v>
  <v type="int" >       63 </v>
  <v type="int" >       60 </v>
  <v type="int" >        5 </v>
  <v type="int" >       13 </v>
  <v type="int" >       64 </v>
  <v type="int" >       20 </v>
  <v type="int" >       55 </v>
  <v type="int" >       57 </v>
  <v type="int" >        4 </v>
  <v type="int" >        6 </v>
  <v type="int" >       32 </v>
  <v type="int" >       41 </v>
  <v type="int" >       51 </v>
  <v type="int" >       50 </v>
  <v type="int" >       46 </v>
  <v type="int" >       52 </v>
  <v type="int" >       62 </v>
 </varray>
 <kpoints>
  <generation param="Gamma">
   <v type="int" name="divisions">       3        3        3 </v>
   <v name="usershift">      0.00000000       0.00000000       0.00000000 </v>
   <v name="genvec1">      0.33333333       0.00000000       0.00000000 </v>
   <v name="genvec2">      0.00000000       0.33333333      -0.00000000 </v>
   <v name="genvec3">      0.00000000       0.00000000       0.33333333 </v>
   <v name="shift">      0.00000000       0.00000000       0.00000000 </v>
  </generation>
  <varray name="kpointlist" >
   <v>       0.00000000       0.00000000       0.00000000 </v>
   <v>       0.33333333       0.00000000      -0.00000000 </v>
   <v>      -0.00000000       0.33333333       0.00000000 </v>
   <v>       0.33333333       0.33333333       0.00000000 </v>
   <v>      -0.33333333       0.33333333       0.00000000 </v>
   <v>      -0.00000000       0.00000000       0.33333333 </v>
   <v>       0.33333333       0.00000000       0.33333333 </v>
   <v>      -0.33333333       0.00000000       0.33333333 </v>
   <v>      -0.00000000       0.33333333       0.33333333 </v>
   <v>       0.33333333       0.33333333       0.33333333 </v>
   <v>      -0.33333333       0.33333333       0.33333333 </v>
   <v>      -0.00000000      -0.33333333       0.33333333 </v>
   <v>       0.33333333      -0.33333333       0.33333333 </v>
   <v>      -0.33333333      -0.33333333       0.33333333 </v>
  </varray>
  <varray name="weights" >
   <v>       0.03703704 </v>
   <v>       0.07407407 </v>
   <v>       0.07407407 </v>
   <v>       0.07407407 </v>
   <v>       0.07407407 </v>
   <v>       0.07407407 </v>
   <v>       0.07407407 </v>
   <v>       0.07407407 </v>
   <v>       0.07407407 </v>
   <v>       0.07407407 </v>
   <v>       0.07407407 </v>
   <v>       0.07407407 </v>
   <v>       0.07407407 </v>
   <v>       0.07407407 </v>
  </varray>
 </kpoints>
 <parameters>
  <separator name="general" >
   <i type="string" name="SYSTEM">HECN</i>
   <i type="logical" name="LCOMPAT"> F  </i>
  </separator>
  <separator name="electronic" >
   <i type="string" name="PREC">normal</i>
   <i name="ENMAX">    400.00000000</i>
   <i name="ENAUG">    644.87300000</i>
   <i name="EDIFF">      0.00001000</i>
   <i type="int" name="IALGO">    68</i>
   <i type="int" name="IWAVPR">    11</i>
   <i type="int" name="NBANDS">   336</i>
   <i name="NELECT">    532.00000000</i>
   <i type="int" name="TURBO">     0</i>
   <i type="int" name="IRESTART">     0</i>
   <i type="int" name="NREBOOT">     0</i>
   <i type="int" name="NMIN">     0</i>
   <i name="EREF">      0.00000000</i>
   <separator name="electronic smearing" >
    <i type="int" name="ISMEAR">     0</i>
    <i name="SIGMA">      0.10000000</i>
    <i name="KSPACING">      0.50000000</i>
    <i type="logical" name="KGAMMA"> T  </i>
   </separator>
   <separator name="electronic projectors" >
    <i type="logical" name="LREAL"> F  </i>
    <v name="ROPT">      0.00000000      0.00000000      0.00000000      0.00000000      0.00000000      0.00000000      0.00000000</v>
    <i type="int" name="LMAXPAW">  -100</i>
    <i type="int" name="LMAXMIX">     2</i>
    <i type="logical" name="NLSPLINE"> F  </i>
   </separator>
   <separator name="electronic startup" >
    <i type="int" name="ISTART">     0</i>
    <i type="int" name="ICHARG">     2</i>
    <i type="int" name="INIWAV">     1</i>
   </separator>
   <separator name="electronic spin" >
    <i type="int" name="ISPIN">     1</i>
    <i type="logical" name="LNONCOLLINEAR"> F  </i>
    <v name="MAGMOM">      1.00000000      1.00000000      1.00000000      1.00000000      1.00000000      1.00000000      1.00000000      1.00000000      1.00000000      1.00000000      1.00000000      1.00000000      1.00000000      1.00000000      1.00000000      1.00000000      1.00000000      1.00000000      1.00000000      1.00000000
      1.00000000      1.00000000      1.00000000      1.00000000      1.00000000      1.00000000      1.00000000      1.00000000      1.00000000      1.00000000      1.00000000      1.00000000      1.00000000      1.00000000      1.00000000      1.00000000      1.00000000      1.00000000      1.00000000      1.00000000
      1.00000000      1.00000000      1.00000000      1.00000000      1.00000000      1.00000000      1.00000000      1.00000000      1.00000000      1.00000000      1.00000000      1.00000000      1.00000000      1.00000000      1.00000000      1.00000000      1.00000000      1.00000000      1.00000000      1.00000000
      1.00000000      1.00000000      1.00000000      1.00000000</v>
    <i name="NUPDOWN">     -1.00000000</i>
    <i type="logical" name="LSORBIT"> F  </i>
    <v name="SAXIS">      0.00000000      0.00000000      1.00000000</v>
    <i type="logical" name="LSPIRAL"> F  </i>
    <v name="QSPIRAL">      0.00000000      0.00000000      0.00000000</v>
    <i type="logical" name="LZEROZ"> F  </i>
   </separator>
   <separator name="electronic exchange-correlation" >
    <i type="logical" name="LASPH"> F  </i>
    <i type="logical" name="LMETAGGA"> F  </i>
   </separator>
   <separator name="electronic convergence" >
    <i type="int" name="NELM">    60</i>
    <i type="int" name="NELMDL">    -5</i>
    <i type="int" name="NELMIN">     2</i>
    <i name="ENINI">    400.00000000</i>
    <separator name="electronic convergence detail" >
     <i type="logical" name="LDIAG"> T  </i>
     <i type="logical" name="LSUBROT"> F  </i>
     <i name="WEIMIN">      0.00100000</i>
     <i name="EBREAK">      0.00000001</i>
     <i name="DEPER">      0.30000000</i>
     <i type="int" name="NRMM">     4</i>
     <i name="TIME">      0.40000000</i>
    </separator>
   </separator>
   <separator name="electronic mixer" >
    <i name="AMIX">      0.40000000</i>
    <i name="BMIX">      1.00000000</i>
    <i name="AMIN">      0.10000000</i>
    <i name="AMIX_MAG">      1.60000000</i>
    <i name="BMIX_MAG">      1.00000000</i>
    <separator name="electronic mixer details" >
     <i type="int" name="IMIX">     4</i>
     <i type="logical" name="MIXFIRST"> F  </i>
     <i type="int" name="MAXMIX">   -45</i>
     <i name="WC">    100.00000000</i>
     <i type="int" name="INIMIX">     1</i>
     <i type="int" name="MIXPRE">     1</i>
     <i type="int" name="MREMOVE">     5</i>
    </separator>
   </separator>
   <separator name="electronic dipolcorrection" >
    <i type="logical" name="LDIPOL"> F  </i>
    <i type="logical" name="LMONO"> F  </i>
    <i type="int" name="IDIPOL">     0</i>
    <i name="EPSILON">      1.00000000</i>
    <v name="DIPOL">   -100.00000000   -100.00000000   -100.00000000</v>
    <i name="EFIELD">      0.00000000</i>
   </separator>
  </separator>
  <separator name="grids" >
   <i type="int" name="NGX">    48</i>
   <i type="int" name="NGY">    48</i>
   <i type="int" name="NGZ">    48</i>
   <i type="int" name="NGXF">    96</i>
   <i type="int" name="NGYF">    96</i>
   <i type="int" name="NGZF">    96</i>
   <i type="logical" name="ADDGRID"> F  </i>
  </separator>
  <separator name="ionic" >
   <i type="int" name="NSW">   100</i>
   <i type="int" name="IBRION">     2</i>
   <i type="int" name="MDALGO">     0</i>
   <i type="int" name="ISIF">     3</i>
   <i name="PSTRESS">      0.00000000</i>
   <i name="EDIFFG">     -0.01000000</i>
   <i type="int" name="NFREE">     1</i>
   <i name="POTIM">      0.50000000</i>
   <i name="SMASS">     -3.00000000</i>
   <i name="SCALEE">      1.00000000</i>
  </separator>
  <separator name="ionic md" >
   <i name="TEBEG">      0.00010000</i>
   <i name="TEEND">      0.00010000</i>
   <i type="int" name="NBLOCK">     1</i>
   <i type="int" name="KBLOCK">   100</i>
   <i type="int" name="NPACO">   256</i>
   <i name="APACO">     16.00000000</i>
  </separator>
  <separator name="symmetry" >
   <i type="int" name="ISYM">     2</i>
   <i name="SYMPREC">      0.00001000</i>
  </separator>
  <separator name="dos" >
   <i type="int" name="LORBIT">     0</i>
   <v name="RWIGS">     -1.00000000     -1.00000000     -1.00000000     -1.00000000     -1.00000000     -1.00000000     -1.00000000</v>
   <i type="int" name="NEDOS">   301</i>
   <i name="EMIN">     10.00000000</i>
   <i name="EMAX">    -10.00000000</i>
   <i name="EFERMI">      0.00000000</i>
  </separator>
  <separator name="writing" >
   <i type="int" name="NWRITE">     2</i>
   <i type="logical" name="LWAVE"> F  </i>
   <i type="logical" name="LDOWNSAMPLE"> F  </i>
   <i type="logical" name="LCHARG"> F  </i>
   <i type="logical" name="LPARD"> F  </i>
   <i type="logical" name="LVTOT"> F  </i>
   <i type="logical" name="LVHAR"> F  </i>
   <i type="logical" name="LELF"> F  </i>
   <i type="logical" name="LOPTICS"> F  </i>
   <v name="STM">      0.00000000      0.00000000      0.00000000      0.00000000      0.00000000      0.00000000      0.00000000</v>
  </separator>
  <separator name="performance" >
   <i type="int" name="NPAR">    24</i>
   <i type="int" name="NSIM">     4</i>
   <i type="int" name="NBLK">    -1</i>
   <i type="logical" name="LPLANE"> T  </i>
   <i type="logical" name="LSCALAPACK"> T  </i>
   <i type="logical" name="LSCAAWARE"> F  </i>
   <i type="logical" name="LSCALU"> F  </i>
   <i type="logical" name="LASYNC"> F  </i>
   <i type="logical" name="LORBITALREAL"> F  </i>
  </separator>
  <separator name="miscellaneous" >
   <i type="int" name="IDIOT">     3</i>
   <i type="int" name="ISPECIAL">     0</i>
   <i type="logical" name="LMUSIC"> F  </i>
   <v name="POMASS">     91.22400000     92.91000000     50.94100000     14.00100000     12.01100000    183.85000000    180.94800000</v>
   <v name="DARWINR">      0.00000000      0.00000000      0.00000000      0.00000000      0.00000000      0.00000000      0.00000000</v>
   <v name="DARWINV">      1.00000000      1.00000000      1.00000000      1.00000000      1.00000000      1.00000000      1.00000000</v>
   <i type="logical" name="LCORR"> T  </i>
  </separator>
  <i type="logical" name="GGA_COMPAT"> T  </i>
  <i type="logical" name="LBERRY"> F  </i>
  <i type="int" name="ICORELEVEL">     0</i>
  <i type="logical" name="LDAU"> F  </i>
  <i type="int" name="I_CONSTRAINED_M">     0</i>
  <separator name="electronic exchange-correlation" >
   <i type="string" name="GGA">--</i>
   <i type="int" name="VOSKOWN">     0</i>
   <i type="logical" name="LHFCALC"> F  </i>
   <i type="string" name="PRECFOCK"></i>
   <i type="logical" name="LSYMGRAD"> F  </i>
   <i type="logical" name="LHFONE"> F  </i>
   <i type="logical" name="LRHFCALC"> F  </i>
   <i type="logical" name="LTHOMAS"> F  </i>
   <i type="logical" name="LMODELHF"> F  </i>
   <i name="ENCUT4O">     -1.00000000</i>
   <i type="int" name="EXXOEP">     0</i>
   <i type="int" name="FOURORBIT">     0</i>
   <i name="AEXX">      0.00000000</i>
   <i name="HFALPHA">      0.00000000</i>
   <i name="MCALPHA">      0.00000000</i>
   <i name="ALDAX">      1.00000000</i>
   <i name="AGGAX">      1.00000000</i>
   <i name="ALDAC">      1.00000000</i>
   <i name="AGGAC">      1.00000000</i>
   <i type="int" name="NKREDX">     1</i>
   <i type="int" name="NKREDY">     1</i>
   <i type="int" name="NKREDZ">     1</i>
   <i type="logical" name="SHIFTRED"> F  </i>
   <i type="logical" name="ODDONLY"> F  </i>
   <i type="logical" name="EVENONLY"> F  </i>
   <i type="int" name="LMAXFOCK">     0</i>
   <i type="int" name="NMAXFOCKAE">     0</i>
   <i type="logical" name="LFOCKAEDFT"> F  </i>
   <i name="HFSCREEN">      0.00000000</i>
   <i name="HFSCREENC">      0.00000000</i>
   <i type="int" name="NBANDSGWLOW">     0</i>
  </separator>
  <separator name="vdW DFT" >
   <i type="logical" name="LUSE_VDW"> F  </i>
   <i name="Zab_VDW">     -0.84910000</i>
   <i name="PARAM1">      0.12340000</i>
   <i name="PARAM2">      1.00000000</i>
   <i name="PARAM3">      0.00000000</i>
  </separator>
  <separator name="model GW" >
   <i type="int" name="MODEL_GW">     0</i>
   <i name="MODEL_EPS0">      6.53133353</i>
   <i name="MODEL_ALPHA">      1.00000000</i>
  </separator>
  <separator name="linear response parameters" >
   <i type="logical" name="LEPSILON"> F  </i>
   <i type="logical" name="LRPA"> F  </i>
   <i type="logical" name="LNABLA"> F  </i>
   <i type="logical" name="LVEL"> F  </i>
   <i type="int" name="KINTER">     0</i>
   <i name="CSHIFT">      0.10000000</i>
   <i name="OMEGAMAX">     -1.00000000</i>
   <i name="DEG_THRESHOLD">      0.00200000</i>
   <i name="RTIME">     -0.10000000</i>
   <i name="WPLASMAI">      0.00000000</i>
   <v name="DFIELD">      0.00000000      0.00000000      0.00000000</v>
   <v name="WPLASMA">      0.00000000      0.00000000      0.00000000      0.00000000      0.00000000      0.00000000      0.00000000      0.00000000      0.00000000</v>
  </separator>
  <separator name="orbital magnetization" >
   <i type="logical" name="NUCIND"> F  </i>
   <v name="MAGPOS">      0.00000000      0.00000000      0.00000000</v>
   <i type="logical" name="LNICSALL"> T  </i>
   <i type="logical" name="ORBITALMAG"> F  </i>
   <i type="logical" name="LMAGBLOCH"> F  </i>
   <i type="logical" name="LCHIMAG"> F  </i>
   <i type="logical" name="LGAUGE"> T  </i>
   <i type="int" name="MAGATOM">     0</i>
   <v name="MAGDIPOL">      0.00000000      0.00000000      0.00000000</v>
   <v name="AVECCONST">      0.00000000      0.00000000      0.00000000</v>
  </separator>
  <separator name="response functions" >
   <i type="logical" name="LADDER"> F  </i>
   <i type="logical" name="LRPAFORCE"> F  </i>
   <i type="logical" name="LFXC"> F  </i>
   <i type="logical" name="LHARTREE"> T  </i>
   <i type="int" name="IBSE">     0</i>
   <v type="int" name="KPOINT">    -1     0     0     0</v>
   <i type="logical" name="LTCTE"> F  </i>
   <i type="logical" name="LTETE"> F  </i>
   <i type="logical" name="LTRIPLET"> F  </i>
   <i type="logical" name="LFXCEPS"> F  </i>
   <i type="logical" name="LFXHEG"> F  </i>
   <i type="int" name="NATURALO">     2</i>
   <i type="logical" name="L2ORDER"> F  </i>
   <i type="logical" name="LMP2LT"> F  </i>
   <i type="logical" name="LUSEW"> F  </i>
   <i name="ENCUTGW">     -2.00000000</i>
   <i name="ENCUTGWSOFT">     -2.00000000</i>
   <i name="ENCUTLF">     -1.00000000</i>
   <i type="int" name="LMAXMP2">    -1</i>
   <i name="SCISSOR">      0.00000000</i>
   <i type="int" name="NOMEGA">     0</i>
   <i type="int" name="NOMEGAR">     0</i>
   <i type="int" name="NBANDSGW">    -1</i>
   <i type="int" name="NBANDSO">    -1</i>
   <i type="int" name="NBANDSV">    -1</i>
   <i type="int" name="NELM">    60</i>
   <i type="int" name="NELMHF">     1</i>
   <i type="int" name="DIM">     3</i>
   <i type="int" name="ANTIRES">     0</i>
   <i name="OMEGAMAX">    -30.00000000</i>
   <i name="OMEGAMIN">    -30.00000000</i>
   <i name="OMEGATL">   -200.00000000</i>
   <i type="int" name="OMEGAGRID">   140</i>
   <i name="CSHIFT">     -0.10000000</i>
   <i type="logical" name="SELFENERGY"> F  </i>
   <i type="logical" name="LSPECTRAL"> F  </i>
   <i type="logical" name="LSPECTRALGW"> F  </i>
   <i type="logical" name="LSINGLES"> F  </i>
   <i type="logical" name="LFERMIGW"> F  </i>
   <i type="logical" name="ODDONLYGW"> F  </i>
   <i type="logical" name="EVENONLYGW"> F  </i>
   <i type="int" name="NKREDLFX">     1</i>
   <i type="int" name="NKREDLFY">     1</i>
   <i type="int" name="NKREDLFZ">     1</i>
   <i type="int" name="MAXMEM">  2800</i>
   <i type="int" name="TELESCOPE">     0</i>
   <i type="int" name="TAUPAR">     1</i>
   <i type="int" name="OMEGAPAR">    -1</i>
   <i name="LAMBDA">      1.00000000</i>
  </separator>
  <separator name="External order field" >
   <i name="OFIELD_KAPPA">      0.00000000</i>
   <v name="OFIELD_K">      0.00000000      0.00000000      0.00000000</v>
   <i name="OFIELD_Q6_NEAR">      0.00000000</i>
   <i name="OFIELD_Q6_FAR">      0.00000000</i>
   <i name="OFIELD_A">      0.00000000</i>
  </separator>
 </parameters>
 <atominfo>
  <atoms>      64 </atoms>
  <types>       7 </types>
  <array name="atoms" >
   <dimension dim="1">ion</dimension>
   <field type="string">element</field>
   <field type="int">atomtype</field>
   <set>
    <rc><c>Zr</c><c>   1</c></rc>
    <rc><c>Zr</c><c>   1</c></rc>
    <rc><c>Zr</c><c>   1</c></rc>
    <rc><c>Zr</c><c>   1</c></rc>
    <rc><c>Zr</c><c>   1</c></rc>
    <rc><c>Zr</c><c>   1</c></rc>
    <rc><c>Zr</c><c>   1</c></rc>
    <rc><c>Nb</c><c>   2</c></rc>
    <rc><c>Nb</c><c>   2</c></rc>
    <rc><c>Nb</c><c>   2</c></rc>
    <rc><c>Nb</c><c>   2</c></rc>
    <rc><c>Nb</c><c>   2</c></rc>
    <rc><c>Nb</c><c>   2</c></rc>
    <rc><c>V </c><c>   3</c></rc>
    <rc><c>V </c><c>   3</c></rc>
    <rc><c>V </c><c>   3</c></rc>
    <rc><c>V </c><c>   3</c></rc>
    <rc><c>V </c><c>   3</c></rc>
    <rc><c>V </c><c>   3</c></rc>
    <rc><c>V </c><c>   3</c></rc>
    <rc><c>N </c><c>   4</c></rc>
    <rc><c>N </c><c>   4</c></rc>
    <rc><c>N </c><c>   4</c></rc>
    <rc><c>N </c><c>   4</c></rc>
    <rc><c>N </c><c>   4</c></rc>
    <rc><c>N </c><c>   4</c></rc>
    <rc><c>N </c><c>   4</c></rc>
    <rc><c>N </c><c>   4</c></rc>
    <rc><c>N </c><c>   4</c></rc>
    <rc><c>N </c><c>   4</c></rc>
    <rc><c>N </c><c>   4</c></rc>
    <rc><c>N </c><c>   4</c></rc>
    <rc><c>N </c><c>   4</c></rc>
    <rc><c>C </c><c>   5</c></rc>
    <rc><c>C </c><c>   5</c></rc>
    <rc><c>C </c><c>   5</c></rc>
    <rc><c>C </c><c>   5</c></rc>
    <rc><c>C </c><c>   5</c></rc>
    <rc><c>C </c><c>   5</c></rc>
    <rc><c>C </c><c>   5</c></rc>
    <rc><c>C </c><c>   5</c></rc>
    <rc><c>C </c><c>   5</c></rc>
    <rc><c>C </c><c>   5</c></rc>
    <rc><c>C </c><c>   5</c></rc>
    <rc><c>C </c><c>   5</c></rc>
    <rc><c>C </c><c>   5</c></rc>
    <rc><c>C </c><c>   5</c></rc>
    <rc><c>C </c><c>   5</c></rc>
    <rc><c>C </c><c>   5</c></rc>
    <rc><c>C </c><c>   5</c></rc>
    <rc><c>C </c><c>   5</c></rc>
    <rc><c>C </c><c>   5</c></rc>
    <rc><c>W </c><c>   6</c></rc>
    <rc><c>W </c><c>   6</c></rc>
    <rc><c>W </c><c>   6</c></rc>
    <rc><c>W </c><c>   6</c></rc>
    <rc><c>W </c><c>   6</c></rc>
    <rc><c>W </c><c>   6</c></rc>
    <rc><c>Ta</c><c>   7</c></rc>
    <rc><c>Ta</c><c>   7</c></rc>
    <rc><c>Ta</c><c>   7</c></rc>
    <rc><c>Ta</c><c>   7</c></rc>
    <rc><c>Ta</c><c>   7</c></rc>
    <rc><c>Ta</c><c>   7</c></rc>
   </set>
  </array>
  <array name="atomtypes" >
   <dimension dim="1">type</dimension>
   <field type="int">atomspertype</field>
   <field type="string">element</field>
   <field>mass</field>
   <field>valence</field>
   <field type="string">pseudopotential</field>
   <set>
    <rc><c>   7</c><c>Zr</c><c>     91.22400000</c><c>     12.00000000</c><c> PAW_PBE Zr_sv 07Sep2000                </c></rc>
    <rc><c>   6</c><c>Nb</c><c>     92.91000000</c><c>     13.00000000</c><c> PAW_PBE Nb_sv 17Jan2003                </c></rc>
    <rc><c>   7</c><c>V </c><c>     50.94100000</c><c>     13.00000000</c><c> PAW_PBE V_sv 07Sep2000                 </c></rc>
    <rc><c>  13</c><c>N </c><c>     14.00100000</c><c>      5.00000000</c><c> PAW_PBE N 08Apr2002                    </c></rc>
    <rc><c>  19</c><c>C </c><c>     12.01100000</c><c>      4.00000000</c><c> PAW_PBE C 08Apr2002                    </c></rc>
    <rc><c>   6</c><c>W </c><c>    183.85000000</c><c>     12.00000000</c><c> PAW_PBE W_pv 06Sep2000                 </c></rc>
    <rc><c>   6</c><c>Ta</c><c>    180.94800000</c><c>     11.00000000</c><c> PAW_PBE Ta_pv 07Sep2000                </c></rc>
   </set>
  </array>
 </atominfo>
 <structure name="initialpos" >
  <crystal>
   <varray name="basis" >
    <v>       8.83885041       0.00910293       0.03180267 </v>
    <v>       0.01503565       8.88291007      -0.01638786 </v>
    <v>       0.06364643      -0.03162632       8.87348814 </v>
   </varray>
   <i name="volume">    696.67557623 </i>
   <varray name="rec_basis" >
    <v>       0.11314001      -0.00019300      -0.00081220 </v>
    <v>      -0.00011739       0.11257666       0.00040208 </v>
    <v>      -0.00040571       0.00020860       0.11269891 </v>
   </varray>
  </crystal>
  <varray name="positions" >
   <v>       0.99805299       0.00217450       0.99907287 </v>
   <v>       0.25984304       0.00373474       0.24469067 </v>
   <v>       0.24794272       0.49406366       0.24783922 </v>
   <v>       0.49844017       0.49607954       0.00087923 </v>
   <v>       0.50165440       0.24634472       0.75009469 </v>
   <v>       0.00111789       0.49915304       0.50196413 </v>
   <v>       0.49248916       0.75759012       0.75486519 </v>
   <v>       0.99164599       0.23577705       0.25601324 </v>
   <v>       0.75980329       0.74458727       0.00636235 </v>
   <v>       0.00581640       0.25495568       0.74606073 </v>
   <v>       0.75570156       0.25159133       0.49452964 </v>
   <v>       0.00251471       0.74569661       0.75313374 </v>
   <v>       0.24923206       0.49539658       0.74945837 </v>
   <v>       0.25587144       0.25656819       0.98739875 </v>
   <v>       0.51432392       0.26462315       0.24524971 </v>
   <v>       0.74908973       0.99147801       0.27194705 </v>
   <v>       0.74311668       0.25500990       0.00072668 </v>
   <v>       0.23232855       0.73614751       0.00053652 </v>
   <v>       0.24086187       0.24862816       0.50930249 </v>
   <v>       0.25044200       0.75059986       0.49934607 </v>
   <v>       0.25055248       0.24785718       0.24819370 </v>
   <v>       0.26185346       0.00049913       0.98999337 </v>
   <v>       0.00209379       0.25504853       0.00179162 </v>
   <v>       0.74486015       0.24470267       0.24686245 </v>
   <v>       0.74760727       0.00519308       0.01484178 </v>
   <v>       0.51585836       0.99945796       0.24346633 </v>
   <v>       0.99372439       0.49419440       0.24194378 </v>
   <v>       0.49902132       0.76151110       0.00932007 </v>
   <v>       0.99077572       0.00306399       0.74417551 </v>
   <v>       0.75643157       0.24702878       0.75408205 </v>
   <v>       0.74393946       0.00123833       0.51076703 </v>
   <v>       0.49890507       0.24059547       0.48935452 </v>
   <v>       0.49718315       0.00244261       0.73497303 </v>
   <v>       0.99482005       0.99699863       0.25427671 </v>
   <v>       0.50100866       0.24561537       0.01000822 </v>
   <v>       0.25382690       0.74978154       0.24652190 </v>
   <v>       0.24360816       0.49952893       0.99515721 </v>
   <v>       0.00454475       0.74525200       0.00312593 </v>
   <v>       0.75048353       0.75113266       0.25288383 </v>
   <v>       0.75708624       0.49396132       0.00115806 </v>
   <v>       0.50313723       0.49595360       0.25490204 </v>
   <v>       0.24937514       0.25052667       0.74813887 </v>
   <v>       0.25060404       0.00025160       0.50321567 </v>
   <v>       0.00491770       0.24649747       0.50046674 </v>
   <v>       0.24241812       0.75598783       0.75067182 </v>
   <v>       0.25608943       0.49913070       0.50115965 </v>
   <v>       0.00206025       0.75623846       0.50011519 </v>
   <v>       0.99885752       0.50059817       0.75201458 </v>
   <v>       0.74990133       0.75127720       0.75206673 </v>
   <v>       0.74512427       0.50035129       0.49935848 </v>
   <v>       0.49382782       0.75065974       0.49881111 </v>
   <v>       0.50054306       0.50109046       0.74444794 </v>
   <v>       0.51863732       0.01384306       0.98407691 </v>
   <v>       0.00358826       0.50456827       0.98833218 </v>
   <v>       0.49749267       0.74036194       0.25714690 </v>
   <v>       0.24399449       0.00919987       0.74814038 </v>
   <v>       0.48616102       0.98714355       0.48452060 </v>
   <v>       0.73850765       0.98537382       0.77161369 </v>
   <v>       0.00388245       0.76200287       0.25156638 </v>
   <v>       0.74670040       0.49725872       0.25030625 </v>
   <v>       0.01116059       0.00337344       0.49950463 </v>
   <v>       0.49690437       0.51167602       0.49899046 </v>
   <v>       0.74855323       0.50865255       0.75216238 </v>
   <v>       0.74908895       0.75267914       0.49590209 </v>
  </varray>
 </structure>
 <calculation>
  <scstep>
   <time name="dav">   21.39   21.77</time>
   <time name="total">   21.43   21.82</time>
   <energy>
    <i name="alphaZ">   4907.63068202 </i>
    <i name="ewald"> -46230.58684317 </i>
    <i name="hartreedc">  -8238.35959253 </i>
    <i name="XCdc">   2084.14496590 </i>
    <i name="pawpsdc">  32436.53288329 </i>
    <i name="pawaedc"> -32166.43817019 </i>
    <i name="eentropy">     -0.07907498 </i>
    <i name="bandstr">   1076.48053860 </i>
    <i name="atom">  52042.85630864 </i>
    <i name="e_fr_energy">   5912.18169758 </i>
    <i name="e_wo_entrp">   5912.26077256 </i>
    <i name="e_0_energy">   5912.22123507 </i>
   </energy>
  </scstep>
  <scstep>
   <time name="dav">   22.29   22.84</time>
   <time name="total">   22.29   22.84</time>
   <energy>
    <i name="e_fr_energy">     38.75477858 </i>
    <i name="e_wo_entrp">     38.88261964 </i>
    <i name="e_0_energy">     38.81869911 </i>
   </energy>
  </scstep>
  <scstep>
   <time name="dav">   32.42   32.47</time>
   <time name="total">   32.42   32.47</time>
   <energy>
    <i name="e_fr_energy">   -724.36473379 </i>
    <i name="e_wo_entrp">   -724.27868024 </i>
    <i name="e_0_energy">   -724.32170702 </i>
   </energy>
  </scstep>
  <scstep>
   <time name="dav">   34.76   34.80</time>
   <time name="total">   34.76   34.80</time>
   <energy>
    <i name="e_fr_energy">   -787.69263668 </i>
    <i name="e_wo_entrp">   -787.60374176 </i>
    <i name="e_0_energy">   -787.64818922 </i>
   </energy>
  </scstep>
  <scstep>
   <time name="dav">   37.98   38.01</time>
   <time name="total">   38.25   38.29</time>
   <energy>
    <i name="e_fr_energy">   -793.91640692 </i>
    <i name="e_wo_entrp">   -793.82761251 </i>
    <i name="e_0_energy">   -793.87200972 </i>
   </energy>
  </scstep>
  <scstep>
   <time name="diag">    1.97    1.97</time>
   <time name="diis">   19.17   19.20</time>
   <time name="orth">    0.50    0.51</time>
   <time name="total">   21.96   22.01</time>
   <energy>
    <i name="e_fr_energy">   -780.71517639 </i>
    <i name="e_wo_entrp">   -780.54848456 </i>
    <i name="e_0_energy">   -780.63183048 </i>
   </energy>
  </scstep>
  <scstep>
   <time name="diag">    2.01    2.02</time>
   <time name="diis">   17.16   17.19</time>
   <time name="orth">    0.49    0.49</time>
   <time name="total">   19.95   19.99</time>
   <energy>
    <i name="e_fr_energy">   -681.60919659 </i>
    <i name="e_wo_entrp">   -681.49314887 </i>
    <i name="e_0_energy">   -681.55117273 </i>
   </energy>
  </scstep>
  <scstep>
   <time name="diag">    1.96    1.97</time>
   <time name="diis">   21.44   21.48</time>
   <time name="orth">    0.49    0.49</time>
   <time name="total">   24.18   24.23</time>
   <energy>
    <i name="e_fr_energy">   -658.43568862 </i>
    <i name="e_wo_entrp">   -658.32628295 </i>
    <i name="e_0_energy">   -658.38098578 </i>
   </energy>
  </scstep>
  <scstep>
   <time name="diag">    1.93    1.97</time>
   <time name="diis">   20.74   21.34</time>
   <time name="orth">    0.51    0.51</time>
   <time name="total">   23.47   24.13</time>
   <energy>
    <i name="e_fr_energy">   -656.62935766 </i>
    <i name="e_wo_entrp">   -656.50632124 </i>
    <i name="e_0_energy">   -656.56783945 </i>
   </energy>
  </scstep>
  <scstep>
   <time name="diag">    1.94    1.97</time>
   <time name="diis">   22.60   22.78</time>
   <time name="orth">    0.49    0.49</time>
   <time name="total">   25.32   25.54</time>
   <energy>
    <i name="e_fr_energy">   -657.11507955 </i>
    <i name="e_wo_entrp">   -656.99932039 </i>
    <i name="e_0_energy">   -657.05719997 </i>
   </energy>
  </scstep>
  <scstep>
   <time name="diag">    1.96    1.96</time>
   <time name="diis">   22.12   22.14</time>
   <time name="orth">    0.49    0.49</time>
   <time name="total">   24.87   24.89</time>
   <energy>
    <i name="e_fr_energy">   -656.43219331 </i>
    <i name="e_wo_entrp">   -656.30541174 </i>
    <i name="e_0_energy">   -656.36880253 </i>
   </energy>
  </scstep>
  <scstep>
   <time name="diag">    1.99    2.00</time>
   <time name="diis">   22.56   22.59</time>
   <time name="orth">    0.48    0.48</time>
   <time name="total">   25.33   25.37</time>
   <energy>
    <i name="e_fr_energy">   -656.41587346 </i>
    <i name="e_wo_entrp">   -656.28503125 </i>
    <i name="e_0_energy">   -656.35045235 </i>
   </energy>
  </scstep>
  <scstep>
   <time name="diag">    1.96    1.96</time>
   <time name="diis">   22.20   22.23</time>
   <time name="orth">    0.49    0.49</time>
   <time name="total">   24.95   24.99</time>
   <energy>
    <i name="e_fr_energy">   -656.31277764 </i>
    <i name="e_wo_entrp">   -656.19889202 </i>
    <i name="e_0_energy">   -656.25583483 </i>
   </energy>
  </scstep>
  <scstep>
   <time name="diag">    1.93    1.97</time>
   <time name="diis">   22.13   22.46</time>
   <time name="orth">    0.49    0.49</time>
   <time name="total">   24.84   25.21</time>
   <energy>
    <i name="e_fr_energy">   -656.32714684 </i>
    <i name="e_wo_entrp">   -656.20643299 </i>
    <i name="e_0_energy">   -656.26678992 </i>
   </energy>
  </scstep>
  <scstep>
   <time name="diag">    1.97    1.98</time>
   <time name="diis">   22.36   22.39</time>
   <time name="orth">    0.49    0.49</time>
   <time name="total">   25.12   25.17</time>
   <energy>
    <i name="e_fr_energy">   -656.29835647 </i>
    <i name="e_wo_entrp">   -656.17950629 </i>
    <i name="e_0_energy">   -656.23893138 </i>
   </energy>
  </scstep>
  <scstep>
   <time name="diag">    1.96    1.96</time>
   <time name="diis">   22.19   22.25</time>
   <time name="orth">    0.49    0.50</time>
   <time name="total">   24.96   25.03</time>
   <energy>
    <i name="e_fr_energy">   -656.29894931 </i>
    <i name="e_wo_entrp">   -656.18042649 </i>
    <i name="e_0_energy">   -656.23968790 </i>
   </energy>
  </scstep>
  <scstep>
   <time name="diag">    2.00    2.03</time>
   <time name="diis">   22.19   22.24</time>
   <time name="orth">    0.49    0.49</time>
   <time name="total">   24.98   25.05</time>
   <energy>
    <i name="e_fr_energy">   -656.30971525 </i>
    <i name="e_wo_entrp">   -656.19109076 </i>
    <i name="e_0_energy">   -656.25040300 </i>
   </energy>
  </scstep>
  <scstep>
   <time name="diag">    1.93    1.96</time>
   <time name="diis">   21.88   22.50</time>
   <time name="orth">    0.48    0.49</time>
   <time name="total">   24.58   25.26</time>
   <energy>
    <i name="e_fr_energy">   -656.29880949 </i>
    <i name="e_wo_entrp">   -656.18024841 </i>
    <i name="e_0_energy">   -656.23952895 </i>
   </energy>
  </scstep>
  <scstep>
   <time name="diag">    1.95    1.99</time>
   <time name="diis">   22.03   22.73</time>
   <time name="orth">    0.48    0.49</time>
   <time name="total">   24.76   25.51</time>
   <energy>
    <i name="e_fr_energy">   -656.29844589 </i>
    <i name="e_wo_entrp">   -656.17969967 </i>
    <i name="e_0_energy">   -656.23907278 </i>
   </energy>
  </scstep>
  <scstep>
   <time name="diag">    1.93    1.97</time>
   <time name="diis">   22.23   22.90</time>
   <time name="orth">    0.48    0.49</time>
   <time name="total">   24.93   25.66</time>
   <energy>
    <i name="e_fr_energy">   -656.29814835 </i>
    <i name="e_wo_entrp">   -656.17944616 </i>
    <i name="e_0_energy">   -656.23879726 </i>
   </energy>
  </scstep>
  <scstep>
   <time name="diag">    1.96    1.96</time>
   <time name="diis">   21.99   22.02</time>
   <time name="orth">    0.49    0.49</time>
   <time name="total">   24.74   24.76</time>
   <energy>
    <i name="e_fr_energy">   -656.29816315 </i>
    <i name="e_wo_entrp">   -656.17936805 </i>
    <i name="e_0_energy">   -656.23876560 </i>
   </energy>
  </scstep>
  <scstep>
   <time name="diag">    1.97    1.98</time>
   <time name="diis">   20.75   20.76</time>
   <time name="orth">    0.49    0.49</time>
   <time name="total">   23.49   23.53</time>
   <energy>
    <i name="e_fr_energy">   -656.29826132 </i>
    <i name="e_wo_entrp">   -656.17936348 </i>
    <i name="e_0_energy">   -656.23881240 </i>
   </energy>
  </scstep>
  <scstep>
   <time name="diag">    1.95    1.96</time>
   <time name="diis">   21.22   21.26</time>
   <time name="orth">    0.50    0.50</time>
   <time name="total">   23.98   24.02</time>
   <energy>
    <i name="e_fr_energy">   -656.29823139 </i>
    <i name="e_wo_entrp">   -656.17938134 </i>
    <i name="e_0_energy">   -656.23880637 </i>
   </energy>
  </scstep>
  <scstep>
   <time name="diag">    1.97    1.97</time>
   <time name="diis">   18.69   18.71</time>
   <time name="orth">    0.52    0.53</time>
   <time name="total">   21.48   21.51</time>
   <energy>
    <i name="e_fr_energy">   -656.29826619 </i>
    <i name="e_wo_entrp">   -656.17941521 </i>
    <i name="e_0_energy">   -656.23884070 </i>
   </energy>
  </scstep>
  <scstep>
   <time name="diag">    2.01    2.02</time>
   <time name="diis">   16.89   16.92</time>
   <time name="orth">    0.49    0.49</time>
   <time name="total">   19.68   19.72</time>
   <energy>
    <i name="e_fr_energy">   -656.29829161 </i>
    <i name="e_wo_entrp">   -656.17944585 </i>
    <i name="e_0_energy">   -656.23886873 </i>
   </energy>
  </scstep>
  <scstep>
   <time name="diag">    1.96    1.99</time>
   <time name="diis">   15.80   15.81</time>
   <time name="orth">    0.50    0.50</time>
   <time name="total">   18.56   18.60</time>
   <energy>
    <i name="e_fr_energy">   -656.29831270 </i>
    <i name="e_wo_entrp">   -656.17948097 </i>
    <i name="e_0_energy">   -656.23889683 </i>
   </energy>
  </scstep>
  <scstep>
   <time name="diag">    1.98    1.99</time>
   <time name="diis">   12.70   12.74</time>
   <time name="orth">    0.48    0.48</time>
   <time name="total">   15.46   15.52</time>
   <energy>
    <i name="e_fr_energy">   -656.29831956 </i>
    <i name="e_wo_entrp">   -656.17947931 </i>
    <i name="e_0_energy">   -656.23889944 </i>
   </energy>
  </scstep>
  <scstep>
   <time name="diag">    1.96    1.96</time>
   <time name="diis">   13.42   13.43</time>
   <time name="orth">    0.49    0.49</time>
   <time name="total">   15.90   15.91</time>
   <energy>
    <i name="alphaZ">   4907.63068202 </i>
    <i name="ewald"> -46230.58684317 </i>
    <i name="hartreedc">  -7690.87516913 </i>
    <i name="XCdc">   2070.05770060 </i>
    <i name="pawpsdc">  33722.21789966 </i>
    <i name="pawaedc"> -33506.94886323 </i>
    <i name="eentropy">     -0.11884053 </i>
    <i name="bandstr">  -5970.53120159 </i>
    <i name="atom">  52042.85630864 </i>
    <i name="e_fr_energy">   -656.29832674 </i>
    <i name="e_wo_entrp">   -656.17948621 </i>
    <i name="e_0_energy">   -656.23890648 </i>
   </energy>
  </scstep>
  <structure>
   <crystal>
    <varray name="basis" >
     <v>       8.83885041       0.00910293       0.03180267 </v>
     <v>       0.01503565       8.88291007      -0.01638786 </v>
     <v>       0.06364643      -0.03162632       8.87348814 </v>
    </varray>
    <i name="volume">    696.67557623 </i>
    <varray name="rec_basis" >
     <v>       0.11314001      -0.00019300      -0.00081220 </v>
     <v>      -0.00011739       0.11257666       0.00040208 </v>
     <v>      -0.00040571       0.00020860       0.11269891 </v>
    </varray>
   </crystal>
   <varray name="positions" >
    <v>       0.99805299       0.00217450       0.99907287 </v>
    <v>       0.25984304       0.00373474       0.24469067 </v>
    <v>       0.24794272       0.49406366       0.24783922 </v>
    <v>       0.49844017       0.49607954       0.00087923 </v>
    <v>       0.50165440       0.24634472       0.75009469 </v>
    <v>       0.00111789       0.49915304       0.50196413 </v>
    <v>       0.49248916       0.75759012       0.75486519 </v>
    <v>       0.99164599       0.23577705       0.25601324 </v>
    <v>       0.75980329       0.74458727       0.00636235 </v>
    <v>       0.00581640       0.25495568       0.74606073 </v>
    <v>       0.75570156       0.25159133       0.49452964 </v>
    <v>       0.00251471       0.74569661       0.75313374 </v>
    <v>       0.24923206       0.49539658       0.74945837 </v>
    <v>       0.25587144       0.25656819       0.98739875 </v>
    <v>       0.51432392       0.26462315       0.24524971 </v>
    <v>       0.74908973       0.99147801       0.27194705 </v>
    <v>       0.74311668       0.25500990       0.00072668 </v>
    <v>       0.23232855       0.73614751       0.00053652 </v>
    <v>       0.24086187       0.24862816       0.50930249 </v>
    <v>       0.25044200       0.75059986       0.49934607 </v>
    <v>       0.25055248       0.24785718       0.24819370 </v>
    <v>       0.26185346       0.00049913       0.98999337 </v>
    <v>       0.00209379       0.25504853       0.00179162 </v>
    <v>       0.74486015       0.24470267       0.24686245 </v>
    <v>       0.74760727       0.00519308       0.01484178 </v>
    <v>       0.51585836       0.99945796       0.24346633 </v>
    <v>       0.99372439       0.49419440       0.24194378 </v>
    <v>       0.49902132       0.76151110       0.00932007 </v>
    <v>       0.99077572       0.00306399       0.74417551 </v>
    <v>       0.75643157       0.24702878       0.75408205 </v>
    <v>       0.74393946       0.00123833       0.51076703 </v>
    <v>       0.49890507       0.24059547       0.48935452 </v>
    <v>       0.49718315       0.00244261       0.73497303 </v>
    <v>       0.99482005       0.99699863       0.25427671 </v>
    <v>       0.50100866       0.24561537       0.01000822 </v>
    <v>       0.25382690       0.74978154       0.24652190 </v>
    <v>       0.24360816       0.49952893       0.99515721 </v>
    <v>       0.00454475       0.74525200       0.00312593 </v>
    <v>       0.75048353       0.75113266       0.25288383 </v>
    <v>       0.75708624       0.49396132       0.00115806 </v>
    <v>       0.50313723       0.49595360       0.25490204 </v>
    <v>       0.24937514       0.25052667       0.74813887 </v>
    <v>       0.25060404       0.00025160       0.50321567 </v>
    <v>       0.00491770       0.24649747       0.50046674 </v>
    <v>       0.24241812       0.75598783       0.75067182 </v>
    <v>       0.25608943       0.49913070       0.50115965 </v>
    <v>       0.00206025       0.75623846       0.50011519 </v>
    <v>       0.99885752       0.50059817       0.75201458 </v>
    <v>       0.74990133       0.75127720       0.75206673 </v>
    <v>       0.74512427       0.50035129       0.49935848 </v>
    <v>       0.49382782       0.75065974       0.49881111 </v>
    <v>       0.50054306       0.50109046       0.74444794 </v>
    <v>       0.51863732       0.01384306       0.98407691 </v>
    <v>       0.00358826       0.50456827       0.98833218 </v>
    <v>       0.49749267       0.74036194       0.25714690 </v>
    <v>       0.24399449       0.00919987       0.74814038 </v>
    <v>       0.48616102       0.98714355       0.48452060 </v>
    <v>       0.73850765       0.98537382       0.77161369 </v>
    <v>       0.00388245       0.76200287       0.25156638 </v>
    <v>       0.74670040       0.49725872       0.25030625 </v>
    <v>       0.01116059       0.00337344       0.49950463 </v>
    <v>       0.49690437       0.51167602       0.49899046 </v>
    <v>       0.74855323       0.50865255       0.75216238 </v>
    <v>       0.74908895       0.75267914       0.49590209 </v>
   </varray>
  </structure>
  <varray name="forces" >
   <v>       0.07585065       0.24529132       0.05466055 </v>
   <v>       0.04216296       0.10324207      -0.06439428 </v>
   <v>       0.06002120      -0.15328777       0.16112332 </v>
   <v>       0.04898136       0.19477086      -0.03436961 </v>
   <v>       0.04821658      -0.10885714      -0.11018748 </v>
   <v>       0.14748548       0.03106227       0.02730975 </v>
   <v>      -0.00655233       0.05066906       0.02332317 </v>
   <v>      -0.04684246      -0.03678938      -0.14147878 </v>
   <v>       0.05752202       0.13157471      -0.04463844 </v>
   <v>      -0.06122606       0.09295450       0.11225666 </v>
   <v>       0.07602510      -0.27022738      -0.22293672 </v>
   <v>      -0.03518500       0.04224716       0.01378940 </v>
   <v>       0.00116715       0.18193774      -0.09115208 </v>
   <v>       0.28292433       0.31835458      -0.27854331 </v>
   <v>       0.23878843       0.18383736      -0.11599892 </v>
   <v>       0.14193636       0.13092752       0.17020603 </v>
   <v>      -0.70762907      -0.24391560       0.39767679 </v>
   <v>      -0.26910844      -0.37939272       0.03928158 </v>
   <v>      -0.32851241      -0.03630103       0.42391495 </v>
   <v>       0.34158656       0.08122394      -0.19870741 </v>
   <v>      -0.12441410      -0.02602938      -0.03432233 </v>
   <v>      -0.03539645       0.10030746      -0.03779499 </v>
   <v>      -0.04719334       0.14153400       0.06649390 </v>
   <v>      -0.07612906      -0.03871440      -0.29060622 </v>
   <v>       0.12583591       0.15891129       0.11548208 </v>
   <v>       0.10016776      -0.05212600      -0.18077496 </v>
   <v>       0.00070454       0.24430206       0.06996484 </v>
   <v>      -0.07626570       0.00791267       0.05096704 </v>
   <v>      -0.01114169       0.00117323       0.05651148 </v>
   <v>       0.00001567      -0.01994918       0.01427727 </v>
   <v>       0.19174145      -0.00643487       0.21707723 </v>
   <v>      -0.03887123       0.16703301      -0.11401365 </v>
   <v>      -0.03685164       0.02249038      -0.20713848 </v>
   <v>       0.04220904       0.17734962      -0.03012866 </v>
   <v>      -0.30202208       0.01609126      -0.04321929 </v>
   <v>      -0.00992420      -0.09530627      -0.10682281 </v>
   <v>       0.02063473      -0.13327826       0.06568549 </v>
   <v>       0.00214358       0.00145684       0.00591298 </v>
   <v>      -0.07283639       0.05180453      -0.11179453 </v>
   <v>      -0.02081896      -0.05056469      -0.01044742 </v>
   <v>      -0.12540469      -0.07921100      -0.11126616 </v>
   <v>      -0.01205059      -0.07976309       0.02840205 </v>
   <v>       0.23181130       0.04103960      -0.09687304 </v>
   <v>       0.05918998       0.02294445       0.00011303 </v>
   <v>       0.03846315      -0.00107550       0.06714274 </v>
   <v>      -0.11702767      -0.07705501       0.08670921 </v>
   <v>      -0.01337357      -0.02179594       0.03541841 </v>
   <v>      -0.01099664       0.00132283      -0.02614958 </v>
   <v>       0.02816635       0.04790842      -0.03605138 </v>
   <v>       0.06084056      -0.05515566      -0.00171382 </v>
   <v>       0.00960168       0.05126783       0.14305610 </v>
   <v>       0.04001533      -0.01833736       0.04914600 </v>
   <v>      -0.00147423      -0.14771981       0.14404872 </v>
   <v>      -0.02788194      -0.05802407       0.05181275 </v>
   <v>      -0.14820230      -0.08158436       0.07088113 </v>
   <v>       0.06277185      -0.21102917      -0.07411853 </v>
   <v>       0.30149081      -0.07034023      -0.20966630 </v>
   <v>      -0.09638418      -0.02359544       0.02287573 </v>
   <v>       0.05341503      -0.17230678      -0.03682383 </v>
   <v>       0.22992582       0.08485728      -0.06774258 </v>
   <v>      -0.13797034      -0.03511681       0.07938856 </v>
   <v>      -0.01918350      -0.35204231       0.12734418 </v>
   <v>       0.07553066      -0.12593414       0.02065249 </v>
   <v>      -0.22047314       0.13346091       0.11697001 </v>
  </varray>
  <varray name="stress" >
   <v>       8.77913054       0.78799669      -0.59959448 </v>
   <v>       0.78799615      -3.27384722       0.15313906 </v>
   <v>      -0.59959437       0.15313932      10.10186253 </v>
  </varray>
  <energy>
   <i name="e_fr_energy">   -656.29832674 </i>
   <i name="e_wo_entrp">   -656.23890648 </i>
   <i name="e_0_energy">     -0.11884053 </i>
  </energy>
  <time name="totalsc">  723.28  728.57</time>
 </calculation>
 <calculation>
  <scstep>
   <time name="dav">   23.51   24.14</time>
   <time name="total">   23.82   24.46</time>
   <energy>
    <i name="alphaZ">   4882.63963949 </i>
    <i name="ewald"> -46139.97352882 </i>
    <i name="hartreedc">  -7689.80652659 </i>
    <i name="XCdc">   2066.50077603 </i>
    <i name="pawpsdc">  33722.25511990 </i>
    <i name="pawaedc"> -33506.96596507 </i>
    <i name="eentropy">     -0.11693189 </i>
    <i name="bandstr">  -6033.26080554 </i>
    <i name="atom">  52042.85630864 </i>
    <i name="e_fr_energy">   -655.87191386 </i>
    <i name="e_wo_entrp">   -655.75498197 </i>
    <i name="e_0_energy">   -655.81344791 </i>
   </energy>
  </scstep>
  <scstep>
   <time name="diag">    1.96    2.00</time>
   <time name="diis">   18.50   19.08</time>
   <time name="orth">    0.48    0.49</time>
   <time name="total">   21.24   21.87</time>
   <energy>
    <i name="e_fr_energy">   -657.29141090 </i>
    <i name="e_wo_entrp">   -657.18069148 </i>
    <i name="e_0_energy">   -657.23605119 </i>
   </energy>
  </scstep>
  <scstep>
   <time name="diag">    1.97    1.97</time>
   <time name="diis">   17.66   17.66</time>
   <time name="orth">    0.48    0.48</time>
   <time name="total">   20.40   20.41</time>
   <energy>
    <i name="e_fr_energy">   -656.51351041 </i>
    <i name="e_wo_entrp">   -656.40019334 </i>
    <i name="e_0_energy">   -656.45685188 </i>
   </energy>
  </scstep>
  <scstep>
   <time name="diag">    1.96    1.96</time>
   <time name="diis">   19.99   20.05</time>
   <time name="orth">    0.49    0.49</time>
   <time name="total">   22.73   22.80</time>
   <energy>
    <i name="e_fr_energy">   -656.53290441 </i>
    <i name="e_wo_entrp">   -656.41715788 </i>
    <i name="e_0_energy">   -656.47503115 </i>
   </energy>
  </scstep>
  <scstep>
   <time name="diag">    1.96    1.97</time>
   <time name="diis">   19.80   19.94</time>
   <time name="orth">    0.49    0.49</time>
   <time name="total">   22.55   22.70</time>
   <energy>
    <i name="e_fr_energy">   -656.46389576 </i>
    <i name="e_wo_entrp">   -656.35074688 </i>
    <i name="e_0_energy">   -656.40732132 </i>
   </energy>
  </scstep>
  <scstep>
   <time name="diag">    1.97    1.97</time>
   <time name="diis">   19.76   19.84</time>
   <time name="orth">    0.48    0.49</time>
   <time name="total">   22.51   22.59</time>
   <energy>
    <i name="e_fr_energy">   -656.46962645 </i>
    <i name="e_wo_entrp">   -656.35378469 </i>
    <i name="e_0_energy">   -656.41170557 </i>
   </energy>
  </scstep>
  <scstep>
   <time name="diag">    1.96    1.99</time>
   <time name="diis">   20.50   21.13</time>
   <time name="orth">    0.48    0.48</time>
   <time name="total">   23.23   23.92</time>
   <energy>
    <i name="e_fr_energy">   -656.45366378 </i>
    <i name="e_wo_entrp">   -656.33949690 </i>
    <i name="e_0_energy">   -656.39658034 </i>
   </energy>
  </scstep>
  <scstep>
   <time name="diag">    1.94    2.00</time>
   <time name="diis">   21.41   21.86</time>
   <time name="orth">    0.49    0.49</time>
   <time name="total">   24.13   24.65</time>
   <energy>
    <i name="e_fr_energy">   -656.45667258 </i>
    <i name="e_wo_entrp">   -656.34459423 </i>
    <i name="e_0_energy">   -656.40063341 </i>
   </energy>
  </scstep>
  <scstep>
   <time name="diag">    1.97    1.97</time>
   <time name="diis">   21.81   21.89</time>
   <time name="orth">    0.49    0.49</time>
   <time name="total">   24.56   24.64</time>
   <energy>
    <i name="e_fr_energy">   -656.45153347 </i>
    <i name="e_wo_entrp">   -656.33727018 </i>
    <i name="e_0_energy">   -656.39440183 </i>
   </energy>
  </scstep>
  <scstep>
   <time name="diag">    1.96    1.96</time>
   <time name="diis">   22.96   22.98</time>
   <time name="orth">    0.48    0.49</time>
   <time name="total">   25.70   25.72</time>
   <energy>
    <i name="e_fr_energy">   -656.45176866 </i>
    <i name="e_wo_entrp">   -656.33814809 </i>
    <i name="e_0_energy">   -656.39495838 </i>
   </energy>
  </scstep>
  <scstep>
   <time name="diag">    4.85    5.26</time>
   <time name="diis">   21.08   21.15</time>
   <time name="orth">    0.49    0.49</time>
   <time name="total">   26.71   27.20</time>
   <energy>
    <i name="e_fr_energy">   -656.45148097 </i>
    <i name="e_wo_entrp">   -656.33753012 </i>
    <i name="e_0_energy">   -656.39450555 </i>
   </energy>
  </scstep>
  <scstep>
   <time name="diag">    1.96    1.96</time>
   <time name="diis">   20.79   20.82</time>
   <time name="orth">    0.50    0.50</time>
   <time name="total">   23.57   23.60</time>
   <energy>
    <i name="e_fr_energy">   -656.45152074 </i>
    <i name="e_wo_entrp">   -656.33762840 </i>
    <i name="e_0_energy">   -656.39457457 </i>
   </energy>
  </scstep>
  <scstep>
   <time name="diag">    1.98    1.99</time>
   <time name="diis">   20.05   20.06</time>
   <time name="orth">    0.49    0.49</time>
   <time name="total">   22.82   22.84</time>
   <energy>
    <i name="e_fr_energy">   -656.45160952 </i>
    <i name="e_wo_entrp">   -656.33757093 </i>
    <i name="e_0_energy">   -656.39459023 </i>
   </energy>
  </scstep>
  <scstep>
   <time name="diag">    1.96    1.96</time>
   <time name="diis">   19.81   19.82</time>
   <time name="orth">    0.49    0.49</time>
   <time name="total">   22.55   22.57</time>
   <energy>
    <i name="e_fr_energy">   -656.45156641 </i>
    <i name="e_wo_entrp">   -656.33765584 </i>
    <i name="e_0_energy">   -656.39461112 </i>
   </energy>
  </scstep>
  <scstep>
   <time name="diag">    1.96    1.96</time>
   <time name="diis">   18.37   18.42</time>
   <time name="orth">    0.49    0.49</time>
   <time name="total">   21.12   21.17</time>
   <energy>
    <i name="e_fr_energy">   -656.45156944 </i>
    <i name="e_wo_entrp">   -656.33765183 </i>
    <i name="e_0_energy">   -656.39461064 </i>
   </energy>
  </scstep>
  <scstep>
   <time name="diag">    1.98    1.98</time>
   <time name="diis">   15.96   15.98</time>
   <time name="orth">    0.48    0.48</time>
   <time name="total">   18.46   18.48</time>
   <energy>
    <i name="alphaZ">   4882.63963949 </i>
    <i name="ewald"> -46139.97352882 </i>
    <i name="hartreedc">  -7729.06673687 </i>
    <i name="XCdc">   2068.64217591 </i>
    <i name="pawpsdc">  33672.29051145 </i>
    <i name="pawaedc"> -33456.86045236 </i>
    <i name="eentropy">     -0.11392445 </i>
    <i name="bandstr">  -5996.86556334 </i>
    <i name="atom">  52042.85630864 </i>
    <i name="e_fr_energy">   -656.45157036 </i>
    <i name="e_wo_entrp">   -656.33764592 </i>
    <i name="e_0_energy">   -656.39460814 </i>
   </energy>
  </scstep>
  <structure>
   <crystal>
    <varray name="basis" >
     <v>       8.86428073       0.01137768       0.03017133 </v>
     <v>       0.01737644       8.87338111      -0.01599921 </v>
     <v>       0.06207750      -0.03113054       8.90285507 </v>
    </varray>
    <i name="volume">    700.24140337 </i>
    <varray name="rec_basis" >
     <v>       0.11281528      -0.00022234      -0.00078741 </v>
     <v>      -0.00014600       0.11269761       0.00039509 </v>
     <v>      -0.00038259       0.00020328       0.11232690 </v>
    </varray>
   </crystal>
   <varray name="positions" >
    <v>       0.99846257       0.00350731       0.99937104 </v>
    <v>       0.26007474       0.00429396       0.24434078 </v>
    <v>       0.24826544       0.49323394       0.24871251 </v>
    <v>       0.49870705       0.49713640       0.00069337 </v>
    <v>       0.50192290       0.24575110       0.74949357 </v>
    <v>       0.00192153       0.49932143       0.50211003 </v>
    <v>       0.49245202       0.75786580       0.75499263 </v>
    <v>       0.99139620       0.23557477       0.25524458 </v>
    <v>       0.76011778       0.74530066       0.00611986 </v>
    <v>       0.00547695       0.25546304       0.74667319 </v>
    <v>       0.75612777       0.25011898       0.49331335 </v>
    <v>       0.00232173       0.74592652       0.75320983 </v>
    <v>       0.24924031       0.49638291       0.74896460 </v>
    <v>       0.25742364       0.25829017       0.98588200 </v>
    <v>       0.51563010       0.26561797       0.24461621 </v>
    <v>       0.74985655       0.99219158       0.27287099 </v>
    <v>       0.73924100       0.25369692       0.00290020 </v>
    <v>       0.23086171       0.73408932       0.00075154 </v>
    <v>       0.23905252       0.24844109       0.51161333 </v>
    <v>       0.25231347       0.75103519       0.49825985 </v>
    <v>       0.24987499       0.24771585       0.24800926 </v>
    <v>       0.26166081       0.00104336       0.98978958 </v>
    <v>       0.00183228       0.25581876       0.00215549 </v>
    <v>       0.74445637       0.24448720       0.24528355 </v>
    <v>       0.74828810       0.00605766       0.01546878 </v>
    <v>       0.51641266       0.99917079       0.24248099 </v>
    <v>       0.99372322       0.49552255       0.24232662 </v>
    <v>       0.49860297       0.76155550       0.00959874 </v>
    <v>       0.99071268       0.00307152       0.74448299 </v>
    <v>       0.75643129       0.24692071       0.75415948 </v>
    <v>       0.74497757       0.00120650       0.51194344 </v>
    <v>       0.49869582       0.24150063       0.48873708 </v>
    <v>       0.49698991       0.00256094       0.73384779 </v>
    <v>       0.99504996       0.99796099       0.25411386 </v>
    <v>       0.49936172       0.24570363       0.00977931 </v>
    <v>       0.25377781       0.74926192       0.24594035 </v>
    <v>       0.24371945       0.49880626       0.99551259 </v>
    <v>       0.00455620       0.74526002       0.00315805 </v>
    <v>       0.75008988       0.75141226       0.25227796 </v>
    <v>       0.75697349       0.49368662       0.00110116 </v>
    <v>       0.50245785       0.49552196       0.25429876 </v>
    <v>       0.24930900       0.25009410       0.74829272 </v>
    <v>       0.25187273       0.00047129       0.50268486 </v>
    <v>       0.00524055       0.24662175       0.50046642 </v>
    <v>       0.24262543       0.75598308       0.75103610 </v>
    <v>       0.25544799       0.49871456       0.50163260 </v>
    <v>       0.00198607       0.75612085       0.50030780 </v>
    <v>       0.99879851       0.50060491       0.75187263 </v>
    <v>       0.75005603       0.75153653       0.75187066 </v>
    <v>       0.74545693       0.50005137       0.49934741 </v>
    <v>       0.49387414       0.75094089       0.49958921 </v>
    <v>       0.50075971       0.50099160       0.74471417 </v>
    <v>       0.51862501       0.01304360       0.98485863 </v>
    <v>       0.00343458       0.50425430       0.98861384 </v>
    <v>       0.49668174       0.73992107       0.25753436 </v>
    <v>       0.24434198       0.00805198       0.74773405 </v>
    <v>       0.48781548       0.98675576       0.48337406 </v>
    <v>       0.73798090       0.98524666       0.77173972 </v>
    <v>       0.00417705       0.76106606       0.25136340 </v>
    <v>       0.74795723       0.49771696       0.24993430 </v>
    <v>       0.01040474       0.00318504       0.49993861 </v>
    <v>       0.49679795       0.50976665       0.49967965 </v>
    <v>       0.74896585       0.50796858       0.75227192 </v>
    <v>       0.74787975       0.75340748       0.49654371 </v>
   </varray>
  </structure>
  <varray name="forces" >
   <v>       0.07171386       0.12558870      -0.02053135 </v>
   <v>       0.02339527       0.05354405      -0.02925489 </v>
   <v>      -0.01466296      -0.12386014       0.08044255 </v>
   <v>       0.01967233       0.14685267      -0.04384948 </v>
   <v>       0.03081385      -0.02944741      -0.05586870 </v>
   <v>      -0.04363553       0.04633663       0.06445194 </v>
   <v>       0.01473147       0.01781496       0.05804943 </v>
   <v>      -0.04582388       0.10827226      -0.02166123 </v>
   <v>       0.09242673       0.12967419      -0.10232735 </v>
   <v>      -0.03151592       0.05786898       0.08707605 </v>
   <v>       0.10468411      -0.19559571      -0.23914908 </v>
   <v>       0.00101433       0.00309300       0.04363519 </v>
   <v>      -0.02970346       0.12838394       0.02532815 </v>
   <v>       0.18085079       0.25622347      -0.25880392 </v>
   <v>       0.17974765       0.12879517      -0.05458467 </v>
   <v>       0.09766224       0.12281461       0.14559813 </v>
   <v>      -0.57627493      -0.22008826       0.35099891 </v>
   <v>      -0.17135065      -0.29319232       0.04606802 </v>
   <v>      -0.24731488      -0.08998178       0.38403442 </v>
   <v>       0.29445675       0.09628968      -0.19002467 </v>
   <v>      -0.14370136      -0.03035691      -0.04845496 </v>
   <v>      -0.03576719       0.09355652      -0.02991273 </v>
   <v>      -0.05703352       0.10100915       0.04570720 </v>
   <v>      -0.01641892      -0.03520399      -0.19004422 </v>
   <v>       0.04128968       0.11123277      -0.03183152 </v>
   <v>       0.06184467      -0.05511439      -0.12314499 </v>
   <v>       0.01680033       0.19142891       0.05864430 </v>
   <v>      -0.03117649       0.00051410       0.04303980 </v>
   <v>      -0.01190354       0.00990964       0.04538340 </v>
   <v>      -0.00207127      -0.02780653      -0.02298067 </v>
   <v>       0.16530988      -0.00009517       0.22681544 </v>
   <v>       0.02484602       0.16607973      -0.08516285 </v>
   <v>       0.01064186      -0.03279349      -0.14305219 </v>
   <v>       0.06510114      -0.06969102       0.03610337 </v>
   <v>      -0.26311594       0.04798857      -0.06316703 </v>
   <v>      -0.00835312      -0.03179971      -0.07613471 </v>
   <v>       0.01452623      -0.10890043       0.04223053 </v>
   <v>      -0.07112353       0.07133237       0.00233284 </v>
   <v>      -0.03736034       0.07327737       0.04765963 </v>
   <v>       0.01365468      -0.03550265      -0.00204574 </v>
   <v>       0.09408432      -0.01473133       0.03060087 </v>
   <v>      -0.01674457      -0.03615839       0.05691179 </v>
   <v>       0.12911610       0.04927008      -0.05211418 </v>
   <v>      -0.01718577      -0.00071118      -0.01183633 </v>
   <v>      -0.01141640      -0.00422020       0.06576738 </v>
   <v>       0.04896683      -0.05604698       0.05120383 </v>
   <v>      -0.02454427       0.01095916      -0.00948402 </v>
   <v>       0.01476517       0.05852722       0.04413931 </v>
   <v>       0.00568664      -0.03880714      -0.01931480 </v>
   <v>       0.02191501      -0.04835782      -0.02556201 </v>
   <v>       0.04282292      -0.15787438       0.04456817 </v>
   <v>       0.04404695      -0.00282922      -0.02022886 </v>
   <v>       0.08841435      -0.18090065       0.00731672 </v>
   <v>      -0.05108824      -0.10291534      -0.08049058 </v>
   <v>      -0.13401317      -0.09760987       0.13882207 </v>
   <v>       0.00855284      -0.23209874      -0.08492038 </v>
   <v>       0.22376657       0.02149042      -0.25945689 </v>
   <v>      -0.10989377       0.05698550       0.17396458 </v>
   <v>       0.03177620       0.04124059       0.01501079 </v>
   <v>      -0.00463948       0.06969402      -0.05630845 </v>
   <v>       0.05698710      -0.04322458      -0.00771162 </v>
   <v>       0.00432939      -0.18571433      -0.00532948 </v>
   <v>       0.04670405      -0.06024107       0.05756434 </v>
   <v>      -0.17928522       0.04582273      -0.05472460 </v>
  </varray>
  <varray name="stress" >
   <v>     -12.57763759      -0.02816286      -0.06253950 </v>
   <v>      -0.02816213      -6.45289165      -0.10980375 </v>
   <v>      -0.06253974      -0.10980393     -14.66712672 </v>
  </varray>
  <energy>
   <i name="e_fr_energy">   -656.45157036 </i>
   <i name="e_wo_entrp">   -656.39460814 </i>
   <i name="e_0_energy">     -0.11392445 </i>
  </energy>
  <time name="totalsc">  411.90  415.57</time>
 </calculation>
 <calculation>
  <scstep>
   <time name="dav">   24.15   24.21</time>
   <time name="total">   24.46   24.51</time>
   <energy>
    <i name="alphaZ">   4862.83547181 </i>
    <i name="ewald"> -46065.26464175 </i>
    <i name="hartreedc">  -7730.36758669 </i>
    <i name="XCdc">   2065.83008420 </i>
    <i name="pawpsdc">  33672.35273963 </i>
    <i name="pawaedc"> -33456.94853284 </i>
    <i name="eentropy">     -0.11356945 </i>
    <i name="bandstr">  -6047.31068772 </i>
    <i name="atom">  52042.85630864 </i>
    <i name="e_fr_energy">   -656.13041416 </i>
    <i name="e_wo_entrp">   -656.01684471 </i>
    <i name="e_0_energy">   -656.07362944 </i>
   </energy>
  </scstep>
  <scstep>
   <time name="diag">    1.96    1.96</time>
   <time name="diis">   19.57   19.63</time>
   <time name="orth">    0.49    0.49</time>
   <time name="total">   22.32   22.38</time>
   <energy>
    <i name="e_fr_energy">   -657.03333867 </i>
    <i name="e_wo_entrp">   -656.92539737 </i>
    <i name="e_0_energy">   -656.97936802 </i>
   </energy>
  </scstep>
  <scstep>
   <time name="diag">    2.02    2.04</time>
   <time name="diis">   17.34   17.36</time>
   <time name="orth">    0.49    0.49</time>
   <time name="total">   20.14   20.18</time>
   <energy>
    <i name="e_fr_energy">   -656.53036539 </i>
    <i name="e_wo_entrp">   -656.41959622 </i>
    <i name="e_0_energy">   -656.47498081 </i>
   </energy>
  </scstep>
  <scstep>
   <time name="diag">    1.97    1.97</time>
   <time name="diis">   20.20   20.23</time>
   <time name="orth">    0.50    0.50</time>
   <time name="total">   22.96   22.99</time>
   <energy>
    <i name="e_fr_energy">   -656.53791790 </i>
    <i name="e_wo_entrp">   -656.42576337 </i>
    <i name="e_0_energy">   -656.48184064 </i>
   </energy>
  </scstep>
  <scstep>
   <time name="diag">    1.96    1.97</time>
   <time name="diis">   19.83   19.85</time>
   <time name="orth">    0.48    0.49</time>
   <time name="total">   22.57   22.59</time>
   <energy>
    <i name="e_fr_energy">   -656.49735328 </i>
    <i name="e_wo_entrp">   -656.38678577 </i>
    <i name="e_0_energy">   -656.44206953 </i>
   </energy>
  </scstep>
  <scstep>
   <time name="diag">    1.96    1.96</time>
   <time name="diis">   20.13   20.17</time>
   <time name="orth">    0.48    0.48</time>
   <time name="total">   22.87   22.91</time>
   <energy>
    <i name="e_fr_energy">   -656.50135973 </i>
    <i name="e_wo_entrp">   -656.38896030 </i>
    <i name="e_0_energy">   -656.44516001 </i>
   </energy>
  </scstep>
  <scstep>
   <time name="diag">    1.95    1.99</time>
   <time name="diis">   20.38   21.01</time>
   <time name="orth">    0.48    0.49</time>
   <time name="total">   23.11   23.79</time>
   <energy>
    <i name="e_fr_energy">   -656.49088570 </i>
    <i name="e_wo_entrp">   -656.37981619 </i>
    <i name="e_0_energy">   -656.43535095 </i>
   </energy>
  </scstep>
  <scstep>
   <time name="diag">    1.96    1.96</time>
   <time name="diis">   21.55   21.65</time>
   <time name="orth">    0.48    0.48</time>
   <time name="total">   24.29   24.39</time>
   <energy>
    <i name="e_fr_energy">   -656.49268529 </i>
    <i name="e_wo_entrp">   -656.38297955 </i>
    <i name="e_0_energy">   -656.43783242 </i>
   </energy>
  </scstep>
  <scstep>
   <time name="diag">    1.97    1.97</time>
   <time name="diis">   22.01   22.04</time>
   <time name="orth">    0.49    0.49</time>
   <time name="total">   24.75   24.79</time>
   <energy>
    <i name="e_fr_energy">   -656.48970802 </i>
    <i name="e_wo_entrp">   -656.37841511 </i>
    <i name="e_0_energy">   -656.43406156 </i>
   </energy>
  </scstep>
  <scstep>
   <time name="diag">    1.96    2.00</time>
   <time name="diis">   21.55   21.59</time>
   <time name="orth">    0.49    0.49</time>
   <time name="total">   24.30   24.39</time>
   <energy>
    <i name="e_fr_energy">   -656.48981334 </i>
    <i name="e_wo_entrp">   -656.37896760 </i>
    <i name="e_0_energy">   -656.43439047 </i>
   </energy>
  </scstep>
  <scstep>
   <time name="diag">    2.01    2.04</time>
   <time name="diis">   20.30   20.38</time>
   <time name="orth">    0.50    0.50</time>
   <time name="total">   23.10   23.21</time>
   <energy>
    <i name="e_fr_energy">   -656.48967385 </i>
    <i name="e_wo_entrp">   -656.37862587 </i>
    <i name="e_0_energy">   -656.43414986 </i>
   </energy>
  </scstep>
  <scstep>
   <time name="diag">    1.96    1.97</time>
   <time name="diis">   18.68   18.72</time>
   <time name="orth">    0.48    0.48</time>
   <time name="total">   21.41   21.47</time>
   <energy>
    <i name="e_fr_energy">   -656.48969324 </i>
    <i name="e_wo_entrp">   -656.37867819 </i>
    <i name="e_0_energy">   -656.43418572 </i>
   </energy>
  </scstep>
  <scstep>
   <time name="diag">    1.96    1.96</time>
   <time name="diis">   19.22   19.26</time>
   <time name="orth">    0.49    0.49</time>
   <time name="total">   21.96   22.03</time>
   <energy>
    <i name="e_fr_energy">   -656.48974258 </i>
    <i name="e_wo_entrp">   -656.37862663 </i>
    <i name="e_0_energy">   -656.43418461 </i>
   </energy>
  </scstep>
  <scstep>
   <time name="diag">    1.97    1.97</time>
   <time name="diis">   18.33   18.35</time>
   <time name="orth">    0.49    0.49</time>
   <time name="total">   21.08   21.10</time>
   <energy>
    <i name="e_fr_energy">   -656.48971914 </i>
    <i name="e_wo_entrp">   -656.37872012 </i>
    <i name="e_0_energy">   -656.43421963 </i>
   </energy>
  </scstep>
  <scstep>
   <time name="diag">    1.98    1.98</time>
   <time name="diis">   15.87   15.88</time>
   <time name="orth">    0.48    0.48</time>
   <time name="total">   18.37   18.38</time>
   <energy>
    <i name="alphaZ">   4862.83547181 </i>
    <i name="ewald"> -46065.26464175 </i>
    <i name="hartreedc">  -7761.93210859 </i>
    <i name="XCdc">   2067.55114075 </i>
    <i name="pawpsdc">  33635.89662905 </i>
    <i name="pawaedc"> -33420.50999362 </i>
    <i name="eentropy">     -0.11103928 </i>
    <i name="bandstr">  -6017.81148442 </i>
    <i name="atom">  52042.85630864 </i>
    <i name="e_fr_energy">   -656.48971741 </i>
    <i name="e_wo_entrp">   -656.37867813 </i>
    <i name="e_0_energy">   -656.43419777 </i>
   </energy>
  </scstep>
  <structure>
   <crystal>
    <varray name="basis" >
     <v>       8.88459901       0.01319516       0.02886793 </v>
     <v>       0.01924668       8.86576768      -0.01568868 </v>
     <v>       0.06082396      -0.03073442       8.92631862 </v>
    </varray>
    <i name="volume">    703.09317540 </i>
    <varray name="rec_basis" >
     <v>       0.11255718      -0.00024571      -0.00076781 </v>
     <v>      -0.00016878       0.11279445       0.00038952 </v>
     <v>      -0.00036431       0.00019904       0.11203143 </v>
    </varray>
   </crystal>
   <varray name="positions" >
    <v>       0.99878864       0.00457324       0.99960850 </v>
    <v>       0.26025915       0.00474121       0.24406216 </v>
    <v>       0.24852286       0.49257019       0.24940803 </v>
    <v>       0.49891942       0.49798167       0.00054536 </v>
    <v>       0.50213685       0.24527629       0.74901494 </v>
    <v>       0.00256177       0.49945595       0.50222634 </v>
    <v>       0.49242238       0.75808629       0.75509410 </v>
    <v>       0.99119712       0.23541307       0.25463243 </v>
    <v>       0.76036814       0.74587121       0.00592677 </v>
    <v>       0.00520651       0.25586888       0.74716085 </v>
    <v>       0.75646745       0.24894131       0.49234488 </v>
    <v>       0.00216795       0.74611044       0.75327038 </v>
    <v>       0.24924659       0.49717184       0.74857135 </v>
    <v>       0.25865965       0.25966724       0.98467434 </v>
    <v>       0.51667040       0.26641343       0.24411190 </v>
    <v>       0.75046747       0.99276211       0.27360685 </v>
    <v>       0.73615394       0.25264741       0.00463052 </v>
    <v>       0.22969356       0.73244338       0.00092261 </v>
    <v>       0.23761145       0.24829170       0.51345328 </v>
    <v>       0.25380418       0.75138307       0.49739513 </v>
    <v>       0.24933525       0.24760296       0.24786229 </v>
    <v>       0.26150718       0.00147871       0.98962725 </v>
    <v>       0.00162383       0.25643485       0.00244519 </v>
    <v>       0.74413448       0.24431503       0.24402616 </v>
    <v>       0.74883042       0.00674900       0.01596817 </v>
    <v>       0.51685416       0.99894105       0.24169642 </v>
    <v>       0.99372207       0.49658484       0.24263145 </v>
    <v>       0.49826972       0.76159107       0.00982060 </v>
    <v>       0.99066250       0.00307754       0.74472783 </v>
    <v>       0.75643109       0.24683427       0.75422113 </v>
    <v>       0.74580481       0.00118078       0.51288043 </v>
    <v>       0.49852882       0.24222469       0.48824533 </v>
    <v>       0.49683576       0.00265569       0.73295168 </v>
    <v>       0.99523290       0.99873068       0.25398418 </v>
    <v>       0.49804956       0.24577457       0.00959677 </v>
    <v>       0.25373871       0.74884634       0.24547724 </v>
    <v>       0.24380833       0.49822819       0.99579563 </v>
    <v>       0.00456533       0.74526642       0.00318363 </v>
    <v>       0.74977610       0.75163600       0.25179541 </v>
    <v>       0.75688371       0.49346693       0.00105584 </v>
    <v>       0.50191659       0.49517688       0.25381825 </v>
    <v>       0.24925642       0.24974812       0.74841524 </v>
    <v>       0.25288333       0.00064679       0.50226234 </v>
    <v>       0.00549774       0.24672109       0.50046622 </v>
    <v>       0.24279066       0.75597921       0.75132623 </v>
    <v>       0.25493713       0.49838182       0.50200914 </v>
    <v>       0.00192703       0.75602678       0.50046117 </v>
    <v>       0.99875147       0.50061032       0.75175959 </v>
    <v>       0.75017919       0.75174393       0.75171453 </v>
    <v>       0.74572202       0.49981141       0.49933866 </v>
    <v>       0.49391111       0.75116572       0.50020885 </v>
    <v>       0.50093238       0.50091247       0.74492622 </v>
    <v>       0.51861549       0.01240412       0.98548117 </v>
    <v>       0.00331227       0.50400320       0.98883813 </v>
    <v>       0.49603584       0.73956859       0.25784279 </v>
    <v>       0.24461900       0.00713381       0.74741057 </v>
    <v>       0.48913347       0.98644532       0.48246129 </v>
    <v>       0.73756128       0.98514506       0.77184000 </v>
    <v>       0.00441192       0.76031671       0.25120183 </v>
    <v>       0.74895838       0.49808325       0.24963827 </v>
    <v>       0.00980267       0.00303448       0.50028409 </v>
    <v>       0.49671369       0.50823946       0.50022853 </v>
    <v>       0.74929475       0.50742142       0.75235924 </v>
    <v>       0.74691634       0.75399024       0.49705444 </v>
   </varray>
  </structure>
  <varray name="forces" >
   <v>       0.07972395       0.03405937      -0.08201407 </v>
   <v>       0.01269811       0.01492936      -0.00625039 </v>
   <v>      -0.07340852      -0.10017180       0.02682544 </v>
   <v>       0.00118749       0.11146687      -0.05100811 </v>
   <v>       0.02275765       0.03681465      -0.01481875 </v>
   <v>      -0.19497793       0.06634713       0.09258580 </v>
   <v>       0.03027462      -0.01005603       0.08516201 </v>
   <v>      -0.04171505       0.23032324       0.06415226 </v>
   <v>       0.11779548       0.13004245      -0.14476232 </v>
   <v>      -0.01787713       0.02907088       0.07436325 </v>
   <v>       0.12317076      -0.12752615      -0.24871115 </v>
   <v>       0.02895424      -0.02656326       0.06338660 </v>
   <v>      -0.05212967       0.09106498       0.11014879 </v>
   <v>       0.08594816       0.18406076      -0.23511764 </v>
   <v>       0.11331570       0.07846824      -0.00328625 </v>
[...]
      </set>
     </set>
    </set>
   </array>
  </eigenvalues>
  <separator name="orbital magnetization" >
   <v name="MAGDIPOLOUT">      0.00000000      0.00000000      0.00000000</v>
  </separator>
  <dos>
   <i name="efermi">      8.82971045 </i>
   <total>
    <array>
     <dimension dim="1">gridpoints</dimension>
     <dimension dim="2">spin</dimension>
     <field>energy</field>
     <field>total</field>
     <field>integrated</field>
     <set>
      <set comment="spin 1">
       <r>   -59.5957     0.0000     0.0000 </r>
       <r>   -59.3448     0.0000     0.0000 </r>
       <r>   -59.0939     0.0000     0.0000 </r>
       <r>   -58.8429     0.0000     0.0000 </r>
       <r>   -58.5920     0.0000     0.0000 </r>
       <r>   -58.3411     0.0000     0.0000 </r>
       <r>   -58.0901     0.0000     0.0000 </r>
       <r>   -57.8392     0.0000     0.0000 </r>
       <r>   -57.5882     0.0000     0.0000 </r>
       <r>   -57.3373     0.0000     0.0000 </r>
       <r>   -57.0864     0.0000     0.0000 </r>
       <r>   -56.8354     0.0000     0.0000 </r>
       <r>   -56.5845     0.0000     0.0000 </r>
       <r>   -56.3336     0.1303     0.0327 </r>
       <r>   -56.0826    21.1787     5.3472 </r>
       <r>   -55.8317    33.6221    13.7842 </r>
       <r>   -55.5808     0.8601    14.0000 </r>
       <r>   -55.3298     0.0000    14.0000 </r>
       <r>   -55.0789     0.0000    14.0000 </r>
       <r>   -54.8280     0.0000    14.0000 </r>
       <r>   -54.5770     0.0000    14.0000 </r>
       <r>   -54.3261     0.0000    14.0000 </r>
       <r>   -54.0751     0.0000    14.0000 </r>
       <r>   -53.8242     0.0000    14.0000 </r>
       <r>   -53.5733     0.0000    14.0000 </r>
       <r>   -53.3223     0.0000    14.0000 </r>
       <r>   -53.0714     0.0000    14.0000 </r>
       <r>   -52.8205     0.0000    14.0000 </r>
       <r>   -52.5695     0.0000    14.0000 </r>
       <r>   -52.3186     0.0000    14.0000 </r>
       <r>   -52.0677     0.0000    14.0000 </r>
       <r>   -51.8167     0.0000    14.0000 </r>
       <r>   -51.5658     0.0000    14.0000 </r>
       <r>   -51.3149     0.0000    14.0000 </r>
       <r>   -51.0639     0.0000    14.0000 </r>
       <r>   -50.8130     0.0000    14.0000 </r>
       <r>   -50.5620     0.0000    14.0000 </r>
       <r>   -50.3111     0.0000    14.0000 </r>
       <r>   -50.0602     0.0000    14.0000 </r>
       <r>   -49.8092     0.0000    14.0000 </r>
       <r>   -49.5583     0.0000    14.0000 </r>
       <r>   -49.3074     0.0000    14.0000 </r>
       <r>   -49.0564     0.0000    14.0000 </r>
       <r>   -48.8055     0.0000    14.0000 </r>
       <r>   -48.5546     0.0000    14.0000 </r>
       <r>   -48.3036     0.0000    14.0000 </r>
       <r>   -48.0527     0.0000    14.0000 </r>
       <r>   -47.8017     0.0000    14.0000 </r>
       <r>   -47.5508     0.0000    14.0000 </r>
       <r>   -47.2999     0.0848    14.0213 </r>
       <r>   -47.0489    12.2172    17.0870 </r>
       <r>   -46.7980    23.0583    22.8732 </r>
       <r>   -46.5471    11.7894    25.8316 </r>
       <r>   -46.2961     0.6712    26.0000 </r>
       <r>   -46.0452     0.0000    26.0000 </r>
       <r>   -45.7943     0.0000    26.0000 </r>
       <r>   -45.5433     0.0000    26.0000 </r>
       <r>   -45.2924     0.0000    26.0000 </r>
       <r>   -45.0415     0.0000    26.0000 </r>
       <r>   -44.7905     0.0000    26.0000 </r>
       <r>   -44.5396     0.0000    26.0000 </r>
       <r>   -44.2886     0.0000    26.0000 </r>
       <r>   -44.0377     0.0000    26.0000 </r>
       <r>   -43.7868     0.0000    26.0000 </r>
       <r>   -43.5358     0.0000    26.0000 </r>
       <r>   -43.2849     0.0000    26.0000 </r>
       <r>   -43.0340     0.0000    26.0000 </r>
       <r>   -42.7830     0.0000    26.0000 </r>
       <r>   -42.5321     0.0000    26.0000 </r>
       <r>   -42.2812     0.0000    26.0000 </r>
       <r>   -42.0302     0.0000    26.0000 </r>
       <r>   -41.7793     0.0000    26.0000 </r>
       <r>   -41.5284     0.0000    26.0000 </r>
       <r>   -41.2774     0.0000    26.0000 </r>
       <r>   -41.0265     0.0000    26.0000 </r>
       <r>   -40.7755     0.0000    26.0000 </r>
       <r>   -40.5246     0.0555    26.0139 </r>
       <r>   -40.2737     6.9746    27.7641 </r>
       <r>   -40.0227    12.3234    30.8565 </r>
       <r>   -39.7718    24.4711    36.9971 </r>
       <r>   -39.5209    11.9559    39.9973 </r>
       <r>   -39.2699     0.0107    40.0000 </r>
       <r>   -39.0190     0.0000    40.0000 </r>
       <r>   -38.7681     0.0000    40.0000 </r>
       <r>   -38.5171     0.0000    40.0000 </r>
       <r>   -38.2662     0.0000    40.0000 </r>
       <r>   -38.0153     0.0000    40.0000 </r>
       <r>   -37.7643     0.0000    40.0000 </r>
       <r>   -37.5134     0.0000    40.0000 </r>
       <r>   -37.2624     0.0000    40.0000 </r>
       <r>   -37.0115     0.0000    40.0000 </r>
       <r>   -36.7606     0.0000    40.0000 </r>
       <r>   -36.5096     0.0000    40.0000 </r>
       <r>   -36.2587     0.0000    40.0000 </r>
       <r>   -36.0078     0.0000    40.0000 </r>
       <r>   -35.7568     0.0000    40.0000 </r>
       <r>   -35.5059     0.0000    40.0000 </r>
       <r>   -35.2550     0.0000    40.0000 </r>
       <r>   -35.0040     0.0000    40.0000 </r>
       <r>   -34.7531     0.0000    40.0000 </r>
       <r>   -34.5022     0.0000    40.0000 </r>
       <r>   -34.2512     0.0000    40.0000 </r>
       <r>   -34.0003     0.0000    40.0000 </r>
       <r>   -33.7493     0.0000    40.0000 </r>
       <r>   -33.4984     0.0000    40.0000 </r>
       <r>   -33.2475     0.0000    40.0000 </r>
       <r>   -32.9965     0.0000    40.0000 </r>
       <r>   -32.7456     0.0000    40.0000 </r>
       <r>   -32.4947     0.0000    40.0000 </r>
       <r>   -32.2437     0.0000    40.0000 </r>
       <r>   -31.9928     0.0000    40.0000 </r>
       <r>   -31.7419     0.0000    40.0000 </r>
       <r>   -31.4909     0.0000    40.0000 </r>
       <r>   -31.2400     0.0000    40.0000 </r>
       <r>   -30.9890     0.0008    40.0002 </r>
       <r>   -30.7381     4.4417    41.1148 </r>
       <r>   -30.4872    34.6120    49.8002 </r>
       <r>   -30.2362    92.6663    73.0535 </r>
       <r>   -29.9853    93.5156    96.5199 </r>
       <r>   -29.7344    84.5285   117.7311 </r>
       <r>   -29.4834     1.0715   118.0000 </r>
       <r>   -29.2325     0.0000   118.0000 </r>
       <r>   -28.9816     0.0000   118.0000 </r>
       <r>   -28.7306     0.0000   118.0000 </r>
       <r>   -28.4797     0.0000   118.0000 </r>
       <r>   -28.2288     0.0000   118.0000 </r>
       <r>   -27.9778     0.0000   118.0000 </r>
       <r>   -27.7269     0.0000   118.0000 </r>
       <r>   -27.4759     0.0000   118.0000 </r>
       <r>   -27.2250     0.0000   118.0000 </r>
       <r>   -26.9741     0.0000   118.0000 </r>
       <r>   -26.7231     0.5075   118.1274 </r>
       <r>   -26.4722    30.8004   125.8563 </r>
       <r>   -26.2213    65.8103   142.3705 </r>
       <r>   -25.9703    45.5870   153.8099 </r>
       <r>   -25.7194     0.7577   154.0000 </r>
       <r>   -25.4685     0.0000   154.0000 </r>
       <r>   -25.2175     0.0000   154.0000 </r>
       <r>   -24.9666     0.0000   154.0000 </r>
       <r>   -24.7157     0.0000   154.0000 </r>
       <r>   -24.4647     0.0000   154.0000 </r>
       <r>   -24.2138     0.0000   154.0000 </r>
       <r>   -23.9628     0.0000   154.0000 </r>
       <r>   -23.7119     0.0012   154.0003 </r>
       <r>   -23.4610     4.1016   155.0295 </r>
       <r>   -23.2100    35.2180   163.8670 </r>
       <r>   -22.9591    66.6682   180.5964 </r>
       <r>   -22.7082    32.3673   188.7185 </r>
       <r>   -22.4572     5.1061   189.9999 </r>
       <r>   -22.2063     0.0006   190.0000 </r>
       <r>   -21.9554     0.0000   190.0000 </r>
       <r>   -21.7044     0.0000   190.0000 </r>
       <r>   -21.4535     0.0000   190.0000 </r>
       <r>   -21.2026     0.0000   190.0000 </r>
       <r>   -20.9516     0.0000   190.0000 </r>
       <r>   -20.7007     0.0000   190.0000 </r>
       <r>   -20.4497     0.0000   190.0000 </r>
       <r>   -20.1988     0.0000   190.0000 </r>
       <r>   -19.9479     0.0000   190.0000 </r>
       <r>   -19.6969     0.0000   190.0000 </r>
       <r>   -19.4460     0.0000   190.0000 </r>
       <r>   -19.1951     0.0000   190.0000 </r>
       <r>   -18.9441     0.0554   190.0139 </r>
       <r>   -18.6932    11.0554   192.7881 </r>
       <r>   -18.4423    34.9909   201.5686 </r>
       <r>   -18.1913    65.9834   218.1262 </r>
       <r>   -17.9404    45.5411   229.5540 </r>
       <r>   -17.6895     9.6666   231.9798 </r>
       <r>   -17.4385     0.0807   232.0000 </r>
       <r>   -17.1876     0.0000   232.0000 </r>
       <r>   -16.9366     0.0000   232.0000 </r>
       <r>   -16.6857     0.0000   232.0000 </r>
       <r>   -16.4348     0.0000   232.0000 </r>
       <r>   -16.1838     0.0000   232.0000 </r>
       <r>   -15.9329     0.0000   232.0000 </r>
       <r>   -15.6820     0.0000   232.0000 </r>
       <r>   -15.4310     0.0000   232.0000 </r>
       <r>   -15.1801     0.0000   232.0000 </r>
       <r>   -14.9292     0.0000   232.0000 </r>
       <r>   -14.6782     0.0000   232.0000 </r>
       <r>   -14.4273     0.0000   232.0000 </r>
       <r>   -14.1763     0.0000   232.0000 </r>
       <r>   -13.9254     0.0000   232.0000 </r>
       <r>   -13.6745     0.0000   232.0000 </r>
       <r>   -13.4235     0.0000   232.0000 </r>
       <r>   -13.1726     0.0000   232.0000 </r>
       <r>   -12.9217     0.0000   232.0000 </r>
       <r>   -12.6707     0.0000   232.0000 </r>
       <r>   -12.4198     0.0000   232.0000 </r>
       <r>   -12.1689     0.0000   232.0000 </r>
       <r>   -11.9179     0.0000   232.0000 </r>
       <r>   -11.6670     0.0000   232.0000 </r>
       <r>   -11.4161     0.0000   232.0000 </r>
       <r>   -11.1651     0.0000   232.0000 </r>
       <r>   -10.9142     0.0000   232.0000 </r>
       <r>   -10.6632     0.0000   232.0000 </r>
       <r>   -10.4123     0.0000   232.0000 </r>
       <r>   -10.1614     0.0000   232.0000 </r>
       <r>    -9.9104     0.0000   232.0000 </r>
       <r>    -9.6595     0.0000   232.0000 </r>
       <r>    -9.4086     0.0000   232.0000 </r>
       <r>    -9.1576     0.0000   232.0000 </r>
       <r>    -8.9067     0.0000   232.0000 </r>
       <r>    -8.6558     0.0000   232.0000 </r>
       <r>    -8.4048     0.0000   232.0000 </r>
       <r>    -8.1539     0.0000   232.0000 </r>
       <r>    -7.9030     0.0088   232.0022 </r>
       <r>    -7.6520     2.0507   232.5168 </r>
       <r>    -7.4011     5.7813   233.9676 </r>
       <r>    -7.1501     7.0177   235.7286 </r>
       <r>    -6.8992    13.6847   239.1625 </r>
       <r>    -6.6483    17.8036   243.6301 </r>
       <r>    -6.3973    11.9148   246.6199 </r>
       <r>    -6.1464    24.9172   252.8726 </r>
       <r>    -5.8955     8.1559   254.9192 </r>
       <r>    -5.6445     9.6389   257.3379 </r>
       <r>    -5.3936     2.6380   257.9999 </r>
       <r>    -5.1427     0.0004   258.0000 </r>
       <r>    -4.8917     0.0000   258.0000 </r>
       <r>    -4.6408     0.0000   258.0000 </r>
       <r>    -4.3899     0.0001   258.0000 </r>
       <r>    -4.1389     0.3718   258.0933 </r>
       <r>    -3.8880     5.1997   259.3981 </r>
       <r>    -3.6370     3.4907   260.2740 </r>
       <r>    -3.3861     8.7688   262.4745 </r>
       <r>    -3.1352    10.7072   265.1613 </r>
       <r>    -2.8842    20.0194   270.1849 </r>
       <r>    -2.6333    23.5798   276.1019 </r>
       <r>    -2.3824    22.7136   281.8015 </r>
       <r>    -2.1314    22.7627   287.5135 </r>
       <r>    -1.8805    17.1607   291.8197 </r>
       <r>    -1.6296    11.7890   294.7780 </r>
       <r>    -1.3786     4.2140   295.8355 </r>
       <r>    -1.1277     0.6528   295.9993 </r>
       <r>    -0.8767     0.0029   296.0000 </r>
       <r>    -0.6258     0.0000   296.0000 </r>
       <r>    -0.3749     0.0000   296.0000 </r>
       <r>    -0.1239     0.0000   296.0000 </r>
       <r>     0.1270     0.0000   296.0000 </r>
       <r>     0.3779     0.0571   296.0143 </r>
       <r>     0.6289     0.9167   296.2444 </r>
       <r>     0.8798     5.3963   297.5985 </r>
       <r>     1.1307     8.5206   299.7366 </r>
       <r>     1.3817     9.8029   302.1965 </r>
       <r>     1.6326    14.2445   305.7710 </r>
       <r>     1.8835    20.3726   310.8832 </r>
       <r>     2.1345    27.5458   317.7954 </r>
       <r>     2.3854    26.8466   324.5322 </r>
       <r>     2.6364    26.2450   331.1180 </r>
       <r>     2.8873    35.2356   339.9599 </r>
       <r>     3.1382    32.8307   348.1983 </r>
       <r>     3.3892    39.5601   358.1253 </r>
       <r>     3.6401    49.5507   370.5594 </r>
       <r>     3.8910    57.7878   385.0604 </r>
       <r>     4.1420    63.0252   400.8757 </r>
       <r>     4.3929    60.2674   415.9990 </r>
       <r>     4.6438    58.9711   430.7969 </r>
       <r>     4.8948    52.4973   443.9704 </r>
       <r>     5.1457    44.4142   455.1155 </r>
       <r>     5.3966    34.0382   463.6569 </r>
       <r>     5.6476    30.4074   471.2872 </r>
       <r>     5.8985    26.8974   478.0367 </r>
       <r>     6.1495    18.4582   482.6686 </r>
       <r>     6.4004    15.2283   486.4899 </r>
       <r>     6.6513     6.2143   488.0493 </r>
       <r>     6.9023    12.0196   491.0654 </r>
       <r>     7.1532    15.4634   494.9458 </r>
       <r>     7.4041    17.5676   499.3541 </r>
       <r>     7.6551    20.2847   504.4442 </r>
       <r>     7.9060    19.9939   509.4614 </r>
       <r>     8.1569    19.4826   514.3503 </r>
       <r>     8.4079    25.7752   520.8182 </r>
       <r>     8.6588    27.9729   527.8376 </r>
       <r>     8.9097    22.3689   533.4508 </r>
       <r>     9.1607    26.3477   540.0624 </r>
       <r>     9.4116    36.2477   549.1582 </r>
       <r>     9.6626    39.7325   559.1286 </r>
       <r>     9.9135    46.5220   570.8026 </r>
       <r>    10.1644    44.4998   581.9692 </r>
       <r>    10.4154    43.8369   592.9694 </r>
       <r>    10.6663    47.7660   604.9556 </r>
       <r>    10.9172    46.2887   616.5711 </r>
       <r>    11.1682    44.7067   627.7896 </r>
       <r>    11.4191    47.4677   639.7010 </r>
       <r>    11.6700    43.6873   650.6637 </r>
       <r>    11.9210    46.6853   662.3787 </r>
       <r>    12.1719    32.6944   670.5829 </r>
       <r>    12.4228     5.6274   671.9950 </r>
       <r>    12.6738     0.0198   672.0000 </r>
       <r>    12.9247     0.0000   672.0000 </r>
       <r>    13.1757     0.0000   672.0000 </r>
       <r>    13.4266     0.0000   672.0000 </r>
       <r>    13.6775     0.0000   672.0000 </r>
       <r>    13.9285     0.0000   672.0000 </r>
       <r>    14.1794     0.0000   672.0000 </r>
       <r>    14.4303     0.0000   672.0000 </r>
       <r>    14.6813     0.0000   672.0000 </r>
       <r>    14.9322     0.0000   672.0000 </r>
       <r>    15.1831     0.0000   672.0000 </r>
       <r>    15.4341     0.0000   672.0000 </r>
       <r>    15.6850     0.0000   672.0000 </r>
      </set>
     </set>
    </array>
   </total>
  </dos>
 </calculation>
 <structure name="finalpos" >
  <crystal>
   <varray name="basis" >
    <v>       8.86748426       0.00412968       0.02752746 </v>
    <v>       0.01014836       8.85672027      -0.01580268 </v>
    <v>       0.05949567      -0.03093322       8.89326676 </v>
   </varray>
   <i name="volume">    698.42973288 </i>
   <varray name="rec_basis" >
    <v>       0.11277396      -0.00013057      -0.00075491 </v>
    <v>      -0.00005380       0.11290938       0.00039309 </v>
    <v>      -0.00034917       0.00020104       0.11244766 </v>
   </varray>
  </crystal>
  <varray name="positions" >
   <v>       0.00622274       0.00617201       0.99711371 </v>
   <v>       0.26334535       0.00647088       0.24303366 </v>
   <v>       0.24776686       0.49290186       0.25201179 </v>
   <v>       0.49923353       0.49952748       0.00014891 </v>
   <v>       0.49983988       0.24289625       0.74791768 </v>
   <v>       0.00186209       0.50092908       0.50372186 </v>
   <v>       0.49267547       0.75784222       0.75468933 </v>
   <v>       0.99505884       0.23590235       0.25567931 </v>
   <v>       0.76042303       0.75106416       0.00427640 </v>
   <v>       0.00111658       0.25755155       0.74891309 </v>
   <v>       0.75646675       0.24465878       0.48781129 </v>
   <v>       0.00132260       0.74677549       0.75344846 </v>
   <v>       0.24824993       0.50064290       0.74949139 </v>
   <v>       0.25445187       0.26826094       0.98439121 </v>
   <v>       0.51357085       0.26733758       0.24440167 </v>
   <v>       0.74343277       0.99620967       0.27637394 </v>
   <v>       0.72561173       0.24451683       0.01431827 </v>
   <v>       0.22916878       0.72805571       0.00237194 </v>
   <v>       0.23473775       0.24314004       0.51879344 </v>
   <v>       0.25907686       0.75976192       0.49462212 </v>
   <v>       0.24704517       0.24889545       0.24482183 </v>
   <v>       0.26306404       0.00097173       0.98875318 </v>
   <v>      -0.00152880       0.25783941       0.00362739 </v>
   <v>       0.74517398       0.24499529       0.24135671 </v>
   <v>       0.75342073       0.00784809       0.01607755 </v>
   <v>       0.51763283       0.99796567       0.23404973 </v>
   <v>       0.99373733       0.49954205       0.24422159 </v>
   <v>       0.49638187       0.76030159       0.00903683 </v>
   <v>       0.98552543       0.00336288       0.74489002 </v>
   <v>       0.75407933       0.24427410       0.75149110 </v>
   <v>       0.75569551       0.00036394       0.51820409 </v>
   <v>       0.49993367       0.24504996       0.48603945 </v>
   <v>       0.49319504       0.00055331       0.72905198 </v>
   <v>       0.99666627      -0.00057328       0.25561280 </v>
   <v>       0.49070224       0.24489016       0.00719959 </v>
   <v>       0.25406921       0.75004477       0.24541685 </v>
   <v>       0.24366616       0.49839482       0.99758913 </v>
   <v>       0.00342017       0.74606963       0.00381483 </v>
   <v>       0.75012433       0.75341912       0.25244273 </v>
   <v>       0.75603053       0.49197575       0.00107850 </v>
   <v>       0.50324860       0.49605825       0.25413338 </v>
   <v>       0.24575896       0.24690723       0.75178754 </v>
   <v>       0.26518939       0.00329481       0.50076252 </v>
   <v>       0.00437373       0.24666694       0.50151623 </v>
   <v>       0.24276176       0.75478567       0.75287508 </v>
   <v>       0.25591443       0.49662853       0.50350145 </v>
   <v>       0.00392280       0.75649872       0.50046647 </v>
   <v>       0.99836531       0.50218085       0.75261768 </v>
   <v>       0.75004249       0.75140098       0.75154543 </v>
   <v>       0.74559967       0.49837708       0.49830697 </v>
   <v>       0.49550910       0.74874807       0.49960458 </v>
   <v>       0.50077253       0.49984044       0.74435981 </v>
   <v>       0.51996156       0.00899725       0.98433776 </v>
   <v>       0.00113682       0.50179336       0.98872945 </v>
   <v>       0.49545585       0.73920799       0.25819806 </v>
   <v>       0.23746011      -0.00159120       0.74210405 </v>
   <v>       0.50831080       0.98763698       0.47505654 </v>
   <v>       0.73290559       0.98746729       0.77593172 </v>
   <v>       0.00509776       0.76323398       0.25266004 </v>
   <v>       0.74971287       0.49960082       0.24811243 </v>
   <v>       0.01560112       0.00193116       0.50448738 </v>
   <v>       0.49722108       0.50330917       0.50024696 </v>
   <v>       0.74925865       0.50579426       0.75387886 </v>
   <v>       0.74475012       0.75442899       0.49647438 </v>
  </varray>
 </structure>
</modeling>
