  64  64   0   0
  0.1129557E+02  0.8932500E-09  0.9055600E-09  0.8937200E-09  0.5000000E-15
  1.000000000000000E-004
  CAR 
 HECN                                    
     15.49763111    -59.36025176  301      9.04685759      1.00000000
    -59.360  0.0000E+00  0.0000E+00
    -59.111  0.0000E+00  0.0000E+00
    -58.861  0.0000E+00  0.0000E+00
    -58.612  0.0000E+00  0.0000E+00
    -58.362  0.0000E+00  0.0000E+00
    -58.113  0.0000E+00  0.0000E+00
    -57.863  0.0000E+00  0.0000E+00
    -57.614  0.0000E+00  0.0000E+00
    -57.364  0.0000E+00  0.0000E+00
    -57.115  0.0000E+00  0.0000E+00
    -56.865  0.0000E+00  0.0000E+00
    -56.615  0.0000E+00  0.0000E+00
    -56.366  0.3091E-09  0.7712E-10
    -56.116  0.1002E-02  0.2500E-03
    -55.867  0.1710E+00  0.4293E-01
    -55.617  0.3849E+00  0.1390E+00
    -55.368  0.4173E-02  0.1400E+00
    -55.118  0.2649E-08  0.1400E+00
    -54.869  0.0000E+00  0.1400E+00
    -54.619  0.0000E+00  0.1400E+00
    -54.370  0.0000E+00  0.1400E+00
    -54.120  0.0000E+00  0.1400E+00
    -53.871  0.0000E+00  0.1400E+00
    -53.621  0.0000E+00  0.1400E+00
    -53.372  0.0000E+00  0.1400E+00
    -53.122  0.0000E+00  0.1400E+00
    -52.873  0.0000E+00  0.1400E+00
    -52.623  0.0000E+00  0.1400E+00
    -52.374  0.0000E+00  0.1400E+00
    -52.124  0.0000E+00  0.1400E+00
    -51.874  0.0000E+00  0.1400E+00
    -51.625  0.0000E+00  0.1400E+00
    -51.375  0.0000E+00  0.1400E+00
    -51.126  0.0000E+00  0.1400E+00
    -50.876  0.0000E+00  0.1400E+00
    -50.627  0.0000E+00  0.1400E+00
    -50.377  0.0000E+00  0.1400E+00
    -50.128  0.0000E+00  0.1400E+00
    -49.878  0.0000E+00  0.1400E+00
    -49.629  0.0000E+00  0.1400E+00
    -49.379  0.0000E+00  0.1400E+00
    -49.130  0.0000E+00  0.1400E+00
    -48.880  0.0000E+00  0.1400E+00
    -48.631  0.0000E+00  0.1400E+00
    -48.381  0.0000E+00  0.1400E+00
    -48.132  0.0000E+00  0.1400E+00
    -47.882  0.0000E+00  0.1400E+00
    -47.633  0.0000E+00  0.1400E+00
    -47.383  0.5425E-10  0.1400E+00
    -47.133  0.4783E-03  0.1401E+00
    -46.884  0.1220E+00  0.1706E+00
    -46.634  0.2556E+00  0.2343E+00
    -46.385  0.1003E+00  0.2594E+00
    -46.135  0.2554E-02  0.2600E+00
    -45.886  0.2931E-08  0.2600E+00
    -45.636  0.0000E+00  0.2600E+00
    -45.387  0.0000E+00  0.2600E+00
    -45.137  0.0000E+00  0.2600E+00
    -44.888  0.0000E+00  0.2600E+00
    -44.638  0.0000E+00  0.2600E+00
    -44.389  0.0000E+00  0.2600E+00
    -44.139  0.0000E+00  0.2600E+00
    -43.890  0.0000E+00  0.2600E+00
    -43.640  0.0000E+00  0.2600E+00
    -43.391  0.0000E+00  0.2600E+00
    -43.141  0.0000E+00  0.2600E+00
    -42.892  0.0000E+00  0.2600E+00
    -42.642  0.0000E+00  0.2600E+00
    -42.392  0.0000E+00  0.2600E+00
    -42.143  0.0000E+00  0.2600E+00
    -41.893  0.0000E+00  0.2600E+00
    -41.644  0.0000E+00  0.2600E+00
    -41.394  0.0000E+00  0.2600E+00
    -41.145  0.0000E+00  0.2600E+00
    -40.895  0.0000E+00  0.2600E+00
    -40.646  0.0000E+00  0.2600E+00
    -40.396  0.0000E+00  0.2600E+00
    -40.147  0.0000E+00  0.2600E+00
    -39.897  0.0000E+00  0.2600E+00
    -39.648  0.0000E+00  0.2600E+00
    -39.398  0.0000E+00  0.2600E+00
    -39.149  0.0000E+00  0.2600E+00
    -38.899  0.0000E+00  0.2600E+00
    -38.650  0.0000E+00  0.2600E+00
    -38.400  0.0000E+00  0.2600E+00
    -38.151  0.0000E+00  0.2600E+00
    -37.901  0.0000E+00  0.2600E+00
    -37.651  0.0000E+00  0.2600E+00
    -37.402  0.0000E+00  0.2600E+00
    -37.152  0.0000E+00  0.2600E+00
    -36.903  0.0000E+00  0.2600E+00
    -36.653  0.0000E+00  0.2600E+00
    -36.404  0.0000E+00  0.2600E+00
    -36.154  0.0000E+00  0.2600E+00
    -35.905  0.0000E+00  0.2600E+00
    -35.655  0.0000E+00  0.2600E+00
    -35.406  0.0000E+00  0.2600E+00
    -35.156  0.0000E+00  0.2600E+00
    -34.907  0.0000E+00  0.2600E+00
    -34.657  0.0000E+00  0.2600E+00
    -34.408  0.0000E+00  0.2600E+00
    -34.158  0.0000E+00  0.2600E+00
    -33.909  0.0000E+00  0.2600E+00
    -33.659  0.0000E+00  0.2600E+00
    -33.410  0.0000E+00  0.2600E+00
    -33.160  0.0000E+00  0.2600E+00
    -32.910  0.0000E+00  0.2600E+00
    -32.661  0.0000E+00  0.2600E+00
    -32.411  0.0000E+00  0.2600E+00
    -32.162  0.0000E+00  0.2600E+00
    -31.912  0.0000E+00  0.2600E+00
    -31.663  0.0000E+00  0.2600E+00
    -31.413  0.0000E+00  0.2600E+00
    -31.164  0.2084E-14  0.2600E+00
    -30.914  0.2626E-05  0.2600E+00
    -30.665  0.3597E-01  0.2690E+00
    -30.415  0.2893E+00  0.3412E+00
    -30.166  0.7276E+00  0.5227E+00
    -29.916  0.5543E+00  0.6610E+00
    -29.667  0.1225E+01  0.9666E+00
    -29.417  0.2939E+00  0.1040E+01
    -29.168  0.1039E-03  0.1040E+01
    -28.918  0.7879E-12  0.1040E+01
    -28.669  0.0000E+00  0.1040E+01
    -28.419  0.0000E+00  0.1040E+01
    -28.169  0.0000E+00  0.1040E+01
    -27.920  0.0000E+00  0.1040E+01
    -27.670  0.0000E+00  0.1040E+01
    -27.421  0.0000E+00  0.1040E+01
    -27.171  0.0000E+00  0.1040E+01
    -26.922  0.0000E+00  0.1040E+01
    -26.672  0.0000E+00  0.1040E+01
    -26.423  0.0000E+00  0.1040E+01
    -26.173  0.0000E+00  0.1040E+01
    -25.924  0.0000E+00  0.1040E+01
    -25.674  0.0000E+00  0.1040E+01
    -25.425  0.0000E+00  0.1040E+01
    -25.175  0.0000E+00  0.1040E+01
    -24.926  0.0000E+00  0.1040E+01
    -24.676  0.0000E+00  0.1040E+01
    -24.427  0.0000E+00  0.1040E+01
    -24.177  0.0000E+00  0.1040E+01
    -23.928  0.0000E+00  0.1040E+01
    -23.678  0.2451E-07  0.1040E+01
    -23.428  0.5812E-02  0.1041E+01
    -23.179  0.1597E+00  0.1081E+01
    -22.929  0.6673E+00  0.1248E+01
    -22.680  0.4643E+00  0.1364E+01
    -22.430  0.1454E+00  0.1400E+01
    -22.181  0.8565E-01  0.1421E+01
    -21.931  0.1669E+00  0.1463E+01
    -21.682  0.5603E+00  0.1603E+01
    -21.432  0.4835E+00  0.1723E+01
    -21.183  0.3594E+00  0.1813E+01
    -20.933  0.2767E-01  0.1820E+01
    -20.684  0.3013E-05  0.1820E+01
    -20.434  0.2800E-14  0.1820E+01
    -20.185  0.0000E+00  0.1820E+01
    -19.935  0.0000E+00  0.1820E+01
    -19.686  0.0000E+00  0.1820E+01
    -19.436  0.0000E+00  0.1820E+01
    -19.187  0.0000E+00  0.1820E+01
    -18.937  0.0000E+00  0.1820E+01
    -18.687  0.0000E+00  0.1820E+01
    -18.438  0.0000E+00  0.1820E+01
    -18.188  0.0000E+00  0.1820E+01
    -17.939  0.0000E+00  0.1820E+01
    -17.689  0.0000E+00  0.1820E+01
    -17.440  0.0000E+00  0.1820E+01
    -17.190  0.0000E+00  0.1820E+01
    -16.941  0.0000E+00  0.1820E+01
    -16.691  0.0000E+00  0.1820E+01
    -16.442  0.0000E+00  0.1820E+01
    -16.192  0.0000E+00  0.1820E+01
    -15.943  0.0000E+00  0.1820E+01
    -15.693  0.0000E+00  0.1820E+01
    -15.444  0.0000E+00  0.1820E+01
    -15.194  0.0000E+00  0.1820E+01
    -14.945  0.0000E+00  0.1820E+01
    -14.695  0.0000E+00  0.1820E+01
    -14.446  0.0000E+00  0.1820E+01
    -14.196  0.0000E+00  0.1820E+01
    -13.946  0.0000E+00  0.1820E+01
    -13.697  0.0000E+00  0.1820E+01
    -13.447  0.0000E+00  0.1820E+01
    -13.198  0.0000E+00  0.1820E+01
    -12.948  0.0000E+00  0.1820E+01
    -12.699  0.0000E+00  0.1820E+01
    -12.449  0.0000E+00  0.1820E+01
    -12.200  0.0000E+00  0.1820E+01
    -11.950  0.0000E+00  0.1820E+01
    -11.701  0.0000E+00  0.1820E+01
    -11.451  0.0000E+00  0.1820E+01
    -11.202  0.0000E+00  0.1820E+01
    -10.952  0.0000E+00  0.1820E+01
    -10.703  0.0000E+00  0.1820E+01
    -10.453  0.0000E+00  0.1820E+01
    -10.204  0.0000E+00  0.1820E+01
     -9.954  0.0000E+00  0.1820E+01
     -9.705  0.0000E+00  0.1820E+01
     -9.455  0.0000E+00  0.1820E+01
     -9.205  0.0000E+00  0.1820E+01
     -8.956  0.0000E+00  0.1820E+01
     -8.706  0.0000E+00  0.1820E+01
     -8.457  0.0000E+00  0.1820E+01
     -8.207  0.1267E-10  0.1820E+01
     -7.958  0.6101E-04  0.1820E+01
     -7.708  0.1770E-01  0.1824E+01
     -7.459  0.5832E-01  0.1839E+01
     -7.209  0.4924E-01  0.1851E+01
     -6.960  0.9388E-01  0.1875E+01
     -6.710  0.1100E+00  0.1902E+01
     -6.461  0.1633E+00  0.1943E+01
     -6.211  0.1568E+00  0.1982E+01
     -5.962  0.2008E+00  0.2032E+01
     -5.712  0.8344E-01  0.2053E+01
     -5.463  0.6529E-01  0.2069E+01
     -5.213  0.4318E-01  0.2080E+01
     -4.964  0.3975E-04  0.2080E+01
     -4.714  0.7209E-12  0.2080E+01
     -4.464  0.6526E-16  0.2080E+01
     -4.215  0.1223E-06  0.2080E+01
     -3.965  0.2835E-02  0.2081E+01
     -3.716  0.5288E-01  0.2094E+01
     -3.466  0.5204E-01  0.2107E+01
     -3.217  0.8992E-01  0.2129E+01
     -2.967  0.1590E+00  0.2169E+01
     -2.718  0.2202E+00  0.2224E+01
     -2.468  0.2902E+00  0.2296E+01
     -2.219  0.2325E+00  0.2354E+01
     -1.969  0.1816E+00  0.2400E+01
     -1.720  0.1363E+00  0.2434E+01
     -1.470  0.7324E-01  0.2452E+01
     -1.221  0.2902E-01  0.2459E+01
     -0.971  0.3170E-02  0.2460E+01
     -0.722  0.8487E-06  0.2460E+01
     -0.472  0.3646E-14  0.2460E+01
     -0.223  0.0000E+00  0.2460E+01
      0.027  0.1413E-14  0.2460E+01
      0.277  0.5495E-06  0.2460E+01
      0.526  0.2373E-02  0.2461E+01
      0.776  0.1850E-01  0.2465E+01
      1.025  0.6482E-01  0.2481E+01
      1.275  0.9505E-01  0.2505E+01
      1.524  0.1185E+00  0.2535E+01
      1.774  0.1620E+00  0.2575E+01
      2.023  0.2160E+00  0.2629E+01
      2.273  0.2629E+00  0.2695E+01
      2.522  0.2751E+00  0.2763E+01
      2.772  0.3191E+00  0.2843E+01
      3.021  0.3195E+00  0.2923E+01
      3.271  0.3447E+00  0.3009E+01
      3.520  0.4316E+00  0.3116E+01
      3.770  0.5210E+00  0.3246E+01
      4.019  0.6002E+00  0.3396E+01
      4.269  0.6318E+00  0.3554E+01
      4.518  0.6174E+00  0.3708E+01
      4.768  0.5659E+00  0.3849E+01
      5.018  0.4984E+00  0.3973E+01
      5.267  0.4128E+00  0.4076E+01
      5.517  0.3261E+00  0.4158E+01
      5.766  0.2959E+00  0.4232E+01
      6.016  0.2411E+00  0.4292E+01
      6.265  0.1744E+00  0.4335E+01
      6.515  0.1310E+00  0.4368E+01
      6.764  0.1011E+00  0.4393E+01
      7.014  0.1434E+00  0.4429E+01
      7.263  0.1629E+00  0.4470E+01
      7.513  0.1964E+00  0.4519E+01
      7.762  0.2179E+00  0.4573E+01
      8.012  0.1991E+00  0.4623E+01
      8.261  0.2338E+00  0.4681E+01
      8.511  0.2842E+00  0.4752E+01
      8.760  0.2477E+00  0.4814E+01
      9.010  0.2323E+00  0.4872E+01
      9.259  0.2361E+00  0.4931E+01
      9.509  0.3421E+00  0.5016E+01
      9.759  0.4246E+00  0.5122E+01
     10.008  0.4790E+00  0.5241E+01
     10.258  0.4916E+00  0.5364E+01
     10.507  0.4954E+00  0.5488E+01
     10.757  0.5304E+00  0.5620E+01
     11.006  0.4883E+00  0.5742E+01
     11.256  0.4571E+00  0.5856E+01
     11.505  0.4637E+00  0.5972E+01
     11.755  0.4139E+00  0.6075E+01
     12.004  0.2784E+00  0.6144E+01
     12.254  0.6260E-01  0.6160E+01
     12.503  0.2182E-03  0.6160E+01
     12.753  0.4837E-10  0.6160E+01
     13.002  0.0000E+00  0.6160E+01
     13.252  0.0000E+00  0.6160E+01
     13.501  0.0000E+00  0.6160E+01
     13.751  0.0000E+00  0.6160E+01
     14.000  0.0000E+00  0.6160E+01
     14.250  0.0000E+00  0.6160E+01
     14.500  0.0000E+00  0.6160E+01
     14.749  0.0000E+00  0.6160E+01
     14.999  0.0000E+00  0.6160E+01
     15.248  0.0000E+00  0.6160E+01
     15.498  0.0000E+00  0.6160E+01
