 running   28 mpi-ranks, on    1 nodes
 distrk:  each k-point on   28 cores,    1 groups
 distr:  one band on    1 cores,   28 groups
 vasp.6.4.3 19Mar24 (build Sep 18 2024 11:30:23) complex                        
  
 POSCAR found type information on POSCAR HfNbV N C W Mo
 POSCAR found :  7 types and      64 ions
 Reading from existing POTCAR
 scaLAPACK will be used
 -----------------------------------------------------------------------------
|                                                                             |
|           W    W    AA    RRRRR   N    N  II  N    N   GGGG   !!!           |
|           W    W   A  A   R    R  NN   N  II  NN   N  G    G  !!!           |
|           W    W  A    A  R    R  N N  N  II  N N  N  G       !!!           |
|           W WW W  AAAAAA  RRRRR   N  N N  II  N  N N  G  GGG   !            |
|           WW  WW  A    A  R   R   N   NN  II  N   NN  G    G                |
|           W    W  A    A  R    R  N    N  II  N    N   GGGG   !!!           |
|                                                                             |
|     For optimal performance we recommend to set                             |
|       NCORE = 2 up to number-of-cores-per-socket                            |
|     NCORE specifies how many cores store one orbital (NPAR=cpu/NCORE).      |
|     This setting can greatly improve the performance of VASP for DFT.       |
|     The default, NCORE=1 might be grossly inefficient on modern             |
|     multi-core architectures or massively parallel machines. Do your        |
|     own testing! More info at https://www.vasp.at/wiki/index.php/NCORE      |
|     Unfortunately you need to use the default for GW and RPA                |
|     calculations (for HF NCORE is supported but not extensively tested      |
|     yet).                                                                   |
|                                                                             |
 -----------------------------------------------------------------------------

 Reading from existing POTCAR
 -----------------------------------------------------------------------------
|                                                                             |
|               ----> ADVICE to this user running VASP <----                  |
|                                                                             |
|     You have a (more or less) 'large supercell' and for larger cells it     |
|     might be more efficient to use real-space projection operators.         |
|     Therefore, try LREAL= Auto in the INCAR file.                           |
|     Mind: If you want to do very accurate calculations, keep the            |
|     reciprocal projection scheme (i.e. LREAL=.FALSE.).                      |
|                                                                             |
 -----------------------------------------------------------------------------

 LDA part: xc-table for (Slater+PW92), standard interpolation
 POSCAR, INCAR and KPOINTS ok, starting setup
 FFT: planning ... GRIDC
 FFT: planning ... GRID_SOFT
 FFT: planning ... GRID
 WAVECAR not read
 entering main loop
       N       E                     dE             d eps       ncg     rms          rms(c)
DAV:   1     0.496099760879E+04    0.49610E+04   -0.21972E+05  8624   0.138E+03
DAV:   2    -0.685652770273E+02   -0.50296E+04   -0.47976E+04  9128   0.553E+02
DAV:   3    -0.737136437676E+03   -0.66857E+03   -0.64479E+03 13944   0.166E+02
DAV:   4    -0.784039799640E+03   -0.46903E+02   -0.45711E+02 13916   0.476E+01
DAV:   5    -0.788946446902E+03   -0.49066E+01   -0.48539E+01 16660   0.141E+01    0.672E+01
RMM:   6    -0.743862586412E+03    0.45084E+02   -0.12589E+03 11882   0.706E+01    0.815E+01
RMM:   7    -0.664849016719E+03    0.79014E+02   -0.25679E+02 11533   0.380E+01    0.364E+01
RMM:   8    -0.651156754325E+03    0.13692E+02   -0.81321E+01 13513   0.161E+01    0.123E+01
RMM:   9    -0.651875255366E+03   -0.71850E+00   -0.26270E+01 13463   0.829E+00    0.159E+01
RMM:  10    -0.651575002081E+03    0.30025E+00   -0.93284E+00 13740   0.563E+00    0.115E+01
RMM:  11    -0.650392277935E+03    0.11827E+01   -0.55148E+00 12837   0.409E+00    0.869E+00
RMM:  12    -0.650547275499E+03   -0.15500E+00   -0.31495E+00 13481   0.324E+00    0.872E+00
RMM:  13    -0.650592008097E+03   -0.44733E-01   -0.31615E+00 13235   0.318E+00    0.676E+00
RMM:  14    -0.650448284347E+03    0.14372E+00   -0.12583E+00 13484   0.210E+00    0.463E+00
RMM:  15    -0.650275486222E+03    0.17280E+00   -0.96312E-01 13114   0.149E+00    0.309E+00
RMM:  16    -0.650270912312E+03    0.45739E-02   -0.65182E-01 13957   0.112E+00    0.162E+00
RMM:  17    -0.650296478271E+03   -0.25566E-01   -0.64339E-01 13825   0.967E-01    0.110E+00
RMM:  18    -0.650327975613E+03   -0.31497E-01   -0.35503E-01 14366   0.797E-01    0.117E+00
RMM:  19    -0.650344807132E+03   -0.16832E-01   -0.24547E-01 13575   0.695E-01    0.916E-01
RMM:  20    -0.650366118458E+03   -0.21311E-01   -0.18970E-01 14117   0.545E-01    0.126E+00
RMM:  21    -0.650365846930E+03    0.27153E-03   -0.10697E-01 13861   0.452E-01    0.401E-01
RMM:  22    -0.650373084819E+03   -0.72379E-02   -0.10502E-01 14243   0.344E-01    0.246E-01
RMM:  23    -0.650378107687E+03   -0.50229E-02   -0.61442E-02 14456   0.297E-01    0.133E-01
RMM:  24    -0.650383300482E+03   -0.51928E-02   -0.52760E-02 14680   0.241E-01    0.106E-01
RMM:  25    -0.650386078314E+03   -0.27778E-02   -0.29473E-02 14270   0.202E-01    0.871E-02
RMM:  26    -0.650388749017E+03   -0.26707E-02   -0.29010E-02 14015   0.179E-01    0.557E-02
RMM:  27    -0.650390488644E+03   -0.17396E-02   -0.17818E-02 13742   0.151E-01    0.374E-02
RMM:  28    -0.650392201609E+03   -0.17130E-02   -0.17302E-02 13185   0.130E-01    0.278E-02
RMM:  29    -0.650393170047E+03   -0.96844E-03   -0.98034E-03 13021   0.115E-01    0.222E-02
RMM:  30    -0.650394210134E+03   -0.10401E-02   -0.10403E-02 12888   0.993E-02    0.148E-02
RMM:  31    -0.650394759688E+03   -0.54955E-03   -0.55830E-03 12727   0.875E-02    0.105E-02
RMM:  32    -0.650395348408E+03   -0.58872E-03   -0.59632E-03 12608   0.758E-02    0.204E-02
RMM:  33    -0.650395651355E+03   -0.30295E-03   -0.30630E-03 12433   0.676E-02    0.107E-02
RMM:  34    -0.650395997544E+03   -0.34619E-03   -0.35031E-03 12546   0.601E-02    0.155E-02
RMM:  35    -0.650396175189E+03   -0.17765E-03   -0.18012E-03 12121   0.520E-02    0.905E-03
RMM:  36    -0.650396381112E+03   -0.20592E-03   -0.20654E-03 12257   0.473E-02    0.779E-03
RMM:  37    -0.650396487268E+03   -0.10616E-03   -0.10698E-03 11739   0.410E-02    0.328E-03
RMM:  38    -0.650396607665E+03   -0.12040E-03   -0.12059E-03 11781   0.373E-02    0.628E-03
RMM:  39    -0.650396671472E+03   -0.63807E-04   -0.64950E-04 11167   0.326E-02    0.363E-03
RMM:  40    -0.650396740956E+03   -0.69484E-04   -0.69450E-04 10588   0.296E-02    0.579E-03
RMM:  41    -0.650396779773E+03   -0.38817E-04   -0.39979E-04 10008   0.280E-02    0.549E-03
RMM:  42    -0.650396819049E+03   -0.39276E-04   -0.41392E-04  9731   0.248E-02    0.209E-02
RMM:  43    -0.650396844389E+03   -0.25339E-04   -0.26323E-04  9192   0.236E-02    0.237E-02
RMM:  44    -0.650396868755E+03   -0.24366E-04   -0.25050E-04  8594   0.213E-02    0.263E-02
RMM:  45    -0.650396884839E+03   -0.16085E-04   -0.16762E-04  8073   0.201E-02    0.255E-02
RMM:  46    -0.650396899506E+03   -0.14666E-04   -0.15322E-04  7705   0.197E-02    0.279E-02
RMM:  47    -0.650396909091E+03   -0.95852E-05   -0.10060E-04  7307   0.172E-02    0.276E-02
RMM:  48    -0.650396918468E+03   -0.93771E-05   -0.98701E-05  6989   0.171E-02
   1 F= -.65039692E+03 E0= -.65030239E+03  d E =-.650397E+03
 curvature:   0.00 expect dE= 0.000E+00 dE for cont linesearch  0.000E+00
 trial: gam= 0.00000 g(F)=  0.306E+01 g(S)=  0.807E+01 ort = 0.000E+00 (trialstep = 0.100E+01)
 search vector abs. value=  0.111E+02
 bond charge predicted
       N       E                     dE             d eps       ncg     rms          rms(c)
DAV:   1    -0.705805554725E+03   -0.55409E+02   -0.21709E+03 10948   0.168E+02    0.535E+01
RMM:   2    -0.732591298375E+03   -0.26786E+02   -0.49780E+02 10001   0.712E+01    0.641E+01
RMM:   3    -0.660191039417E+03    0.72400E+02   -0.67913E+01 11051   0.309E+01    0.271E+01
RMM:   4    -0.655335421414E+03    0.48556E+01   -0.31341E+01 11884   0.156E+01    0.214E+01
RMM:   5    -0.651941378973E+03    0.33940E+01   -0.16105E+01 11217   0.105E+01    0.199E+01
RMM:   6    -0.649663001863E+03    0.22784E+01   -0.62661E+00 12265   0.602E+00    0.105E+01
RMM:   7    -0.649204855352E+03    0.45815E+00   -0.22194E+00 12040   0.365E+00    0.703E+00
RMM:   8    -0.649099523276E+03    0.10533E+00   -0.99738E-01 13056   0.239E+00    0.650E+00
RMM:   9    -0.648782975580E+03    0.31655E+00   -0.41289E-01 13248   0.159E+00    0.178E+00
RMM:  10    -0.648833353144E+03   -0.50378E-01   -0.24470E-01 14595   0.101E+00    0.281E+00
RMM:  11    -0.648788168481E+03    0.45185E-01   -0.11406E-01 14562   0.817E-01    0.960E-01
RMM:  12    -0.648799411931E+03   -0.11243E-01   -0.70798E-02 14860   0.538E-01    0.126E+00
RMM:  13    -0.648795947233E+03    0.34647E-02   -0.42889E-02 14989   0.464E-01    0.615E-01
RMM:  14    -0.648798884216E+03   -0.29370E-02   -0.32975E-02 15319   0.361E-01    0.278E-01
RMM:  15    -0.648802844641E+03   -0.39604E-02   -0.23978E-02 15246   0.309E-01    0.492E-01
RMM:  16    -0.648803191936E+03   -0.34729E-03   -0.16354E-02 15206   0.275E-01    0.189E-01
RMM:  17    -0.648804636502E+03   -0.14446E-02   -0.14795E-02 15398   0.231E-01    0.113E-01
RMM:  18    -0.648805574449E+03   -0.93795E-03   -0.98869E-03 15365   0.209E-01    0.533E-02
RMM:  19    -0.648806397444E+03   -0.82300E-03   -0.85000E-03 15146   0.183E-01    0.347E-02
RMM:  20    -0.648807053785E+03   -0.65634E-03   -0.66046E-03 14783   0.168E-01    0.231E-02
RMM:  21    -0.648807618833E+03   -0.56505E-03   -0.55840E-03 14659   0.154E-01    0.210E-02
RMM:  22    -0.648808089160E+03   -0.47033E-03   -0.46518E-03 14550   0.141E-01    0.177E-02
RMM:  23    -0.648808487601E+03   -0.39844E-03   -0.38977E-03 14576   0.130E-01    0.139E-02
RMM:  24    -0.648808828887E+03   -0.34129E-03   -0.33389E-03 14458   0.119E-01    0.115E-02
RMM:  25    -0.648809128160E+03   -0.29927E-03   -0.29298E-03 14414   0.110E-01    0.113E-02
RMM:  26    -0.648809393374E+03   -0.26521E-03   -0.25858E-03 14359   0.102E-01    0.874E-03
RMM:  27    -0.648809623912E+03   -0.23054E-03   -0.22397E-03 14036   0.944E-02    0.482E-03
RMM:  28    -0.648809836830E+03   -0.21292E-03   -0.20828E-03 13746   0.881E-02    0.784E-03
RMM:  29    -0.648810019763E+03   -0.18293E-03   -0.17961E-03 13424   0.830E-02    0.271E-02
RMM:  30    -0.648810193361E+03   -0.17360E-03   -0.17087E-03 12604   0.779E-02    0.310E-02
RMM:  31    -0.648810344624E+03   -0.15126E-03   -0.14701E-03 11993   0.747E-02    0.316E-02
RMM:  32    -0.648810490936E+03   -0.14631E-03   -0.14377E-03 11246   0.703E-02    0.352E-02
RMM:  33    -0.648810617947E+03   -0.12701E-03   -0.12360E-03 10505   0.683E-02    0.349E-02
WARNING in EDDRMM: call to ZHEGV failed, returncode =   6  3      5
RMM:  34    -0.648810741826E+03   -0.12388E-03   -0.12172E-03  9981   0.650E-02    0.339E-02
RMM:  35    -0.648810850532E+03   -0.10871E-03   -0.10620E-03  9619   0.620E-02    0.359E-02
RMM:  36    -0.648810956839E+03   -0.10631E-03   -0.10483E-03  9234   0.592E-02    0.390E-02
RMM:  37    -0.648811051059E+03   -0.94220E-04   -0.92140E-04  8831   0.574E-02    0.384E-02
RMM:  38    -0.648811143223E+03   -0.92164E-04   -0.91265E-04  8524   0.548E-02    0.426E-02
RMM:  39    -0.648811225168E+03   -0.81945E-04   -0.80523E-04  8421   0.526E-02    0.451E-02
RMM:  40    -0.648811305762E+03   -0.80594E-04   -0.79705E-04  8254   0.501E-02    0.443E-02
RMM:  41    -0.648811377505E+03   -0.71743E-04   -0.70607E-04  8127   0.482E-02    0.453E-02
RMM:  42    -0.648811448002E+03   -0.70497E-04   -0.69984E-04  7989   0.462E-02    0.472E-02
RMM:  43    -0.648811511110E+03   -0.63108E-04   -0.62248E-04  7911   0.441E-02    0.482E-02
RMM:  44    -0.648811572958E+03   -0.61848E-04   -0.61607E-04  7736   0.424E-02    0.506E-02
RMM:  45    -0.648811628558E+03   -0.55599E-04   -0.55083E-04  7594   0.405E-02    0.528E-02
RMM:  46    -0.648811683202E+03   -0.54644E-04   -0.54509E-04  7396   0.389E-02    0.532E-02
RMM:  47    -0.648811732430E+03   -0.49228E-04   -0.48774E-04  7362   0.374E-02    0.529E-02
RMM:  48    -0.648811780795E+03   -0.48365E-04   -0.48430E-04  7141   0.361E-02    0.538E-02
RMM:  49    -0.648811824531E+03   -0.43736E-04   -0.43468E-04  7009   0.345E-02    0.533E-02
RMM:  50    -0.648811867275E+03   -0.42744E-04   -0.42958E-04  6839   0.334E-02    0.544E-02
RMM:  51    -0.648811906150E+03   -0.38875E-04   -0.38921E-04  6139   0.320E-02    0.564E-02
RMM:  52    -0.648811944026E+03   -0.37875E-04   -0.38169E-04  6076   0.307E-02    0.563E-02
RMM:  53    -0.648811978269E+03   -0.34244E-04   -0.34391E-04  5886   0.298E-02    0.579E-02
RMM:  54    -0.648812011893E+03   -0.33624E-04   -0.34012E-04  5381   0.286E-02    0.590E-02
RMM:  55    -0.648812042398E+03   -0.30505E-04   -0.30701E-04  5228   0.277E-02    0.604E-02
RMM:  56    -0.648812072349E+03   -0.29951E-04   -0.30359E-04  5242   0.267E-02    0.610E-02
RMM:  57    -0.648812099677E+03   -0.27328E-04   -0.27369E-04  6090   0.262E-02    0.603E-02
RMM:  58    -0.648812126334E+03   -0.26656E-04   -0.27120E-04  5733   0.255E-02    0.618E-02
RMM:  59    -0.648812150514E+03   -0.24181E-04   -0.24507E-04  4590   0.243E-02    0.631E-02
RMM:  60    -0.648812174316E+03   -0.23802E-04   -0.24300E-04  4508   0.235E-02
 -----------------------------------------------------------------------------
|                                                                             |
|           W    W    AA    RRRRR   N    N  II  N    N   GGGG   !!!           |
|           W    W   A  A   R    R  NN   N  II  NN   N  G    G  !!!           |
|           W    W  A    A  R    R  N N  N  II  N N  N  G       !!!           |
|           W WW W  AAAAAA  RRRRR   N  N N  II  N  N N  G  GGG   !            |
|           WW  WW  A    A  R   R   N   NN  II  N   NN  G    G                |
|           W    W  A    A  R    R  N    N  II  N    N   GGGG   !!!           |
|                                                                             |
|     The electronic self-consistency was not achieved in the given           |
|     number of steps (NELM). The forces and other quantities evaluated       |
|     might not be reliable so examine the results carefully. If you find     |
|     spurious results, we suggest increasing NELM, if you were close to      |
|     convergence or switching to a different ALGO or adjusting the           |
|     density mixing parameters otherwise.                                    |
|                                                                             |
 -----------------------------------------------------------------------------

   2 F= -.64881217E+03 E0= -.64874696E+03  d E =0.158474E+01
 trial-energy change:    1.584744  1 .order    2.322979  -11.128136   15.774095
 step:   0.4545(harm=  0.4137)  dis= 0.03352  next Energy=  -652.994928 (dE=-0.260E+01)
 bond charge predicted
       N       E                     dE             d eps       ncg     rms          rms(c)
DAV:   1    -0.677415273975E+03   -0.28603E+02   -0.69662E+02 10948   0.918E+01    0.536E+01
RMM:   2    -0.805584937956E+03   -0.12817E+03   -0.20018E+02 11104   0.343E+01    0.600E+01
RMM:   3    -0.677687977318E+03    0.12790E+03   -0.48808E+01 10673   0.199E+01    0.340E+01
RMM:   4    -0.658102582358E+03    0.19585E+02   -0.17579E+01 12105   0.110E+01    0.185E+01
RMM:   5    -0.659452054863E+03   -0.13495E+01   -0.28173E+01 11578   0.115E+01    0.310E+01
RMM:   6    -0.656389237151E+03    0.30628E+01   -0.72053E+00 12981   0.591E+00    0.199E+01
RMM:   7    -0.653613554996E+03    0.27757E+01   -0.32603E+00 10444   0.479E+00    0.929E+00
RMM:   8    -0.654129773970E+03   -0.51622E+00   -0.15679E+00 12287   0.264E+00    0.104E+01
RMM:   9    -0.653298331156E+03    0.83144E+00   -0.39074E-01 11182   0.173E+00    0.568E+00
RMM:  10    -0.653054910726E+03    0.24342E+00   -0.22906E-01 13613   0.107E+00    0.261E+00
RMM:  11    -0.653014871162E+03    0.40040E-01   -0.21085E-01 13761   0.902E-01    0.160E+00
RMM:  12    -0.653016229969E+03   -0.13588E-02   -0.63578E-02 14494   0.547E-01    0.143E+00
RMM:  13    -0.653011422289E+03    0.48077E-02   -0.35178E-02 14761   0.365E-01    0.881E-01
RMM:  14    -0.653018536396E+03   -0.71141E-02   -0.22666E-02 14959   0.283E-01    0.130E+00
RMM:  15    -0.653008830735E+03    0.97057E-02   -0.19863E-02 14781   0.276E-01    0.246E-01
RMM:  16    -0.653010401626E+03   -0.15709E-02   -0.12500E-02 15177   0.181E-01    0.309E-01
RMM:  17    -0.653011149484E+03   -0.74786E-03   -0.73272E-03 15154   0.151E-01    0.308E-01
RMM:  18    -0.653011240169E+03   -0.90685E-04   -0.54564E-03 15264   0.127E-01    0.105E-01
RMM:  19    -0.653011639002E+03   -0.39883E-03   -0.40024E-03 15185   0.106E-01    0.787E-02
RMM:  20    -0.653011874414E+03   -0.23541E-03   -0.29610E-03 14859   0.968E-02    0.423E-02
RMM:  21    -0.653012055292E+03   -0.18088E-03   -0.20712E-03 14556   0.833E-02    0.169E-02
RMM:  22    -0.653012218596E+03   -0.16330E-03   -0.16883E-03 14298   0.744E-02    0.192E-02
RMM:  23    -0.653012326235E+03   -0.10764E-03   -0.11184E-03 14077   0.659E-02    0.156E-02
RMM:  24    -0.653012415901E+03   -0.89666E-04   -0.93558E-04 14064   0.589E-02    0.151E-02
RMM:  25    -0.653012471324E+03   -0.55423E-04   -0.59439E-04 13710   0.517E-02    0.893E-03
RMM:  26    -0.653012517128E+03   -0.45804E-04   -0.48682E-04 13674   0.476E-02    0.119E-02
RMM:  27    -0.653012553742E+03   -0.36614E-04   -0.37427E-04 13067   0.419E-02    0.804E-03
RMM:  28    -0.653012583196E+03   -0.29454E-04   -0.31302E-04 12595   0.384E-02    0.607E-03
RMM:  29    -0.653012605914E+03   -0.22718E-04   -0.23057E-04 11844   0.355E-02    0.366E-03
RMM:  30    -0.653012626526E+03   -0.20613E-04   -0.20951E-04 10928   0.333E-02    0.528E-03
RMM:  31    -0.653012642588E+03   -0.16062E-04   -0.15601E-04  9914   0.320E-02    0.946E-03
RMM:  32    -0.653012655424E+03   -0.12835E-04   -0.13700E-04  9223   0.305E-02    0.865E-03
RMM:  33    -0.653012665811E+03   -0.10388E-04   -0.10980E-04  8875   0.297E-02    0.751E-03
RMM:  34    -0.653012676017E+03   -0.10205E-04   -0.10245E-04  8385   0.273E-02    0.871E-03
RMM:  35    -0.653012684124E+03   -0.81073E-05   -0.84798E-05  8200   0.269E-02
   3 F= -.65301268E+03 E0= -.65293309E+03  d E =-.261577E+01
 curvature:  -0.21 expect dE=-0.675E+00 dE for cont linesearch -0.269E-02
 trial: gam= 0.26035 g(F)=  0.260E+01 g(S)=  0.680E+00 ort = 0.382E+00 (trialstep = 0.891E+00)
 search vector abs. value=  0.423E+01
 bond charge predicted
       N       E                     dE             d eps       ncg     rms          rms(c)
DAV:   1    -0.650047942203E+03    0.29647E+01   -0.54831E+02  8680   0.742E+01    0.628E+00
RMM:   2    -0.657074112316E+03   -0.70262E+01   -0.45234E+01 12100   0.208E+01    0.168E+01
RMM:   3    -0.654570519919E+03    0.25036E+01   -0.96463E+00 12861   0.856E+00    0.360E+00
RMM:   4    -0.654743058806E+03   -0.17254E+00   -0.17410E+00 13648   0.309E+00    0.524E+00
RMM:   5    -0.654580130805E+03    0.16293E+00   -0.56660E-01 13993   0.172E+00    0.189E+00
RMM:   6    -0.654607570920E+03   -0.27440E-01   -0.31364E-01 13753   0.988E-01    0.291E+00
RMM:   7    -0.654583323903E+03    0.24247E-01   -0.19054E-01 13580   0.855E-01    0.173E+00
RMM:   8    -0.654566005959E+03    0.17318E-01   -0.14044E-01 13670   0.654E-01    0.890E-01
RMM:   9    -0.654571274969E+03   -0.52690E-02   -0.71185E-02 14200   0.452E-01    0.908E-01
RMM:  10    -0.654570097160E+03    0.11778E-02   -0.43414E-02 14039   0.321E-01    0.425E-01
RMM:  11    -0.654573122346E+03   -0.30252E-02   -0.31942E-02 14272   0.258E-01    0.542E-01
RMM:  12    -0.654573040755E+03    0.81591E-04   -0.20138E-02 14327   0.223E-01    0.146E-01
RMM:  13    -0.654574615978E+03   -0.15752E-02   -0.17091E-02 14808   0.170E-01    0.133E-01
RMM:  14    -0.654575555346E+03   -0.93937E-03   -0.95884E-03 14291   0.148E-01    0.155E-01
RMM:  15    -0.654576244133E+03   -0.68879E-03   -0.84708E-03 14024   0.126E-01    0.629E-02
RMM:  16    -0.654576785919E+03   -0.54179E-03   -0.52894E-03 13988   0.115E-01    0.891E-02
RMM:  17    -0.654577199827E+03   -0.41391E-03   -0.47195E-03 13507   0.101E-01    0.351E-02
RMM:  18    -0.654577508637E+03   -0.30881E-03   -0.32260E-03 13309   0.919E-02    0.244E-02
RMM:  19    -0.654577767069E+03   -0.25843E-03   -0.26817E-03 13095   0.822E-02    0.148E-02
RMM:  20    -0.654577962139E+03   -0.19507E-03   -0.19857E-03 12706   0.734E-02    0.110E-02
RMM:  21    -0.654578124410E+03   -0.16227E-03   -0.16619E-03 12509   0.671E-02    0.677E-03
RMM:  22    -0.654578252906E+03   -0.12850E-03   -0.13002E-03 12328   0.605E-02    0.629E-03
RMM:  23    -0.654578359114E+03   -0.10621E-03   -0.10836E-03 11932   0.555E-02    0.486E-03
RMM:  24    -0.654578446601E+03   -0.87487E-04   -0.88270E-04 11433   0.509E-02    0.457E-03
RMM:  25    -0.654578522237E+03   -0.75636E-04   -0.76676E-04 10956   0.477E-02    0.663E-03
RMM:  26    -0.654578585735E+03   -0.63497E-04   -0.63682E-04 10379   0.445E-02    0.124E-02
RMM:  27    -0.654578641368E+03   -0.55633E-04   -0.56455E-04  9851   0.421E-02    0.146E-02
RMM:  28    -0.654578690046E+03   -0.48678E-04   -0.48944E-04  9429   0.397E-02    0.169E-02
RMM:  29    -0.654578733261E+03   -0.43215E-04   -0.43909E-04  8864   0.372E-02    0.170E-02
RMM:  30    -0.654578770232E+03   -0.36971E-04   -0.36947E-04  8420   0.357E-02    0.184E-02
RMM:  31    -0.654578806760E+03   -0.36528E-04   -0.36281E-04  7876   0.339E-02    0.201E-02
RMM:  32    -0.654578837504E+03   -0.30745E-04   -0.31547E-04  7712   0.327E-02    0.210E-02
RMM:  33    -0.654578865504E+03   -0.28000E-04   -0.28780E-04  7276   0.306E-02    0.231E-02
RMM:  34    -0.654578891298E+03   -0.25794E-04   -0.25848E-04  7065   0.297E-02    0.238E-02
RMM:  35    -0.654578915445E+03   -0.24147E-04   -0.24746E-04  6861   0.279E-02    0.253E-02
RMM:  36    -0.654578937637E+03   -0.22191E-04   -0.22329E-04  6519   0.273E-02    0.266E-02
RMM:  37    -0.654578959120E+03   -0.21483E-04   -0.21725E-04  6463   0.254E-02    0.277E-02
RMM:  38    -0.654578978246E+03   -0.19127E-04   -0.19442E-04  6384   0.248E-02    0.296E-02
RMM:  39    -0.654578996960E+03   -0.18714E-04   -0.18822E-04  6370   0.235E-02    0.313E-02
RMM:  40    -0.654579014300E+03   -0.17340E-04   -0.17039E-04  6283   0.229E-02    0.333E-02
RMM:  41    -0.654579031140E+03   -0.16839E-04   -0.16684E-04  6194   0.217E-02    0.349E-02
RMM:  42    -0.654579046112E+03   -0.14973E-04   -0.14976E-04  5879   0.209E-02    0.359E-02
RMM:  43    -0.654579060659E+03   -0.14546E-04   -0.14751E-04  5614   0.196E-02    0.368E-02
RMM:  44    -0.654579073847E+03   -0.13188E-04   -0.13271E-04  5310   0.188E-02    0.377E-02
RMM:  45    -0.654579086465E+03   -0.12618E-04   -0.13049E-04  5133   0.179E-02    0.379E-02
RMM:  46    -0.654579098191E+03   -0.11726E-04   -0.11831E-04  5026   0.174E-02    0.382E-02
RMM:  47    -0.654579109418E+03   -0.11227E-04   -0.11621E-04  4865   0.166E-02    0.386E-02
RMM:  48    -0.654579120001E+03   -0.10583E-04   -0.10541E-04  4576   0.160E-02    0.398E-02
RMM:  49    -0.654579130172E+03   -0.10171E-04   -0.10390E-04  4539   0.153E-02    0.399E-02
RMM:  50    -0.654579139142E+03   -0.89698E-05   -0.94278E-05  4477   0.150E-02
   4 F= -.65457914E+03 E0= -.65450769E+03  d E =-.156646E+01
 trial-energy change:   -1.566455  1 .order   -1.597060   -3.009635   -0.184485
 step:   0.9534(harm=  0.9491)  dis= 0.08123  next Energy=  -654.585602 (dE=-0.157E+01)
 bond charge predicted
       N       E                     dE             d eps       ncg     rms          rms(c)
DAV:   1    -0.654564204377E+03    0.14926E-01   -0.27081E+00  9408   0.522E+00    0.426E-01
RMM:   2    -0.654600314313E+03   -0.36110E-01   -0.22941E-01 12104   0.148E+00    0.143E+00
RMM:   3    -0.654587114299E+03    0.13200E-01   -0.45374E-02 12151   0.598E-01    0.385E-01
RMM:   4    -0.654587276557E+03   -0.16226E-03   -0.92684E-03 13661   0.224E-01    0.325E-01
RMM:   5    -0.654586699817E+03    0.57674E-03   -0.27941E-03 13554   0.128E-01    0.191E-01
RMM:   6    -0.654586677603E+03    0.22214E-04   -0.14939E-03 13060   0.754E-02    0.178E-01
RMM:   7    -0.654586548955E+03    0.12865E-03   -0.10027E-03 12842   0.647E-02    0.104E-01
RMM:   8    -0.654586651343E+03   -0.10239E-03   -0.80883E-04 12629   0.577E-02    0.164E-01
RMM:   9    -0.654586495790E+03    0.15555E-03   -0.46016E-04 12105   0.471E-02    0.335E-02
RMM:  10    -0.654586531266E+03   -0.35477E-04   -0.30079E-04 11454   0.309E-02    0.599E-02
RMM:  11    -0.654586524010E+03    0.72566E-05   -0.17508E-04 10954   0.257E-02    0.216E-02
RMM:  12    -0.654586533993E+03   -0.99828E-05   -0.15832E-04  9797   0.209E-02    0.147E-02
RMM:  13    -0.654586542266E+03   -0.82729E-05   -0.91561E-05  8504   0.193E-02
   5 F= -.65458654E+03 E0= -.65451528E+03  d E =-.157386E+01
 curvature:  -0.59 expect dE=-0.483E+00 dE for cont linesearch -0.224E-05
 trial: gam= 0.19219 g(F)=  0.775E+00 g(S)=  0.428E-01 ort = 0.400E-02 (trialstep = 0.903E+00)
 search vector abs. value=  0.975E+00
 bond charge predicted
       N       E                     dE             d eps       ncg     rms          rms(c)
DAV:   1    -0.653180651437E+03    0.14059E+01   -0.14803E+02  9016   0.469E+01    0.520E+00
RMM:   2    -0.656519769726E+03   -0.33391E+01   -0.20357E+01 12256   0.132E+01    0.128E+01
RMM:   3    -0.655064100926E+03    0.14557E+01   -0.44320E+00 11337   0.593E+00    0.274E+00
RMM:   4    -0.655199281769E+03   -0.13518E+00   -0.85296E-01 13475   0.213E+00    0.459E+00
RMM:   5    -0.655062137075E+03    0.13714E+00   -0.26080E-01 13006   0.126E+00    0.109E+00
RMM:   6    -0.655083559358E+03   -0.21422E-01   -0.12302E-01 13593   0.646E-01    0.211E+00
RMM:   7    -0.655057618921E+03    0.25940E-01   -0.71100E-02 13083   0.584E-01    0.817E-01
RMM:   8    -0.655060228748E+03   -0.26098E-02   -0.46756E-02 13550   0.393E-01    0.100E+00
RMM:   9    -0.655055814380E+03    0.44144E-02   -0.23283E-02 13873   0.308E-01    0.371E-01
RMM:  10    -0.655056387603E+03   -0.57322E-03   -0.15183E-02 14361   0.185E-01    0.285E-01
RMM:  11    -0.655056828076E+03   -0.44047E-03   -0.88434E-03 14254   0.142E-01    0.207E-01
RMM:  12    -0.655057177649E+03   -0.34957E-03   -0.66740E-03 14370   0.115E-01    0.848E-02
RMM:  13    -0.655057633663E+03   -0.45601E-03   -0.47096E-03 14215   0.909E-02    0.982E-02
RMM:  14    -0.655057883391E+03   -0.24973E-03   -0.29127E-03 13587   0.795E-02    0.821E-02
RMM:  15    -0.655058075252E+03   -0.19186E-03   -0.23491E-03 13220   0.669E-02    0.462E-02
RMM:  16    -0.655058238278E+03   -0.16303E-03   -0.16219E-03 12935   0.594E-02    0.592E-02
RMM:  17    -0.655058336798E+03   -0.98519E-04   -0.12473E-03 12585   0.526E-02    0.190E-02
RMM:  18    -0.655058424290E+03   -0.87493E-04   -0.94437E-04 12205   0.463E-02    0.151E-02
RMM:  19    -0.655058488731E+03   -0.64441E-04   -0.67887E-04 11731   0.407E-02    0.863E-03
RMM:  20    -0.655058541706E+03   -0.52974E-04   -0.54533E-04 11406   0.366E-02    0.582E-03
RMM:  21    -0.655058579982E+03   -0.38277E-04   -0.40257E-04 10943   0.315E-02    0.344E-03
RMM:  22    -0.655058610263E+03   -0.30281E-04   -0.31355E-04 10269   0.288E-02    0.394E-03
RMM:  23    -0.655058632970E+03   -0.22707E-04   -0.24206E-04  9660   0.264E-02    0.189E-03
WARNING in EDDRMM: call to ZHEGV failed, returncode =   8  4      5
RMM:  24    -0.655058651301E+03   -0.18331E-04   -0.19242E-04  8841   0.241E-02    0.216E-03
RMM:  25    -0.655058665704E+03   -0.14403E-04   -0.15457E-04  8313   0.234E-02    0.145E-03
RMM:  26    -0.655058677923E+03   -0.12219E-04   -0.12828E-04  7890   0.212E-02    0.204E-03
RMM:  27    -0.655058688511E+03   -0.10588E-04   -0.10808E-04  7510   0.199E-02    0.511E-03
RMM:  28    -0.655058697115E+03   -0.86033E-05   -0.92007E-05  7088   0.192E-02
   6 F= -.65505870E+03 E0= -.65498927E+03  d E =-.472155E+00
 trial-energy change:   -0.472155  1 .order   -0.469071   -0.739241   -0.198901
 step:   1.2212(harm=  1.2359)  dis= 0.05867  next Energy=  -655.093820 (dE=-0.507E+00)
 bond charge predicted
       N       E                     dE             d eps       ncg     rms          rms(c)
DAV:   1    -0.654876140380E+03    0.18255E+00   -0.18346E+01  9576   0.166E+01    0.182E+00
RMM:   2    -0.655309573441E+03   -0.43343E+00   -0.24628E+00 12108   0.458E+00    0.514E+00
RMM:   3    -0.655103236410E+03    0.20634E+00   -0.56276E-01 11150   0.214E+00    0.130E+00
RMM:   4    -0.655110800542E+03   -0.75641E-02   -0.10812E-01 13573   0.749E-01    0.137E+00
RMM:   5    -0.655097955102E+03    0.12845E-01   -0.29975E-02 12930   0.427E-01    0.508E-01
RMM:   6    -0.655099112831E+03   -0.11577E-02   -0.14553E-02 13628   0.225E-01    0.629E-01
RMM:   7    -0.655096673272E+03    0.24396E-02   -0.95344E-03 13086   0.207E-01    0.269E-01
RMM:   8    -0.655097098858E+03   -0.42559E-03   -0.58840E-03 13581   0.141E-01    0.361E-01
RMM:   9    -0.655096447522E+03    0.65134E-03   -0.29275E-03 13613   0.108E-01    0.110E-01
RMM:  10    -0.655096601943E+03   -0.15442E-03   -0.19728E-03 13623   0.658E-02    0.125E-01
RMM:  11    -0.655096597919E+03    0.40240E-05   -0.11039E-03 12871   0.516E-02    0.538E-02
RMM:  12    -0.655096665955E+03   -0.68036E-04   -0.94519E-04 12547   0.404E-02    0.319E-02
RMM:  13    -0.655096721779E+03   -0.55824E-04   -0.55773E-04 11788   0.347E-02    0.453E-02
RMM:  14    -0.655096746018E+03   -0.24238E-04   -0.40227E-04 11213   0.302E-02    0.215E-02
RMM:  15    -0.655096770498E+03   -0.24480E-04   -0.30098E-04 10523   0.259E-02    0.141E-02
WARNING in EDDRMM: call to ZHEGV failed, returncode =   6  3      8
RMM:  16    -0.655096792367E+03   -0.21869E-04   -0.22266E-04 10100   0.236E-02    0.210E-02
RMM:  17    -0.655096803409E+03   -0.11042E-04   -0.15214E-04  9471   0.202E-02    0.709E-03
RMM:  18    -0.655096814013E+03   -0.10604E-04   -0.11957E-04  9030   0.179E-02    0.521E-03
RMM:  19    -0.655096821066E+03   -0.70526E-05   -0.80004E-05  7965   0.162E-02
   7 F= -.65509682E+03 E0= -.65502824E+03  d E =-.510279E+00
 curvature:  -0.74 expect dE=-0.422E+00 dE for cont linesearch -0.100E-03
 trial: gam= 0.67059 g(F)=  0.336E+00 g(S)=  0.238E+00 ort = 0.115E-01 (trialstep = 0.917E+00)
 search vector abs. value=  0.103E+01
 bond charge predicted
       N       E                     dE             d eps       ncg     rms          rms(c)
DAV:   1    -0.653379755700E+03    0.17171E+01   -0.16894E+02  9072   0.554E+01    0.814E+00
RMM:   2    -0.660074861346E+03   -0.66951E+01   -0.34838E+01 10168   0.179E+01    0.223E+01
RMM:   3    -0.655398109229E+03    0.46768E+01   -0.64628E+00 11490   0.831E+00    0.430E+00
RMM:   4    -0.655524536812E+03   -0.12643E+00   -0.16026E+00 13550   0.314E+00    0.486E+00
RMM:   5    -0.655328283078E+03    0.19625E+00   -0.43054E-01 12344   0.169E+00    0.196E+00
RMM:   6    -0.655334232201E+03   -0.59491E-02   -0.20592E-01 13036   0.991E-01    0.248E+00
RMM:   7    -0.655302489419E+03    0.31743E-01   -0.12743E-01 12560   0.830E-01    0.144E+00
RMM:   8    -0.655289514012E+03    0.12975E-01   -0.77027E-02 12930   0.602E-01    0.870E-01
RMM:   9    -0.655288525469E+03    0.98854E-03   -0.34489E-02 14038   0.374E-01    0.598E-01
RMM:  10    -0.655287596658E+03    0.92881E-03   -0.16888E-02 14395   0.226E-01    0.218E-01
RMM:  11    -0.655288799700E+03   -0.12030E-02   -0.11737E-02 14545   0.150E-01    0.266E-01
RMM:  12    -0.655289038808E+03   -0.23911E-03   -0.64795E-03 14600   0.124E-01    0.129E-01
RMM:  13    -0.655289707446E+03   -0.66864E-03   -0.55767E-03 14714   0.962E-02    0.149E-01
RMM:  14    -0.655289908001E+03   -0.20056E-03   -0.29400E-03 14333   0.852E-02    0.771E-02
RMM:  15    -0.655290184244E+03   -0.27624E-03   -0.28162E-03 14310   0.683E-02    0.322E-02
RMM:  16    -0.655290343899E+03   -0.15966E-03   -0.15929E-03 13811   0.592E-02    0.332E-02
RMM:  17    -0.655290481779E+03   -0.13788E-03   -0.14209E-03 13040   0.525E-02    0.303E-02
RMM:  18    -0.655290566996E+03   -0.85216E-04   -0.90855E-04 12808   0.472E-02    0.138E-02
RMM:  19    -0.655290639240E+03   -0.72244E-04   -0.75041E-04 12439   0.406E-02    0.101E-02
RMM:  20    -0.655290688547E+03   -0.49308E-04   -0.51600E-04 12045   0.361E-02    0.503E-03
RMM:  21    -0.655290731669E+03   -0.43122E-04   -0.44215E-04 11484   0.315E-02    0.490E-03
RMM:  22    -0.655290761917E+03   -0.30248E-04   -0.30934E-04 10643   0.288E-02    0.318E-03
RMM:  23    -0.655290786328E+03   -0.24411E-04   -0.25253E-04  9602   0.260E-02    0.281E-03
RMM:  24    -0.655290804410E+03   -0.18082E-04   -0.18910E-04  8909   0.249E-02    0.174E-03
RMM:  25    -0.655290819436E+03   -0.15026E-04   -0.15664E-04  8195   0.232E-02    0.188E-03
WARNING in EDDRMM: call to ZHEGV failed, returncode =   8  4      5
RMM:  26    -0.655290831767E+03   -0.12331E-04   -0.12834E-04  7970   0.217E-02    0.133E-03
RMM:  27    -0.655290841915E+03   -0.10148E-04   -0.10612E-04  7509   0.203E-02    0.160E-03
RMM:  28    -0.655290850182E+03   -0.82675E-05   -0.87764E-05  7280   0.190E-02
   8 F= -.65529085E+03 E0= -.65522727E+03  d E =-.194029E+00
 trial-energy change:   -0.194029  1 .order   -0.178196   -0.533658    0.177267
 step:   0.7101(harm=  0.6887)  dis= 0.03315  next Energy=  -655.310696 (dE=-0.214E+00)
 bond charge predicted
       N       E                     dE             d eps       ncg     rms          rms(c)
DAV:   1    -0.655213100191E+03    0.77742E-01   -0.86801E+00  9604   0.126E+01    0.195E+00
RMM:   2    -0.655557708581E+03   -0.34461E+00   -0.15878E+00 10776   0.387E+00    0.491E+00
RMM:   3    -0.655314965796E+03    0.24274E+00   -0.39579E-01 11126   0.194E+00    0.954E-01
RMM:   4    -0.655326628229E+03   -0.11662E-01   -0.84033E-02 13468   0.728E-01    0.139E+00
RMM:   5    -0.655312254975E+03    0.14373E-01   -0.22892E-02 11994   0.400E-01    0.428E-01
RMM:   6    -0.655312969517E+03   -0.71454E-03   -0.10517E-02 13278   0.221E-01    0.586E-01
RMM:   7    -0.655311009885E+03    0.19596E-02   -0.63402E-03 12491   0.189E-01    0.266E-01
RMM:   8    -0.655310505924E+03    0.50396E-03   -0.34984E-03 13053   0.123E-01    0.169E-01
RMM:   9    -0.655310552343E+03   -0.46419E-04   -0.15834E-03 13605   0.821E-02    0.150E-01
RMM:  10    -0.655310458008E+03    0.94335E-04   -0.79833E-04 12957   0.518E-02    0.449E-02
RMM:  11    -0.655310497469E+03   -0.39461E-04   -0.57699E-04 12245   0.331E-02    0.451E-02
RMM:  12    -0.655310516557E+03   -0.19088E-04   -0.28499E-04 11367   0.272E-02    0.379E-02
RMM:  13    -0.655310522464E+03   -0.59063E-05   -0.22617E-04 10889   0.229E-02    0.131E-02
RMM:  14    -0.655310531779E+03   -0.93159E-05   -0.15581E-04  9355   0.202E-02    0.870E-03
RMM:  15    -0.655310540012E+03   -0.82328E-05   -0.10421E-04  7904   0.183E-02    0.903E-03
RMM:  16    -0.655310545390E+03   -0.53774E-05   -0.66550E-05  7307   0.178E-02
   9 F= -.65531055E+03 E0= -.65524617E+03  d E =-.213724E+00
 curvature:  -0.60 expect dE=-0.244E+00 dE for cont linesearch -0.945E-05
 trial: gam= 0.63292 g(F)=  0.270E+00 g(S)=  0.135E+00 ort = 0.401E-02 (trialstep = 0.876E+00)
 search vector abs. value=  0.822E+00
 bond charge predicted
       N       E                     dE             d eps       ncg     rms          rms(c)
DAV:   1    -0.654030553357E+03    0.12800E+01   -0.11598E+02  8624   0.427E+01    0.370E+00
RMM:   2    -0.655852596521E+03   -0.18220E+01   -0.14922E+01 12127   0.113E+01    0.758E+00
RMM:   3    -0.655511628079E+03    0.34097E+00   -0.29279E+00 12059   0.481E+00    0.272E+00
RMM:   4    -0.655567828425E+03   -0.56200E-01   -0.50658E-01 13706   0.170E+00    0.327E+00
RMM:   5    -0.655500280491E+03    0.67548E-01   -0.17533E-01 13532   0.969E-01    0.948E-01
RMM:   6    -0.655503426727E+03   -0.31462E-02   -0.85263E-02 13709   0.523E-01    0.115E+00
RMM:   7    -0.655500104546E+03    0.33222E-02   -0.45383E-02 13203   0.442E-01    0.861E-01
RMM:   8    -0.655495454981E+03    0.46496E-02   -0.34339E-02 13333   0.360E-01    0.423E-01
RMM:   9    -0.655496769741E+03   -0.13148E-02   -0.16897E-02 14194   0.239E-01    0.448E-01
RMM:  10    -0.655496125238E+03    0.64450E-03   -0.89150E-03 14082   0.164E-01    0.128E-01
RMM:  11    -0.655496678943E+03   -0.55370E-03   -0.77204E-03 14488   0.115E-01    0.837E-02
RMM:  12    -0.655497089139E+03   -0.41020E-03   -0.37804E-03 14178   0.966E-02    0.125E-01
RMM:  13    -0.655497267865E+03   -0.17873E-03   -0.29914E-03 13728   0.783E-02    0.477E-02
RMM:  14    -0.655497462590E+03   -0.19473E-03   -0.19854E-03 13314   0.652E-02    0.595E-02
RMM:  15    -0.655497584770E+03   -0.12218E-03   -0.14655E-03 12848   0.579E-02    0.314E-02
RMM:  16    -0.655497679437E+03   -0.94668E-04   -0.10773E-03 12388   0.510E-02    0.146E-02
WARNING in EDDRMM: call to ZHEGV failed, returncode =   6  3      8
RMM:  17    -0.655497755291E+03   -0.75854E-04   -0.80334E-04 11856   0.467E-02    0.118E-02
RMM:  18    -0.655497816295E+03   -0.61004E-04   -0.62394E-04 11226   0.415E-02    0.150E-02
RMM:  19    -0.655497860130E+03   -0.43834E-04   -0.46292E-04 10653   0.377E-02    0.636E-03
RMM:  20    -0.655497896209E+03   -0.36080E-04   -0.37202E-04 10238   0.339E-02    0.565E-03
RMM:  21    -0.655497922585E+03   -0.26376E-04   -0.27645E-04  9490   0.309E-02    0.400E-03
RMM:  22    -0.655497944508E+03   -0.21922E-04   -0.22421E-04  8768   0.291E-02    0.218E-03
RMM:  23    -0.655497961634E+03   -0.17127E-04   -0.17932E-04  8196   0.275E-02    0.215E-03
RMM:  24    -0.655497976547E+03   -0.14913E-04   -0.15496E-04  7777   0.254E-02    0.184E-03
RMM:  25    -0.655497988619E+03   -0.12072E-04   -0.12747E-04  7522   0.241E-02    0.272E-03
RMM:  26    -0.655497999096E+03   -0.10477E-04   -0.11012E-04  7206   0.227E-02    0.471E-03
RMM:  27    -0.655498008525E+03   -0.94289E-05   -0.96766E-05  6941   0.216E-02
  10 F= -.65549801E+03 E0= -.65543397E+03  d E =-.187463E+00
 trial-energy change:   -0.187463  1 .order   -0.186590   -0.357164   -0.016017
 step:   0.9164(harm=  0.9171)  dis= 0.04549  next Energy=  -655.498379 (dE=-0.188E+00)
 bond charge predicted
       N       E                     dE             d eps       ncg     rms          rms(c)
DAV:   1    -0.655495537726E+03    0.24614E-02   -0.24936E-01 10584   0.198E+00    0.169E-01
RMM:   2    -0.655499784866E+03   -0.42471E-02   -0.33109E-02 12323   0.526E-01    0.396E-01
RMM:   3    -0.655498710595E+03    0.10743E-02   -0.55194E-03 11666   0.211E-01    0.140E-01
RMM:   4    -0.655498782223E+03   -0.71628E-04   -0.11759E-03 13526   0.788E-02    0.134E-01
RMM:   5    -0.655498666470E+03    0.11575E-03   -0.41771E-04 11908   0.482E-02    0.443E-02
RMM:   6    -0.655498680230E+03   -0.13760E-04   -0.23809E-04 10957   0.300E-02    0.568E-02
RMM:   7    -0.655498673651E+03    0.65784E-05   -0.13882E-04  9872   0.267E-02    0.410E-02
RMM:   8    -0.655498664076E+03    0.95749E-05   -0.97954E-05  8917   0.218E-02
  11 F= -.65549866E+03 E0= -.65543461E+03  d E =-.188119E+00
 curvature:  -0.92 expect dE=-0.172E+00 dE for cont linesearch -0.775E-05
 trial: gam= 0.34569 g(F)=  0.176E+00 g(S)=  0.971E-02 ort = 0.263E-02 (trialstep = 0.884E+00)
 search vector abs. value=  0.286E+00
 bond charge predicted
       N       E                     dE             d eps       ncg     rms          rms(c)
DAV:   1    -0.655131986488E+03    0.36669E+00   -0.39468E+01  8624   0.228E+01    0.150E+00
RMM:   2    -0.655577190170E+03   -0.44520E+00   -0.46402E+00 12889   0.626E+00    0.210E+00
RMM:   3    -0.655629065294E+03   -0.51875E-01   -0.74982E-01 13430   0.219E+00    0.173E+00
RMM:   4    -0.655623212194E+03    0.58531E-02   -0.10731E-01 13265   0.833E-01    0.109E+00
RMM:   5    -0.655616307249E+03    0.69049E-02   -0.45708E-02 13783   0.435E-01    0.496E-01
RMM:   6    -0.655616189637E+03    0.11761E-03   -0.20214E-02 13687   0.275E-01    0.491E-01
RMM:   7    -0.655617181693E+03   -0.99206E-03   -0.14725E-02 13399   0.231E-01    0.583E-01
RMM:   8    -0.655615013641E+03    0.21681E-02   -0.90818E-03 13397   0.194E-01    0.187E-01
RMM:   9    -0.655615438312E+03   -0.42467E-03   -0.53109E-03 13895   0.123E-01    0.197E-01
RMM:  10    -0.655615379676E+03    0.58637E-04   -0.27202E-03 13400   0.902E-02    0.738E-02
RMM:  11    -0.655615603761E+03   -0.22409E-03   -0.24387E-03 13105   0.670E-02    0.995E-02
RMM:  12    -0.655615649620E+03   -0.45859E-04   -0.12458E-03 12898   0.605E-02    0.384E-02
RMM:  13    -0.655615754318E+03   -0.10470E-03   -0.11557E-03 12326   0.472E-02    0.280E-02
RMM:  14    -0.655615813677E+03   -0.59359E-04   -0.62265E-04 11579   0.432E-02    0.301E-02
RMM:  15    -0.655615860994E+03   -0.47317E-04   -0.55591E-04 10990   0.366E-02    0.116E-02
RMM:  16    -0.655615895238E+03   -0.34244E-04   -0.35982E-04 10685   0.337E-02    0.793E-03
RMM:  17    -0.655615924019E+03   -0.28781E-04   -0.30172E-04 10221   0.285E-02    0.485E-03
RMM:  18    -0.655615943839E+03   -0.19820E-04   -0.20061E-04  9999   0.265E-02    0.717E-03
RMM:  19    -0.655615959806E+03   -0.15968E-04   -0.16816E-04  9337   0.228E-02    0.377E-03
RMM:  20    -0.655615970785E+03   -0.10979E-04   -0.11402E-04  8385   0.222E-02    0.273E-03
RMM:  21    -0.655615980044E+03   -0.92583E-05   -0.98916E-05  7713   0.211E-02
  12 F= -.65561598E+03 E0= -.65555203E+03  d E =-.117316E+00
 trial-energy change:   -0.117316  1 .order   -0.115275   -0.164896   -0.065654
 step:   1.3747(harm=  1.4689)  dis= 0.04718  next Energy=  -655.634550 (dE=-0.136E+00)
 bond charge predicted
       N       E                     dE             d eps       ncg     rms          rms(c)
DAV:   1    -0.655488030056E+03    0.12794E+00   -0.12152E+01  8680   0.127E+01    0.832E-01
RMM:   2    -0.655624687844E+03   -0.13666E+00   -0.14295E+00 12915   0.348E+00    0.112E+00
RMM:   3    -0.655640936746E+03   -0.16249E-01   -0.23138E-01 13396   0.120E+00    0.913E-01
RMM:   4    -0.655640008506E+03    0.92824E-03   -0.33177E-02 13380   0.466E-01    0.652E-01
RMM:   5    -0.655637458530E+03    0.25500E-02   -0.14204E-02 13747   0.247E-01    0.262E-01
RMM:   6    -0.655637541758E+03   -0.83227E-04   -0.65217E-03 13644   0.158E-01    0.283E-01
RMM:   7    -0.655637687550E+03   -0.14579E-03   -0.46112E-03 13341   0.132E-01    0.294E-01
RMM:   8    -0.655637172856E+03    0.51469E-03   -0.27827E-03 13438   0.107E-01    0.998E-02
RMM:   9    -0.655637306052E+03   -0.13320E-03   -0.17191E-03 13386   0.702E-02    0.100E-01
RMM:  10    -0.655637305708E+03    0.34436E-06   -0.90645E-04 12636   0.535E-02    0.393E-02
WARNING in EDDRMM: call to ZHEGV failed, returncode =   6  3      6
RMM:  11    -0.655637382434E+03   -0.76726E-04   -0.81961E-04 12139   0.413E-02    0.552E-02
RMM:  12    -0.655637401606E+03   -0.19173E-04   -0.43087E-04 11908   0.378E-02    0.216E-02
RMM:  13    -0.655637438327E+03   -0.36721E-04   -0.40808E-04 10647   0.305E-02    0.154E-02
RMM:  14    -0.655637460680E+03   -0.22353E-04   -0.23414E-04 10403   0.295E-02    0.167E-02
RMM:  15    -0.655637478273E+03   -0.17593E-04   -0.20366E-04  9824   0.245E-02    0.668E-03
RMM:  16    -0.655637490715E+03   -0.12442E-04   -0.13047E-04  9619   0.227E-02    0.432E-03
RMM:  17    -0.655637501382E+03   -0.10667E-04   -0.11373E-04  8723   0.202E-02    0.257E-03
RMM:  18    -0.655637508383E+03   -0.70011E-05   -0.72574E-05  7833   0.190E-02
  13 F= -.65563751E+03 E0= -.65557374E+03  d E =-.138844E+00
 curvature:  -1.10 expect dE=-0.138E+00 dE for cont linesearch -0.249E-03
 trial: gam= 0.60075 g(F)=  0.973E-01 g(S)=  0.285E-01 ort = 0.805E-02 (trialstep = 0.982E+00)
 search vector abs. value=  0.239E+00
 bond charge predicted
       N       E                     dE             d eps       ncg     rms          rms(c)
DAV:   1    -0.655165516236E+03    0.47199E+00   -0.42071E+01  8960   0.244E+01    0.304E+00
RMM:   2    -0.656163066482E+03   -0.99755E+00   -0.65981E+00 12300   0.757E+00    0.775E+00
RMM:   3    -0.655730648979E+03    0.43242E+00   -0.16167E+00 10629   0.371E+00    0.217E+00
RMM:   4    -0.655747935940E+03   -0.17287E-01   -0.31377E-01 13574   0.127E+00    0.207E+00
RMM:   5    -0.655713681084E+03    0.34255E-01   -0.87208E-02 12610   0.742E-01    0.742E-01
RMM:   6    -0.655716807182E+03   -0.31261E-02   -0.42461E-02 13465   0.400E-01    0.101E+00
RMM:   7    -0.655709933786E+03    0.68734E-02   -0.26465E-02 12764   0.358E-01    0.450E-01
RMM:   8    -0.655709391779E+03    0.54201E-03   -0.16485E-02 13473   0.255E-01    0.374E-01
RMM:   9    -0.655709042277E+03    0.34950E-03   -0.71809E-03 14076   0.167E-01    0.167E-01
RMM:  10    -0.655709265076E+03   -0.22280E-03   -0.42883E-03 14048   0.992E-02    0.119E-01
RMM:  11    -0.655709451787E+03   -0.18671E-03   -0.24826E-03 13776   0.745E-02    0.959E-02
RMM:  12    -0.655709596732E+03   -0.14494E-03   -0.18778E-03 13803   0.602E-02    0.519E-02
RMM:  13    -0.655709737774E+03   -0.14104E-03   -0.11356E-03 13281   0.511E-02    0.671E-02
RMM:  14    -0.655709790971E+03   -0.53197E-04   -0.78982E-04 12639   0.444E-02    0.308E-02
RMM:  15    -0.655709848654E+03   -0.57683E-04   -0.59920E-04 12268   0.382E-02    0.140E-02
RMM:  16    -0.655709888737E+03   -0.40084E-04   -0.41990E-04 11524   0.334E-02    0.938E-03
RMM:  17    -0.655709920944E+03   -0.32206E-04   -0.32693E-04 10765   0.310E-02    0.101E-02
RMM:  18    -0.655709942426E+03   -0.21482E-04   -0.22680E-04  9967   0.273E-02    0.669E-03
RMM:  19    -0.655709959868E+03   -0.17442E-04   -0.18234E-04  9213   0.249E-02    0.343E-03
RMM:  20    -0.655709970821E+03   -0.10953E-04   -0.12145E-04  8245   0.237E-02    0.304E-03
RMM:  21    -0.655709981293E+03   -0.10472E-04   -0.11084E-04  7736   0.220E-02    0.176E-03
RMM:  22    -0.655709988625E+03   -0.73322E-05   -0.79260E-05  7405   0.210E-02
  14 F= -.65570999E+03 E0= -.65564866E+03  d E =-.724802E-01
 trial-energy change:   -0.072480  1 .order   -0.069419   -0.128280   -0.010557
 step:   1.0576(harm=  1.0703)  dis= 0.04990  next Energy=  -655.710395 (dE=-0.729E-01)
 bond charge predicted
       N       E                     dE             d eps       ncg     rms          rms(c)
DAV:   1    -0.655707224078E+03    0.27572E-02   -0.24901E-01 10304   0.189E+00    0.237E-01
RMM:   2    -0.655713290552E+03   -0.60665E-02   -0.40239E-02 12376   0.580E-01    0.582E-01
RMM:   3    -0.655710640588E+03    0.26500E-02   -0.87785E-03 10611   0.271E-01    0.161E-01
RMM:   4    -0.655710801299E+03   -0.16071E-03   -0.19481E-03 13302   0.995E-02    0.171E-01
RMM:   5    -0.655710586617E+03    0.21468E-03   -0.59879E-04 11968   0.615E-02    0.554E-02
RMM:   6    -0.655710612669E+03   -0.26053E-04   -0.32384E-04 11654   0.359E-02    0.742E-02
RMM:   7    -0.655710581370E+03    0.31299E-04   -0.20534E-04 10937   0.328E-02    0.315E-02
RMM:   8    -0.655710587677E+03   -0.63067E-05   -0.13512E-04  9899   0.254E-02    0.311E-02
RMM:   9    -0.655710586026E+03    0.16509E-05   -0.62611E-05  8024   0.206E-02
  15 F= -.65571059E+03 E0= -.65564943E+03  d E =-.730776E-01
 curvature:  -0.96 expect dE=-0.135E+00 dE for cont linesearch -0.653E-05
 trial: gam= 1.06744 g(F)=  0.626E-01 g(S)=  0.789E-01 ort = 0.128E-02 (trialstep = 0.572E+00)
 search vector abs. value=  0.416E+00
 bond charge predicted
       N       E                     dE             d eps       ncg     rms          rms(c)
DAV:   1    -0.655440713678E+03    0.26987E+00   -0.25532E+01  9016   0.193E+01    0.249E+00
RMM:   2    -0.656080996862E+03   -0.64028E+00   -0.39418E+00 12252   0.560E+00    0.595E+00
RMM:   3    -0.655767585886E+03    0.31341E+00   -0.95649E-01 10602   0.281E+00    0.145E+00
RMM:   4    -0.655787874932E+03   -0.20289E-01   -0.18292E-01 13516   0.972E-01    0.177E+00
RMM:   5    -0.655764498970E+03    0.23376E-01   -0.54088E-02 12271   0.584E-01    0.500E-01
RMM:   6    -0.655767185791E+03   -0.26868E-02   -0.26691E-02 13520   0.300E-01    0.724E-01
RMM:   7    -0.655763718719E+03    0.34671E-02   -0.14963E-02 12739   0.269E-01    0.305E-01
RMM:   8    -0.655763765838E+03   -0.47118E-04   -0.84532E-03 13674   0.170E-01    0.282E-01
RMM:   9    -0.655763550420E+03    0.21542E-03   -0.39741E-03 13971   0.118E-01    0.123E-01
RMM:  10    -0.655763722488E+03   -0.17207E-03   -0.25121E-03 13852   0.736E-02    0.108E-01
RMM:  11    -0.655763790065E+03   -0.67577E-04   -0.14714E-03 13417   0.563E-02    0.597E-02
RMM:  12    -0.655763879544E+03   -0.89479E-04   -0.11368E-03 13162   0.447E-02    0.375E-02
RMM:  13    -0.655763942416E+03   -0.62872E-04   -0.63847E-04 12439   0.386E-02    0.499E-02
RMM:  14    -0.655763967317E+03   -0.24901E-04   -0.46694E-04 11884   0.328E-02    0.171E-02
WARNING in EDDRMM: call to ZHEGV failed, returncode =   6  3      6
RMM:  15    -0.655763996942E+03   -0.29625E-04   -0.35274E-04 11018   0.281E-02    0.101E-02
RMM:  16    -0.655764019561E+03   -0.22619E-04   -0.23871E-04  9896   0.263E-02    0.124E-02
RMM:  17    -0.655764035511E+03   -0.15950E-04   -0.17861E-04  9459   0.233E-02    0.557E-03
WARNING in EDDRMM: call to ZHEGV failed, returncode =   6  3      8
RMM:  18    -0.655764046951E+03   -0.11439E-04   -0.12238E-04  8662   0.208E-02    0.397E-03
RMM:  19    -0.655764055775E+03   -0.88241E-05   -0.93276E-05  7815   0.194E-02
  16 F= -.65576406E+03 E0= -.65570410E+03  d E =-.534697E-01
 trial-energy change:   -0.053470  1 .order   -0.052182   -0.081667   -0.022697
 step:   0.7594(harm=  0.7920)  dis= 0.05235  next Energy=  -655.767822 (dE=-0.572E-01)
 bond charge predicted
       N       E                     dE             d eps       ncg     rms          rms(c)
DAV:   1    -0.655732888211E+03    0.31159E-01   -0.27284E+00  9184   0.635E+00    0.815E-01
RMM:   2    -0.655802985813E+03   -0.70098E-01   -0.44006E-01 12193   0.190E+00    0.199E+00
RMM:   3    -0.655769216114E+03    0.33770E-01   -0.10129E-01 10559   0.927E-01    0.506E-01
RMM:   4    -0.655771051988E+03   -0.18359E-02   -0.20029E-02 13502   0.318E-01    0.562E-01
RMM:   5    -0.655768680707E+03    0.23713E-02   -0.59504E-03 12422   0.194E-01    0.170E-01
RMM:   6    -0.655768925970E+03   -0.24526E-03   -0.29371E-03 13358   0.101E-01    0.232E-01
RMM:   7    -0.655768584711E+03    0.34126E-03   -0.16554E-03 12909   0.908E-02    0.106E-01
RMM:   8    -0.655768568521E+03    0.16190E-04   -0.10467E-03 13194   0.608E-02    0.890E-02
RMM:   9    -0.655768554601E+03    0.13920E-04   -0.50405E-04 12560   0.439E-02    0.419E-02
WARNING in EDDRMM: call to ZHEGV failed, returncode =   6  3      5
RMM:  10    -0.655768570718E+03   -0.16117E-04   -0.30976E-04 11478   0.290E-02    0.318E-02
RMM:  11    -0.655768583153E+03   -0.12435E-04   -0.20121E-04 10155   0.230E-02    0.208E-02
RMM:  12    -0.655768591687E+03   -0.85337E-05   -0.14679E-04  9257   0.199E-02    0.136E-02
RMM:  13    -0.655768598872E+03   -0.71847E-05   -0.92671E-05  8401   0.186E-02
  17 F= -.65576860E+03 E0= -.65570900E+03  d E =-.580128E-01
 curvature:  -1.13 expect dE=-0.840E-01 dE for cont linesearch -0.497E-04
 trial: gam= 0.36960 g(F)=  0.609E-01 g(S)=  0.135E-01 ort = 0.428E-02 (trialstep = 0.609E+00)
 search vector abs. value=  0.134E+00
 bond charge predicted
       N       E                     dE             d eps       ncg     rms          rms(c)
DAV:   1    -0.655681376380E+03    0.87215E-01   -0.91079E+00  8624   0.117E+01    0.778E-01
RMM:   2    -0.655784433921E+03   -0.10306E+00   -0.11563E+00 12897   0.306E+00    0.640E-01
RMM:   3    -0.655811283618E+03   -0.26850E-01   -0.22998E-01 13332   0.108E+00    0.100E+00
RMM:   4    -0.655806022454E+03    0.52612E-02   -0.25563E-02 13238   0.411E-01    0.457E-01
RMM:   5    -0.655805139967E+03    0.88249E-03   -0.99685E-03 13771   0.198E-01    0.242E-01
RMM:   6    -0.655804939008E+03    0.20096E-03   -0.44575E-03 13100   0.135E-01    0.224E-01
RMM:   7    -0.655805032516E+03   -0.93507E-04   -0.30758E-03 13014   0.105E-01    0.237E-01
RMM:   8    -0.655804698510E+03    0.33401E-03   -0.17272E-03 13230   0.850E-02    0.618E-02
RMM:   9    -0.655804783053E+03   -0.84543E-04   -0.10391E-03 12976   0.527E-02    0.722E-02
RMM:  10    -0.655804790600E+03   -0.75470E-05   -0.54946E-04 12085   0.390E-02    0.317E-02
RMM:  11    -0.655804828335E+03   -0.37736E-04   -0.50232E-04 11397   0.305E-02    0.302E-02
WARNING in EDDRMM: call to ZHEGV failed, returncode =   6  3      8
RMM:  12    -0.655804848561E+03   -0.20225E-04   -0.26565E-04 10920   0.270E-02    0.238E-02
RMM:  13    -0.655804867514E+03   -0.18953E-04   -0.23640E-04 10129   0.236E-02    0.103E-02
RMM:  14    -0.655804881803E+03   -0.14289E-04   -0.14453E-04  9576   0.217E-02    0.155E-02
RMM:  15    -0.655804890742E+03   -0.89388E-05   -0.11125E-04  8906   0.176E-02    0.584E-03
RMM:  16    -0.655804898371E+03   -0.76297E-05   -0.83191E-05  8544   0.169E-02
  18 F= -.65580490E+03 E0= -.65574626E+03  d E =-.362995E-01
 trial-energy change:   -0.036299  1 .order   -0.035823   -0.046328   -0.025318
 step:   1.1897(harm=  1.3438)  dis= 0.03561  next Energy=  -655.817365 (dE=-0.488E-01)
 bond charge predicted
       N       E                     dE             d eps       ncg     rms          rms(c)
DAV:   1    -0.655707728129E+03    0.97163E-01   -0.82591E+00  8624   0.111E+01    0.743E-01
RMM:   2    -0.655801502578E+03   -0.93774E-01   -0.10504E+00 12908   0.291E+00    0.632E-01
RMM:   3    -0.655825424147E+03   -0.23922E-01   -0.20781E-01 13377   0.103E+00    0.952E-01
RMM:   4    -0.655820763073E+03    0.46611E-02   -0.23028E-02 13267   0.391E-01    0.439E-01
RMM:   5    -0.655819909763E+03    0.85331E-03   -0.91369E-03 13764   0.191E-01    0.225E-01
RMM:   6    -0.655819763572E+03    0.14619E-03   -0.41386E-03 13109   0.131E-01    0.217E-01
RMM:   7    -0.655819813893E+03   -0.50321E-04   -0.28188E-03 13053   0.101E-01    0.215E-01
RMM:   8    -0.655819554311E+03    0.25958E-03   -0.15802E-03 13199   0.803E-02    0.590E-02
RMM:   9    -0.655819637428E+03   -0.83118E-04   -0.98345E-04 12863   0.514E-02    0.691E-02
RMM:  10    -0.655819646321E+03   -0.88927E-05   -0.53324E-04 11931   0.388E-02    0.289E-02
RMM:  11    -0.655819685717E+03   -0.39396E-04   -0.49205E-04 11215   0.308E-02    0.295E-02
RMM:  12    -0.655819705607E+03   -0.19889E-04   -0.26231E-04 10883   0.281E-02    0.218E-02
RMM:  13    -0.655819725427E+03   -0.19821E-04   -0.23522E-04  9982   0.240E-02    0.105E-02
RMM:  14    -0.655819739916E+03   -0.14489E-04   -0.14723E-04  9677   0.229E-02    0.144E-02
RMM:  15    -0.655819749225E+03   -0.93088E-05   -0.11226E-04  8908   0.180E-02    0.529E-03
RMM:  16    -0.655819757191E+03   -0.79665E-05   -0.85330E-05  8674   0.176E-02
  19 F= -.65581976E+03 E0= -.65576192E+03  d E =-.511583E-01
 curvature:  -1.14 expect dE=-0.431E-01 dE for cont linesearch -0.523E-03
 ZBRENT: extrapolating
 opt :   1.3253  next Energy=  -655.820290 (dE=-0.517E-01)
 bond charge predicted
       N       E                     dE             d eps       ncg     rms          rms(c)
DAV:   1    -0.655814247353E+03    0.55019E-02   -0.45072E-01  9604   0.262E+00    0.174E-01
RMM:   2    -0.655819443563E+03   -0.51962E-02   -0.58009E-02 12958   0.682E-01    0.156E-01
RMM:   3    -0.655820717531E+03   -0.12740E-02   -0.11038E-02 13437   0.237E-01    0.231E-01
RMM:   4    -0.655820452332E+03    0.26520E-03   -0.13165E-03 12970   0.938E-02    0.101E-01
RMM:   5    -0.655820412426E+03    0.39906E-04   -0.56842E-04 12292   0.488E-02    0.516E-02
RMM:   6    -0.655820412429E+03   -0.25611E-08   -0.27403E-04 11688   0.343E-02    0.536E-02
RMM:   7    -0.655820414605E+03   -0.21763E-05   -0.19729E-04 11337   0.277E-02    0.467E-02
RMM:   8    -0.655820406624E+03    0.79813E-05   -0.11640E-04 10835   0.223E-02    0.155E-02
RMM:   9    -0.655820414189E+03   -0.75656E-05   -0.85437E-05  8531   0.171E-02
  20 F= -.65582041E+03 E0= -.65576275E+03  d E =-.518153E-01
 curvature:  -1.16 expect dE=-0.530E-01 dE for cont linesearch -0.552E-07
 trial: gam= 0.60946 g(F)=  0.354E-01 g(S)=  0.104E-01 ort = 0.800E-04 (trialstep = 0.753E+00)
 search vector abs. value=  0.958E-01
 bond charge predicted
       N       E                     dE             d eps       ncg     rms          rms(c)
DAV:   1    -0.655696564219E+03    0.12384E+00   -0.10502E+01  8624   0.132E+01    0.834E-01
RMM:   2    -0.655829085089E+03   -0.13252E+00   -0.14117E+00 12696   0.338E+00    0.984E-01
RMM:   3    -0.655850805059E+03   -0.21720E-01   -0.25384E-01 13281   0.119E+00    0.940E-01
RMM:   4    -0.655848571904E+03    0.22332E-02   -0.28486E-02 13005   0.438E-01    0.623E-01
RMM:   5    -0.655846050468E+03    0.25214E-02   -0.11014E-02 13560   0.231E-01    0.238E-01
RMM:   6    -0.655846205124E+03   -0.15466E-03   -0.51391E-03 13062   0.143E-01    0.305E-01
RMM:   7    -0.655845788227E+03    0.41690E-03   -0.31849E-03 12968   0.118E-01    0.188E-01
RMM:   8    -0.655845655306E+03    0.13292E-03   -0.19210E-03 13364   0.839E-02    0.108E-01
RMM:   9    -0.655845678128E+03   -0.22822E-04   -0.96755E-04 13035   0.561E-02    0.717E-02
RMM:  10    -0.655845681807E+03   -0.36790E-05   -0.60565E-04 12506   0.405E-02    0.294E-02
RMM:  11    -0.655845730002E+03   -0.48195E-04   -0.47884E-04 12021   0.314E-02    0.436E-02
RMM:  12    -0.655845742617E+03   -0.12614E-04   -0.27258E-04 11729   0.284E-02    0.176E-02
RMM:  13    -0.655845764637E+03   -0.22021E-04   -0.24065E-04  9993   0.224E-02    0.132E-02
RMM:  14    -0.655845777554E+03   -0.12916E-04   -0.13692E-04  9471   0.213E-02    0.140E-02
WARNING in EDDRMM: call to ZHEGV failed, returncode =   6  3      9
RMM:  15    -0.655845787534E+03   -0.99801E-05   -0.11298E-04  8777   0.182E-02    0.517E-03
RMM:  16    -0.655845794799E+03   -0.72648E-05   -0.74128E-05  7989   0.168E-02
  21 F= -.65584579E+03 E0= -.65578884E+03  d E =-.253806E-01
 trial-energy change:   -0.025381  1 .order   -0.024935   -0.034497   -0.015372
 step:   1.2439(harm=  1.3575)  dis= 0.02236  next Energy=  -655.850937 (dE=-0.305E-01)
 bond charge predicted
       N       E                     dE             d eps       ncg     rms          rms(c)
DAV:   1    -0.655788245815E+03    0.57542E-01   -0.44768E+00  8680   0.861E+00    0.543E-01
RMM:   2    -0.655845219089E+03   -0.56973E-01   -0.60688E-01 12738   0.221E+00    0.638E-01
RMM:   3    -0.655854208746E+03   -0.89897E-02   -0.10426E-01 13414   0.766E-01    0.618E-01
RMM:   4    -0.655853175057E+03    0.10337E-02   -0.12073E-02 13184   0.286E-01    0.399E-01
RMM:   5    -0.655852154269E+03    0.10208E-02   -0.46990E-03 13446   0.149E-01    0.154E-01
RMM:   6    -0.655852211982E+03   -0.57714E-04   -0.22620E-03 13015   0.949E-02    0.193E-01
RMM:   7    -0.655852062089E+03    0.14989E-03   -0.14367E-03 12829   0.788E-02    0.124E-01
RMM:   8    -0.655852006091E+03    0.55999E-04   -0.85427E-04 12940   0.567E-02    0.674E-02
RMM:   9    -0.655852024521E+03   -0.18431E-04   -0.46274E-04 12277   0.394E-02    0.475E-02
RMM:  10    -0.655852029845E+03   -0.53235E-05   -0.29834E-04 11281   0.290E-02    0.189E-02
RMM:  11    -0.655852054036E+03   -0.24191E-04   -0.24121E-04 10264   0.233E-02    0.283E-02
RMM:  12    -0.655852061399E+03   -0.73627E-05   -0.13576E-04 10019   0.220E-02    0.113E-02
RMM:  13    -0.655852072326E+03   -0.10927E-04   -0.11904E-04  8767   0.179E-02    0.745E-03
RMM:  14    -0.655852079257E+03   -0.69314E-05   -0.68408E-05  8171   0.169E-02
  22 F= -.65585208E+03 E0= -.65579548E+03  d E =-.316651E-01
 curvature:  -1.37 expect dE=-0.313E-01 dE for cont linesearch -0.177E-03
 trial: gam= 0.36556 g(F)=  0.164E-01 g(S)=  0.653E-02 ort = 0.352E-02 (trialstep = 0.851E+00)
 search vector abs. value=  0.383E-01
 bond charge predicted
       N       E                     dE             d eps       ncg     rms          rms(c)
DAV:   1    -0.655808894148E+03    0.43178E-01   -0.53946E+00  8624   0.959E+00    0.138E+00
RMM:   2    -0.655981295327E+03   -0.17240E+00   -0.83410E-01 10816   0.282E+00    0.344E+00
RMM:   3    -0.655869113490E+03    0.11218E+00   -0.22503E-01 11464   0.141E+00    0.872E-01
RMM:   4    -0.655869743666E+03   -0.63018E-03   -0.39138E-02 13384   0.490E-01    0.772E-01
RMM:   5    -0.655864684521E+03    0.50591E-02   -0.12453E-02 12393   0.288E-01    0.265E-01
RMM:   6    -0.655865451861E+03   -0.76734E-03   -0.61585E-03 13379   0.161E-01    0.403E-01
RMM:   7    -0.655864281363E+03    0.11705E-02   -0.36247E-03 12664   0.141E-01    0.137E-01
RMM:   8    -0.655864314597E+03   -0.33233E-04   -0.19823E-03 13636   0.807E-02    0.139E-01
RMM:   9    -0.655864249648E+03    0.64949E-04   -0.90874E-04 13042   0.595E-02    0.569E-02
RMM:  10    -0.655864287125E+03   -0.37477E-04   -0.63985E-04 12158   0.364E-02    0.463E-02
RMM:  11    -0.655864304362E+03   -0.17237E-04   -0.34138E-04 11368   0.292E-02    0.297E-02
RMM:  12    -0.655864321549E+03   -0.17187E-04   -0.27345E-04 10410   0.239E-02    0.178E-02
RMM:  13    -0.655864334487E+03   -0.12939E-04   -0.16482E-04  9444   0.217E-02    0.236E-02
RMM:  14    -0.655864340912E+03   -0.64248E-05   -0.12098E-04  8387   0.191E-02    0.976E-03
RMM:  15    -0.655864347191E+03   -0.62789E-05   -0.85326E-05  7557   0.177E-02
  23 F= -.65586435E+03 E0= -.65580804E+03  d E =-.122679E-01
 trial-energy change:   -0.012268  1 .order   -0.011899   -0.020578   -0.003220
 step:   0.9883(harm=  1.0087)  dis= 0.00961  next Energy=  -655.864609 (dE=-0.125E-01)
 bond charge predicted
       N       E                     dE             d eps       ncg     rms          rms(c)
DAV:   1    -0.655863270728E+03    0.10702E-02   -0.14128E-01  9856   0.155E+00    0.223E-01
RMM:   2    -0.655867855789E+03   -0.45851E-02   -0.22300E-02 10785   0.465E-01    0.570E-01
RMM:   3    -0.655864875870E+03    0.29799E-02   -0.59232E-03 11463   0.229E-01    0.149E-01
RMM:   4    -0.655864874670E+03    0.12005E-05   -0.11138E-03 12751   0.811E-02    0.120E-01
RMM:   5    -0.655864753991E+03    0.12068E-03   -0.38526E-04 11851   0.505E-02    0.432E-02
RMM:   6    -0.655864776934E+03   -0.22943E-04   -0.22702E-04 10780   0.309E-02    0.641E-02
RMM:   7    -0.655864747757E+03    0.29177E-04   -0.13459E-04  9561   0.279E-02    0.225E-02
RMM:   8    -0.655864748843E+03   -0.10855E-05   -0.83181E-05  7943   0.202E-02
  24 F= -.65586475E+03 E0= -.65580848E+03  d E =-.126696E-01
 curvature:  -0.78 expect dE=-0.160E-01 dE for cont linesearch -0.109E-04
 trial: gam= 0.93650 g(F)=  0.731E-02 g(S)=  0.131E-01 ort = 0.728E-03 (trialstep = 0.607E+00)
 search vector abs. value=  0.553E-01
 bond charge predicted
       N       E                     dE             d eps       ncg     rms          rms(c)
DAV:   1    -0.655823822139E+03    0.40926E-01   -0.39885E+00  8680   0.829E+00    0.918E-01
RMM:   2    -0.655909244544E+03   -0.85422E-01   -0.58845E-01 11269   0.236E+00    0.209E+00
RMM:   3    -0.655874606997E+03    0.34638E-01   -0.13828E-01 11857   0.107E+00    0.610E-01
RMM:   4    -0.655876252672E+03   -0.16457E-02   -0.23729E-02 13596   0.373E-01    0.648E-01
RMM:   5    -0.655873017391E+03    0.32353E-02   -0.73002E-03 12542   0.217E-01    0.207E-01
RMM:   6    -0.655873354173E+03   -0.33678E-03   -0.36829E-03 13168   0.120E-01    0.296E-01
RMM:   7    -0.655872820002E+03    0.53417E-03   -0.22336E-03 12572   0.108E-01    0.132E-01
RMM:   8    -0.655872743739E+03    0.76262E-04   -0.13673E-03 13197   0.706E-02    0.726E-02
RMM:   9    -0.655872781730E+03   -0.37991E-04   -0.64715E-04 12781   0.488E-02    0.560E-02
RMM:  10    -0.655872801144E+03   -0.19415E-04   -0.39572E-04 11579   0.319E-02    0.281E-02
RMM:  11    -0.655872829006E+03   -0.27861E-04   -0.26800E-04 10377   0.245E-02    0.292E-02
RMM:  12    -0.655872845263E+03   -0.16257E-04   -0.17330E-04  9514   0.212E-02    0.132E-02
RMM:  13    -0.655872861062E+03   -0.15799E-04   -0.12713E-04  8580   0.189E-02    0.942E-03
RMM:  14    -0.655872869318E+03   -0.82557E-05   -0.75374E-05  7646   0.171E-02
  25 F= -.65587287E+03 E0= -.65581711E+03  d E =-.812048E-02
 trial-energy change:   -0.008120  1 .order   -0.007781   -0.012815   -0.002748
 step:   0.7405(harm=  0.7732)  dis= 0.00800  next Energy=  -655.873174 (dE=-0.842E-02)
 bond charge predicted
       N       E                     dE             d eps       ncg     rms          rms(c)
DAV:   1    -0.655870914788E+03    0.19463E-02   -0.19199E-01  9408   0.181E+00    0.202E-01
RMM:   2    -0.655875034905E+03   -0.41201E-02   -0.28483E-02 11259   0.514E-01    0.452E-01
RMM:   3    -0.655873361067E+03    0.16738E-02   -0.63599E-03 11835   0.230E-01    0.131E-01
RMM:   4    -0.655873458189E+03   -0.97122E-04   -0.11967E-03 13024   0.825E-02    0.143E-01
RMM:   5    -0.655873307894E+03    0.15029E-03   -0.40632E-04 11597   0.505E-02    0.445E-02
RMM:   6    -0.655873331547E+03   -0.23653E-04   -0.24196E-04 10838   0.304E-02    0.635E-02
RMM:   7    -0.655873312321E+03    0.19225E-04   -0.14685E-04  9490   0.282E-02    0.286E-02
RMM:   8    -0.655873313475E+03   -0.11536E-05   -0.95537E-05  8439   0.209E-02
  26 F= -.65587331E+03 E0= -.65581766E+03  d E =-.856463E-02
 curvature:  -0.97 expect dE=-0.803E-02 dE for cont linesearch -0.204E-04
 trial: gam= 0.36279 g(F)=  0.671E-02 g(S)=  0.153E-02 ort = 0.108E-02 (trialstep = 0.634E+00)
 search vector abs. value=  0.163E-01
 bond charge predicted
       N       E                     dE             d eps       ncg     rms          rms(c)
DAV:   1    -0.655860186530E+03    0.13126E-01   -0.12568E+00  8792   0.460E+00    0.271E-01
RMM:   2    -0.655875930403E+03   -0.15744E-01   -0.16281E-01 12051   0.116E+00    0.347E-01
RMM:   3    -0.655878015738E+03   -0.20853E-02   -0.28408E-02 13390   0.401E-01    0.273E-01
RMM:   4    -0.655877880751E+03    0.13499E-03   -0.30937E-03 13064   0.143E-01    0.179E-01
RMM:   5    -0.655877686342E+03    0.19441E-03   -0.12430E-03 13013   0.751E-02    0.755E-02
RMM:   6    -0.655877736534E+03   -0.50192E-04   -0.60169E-04 12338   0.495E-02    0.111E-01
RMM:   7    -0.655877661889E+03    0.74645E-04   -0.39498E-04 11651   0.419E-02    0.453E-02
RMM:   8    -0.655877662837E+03   -0.94838E-06   -0.22015E-04 10990   0.277E-02    0.249E-02
RMM:   9    -0.655877670681E+03   -0.78436E-05   -0.11814E-04  9702   0.216E-02    0.248E-02
RMM:  10    -0.655877672239E+03   -0.15575E-05   -0.79781E-05  8081   0.157E-02
  27 F= -.65587767E+03 E0= -.65582195E+03  d E =-.435876E-02
 trial-energy change:   -0.004359  1 .order   -0.004187   -0.005474   -0.002900
 step:   1.0615(harm=  1.3483)  dis= 0.00546  next Energy=  -655.878702 (dE=-0.539E-02)
 bond charge predicted
       N       E                     dE             d eps       ncg     rms          rms(c)
DAV:   1    -0.655871209250E+03    0.64614E-02   -0.57240E-01  9240   0.311E+00    0.184E-01
RMM:   2    -0.655878450046E+03   -0.72408E-02   -0.74325E-02 12094   0.784E-01    0.248E-01
RMM:   3    -0.655879338602E+03   -0.88856E-03   -0.13055E-02 13460   0.271E-01    0.181E-01
RMM:   4    -0.655879297849E+03    0.40753E-04   -0.14549E-03 12947   0.977E-02    0.122E-01
RMM:   5    -0.655879209074E+03    0.88775E-04   -0.62247E-04 12286   0.529E-02    0.513E-02
RMM:   6    -0.655879242323E+03   -0.33249E-04   -0.30913E-04 11361   0.357E-02    0.807E-02
RMM:   7    -0.655879201972E+03    0.40351E-04   -0.21150E-04 10820   0.309E-02    0.288E-02
RMM:   8    -0.655879204939E+03   -0.29673E-05   -0.11891E-04  9543   0.209E-02    0.196E-02
RMM:   9    -0.655879209158E+03   -0.42191E-05   -0.68512E-05  7945   0.173E-02
  28 F= -.65587921E+03 E0= -.65582344E+03  d E =-.589568E-02
 curvature:  -1.07 expect dE=-0.361E-02 dE for cont linesearch -0.261E-03
 ZBRENT: increasing intervall
 opt :   1.9164  next Energy=  -655.878715 (dE=-0.540E-02)
 bond charge predicted
       N       E                     dE             d eps       ncg     rms          rms(c)
DAV:   1    -0.655847019742E+03    0.32185E-01   -0.22860E+00  8624   0.619E+00    0.368E-01
RMM:   2    -0.655875817123E+03   -0.28797E-01   -0.29719E-01 12080   0.156E+00    0.477E-01
RMM:   3    -0.655879457884E+03   -0.36408E-02   -0.51070E-02 13424   0.543E-01    0.366E-01
RMM:   4    -0.655879220130E+03    0.23775E-03   -0.55379E-03 13082   0.193E-01    0.243E-01
RMM:   5    -0.655878866233E+03    0.35390E-03   -0.22819E-03 13267   0.102E-01    0.102E-01
RMM:   6    -0.655878967973E+03   -0.10174E-03   -0.10879E-03 12690   0.658E-02    0.152E-01
RMM:   7    -0.655878826153E+03    0.14182E-03   -0.72139E-04 12205   0.561E-02    0.627E-02
RMM:   8    -0.655878835537E+03   -0.93842E-05   -0.40403E-04 12051   0.370E-02    0.474E-02
RMM:   9    -0.655878840625E+03   -0.50878E-05   -0.22361E-04 11032   0.280E-02    0.270E-02
RMM:  10    -0.655878848016E+03   -0.73906E-05   -0.16297E-04  9714   0.201E-02    0.137E-02
RMM:  11    -0.655878857447E+03   -0.94316E-05   -0.10557E-04  8690   0.175E-02    0.188E-02
RMM:  12    -0.655878860757E+03   -0.33094E-05   -0.72367E-05  8178   0.161E-02
  29 F= -.65587886E+03 E0= -.65582299E+03  d E =-.554728E-02
 curvature:   2.02 expect dE= 0.239E-01 dE for cont linesearch  0.150E-02
 ZBRENT: bracketing found
 ZBRENT: interpolating
 opt :   1.3733  next Energy=  -655.879521 (dE=-0.621E-02)
 bond charge predicted
       N       E                     dE             d eps       ncg     rms          rms(c)
DAV:   1    -0.655866926379E+03    0.11931E-01   -0.92018E-01  8624   0.393E+00    0.236E-01
RMM:   2    -0.655878603273E+03   -0.11677E-01   -0.11883E-01 12032   0.995E-01    0.337E-01
RMM:   3    -0.655879858663E+03   -0.12554E-02   -0.21051E-02 13044   0.348E-01    0.223E-01
RMM:   4    -0.655879815997E+03    0.42665E-04   -0.21939E-03 12377   0.121E-01    0.158E-01
RMM:   5    -0.655879644783E+03    0.17121E-03   -0.82076E-04 12046   0.643E-02    0.638E-02
RMM:   6    -0.655879684918E+03   -0.40135E-04   -0.36559E-04 11620   0.408E-02    0.985E-02
RMM:   7    -0.655879618472E+03    0.66446E-04   -0.24428E-04 10697   0.350E-02    0.382E-02
RMM:   8    -0.655879618807E+03   -0.33516E-06   -0.12382E-04  9551   0.224E-02    0.276E-02
RMM:   9    -0.655879619304E+03   -0.49624E-06   -0.67851E-05  6938   0.185E-02
  30 F= -.65587962E+03 E0= -.65582382E+03  d E =-.630583E-02
 curvature:  -0.42 expect dE=-0.216E-02 dE for cont linesearch -0.595E-05
 trial: gam= 0.65056 g(F)=  0.393E-02 g(S)=  0.121E-02 ort = 0.481E-03 (trialstep = 0.782E+00)
 search vector abs. value=  0.127E-01
 bond charge predicted
       N       E                     dE             d eps       ncg     rms          rms(c)
DAV:   1    -0.655863334780E+03    0.16284E-01   -0.14755E+00  8624   0.485E+00    0.344E-01
RMM:   2    -0.655883520897E+03   -0.20186E-01   -0.18768E-01 12038   0.123E+00    0.649E-01
RMM:   3    -0.655883007613E+03    0.51328E-03   -0.33445E-02 13134   0.451E-01    0.278E-01
RMM:   4    -0.655883204287E+03   -0.19667E-03   -0.41230E-03 12778   0.162E-01    0.257E-01
RMM:   5    -0.655882669171E+03    0.53512E-03   -0.16305E-03 12697   0.955E-02    0.921E-02
RMM:   6    -0.655882798386E+03   -0.12922E-03   -0.79258E-04 12366   0.563E-02    0.153E-01
RMM:   7    -0.655882621084E+03    0.17730E-03   -0.52667E-04 11964   0.509E-02    0.468E-02
RMM:   8    -0.655882620925E+03    0.15910E-06   -0.26465E-04 11229   0.305E-02    0.369E-02
RMM:   9    -0.655882624389E+03   -0.34636E-05   -0.13246E-04  9867   0.233E-02    0.231E-02
RMM:  10    -0.655882628095E+03   -0.37061E-05   -0.97512E-05  8735   0.164E-02
  31 F= -.65588263E+03 E0= -.65582676E+03  d E =-.300879E-02
 trial-energy change:   -0.003009  1 .order   -0.002936   -0.004264   -0.001607
 step:   1.1619(harm=  1.2549)  dis= 0.00606  next Energy=  -655.883027 (dE=-0.341E-02)
 bond charge predicted
       N       E                     dE             d eps       ncg     rms          rms(c)
DAV:   1    -0.655878614469E+03    0.40099E-02   -0.34943E-01  9408   0.236E+00    0.167E-01
RMM:   2    -0.655883501729E+03   -0.48873E-02   -0.45544E-02 12162   0.602E-01    0.318E-01
RMM:   3    -0.655883320834E+03    0.18089E-03   -0.74162E-03 13331   0.214E-01    0.135E-01
RMM:   4    -0.655883374526E+03   -0.53691E-04   -0.10508E-03 12730   0.806E-02    0.125E-01
RMM:   5    -0.655883254394E+03    0.12013E-03   -0.46407E-04 11680   0.485E-02    0.457E-02
RMM:   6    -0.655883291113E+03   -0.36719E-04   -0.23857E-04 10820   0.313E-02    0.763E-02
RMM:   7    -0.655883249128E+03    0.41985E-04   -0.16508E-04 10466   0.281E-02    0.211E-02
RMM:   8    -0.655883252324E+03   -0.31956E-05   -0.94336E-05  8869   0.189E-02
  32 F= -.65588325E+03 E0= -.65582736E+03  d E =-.363302E-02
 curvature:  -1.40 expect dE=-0.320E-02 dE for cont linesearch -0.528E-04
 ZBRENT: increasing intervall
 opt :   1.9218  next Energy=  -655.882741 (dE=-0.312E-02)
 bond charge predicted
       N       E                     dE             d eps       ncg     rms          rms(c)
DAV:   1    -0.655864387421E+03    0.18862E-01   -0.13954E+00  8624   0.472E+00    0.335E-01
RMM:   2    -0.655883583119E+03   -0.19196E-01   -0.17939E-01 12103   0.120E+00    0.627E-01
RMM:   3    -0.655883109761E+03    0.47336E-03   -0.31161E-02 13312   0.433E-01    0.274E-01
RMM:   4    -0.655883308288E+03   -0.19853E-03   -0.40785E-03 12961   0.159E-01    0.252E-01
RMM:   5    -0.655882815501E+03    0.49279E-03   -0.16799E-03 12775   0.940E-02    0.916E-02
RMM:   6    -0.655882942664E+03   -0.12716E-03   -0.83913E-04 12484   0.566E-02    0.147E-01
RMM:   7    -0.655882788400E+03    0.15426E-03   -0.56494E-04 12185   0.514E-02    0.478E-02
RMM:   8    -0.655882790092E+03   -0.16918E-05   -0.30992E-04 11461   0.319E-02    0.343E-02
RMM:   9    -0.655882799022E+03   -0.89304E-05   -0.16661E-04 10297   0.244E-02    0.244E-02
RMM:  10    -0.655882805101E+03   -0.60786E-05   -0.12436E-04  8977   0.181E-02    0.102E-02
RMM:  11    -0.655882812333E+03   -0.72325E-05   -0.80679E-05  8220   0.160E-02
  33 F= -.65588281E+03 E0= -.65582687E+03  d E =-.319303E-02
 curvature:  13.57 expect dE= 0.947E-01 dE for cont linesearch  0.614E-02
 ZBRENT: bracketing found
 ZBRENT: interpolating
 opt :   1.3321  next Energy=  -655.883311 (dE=-0.369E-02)
 bond charge predicted
       N       E                     dE             d eps       ncg     rms          rms(c)
DAV:   1    -0.655872428806E+03    0.10376E-01   -0.83821E-01  8624   0.367E+00    0.261E-01
RMM:   2    -0.655884159144E+03   -0.11730E-01   -0.10827E-01 11986   0.930E-01    0.508E-01
RMM:   3    -0.655883577892E+03    0.58125E-03   -0.17973E-02 12754   0.337E-01    0.209E-01
RMM:   4    -0.655883699739E+03   -0.12185E-03   -0.24086E-03 12430   0.121E-01    0.196E-01
RMM:   5    -0.655883381971E+03    0.31777E-03   -0.87278E-04 11823   0.714E-02    0.691E-02
RMM:   6    -0.655883459478E+03   -0.77507E-04   -0.43151E-04 11556   0.425E-02    0.117E-01
RMM:   7    -0.655883353370E+03    0.10611E-03   -0.26828E-04 11046   0.385E-02    0.341E-02
RMM:   8    -0.655883357143E+03   -0.37730E-05   -0.14531E-04  9426   0.224E-02    0.292E-02
RMM:   9    -0.655883356903E+03    0.23986E-06   -0.68330E-05  7011   0.195E-02
  34 F= -.65588336E+03 E0= -.65582745E+03  d E =-.373760E-02
 curvature:  -0.13 expect dE=-0.393E-03 dE for cont linesearch -0.195E-05
 trial: gam= 0.53697 g(F)=  0.212E-02 g(S)=  0.900E-03 ort = 0.436E-03 (trialstep = 0.892E+00)
 search vector abs. value=  0.714E-02
 bond charge predicted
       N       E                     dE             d eps       ncg     rms          rms(c)
DAV:   1    -0.655871726745E+03    0.11630E-01   -0.10740E+00  8624   0.409E+00    0.387E-01
RMM:   2    -0.655889249287E+03   -0.17523E-01   -0.14400E-01 11674   0.112E+00    0.767E-01
RMM:   3    -0.655885033253E+03    0.42160E-02   -0.29151E-02 11845   0.474E-01    0.230E-01
RMM:   4    -0.655885591420E+03   -0.55817E-03   -0.47490E-03 13292   0.164E-01    0.300E-01
RMM:   5    -0.655884936483E+03    0.65494E-03   -0.14649E-03 12604   0.939E-02    0.891E-02
RMM:   6    -0.655884981185E+03   -0.44702E-04   -0.77321E-04 12676   0.547E-02    0.116E-01
RMM:   7    -0.655884922865E+03    0.58320E-04   -0.45496E-04 11919   0.480E-02    0.721E-02
RMM:   8    -0.655884893629E+03    0.29236E-04   -0.26927E-04 11673   0.344E-02    0.282E-02
RMM:   9    -0.655884906510E+03   -0.12880E-04   -0.14481E-04  9650   0.240E-02    0.292E-02
RMM:  10    -0.655884907817E+03   -0.13071E-05   -0.80037E-05  8009   0.180E-02
  35 F= -.65588491E+03 E0= -.65582904E+03  d E =-.155091E-02
 trial-energy change:   -0.001551  1 .order   -0.001532   -0.002906   -0.000159
 step:   0.9436(harm=  0.9436)  dis= 0.00393  next Energy=  -655.884894 (dE=-0.154E-02)
 bond charge predicted
       N       E                     dE             d eps       ncg     rms          rms(c)
DAV:   1    -0.655884891091E+03    0.15418E-04   -0.38683E-03 11368   0.239E-01    0.262E-02
RMM:   2    -0.655884981985E+03   -0.90894E-04   -0.50926E-04 11313   0.646E-02    0.732E-02
RMM:   3    -0.655884940948E+03    0.41037E-04   -0.12551E-04  8454   0.314E-02    0.178E-02
RMM:   4    -0.655884942233E+03   -0.12850E-05   -0.27803E-05  6323   0.163E-02
  36 F= -.65588494E+03 E0= -.65582907E+03  d E =-.158533E-02
 curvature:  -1.03 expect dE=-0.211E-02 dE for cont linesearch -0.463E-05
 trial: gam= 0.58751 g(F)=  0.117E-02 g(S)=  0.875E-03 ort = 0.179E-03 (trialstep = 0.902E+00)
 search vector abs. value=  0.472E-02
 bond charge predicted
       N       E                     dE             d eps       ncg     rms          rms(c)
DAV:   1    -0.655879880155E+03    0.50608E-02   -0.71583E-01  9240   0.329E+00    0.491E-01
RMM:   2    -0.655901370987E+03   -0.21491E-01   -0.10161E-01 10343   0.100E+00    0.124E+00
RMM:   3    -0.655886804103E+03    0.14567E-01   -0.26553E-02 11861   0.489E-01    0.319E-01
RMM:   4    -0.655886782953E+03    0.21150E-04   -0.49898E-03 13298   0.175E-01    0.271E-01
RMM:   5    -0.655886186477E+03    0.59648E-03   -0.15944E-03 12603   0.104E-01    0.103E-01
RMM:   6    -0.655886244961E+03   -0.58484E-04   -0.74948E-04 12913   0.572E-02    0.136E-01
RMM:   7    -0.655886109836E+03    0.13512E-03   -0.44280E-04 12478   0.503E-02    0.479E-02
RMM:   8    -0.655886109373E+03    0.46261E-06   -0.27444E-04 11646   0.315E-02    0.460E-02
RMM:   9    -0.655886102335E+03    0.70383E-05   -0.12563E-04  9619   0.251E-02    0.216E-02
RMM:  10    -0.655886104120E+03   -0.17849E-05   -0.83110E-05  8243   0.168E-02
  37 F= -.65588610E+03 E0= -.65583011E+03  d E =-.116189E-02
 trial-energy change:   -0.001162  1 .order   -0.000945   -0.001936    0.000046
 step:   0.8895(harm=  0.8813)  dis= 0.00301  next Energy=  -655.886104 (dE=-0.116E-02)
 bond charge predicted
       N       E                     dE             d eps       ncg     rms          rms(c)
DAV:   1    -0.655886112890E+03   -0.10555E-04   -0.26080E-04 13244   0.511E-02    0.148E-02
RMM:   2    -0.655886131369E+03   -0.18479E-04   -0.52219E-05  6609   0.191E-02    0.478E-02
RMM:   3    -0.655886111691E+03    0.19678E-04   -0.13118E-05  5473   0.142E-02    0.748E-03
RMM:   4    -0.655886111764E+03   -0.72963E-07   -0.43505E-06  5247   0.850E-03
  38 F= -.65588611E+03 E0= -.65583012E+03  d E =-.116953E-02
 curvature:  -0.82 expect dE=-0.115E-02 dE for cont linesearch -0.229E-05
 trial: gam= 0.79298 g(F)=  0.643E-03 g(S)=  0.760E-03 ort = 0.115E-03 (trialstep = 0.900E+00)
 search vector abs. value=  0.455E-02
 bond charge predicted
       N       E                     dE             d eps       ncg     rms          rms(c)
DAV:   1    -0.655878451712E+03    0.76600E-02   -0.70079E-01  8624   0.328E+00    0.225E-01
RMM:   2    -0.655886783786E+03   -0.83321E-02   -0.83841E-02 11937   0.837E-01    0.328E-01
RMM:   3    -0.655887038932E+03   -0.25515E-03   -0.14090E-02 12884   0.308E-01    0.171E-01
RMM:   4    -0.655887162209E+03   -0.12328E-03   -0.19649E-03 13162   0.111E-01    0.180E-01
RMM:   5    -0.655886948979E+03    0.21323E-03   -0.70375E-04 12577   0.601E-02    0.568E-02
RMM:   6    -0.655886974161E+03   -0.25182E-04   -0.38764E-04 12183   0.398E-02    0.804E-02
RMM:   7    -0.655886947739E+03    0.26421E-04   -0.23133E-04 10975   0.322E-02    0.433E-02
RMM:   8    -0.655886940639E+03    0.71007E-05   -0.12280E-04  9470   0.225E-02    0.146E-02
RMM:   9    -0.655886947457E+03   -0.68180E-05   -0.70701E-05  7888   0.170E-02
  39 F= -.65588695E+03 E0= -.65583094E+03  d E =-.835692E-03
 trial-energy change:   -0.000836  1 .order   -0.000813   -0.001345   -0.000282
 step:   1.1385(harm=  1.1385)  dis= 0.00388  next Energy=  -655.886962 (dE=-0.851E-03)
 bond charge predicted
       N       E                     dE             d eps       ncg     rms          rms(c)
DAV:   1    -0.655886396415E+03    0.54422E-03   -0.49604E-02  9408   0.873E-01    0.598E-02
RMM:   2    -0.655887001009E+03   -0.60459E-03   -0.60704E-03 12057   0.224E-01    0.875E-02
RMM:   3    -0.655887022767E+03   -0.21758E-04   -0.10256E-03 12804   0.815E-02    0.465E-02
RMM:   4    -0.655887036251E+03   -0.13484E-04   -0.17477E-04 10631   0.333E-02    0.498E-02
RMM:   5    -0.655887022194E+03    0.14058E-04   -0.75877E-05  7720   0.204E-02    0.149E-02
RMM:   6    -0.655887025749E+03   -0.35550E-05   -0.42876E-05  6734   0.150E-02
  40 F= -.65588703E+03 E0= -.65583104E+03  d E =-.913984E-03
 curvature:  -1.73 expect dE=-0.981E-03 dE for cont linesearch -0.440E-05
 trial: gam= 0.23226 g(F)=  0.557E-03 g(S)=  0.893E-05 ort = 0.108E-03 (trialstep = 0.947E+00)
 search vector abs. value=  0.861E-03
 bond charge predicted
       N       E                     dE             d eps       ncg     rms          rms(c)
DAV:   1    -0.655885400336E+03    0.16219E-02   -0.14989E-01  9184   0.151E+00    0.844E-02
RMM:   2    -0.655887300042E+03   -0.18997E-02   -0.18470E-02 12706   0.384E-01    0.163E-01
RMM:   3    -0.655887443155E+03   -0.14311E-03   -0.33628E-03 13070   0.133E-01    0.701E-02
RMM:   4    -0.655887438828E+03    0.43278E-05   -0.33868E-04 11682   0.468E-02    0.396E-02
RMM:   5    -0.655887440982E+03   -0.21546E-05   -0.15008E-04  9401   0.246E-02    0.306E-02
RMM:   6    -0.655887437869E+03    0.31131E-05   -0.59994E-05  7676   0.185E-02
  41 F= -.65588744E+03 E0= -.65583143E+03  d E =-.412121E-03
 trial-energy change:   -0.000412  1 .order   -0.000370   -0.000560   -0.000181
 step:   1.1936(harm=  1.3990)  dis= 0.00152  next Energy=  -655.887462 (dE=-0.436E-03)
 bond charge predicted
       N       E                     dE             d eps       ncg     rms          rms(c)
DAV:   1    -0.655887348823E+03    0.92159E-04   -0.99687E-03  9660   0.389E-01    0.307E-02
RMM:   2    -0.655887526004E+03   -0.17718E-03   -0.13007E-03 12416   0.103E-01    0.859E-02
RMM:   3    -0.655887484358E+03    0.41646E-04   -0.28729E-04  9788   0.432E-02    0.231E-02
RMM:   4    -0.655887488072E+03   -0.37142E-05   -0.57428E-05  7128   0.190E-02
  42 F= -.65588749E+03 E0= -.65583147E+03  d E =-.462324E-03
 curvature:  -0.81 expect dE=-0.263E-03 dE for cont linesearch -0.188E-05
 trial: gam= 0.50690 g(F)=  0.202E-03 g(S)=  0.124E-03 ort = 0.448E-04 (trialstep = 0.997E+00)
 search vector abs. value=  0.592E-03
 bond charge predicted
       N       E                     dE             d eps       ncg     rms          rms(c)
DAV:   1    -0.655887165127E+03    0.31923E-03   -0.11112E-01  9352   0.136E+00    0.278E-01
RMM:   2    -0.655893018092E+03   -0.58530E-02   -0.20346E-02  9526   0.456E-01    0.714E-01
RMM:   3    -0.655887897217E+03    0.51209E-02   -0.53869E-03 11348   0.235E-01    0.175E-01
RMM:   4    -0.655887826186E+03    0.71031E-04   -0.11900E-03 12447   0.908E-02    0.134E-01
RMM:   5    -0.655887668795E+03    0.15739E-03   -0.42268E-04 11940   0.538E-02    0.624E-02
RMM:   6    -0.655887668897E+03   -0.10175E-06   -0.18751E-04 11249   0.326E-02    0.682E-02
RMM:   7    -0.655887631601E+03    0.37295E-04   -0.11784E-04  9789   0.271E-02    0.221E-02
RMM:   8    -0.655887630556E+03    0.10454E-05   -0.65792E-05  7262   0.189E-02
  43 F= -.65588763E+03 E0= -.65583157E+03  d E =-.142484E-03
 trial-energy change:   -0.000142  1 .order   -0.000098   -0.000347    0.000151
 step:   0.7841(harm=  0.6947)  dis= 0.00091  next Energy=  -655.887646 (dE=-0.158E-03)
 bond charge predicted
       N       E                     dE             d eps       ncg     rms          rms(c)
DAV:   1    -0.655887618564E+03    0.13037E-04   -0.51159E-03  9408   0.292E-01    0.596E-02
RMM:   2    -0.655887877741E+03   -0.25918E-03   -0.94707E-04  9442   0.994E-02    0.152E-01
RMM:   3    -0.655887647392E+03    0.23035E-03   -0.24152E-04  9821   0.506E-02    0.376E-02
RMM:   4    -0.655887644177E+03    0.32154E-05   -0.57918E-05  7190   0.233E-02
  44 F= -.65588764E+03 E0= -.65583158E+03  d E =-.156105E-03
 curvature:  -0.54 expect dE=-0.673E-03 dE for cont linesearch -0.530E-05
 ZBRENT: interpolating
 opt :   0.6432  next Energy=  -655.887650 (dE=-0.161E-03)
 bond charge predicted
       N       E                     dE             d eps       ncg     rms          rms(c)
DAV:   1    -0.655887623881E+03    0.23511E-04   -0.22357E-03  9660   0.191E-01    0.452E-02
RMM:   2    -0.655887777766E+03   -0.15389E-03   -0.47229E-04  9129   0.685E-02    0.121E-01
RMM:   3    -0.655887637276E+03    0.14049E-03   -0.12395E-04  8013   0.376E-02    0.333E-02
RMM:   4    -0.655887632092E+03    0.51837E-05   -0.30382E-05  6142   0.192E-02
  45 F= -.65588763E+03 E0= -.65583158E+03  d E =-.144020E-03
 curvature:  -0.55 expect dE=-0.467E-03 dE for cont linesearch -0.252E-07
 trial: gam= 2.91983 g(F)=  0.227E-03 g(S)=  0.627E-03 ort = 0.522E-05 (trialstep = 0.924E-01)
 search vector abs. value=  0.593E-02
 bond charge predicted
       N       E                     dE             d eps       ncg     rms          rms(c)
DAV:   1    -0.655887556515E+03    0.80761E-04   -0.98160E-03  9408   0.399E-01    0.260E-02
RMM:   2    -0.655887693270E+03   -0.13675E-03   -0.12333E-03 11650   0.998E-02    0.551E-02
RMM:   3    -0.655887689637E+03    0.36332E-05   -0.24368E-04  8976   0.386E-02    0.174E-02
RMM:   4    -0.655887691606E+03   -0.19694E-05   -0.28150E-05  5953   0.195E-02
  46 F= -.65588769E+03 E0= -.65583164E+03  d E =-.595141E-04
 trial-energy change:   -0.000060  1 .order   -0.000057   -0.000080   -0.000033
 step:   0.1565(harm=  0.1565)  dis= 0.00063  next Energy=  -655.887700 (dE=-0.680E-04)
 bond charge predicted
       N       E                     dE             d eps       ncg     rms          rms(c)
DAV:   1    -0.655887651957E+03    0.37679E-04   -0.47990E-03  9408   0.277E-01    0.193E-02
RMM:   2    -0.655887730696E+03   -0.78739E-04   -0.65023E-04 11316   0.728E-02    0.496E-02
RMM:   3    -0.655887720579E+03    0.10117E-04   -0.11765E-04  7604   0.290E-02    0.135E-02
RMM:   4    -0.655887720962E+03   -0.38322E-06   -0.16619E-05  5531   0.162E-02
  47 F= -.65588772E+03 E0= -.65583167E+03  d E =-.888702E-04
 curvature:  -0.53 expect dE=-0.116E-03 dE for cont linesearch -0.853E-05
 ZBRENT: increasing intervall
 opt :   0.2845  next Energy=  -655.887754 (dE=-0.122E-03)
 bond charge predicted
       N       E                     dE             d eps       ncg     rms          rms(c)
DAV:   1    -0.655887498343E+03    0.22224E-03   -0.18979E-02  9128   0.552E-01    0.360E-02
RMM:   2    -0.655887769020E+03   -0.27068E-03   -0.24521E-03 12019   0.142E-01    0.765E-02
RMM:   3    -0.655887763157E+03    0.58633E-05   -0.46740E-04 11485   0.512E-02    0.280E-02
RMM:   4    -0.655887765662E+03   -0.25051E-05   -0.60606E-05  7446   0.221E-02
  48 F= -.65588777E+03 E0= -.65583171E+03  d E =-.133571E-03
 curvature:  -2.08 expect dE=-0.409E-03 dE for cont linesearch -0.102E-07
 trial: gam=-0.09587 g(F)=  0.110E-03 g(S)=  0.862E-04 ort = 0.539E-05 (trialstep = 0.131E+00)
 search vector abs. value=  0.250E-03
 bond charge predicted
       N       E                     dE             d eps       ncg     rms          rms(c)
DAV:   1    -0.655887795431E+03   -0.32274E-04   -0.85806E-04 11704   0.107E-01    0.329E-02
RMM:   2    -0.655887873096E+03   -0.77665E-04   -0.20569E-04  9533   0.423E-02    0.879E-02
RMM:   3    -0.655887790356E+03    0.82739E-04   -0.48294E-05  6550   0.254E-02    0.173E-02
RMM:   4    -0.655887790380E+03   -0.23472E-07   -0.11517E-05  5218   0.150E-02
  49 F= -.65588779E+03 E0= -.65583175E+03  d E =-.247176E-04
 ZBRENT: can't locate minimum, use default step
 trial-energy change:   -0.000025  1 .order   -0.000029   -0.000026   -0.000032
 step:   0.5234(harm=  0.5234)  dis= 0.00035  next Energy=  -655.887919 (dE=-0.153E-03)
 bond charge predicted
       N       E                     dE             d eps       ncg     rms          rms(c)
DAV:   1    -0.655887892392E+03   -0.10204E-03   -0.68954E-03 10304   0.304E-01    0.985E-02
RMM:   2    -0.655888527944E+03   -0.63555E-03   -0.16996E-03  9772   0.130E-01    0.253E-01
RMM:   3    -0.655887863597E+03    0.66435E-03   -0.40909E-04 10139   0.700E-02    0.633E-02
RMM:   4    -0.655887850348E+03    0.13249E-04   -0.11713E-04  9741   0.317E-02    0.470E-02
RMM:   5    -0.655887832734E+03    0.17614E-04   -0.43596E-05  6834   0.205E-02    0.220E-02
RMM:   6    -0.655887832824E+03   -0.90004E-07   -0.17656E-05  5446   0.164E-02
  50 F= -.65588783E+03 E0= -.65583179E+03  d E =-.671617E-04
 curvature:  -0.52 expect dE=-0.885E-04 dE for cont linesearch -0.123E-04
 ZBRENT: extrapolating
 opt :   0.7033  next Energy=  -655.887840 (dE=-0.741E-04)
 bond charge predicted
       N       E                     dE             d eps       ncg     rms          rms(c)
DAV:   1    -0.655887836078E+03   -0.33443E-05   -0.14011E-03 10836   0.138E-01    0.462E-02
RMM:   2    -0.655887981402E+03   -0.14532E-03   -0.36091E-04  9688   0.573E-02    0.119E-01
RMM:   3    -0.655887829506E+03    0.15190E-03   -0.90998E-05  7754   0.342E-02    0.293E-02
RMM:   4    -0.655887827054E+03    0.24520E-05   -0.23118E-05  5695   0.182E-02
  51 F= -.65588783E+03 E0= -.65583180E+03  d E =-.613920E-04
 curvature:  -0.29 expect dE=-0.485E-04 dE for cont linesearch -0.657E-07
 trial: gam= 0.56513 g(F)=  0.125E-03 g(S)=  0.404E-04 ort =-0.748E-05 (trialstep = 0.245E+00)
 search vector abs. value=  0.237E-03
 bond charge predicted
       N       E                     dE             d eps       ncg     rms          rms(c)
DAV:   1    -0.655887875174E+03   -0.45668E-04   -0.26754E-03 10752   0.205E-01    0.743E-02
RMM:   2    -0.655888187943E+03   -0.31277E-03   -0.79152E-04 10053   0.821E-02    0.177E-01
RMM:   3    -0.655887833461E+03    0.35448E-03   -0.18183E-04  8465   0.482E-02    0.444E-02
RMM:   4    -0.655887830993E+03    0.24674E-05   -0.57604E-05  7189   0.245E-02
  52 F= -.65588783E+03 E0= -.65583181E+03  d E =-.393905E-05
 trial-energy change:   -0.000004  1 .order   -0.000029   -0.000040   -0.000019
 step:   0.4778(harm=  0.4778)  dis= 0.00020  next Energy=  -655.887866 (dE=-0.385E-04)
 bond charge predicted
       N       E                     dE             d eps       ncg     rms          rms(c)
DAV:   1    -0.655887842765E+03   -0.93037E-05   -0.24077E-03 10808   0.193E-01    0.729E-02
RMM:   2    -0.655888129856E+03   -0.28709E-03   -0.74673E-04 10179   0.786E-02    0.170E-01
RMM:   3    -0.655887803412E+03    0.32644E-03   -0.17897E-04  8405   0.466E-02    0.462E-02
RMM:   4    -0.655887799379E+03    0.40335E-05   -0.57021E-05  7208   0.237E-02
  53 F= -.65588780E+03 E0= -.65583179E+03  d E =0.276757E-04
 curvature:  -0.35 expect dE=-0.308E-04 dE for cont linesearch -0.342E-06
 trial: gam= 0.28024 g(F)=  0.614E-04 g(S)=  0.264E-04 ort =-0.152E-04 (trialstep = 0.292E+00)
 search vector abs. value=  0.979E-04
 bond charge predicted
       N       E                     dE             d eps       ncg     rms          rms(c)
DAV:   1    -0.655887800682E+03    0.27306E-05   -0.16160E-03  9408   0.152E-01    0.171E-02
RMM:   2    -0.655887846798E+03   -0.46116E-04   -0.24763E-04 10681   0.469E-02    0.539E-02
RMM:   3    -0.655887822315E+03    0.24483E-04   -0.44279E-05  6203   0.222E-02    0.110E-02
RMM:   4    -0.655887822734E+03   -0.41930E-06   -0.11971E-05  5414   0.128E-02
  54 F= -.65588782E+03 E0= -.65583182E+03  d E =-.233555E-04
 ZBRENT: can't locate minimum, use default step
 trial-energy change:   -0.000023  1 .order   -0.000025   -0.000024   -0.000025
 step:   1.1673(harm=  1.1673)  dis= 0.00049  next Energy=  -655.887901 (dE=-0.101E-03)
 bond charge predicted
       N       E                     dE             d eps       ncg     rms          rms(c)
DAV:   1    -0.655887735554E+03    0.86761E-04   -0.13810E-02  9016   0.444E-01    0.490E-02
RMM:   2    -0.655888062762E+03   -0.32721E-03   -0.18210E-03 12048   0.125E-01    0.146E-01
RMM:   3    -0.655887899353E+03    0.16341E-03   -0.41333E-04 10446   0.560E-02    0.336E-02
RMM:   4    -0.655887901826E+03   -0.24730E-05   -0.92566E-05  8357   0.231E-02
  55 F= -.65588790E+03 E0= -.65583189E+03  d E =-.102447E-03
 curvature:  -1.03 expect dE=-0.600E-03 dE for cont linesearch -0.113E-04
 trial: gam= 0.00000 g(F)=  0.598E-04 g(S)=  0.520E-03 ort = 0.327E-04 (trialstep = 0.789E-01)
 search vector abs. value=  0.580E-03
 reached required accuracy - stopping structural energy minimisation
