   2   2   0   0
  0.1200126E+02  0.2884600E-09  0.2884600E-09  0.2884600E-09  0.5000000E-15
  1.000000000000000E-004
  CAR 
 HECN                                    
     44.50055801    -40.38606641  301      6.73137795      1.00000000
    -40.386  0.0000E+00  0.0000E+00
    -40.103  0.0000E+00  0.0000E+00
    -39.820  0.0000E+00  0.0000E+00
    -39.537  0.0000E+00  0.0000E+00
    -39.254  0.0000E+00  0.0000E+00
    -38.971  0.0000E+00  0.0000E+00
    -38.688  0.0000E+00  0.0000E+00
    -38.405  0.0000E+00  0.0000E+00
    -38.122  0.0000E+00  0.0000E+00
    -37.839  0.0000E+00  0.0000E+00
    -37.557  0.0000E+00  0.0000E+00
    -37.274  0.0000E+00  0.0000E+00
    -36.991  0.9155E-12  0.2591E-12
    -36.708  0.1712E-03  0.4844E-04
    -36.425  0.4907E-01  0.1393E-01
    -36.142  0.1225E+00  0.4860E-01
    -35.859  0.1466E+00  0.9007E-01
    -35.576  0.1043E+00  0.1196E+00
    -35.293  0.1436E-02  0.1200E+00
    -35.010  0.1325E-09  0.1200E+00
    -34.727  0.0000E+00  0.1200E+00
    -34.444  0.0000E+00  0.1200E+00
    -34.161  0.0000E+00  0.1200E+00
    -33.878  0.0000E+00  0.1200E+00
    -33.595  0.0000E+00  0.1200E+00
    -33.312  0.0000E+00  0.1200E+00
    -33.029  0.0000E+00  0.1200E+00
    -32.746  0.0000E+00  0.1200E+00
    -32.463  0.0000E+00  0.1200E+00
    -32.180  0.0000E+00  0.1200E+00
    -31.897  0.0000E+00  0.1200E+00
    -31.614  0.0000E+00  0.1200E+00
    -31.331  0.0000E+00  0.1200E+00
    -31.049  0.0000E+00  0.1200E+00
    -30.766  0.0000E+00  0.1200E+00
    -30.483  0.0000E+00  0.1200E+00
    -30.200  0.0000E+00  0.1200E+00
    -29.917  0.0000E+00  0.1200E+00
    -29.634  0.0000E+00  0.1200E+00
    -29.351  0.0000E+00  0.1200E+00
    -29.068  0.0000E+00  0.1200E+00
    -28.785  0.0000E+00  0.1200E+00
    -28.502  0.0000E+00  0.1200E+00
    -28.219  0.0000E+00  0.1200E+00
    -27.936  0.0000E+00  0.1200E+00
    -27.653  0.0000E+00  0.1200E+00
    -27.370  0.0000E+00  0.1200E+00
    -27.087  0.0000E+00  0.1200E+00
    -26.804  0.0000E+00  0.1200E+00
    -26.521  0.0000E+00  0.1200E+00
    -26.238  0.0000E+00  0.1200E+00
    -25.955  0.0000E+00  0.1200E+00
    -25.672  0.0000E+00  0.1200E+00
    -25.389  0.0000E+00  0.1200E+00
    -25.106  0.0000E+00  0.1200E+00
    -24.824  0.0000E+00  0.1200E+00
    -24.541  0.0000E+00  0.1200E+00
    -24.258  0.0000E+00  0.1200E+00
    -23.975  0.0000E+00  0.1200E+00
    -23.692  0.0000E+00  0.1200E+00
    -23.409  0.0000E+00  0.1200E+00
    -23.126  0.0000E+00  0.1200E+00
    -22.843  0.0000E+00  0.1200E+00
    -22.560  0.0000E+00  0.1200E+00
    -22.277  0.0000E+00  0.1200E+00
    -21.994  0.0000E+00  0.1200E+00
    -21.711  0.0000E+00  0.1200E+00
    -21.428  0.0000E+00  0.1200E+00
    -21.145  0.0000E+00  0.1200E+00
    -20.862  0.0000E+00  0.1200E+00
    -20.579  0.0000E+00  0.1200E+00
    -20.296  0.0000E+00  0.1200E+00
    -20.013  0.0000E+00  0.1200E+00
    -19.730  0.0000E+00  0.1200E+00
    -19.447  0.0000E+00  0.1200E+00
    -19.164  0.0000E+00  0.1200E+00
    -18.881  0.0000E+00  0.1200E+00
    -18.598  0.0000E+00  0.1200E+00
    -18.316  0.0000E+00  0.1200E+00
    -18.033  0.0000E+00  0.1200E+00
    -17.750  0.0000E+00  0.1200E+00
    -17.467  0.0000E+00  0.1200E+00
    -17.184  0.0000E+00  0.1200E+00
    -16.901  0.0000E+00  0.1200E+00
    -16.618  0.0000E+00  0.1200E+00
    -16.335  0.0000E+00  0.1200E+00
    -16.052  0.0000E+00  0.1200E+00
    -15.769  0.0000E+00  0.1200E+00
    -15.486  0.0000E+00  0.1200E+00
    -15.203  0.0000E+00  0.1200E+00
    -14.920  0.0000E+00  0.1200E+00
    -14.637  0.0000E+00  0.1200E+00
    -14.354  0.0000E+00  0.1200E+00
    -14.071  0.0000E+00  0.1200E+00
    -13.788  0.0000E+00  0.1200E+00
    -13.505  0.0000E+00  0.1200E+00
    -13.222  0.0000E+00  0.1200E+00
    -12.939  0.0000E+00  0.1200E+00
    -12.656  0.0000E+00  0.1200E+00
    -12.373  0.0000E+00  0.1200E+00
    -12.091  0.0000E+00  0.1200E+00
    -11.808  0.0000E+00  0.1200E+00
    -11.525  0.0000E+00  0.1200E+00
    -11.242  0.0000E+00  0.1200E+00
    -10.959  0.0000E+00  0.1200E+00
    -10.676  0.0000E+00  0.1200E+00
    -10.393  0.0000E+00  0.1200E+00
    -10.110  0.0000E+00  0.1200E+00
     -9.827  0.0000E+00  0.1200E+00
     -9.544  0.0000E+00  0.1200E+00
     -9.261  0.0000E+00  0.1200E+00
     -8.978  0.0000E+00  0.1200E+00
     -8.695  0.0000E+00  0.1200E+00
     -8.412  0.0000E+00  0.1200E+00
     -8.129  0.0000E+00  0.1200E+00
     -7.846  0.0000E+00  0.1200E+00
     -7.563  0.0000E+00  0.1200E+00
     -7.280  0.0000E+00  0.1200E+00
     -6.997  0.0000E+00  0.1200E+00
     -6.714  0.0000E+00  0.1200E+00
     -6.431  0.0000E+00  0.1200E+00
     -6.148  0.0000E+00  0.1200E+00
     -5.866  0.0000E+00  0.1200E+00
     -5.583  0.0000E+00  0.1200E+00
     -5.300  0.0000E+00  0.1200E+00
     -5.017  0.0000E+00  0.1200E+00
     -4.734  0.0000E+00  0.1200E+00
     -4.451  0.0000E+00  0.1200E+00
     -4.168  0.0000E+00  0.1200E+00
     -3.885  0.0000E+00  0.1200E+00
     -3.602  0.0000E+00  0.1200E+00
     -3.319  0.0000E+00  0.1200E+00
     -3.036  0.0000E+00  0.1200E+00
     -2.753  0.0000E+00  0.1200E+00
     -2.470  0.0000E+00  0.1200E+00
     -2.187  0.0000E+00  0.1200E+00
     -1.904  0.0000E+00  0.1200E+00
     -1.621  0.0000E+00  0.1200E+00
     -1.338  0.7266E-18  0.1200E+00
     -1.055  0.5614E-07  0.1200E+00
     -0.772  0.1215E-02  0.1203E+00
     -0.489  0.1402E-02  0.1207E+00
     -0.206  0.1199E-06  0.1207E+00
      0.077  0.0000E+00  0.1207E+00
      0.360  0.0000E+00  0.1207E+00
      0.642  0.0000E+00  0.1207E+00
      0.925  0.3173E-12  0.1207E+00
      1.208  0.7300E-04  0.1208E+00
      1.491  0.1437E-01  0.1248E+00
      1.774  0.1267E-02  0.1252E+00
      2.057  0.2001E-07  0.1252E+00
      2.340  0.6232E-02  0.1269E+00
      2.623  0.2554E-01  0.1342E+00
      2.906  0.4853E-02  0.1355E+00
      3.189  0.2925E-02  0.1364E+00
      3.472  0.2969E-01  0.1448E+00
      3.755  0.1460E-01  0.1489E+00
      4.038  0.1923E-01  0.1544E+00
      4.321  0.3814E-01  0.1651E+00
      4.604  0.2335E-01  0.1718E+00
      4.887  0.4579E-01  0.1847E+00
      5.170  0.4636E-01  0.1978E+00
      5.453  0.4144E-01  0.2096E+00
      5.736  0.2121E-01  0.2156E+00
      6.019  0.2641E-02  0.2163E+00
      6.302  0.6642E-01  0.2351E+00
      6.585  0.7666E-02  0.2373E+00
      6.867  0.1841E-01  0.2425E+00
      7.150  0.6976E-02  0.2444E+00
      7.433  0.2584E-01  0.2518E+00
      7.716  0.3694E-01  0.2622E+00
      7.999  0.2519E-01  0.2693E+00
      8.282  0.4562E-01  0.2822E+00
      8.565  0.9590E-01  0.3094E+00
      8.848  0.4755E-01  0.3228E+00
      9.131  0.4511E-03  0.3230E+00
      9.414  0.4585E-02  0.3243E+00
      9.697  0.2066E-01  0.3301E+00
      9.980  0.1403E-01  0.3341E+00
     10.263  0.5549E-06  0.3341E+00
     10.546  0.0000E+00  0.3341E+00
     10.829  0.1627E-11  0.3341E+00
     11.112  0.1724E-03  0.3341E+00
     11.395  0.1963E-01  0.3397E+00
     11.678  0.3944E-02  0.3408E+00
     11.961  0.4098E-01  0.3524E+00
     12.244  0.3343E-02  0.3533E+00
     12.527  0.2383E-08  0.3533E+00
     12.810  0.0000E+00  0.3533E+00
     13.093  0.0000E+00  0.3533E+00
     13.375  0.0000E+00  0.3533E+00
     13.658  0.0000E+00  0.3533E+00
     13.941  0.0000E+00  0.3533E+00
     14.224  0.0000E+00  0.3533E+00
     14.507  0.0000E+00  0.3533E+00
     14.790  0.0000E+00  0.3533E+00
     15.073  0.5225E-14  0.3533E+00
     15.356  0.1901E-04  0.3533E+00
     15.639  0.3152E-01  0.3623E+00
     15.922  0.1035E-01  0.3652E+00
     16.205  0.5847E-07  0.3652E+00
     16.488  0.2382E-07  0.3652E+00
     16.771  0.6587E-02  0.3670E+00
     17.054  0.2480E-01  0.3741E+00
     17.337  0.2203E-04  0.3741E+00
     17.620  0.1338E-02  0.3745E+00
     17.903  0.6506E-02  0.3763E+00
     18.186  0.4044E-03  0.3764E+00
     18.469  0.1998E-01  0.3821E+00
     18.752  0.5690E-03  0.3822E+00
     19.035  0.3255E-10  0.3822E+00
     19.318  0.0000E+00  0.3822E+00
     19.600  0.0000E+00  0.3822E+00
     19.883  0.0000E+00  0.3822E+00
     20.166  0.7392E-14  0.3822E+00
     20.449  0.1931E-04  0.3822E+00
     20.732  0.2446E-01  0.3891E+00
     21.015  0.7082E-02  0.3912E+00
     21.298  0.3773E-01  0.4018E+00
     21.581  0.4004E-02  0.4030E+00
     21.864  0.1211E-01  0.4064E+00
     22.147  0.1930E-01  0.4119E+00
     22.430  0.3247E-05  0.4119E+00
     22.713  0.0000E+00  0.4119E+00
     22.996  0.4982E-08  0.4119E+00
     23.279  0.3152E-02  0.4127E+00
     23.562  0.1776E-01  0.4178E+00
     23.845  0.3431E-04  0.4178E+00
     24.128  0.4061E-02  0.4189E+00
     24.411  0.3828E-01  0.4298E+00
     24.694  0.1935E-01  0.4352E+00
     24.977  0.2207E-01  0.4415E+00
     25.260  0.8213E-05  0.4415E+00
     25.543  0.1666E-06  0.4415E+00
     25.826  0.1079E-01  0.4445E+00
     26.108  0.3173E-01  0.4535E+00
     26.391  0.2028E-01  0.4593E+00
     26.674  0.2345E-04  0.4593E+00
     26.957  0.5405E-02  0.4608E+00
     27.240  0.1553E-01  0.4652E+00
     27.523  0.8391E-05  0.4652E+00
     27.806  0.0000E+00  0.4652E+00
     28.089  0.1046E-16  0.4652E+00
     28.372  0.7503E-06  0.4652E+00
     28.655  0.1490E-01  0.4694E+00
     28.938  0.1652E-01  0.4741E+00
     29.221  0.1296E-05  0.4741E+00
     29.504  0.3676E-09  0.4741E+00
     29.787  0.1237E-02  0.4744E+00
     30.070  0.2196E-01  0.4806E+00
     30.353  0.9077E-03  0.4809E+00
     30.636  0.3074E-01  0.4896E+00
     30.919  0.1473E-01  0.4938E+00
     31.202  0.1943E-01  0.4993E+00
     31.485  0.3388E-05  0.4993E+00
     31.768  0.0000E+00  0.4993E+00
     32.051  0.0000E+00  0.4993E+00
     32.333  0.0000E+00  0.4993E+00
     32.616  0.4839E-12  0.4993E+00
     32.899  0.1298E-03  0.4993E+00
     33.182  0.2856E-01  0.5074E+00
     33.465  0.2728E-02  0.5081E+00
     33.748  0.1292E-08  0.5081E+00
     34.031  0.7751E-13  0.5081E+00
     34.314  0.6730E-04  0.5082E+00
     34.597  0.3572E-01  0.5183E+00
     34.880  0.6110E-02  0.5200E+00
     35.163  0.2157E-01  0.5261E+00
     35.446  0.9842E-02  0.5289E+00
     35.729  0.2809E-02  0.5297E+00
     36.012  0.3307E-01  0.5390E+00
     36.295  0.1660E-01  0.5437E+00
     36.578  0.5010E-02  0.5452E+00
     36.861  0.1071E-03  0.5452E+00
     37.144  0.3884E-11  0.5452E+00
     37.427  0.8765E-13  0.5452E+00
     37.710  0.4151E-04  0.5452E+00
     37.993  0.1390E-01  0.5491E+00
     38.276  0.1770E-02  0.5496E+00
     38.558  0.1451E-08  0.5496E+00
     38.841  0.0000E+00  0.5496E+00
     39.124  0.1816E-10  0.5496E+00
     39.407  0.3813E-03  0.5497E+00
     39.690  0.1499E-01  0.5540E+00
     39.973  0.3334E-03  0.5541E+00
     40.256  0.5207E-09  0.5541E+00
     40.539  0.1525E-02  0.5545E+00
     40.822  0.1930E-01  0.5600E+00
     41.105  0.1139E-03  0.5600E+00
     41.388  0.6104E-12  0.5600E+00
     41.671  0.0000E+00  0.5600E+00
     41.954  0.0000E+00  0.5600E+00
     42.237  0.0000E+00  0.5600E+00
     42.520  0.0000E+00  0.5600E+00
     42.803  0.0000E+00  0.5600E+00
     43.086  0.0000E+00  0.5600E+00
     43.369  0.0000E+00  0.5600E+00
     43.652  0.0000E+00  0.5600E+00
     43.935  0.0000E+00  0.5600E+00
     44.218  0.0000E+00  0.5600E+00
     44.501  0.0000E+00  0.5600E+00
