 vasp.6.4.3 19Mar24 (build Sep 18 2024 11:30:23) complex                        
  
 executed on             LinuxIFC date 2026.07.07  16:45:32
 running   28 mpi-ranks, on    1 nodes
 distrk:  each k-point on   28 cores,    1 groups
 distr:  one band on NCORE=   1 cores,   28 groups


--------------------------------------------------------------------------------------------------------


 INCAR:
   SYSTEM = HECN
   ISTART = 0
   ICHARG = 2
   PREC = Normal
   LREAL = .F.
   IBRION = 2
   ISIF = 3
   NSW = 100
   POTIM = 0.5
   EDIFFG = -0.01
   ENCUT = 400
   NELM = 60
   EDIFF = 1E-5
   LCHARG = .F.
   LWAVE = .F.
   ISMEAR = 0
   SIGMA = 0.1
   ALGO = Fast

 POTCAR:   PAW_PBE Cr_pv 07Sep2000                
 -----------------------------------------------------------------------------
|                                                                             |
|           W    W    AA    RRRRR   N    N  II  N    N   GGGG   !!!           |
|           W    W   A  A   R    R  NN   N  II  NN   N  G    G  !!!           |
|           W    W  A    A  R    R  N N  N  II  N N  N  G       !!!           |
|           W WW W  AAAAAA  RRRRR   N  N N  II  N  N N  G  GGG   !            |
|           WW  WW  A    A  R   R   N   NN  II  N   NN  G    G                |
|           W    W  A    A  R    R  N    N  II  N    N   GGGG   !!!           |
|                                                                             |
|     For optimal performance we recommend to set                             |
|       NCORE = 2 up to number-of-cores-per-socket                            |
|     NCORE specifies how many cores store one orbital (NPAR=cpu/NCORE).      |
|     This setting can greatly improve the performance of VASP for DFT.       |
|     The default, NCORE=1 might be grossly inefficient on modern             |
|     multi-core architectures or massively parallel machines. Do your        |
|     own testing! More info at https://www.vasp.at/wiki/index.php/NCORE      |
|     Unfortunately you need to use the default for GW and RPA                |
|     calculations (for HF NCORE is supported but not extensively tested      |
|     yet).                                                                   |
|                                                                             |
 -----------------------------------------------------------------------------

 POTCAR:   PAW_PBE Cr_pv 07Sep2000                
   VRHFIN =Cr : p6d5s1                                                                              
   LEXCH  = PE                                                                                      
   EATOM  =  1647.5667 eV,  121.0927 Ry                                                             
                                                                                                    
   TITEL  = PAW_PBE Cr_pv 07Sep2000                                                                 
   LULTRA =        F    use ultrasoft PP ?                                                          
   IUNSCR =        1    unscreen: 0-lin 1-nonlin 2-no                                               
   RPACOR =    2.080    partial core radius                                                         
   POMASS =   51.996; ZVAL   =   12.000    mass and valenz                                          
   RCORE  =    2.300    outmost cutoff radius                                                       
   RWIGS  =    2.500; RWIGS  =    1.323    wigner-seitz radius (au A)                               
   ENMAX  =  265.683; ENMIN  =  199.262 eV                                                          
   RCLOC  =    1.721    cutoff for local pot                                                        
   LCOR   =        T    correct aug charges                                                         
   LPAW   =        T    paw PP                                                                      
   EAUG   =  519.424                                                                                
   DEXC   =    -.003                                                                                
   RMAX   =    2.829    core radius for proj-oper                                                   
   RAUG   =    1.300    factor for augmentation sphere                                              
   RDEP   =    2.447    radius for radial grids                                                     
   QCUT   =   -4.419; QGAM   =    8.838    optimization parameters                                  
                                                                                                    
   Description                                                                                      
     l     E      TYP  RCUT    TYP  RCUT                                                            
     1   .000     23  2.000                                                                         
     1   .100     23  2.000                                                                         
     2   .000     23  2.300                                                                         
     2   .000     23  2.300                                                                         
     0   .000     23  2.300                                                                         
     0   .000     23  2.300                                                                         
     3   .000      7   .000                                                                         
  local pseudopotential read in
  partial core-charges read in
  atomic valenz-charges read in
  non local Contribution for L=           1  read in
    real space projection operators read in
  non local Contribution for L=           1  read in
    real space projection operators read in
  non local Contribution for L=           2  read in
    real space projection operators read in
  non local Contribution for L=           2  read in
    real space projection operators read in
  non local Contribution for L=           0  read in
    real space projection operators read in
  non local Contribution for L=           0  read in
    real space projection operators read in
    PAW grid and wavefunctions read in
 
   number of l-projection  operators is LMAX  =           6
   number of lm-projection operators is LMMAX =          18
 
 PAW_PBE Cr_pv 07Sep2000                :
 energy of atom  1       EATOM=-1647.5667
 kinetic energy error for atom=    0.0284 (will be added to EATOM!!)
 
 
 POSCAR: Cr
  positions in direct lattice
  No initial velocities read in


 exchange-correlation table for PE
   RHO(1)=    0.500       N(1)  =     2000
   RHO(2)=  100.500       N(2)  =     4000
 


--------------------------------------------------------------------------------------------------------


 ion  position               nearest neighbor table
   1  0.000  0.000  0.000-   2 2.50   2 2.50   2 2.50   2 2.50   2 2.50   2 2.50   2 2.50   2 2.50

   2  0.500  0.500  0.500-   1 2.50   1 2.50   1 2.50   1 2.50   1 2.50   1 2.50   1 2.50   1 2.50

 
  LATTYP: Found a simple cubic cell.
 ALAT       =     2.8845999241
  
  Lattice vectors:
  
 A1 = (   2.8845999241,   0.0000000000,   0.0000000000)
 A2 = (   0.0000000000,   2.8845999241,   0.0000000000)
 A3 = (   0.0000000000,   0.0000000000,   2.8845999241)


Analysis of symmetry for initial positions (statically):
=====================================================================
 Subroutine PRICEL returns following result:
 
  LATTYP: Found a body centered cubic cell.
 ALAT       =     2.8845999241
  
  Lattice vectors:
  
 A1 = (   1.4422999621,   1.4422999621,  -1.4422999620)
 A2 = (  -1.4422999621,   1.4422999620,   1.4422999620)
 A3 = (   1.4422999621,  -1.4422999620,   1.4422999621)
 
   2 primitive cells build up your supercell.
 

 Routine SETGRP: Setting up the symmetry group for a 
 simple cubic supercell.


 Subroutine GETGRP returns: Found 48 space group operations
 (whereof 48 operations were pure point group operations)
 out of a pool of 48 trial point group operations.


The static configuration has the point symmetry O_h .


Analysis of symmetry for dynamics (positions and initial velocities):
=====================================================================
 Subroutine PRICEL returns following result:
 
  LATTYP: Found a body centered cubic cell.
 ALAT       =     2.8845999241
  
  Lattice vectors:
  
 A1 = (   1.4422999621,   1.4422999621,  -1.4422999620)
 A2 = (  -1.4422999621,   1.4422999620,   1.4422999620)
 A3 = (   1.4422999621,  -1.4422999620,   1.4422999621)
 
   2 primitive cells build up your supercell.
 

 Routine SETGRP: Setting up the symmetry group for a 
 simple cubic supercell.


 Subroutine GETGRP returns: Found 48 space group operations
 (whereof 48 operations were pure point group operations)
 out of a pool of 48 trial point group operations.


The dynamic configuration has the point symmetry O_h .


 Subroutine INISYM returns: Found 48 space group operations
 (whereof 48 operations are pure point group operations),
 and found     2 'primitive' translations


----------------------------------------------------------------------------------------

                                     Primitive cell                                     

  volume of cell :      12.0013

  direct lattice vectors                    reciprocal lattice vectors
     1.442299962  1.442299962 -1.442299962     0.346668525  0.346668525 -0.000000000
    -1.442299962  1.442299962  1.442299962    -0.000000000  0.346668525  0.346668525
     1.442299962 -1.442299962  1.442299962     0.346668525 -0.000000000  0.346668525

  length of vectors
     2.498136814  2.498136814  2.498136814     0.490263329  0.490263329  0.490263329

  position of ions in fractional coordinates (direct lattice)
     0.000000000  0.000000000  0.000000000

  ion indices of the primitive-cell ions
   primitive index   ion index
                 1           1

----------------------------------------------------------------------------------------

 
 
 KPOINTS: HECN                                    

Automatic generation of k-mesh.
 Grid dimensions read from file:
 generate k-points for:    3    3    3

 Generating k-lattice:

  Cartesian coordinates                     Fractional coordinates (reciprocal lattice)
     0.115556175  0.000000000  0.000000000     0.333333333  0.000000000  0.000000000
     0.000000000  0.115556175  0.000000000     0.000000000  0.333333333  0.000000000
     0.000000000  0.000000000  0.115556175     0.000000000  0.000000000  0.333333333

  Length of vectors
     0.115556175  0.115556175  0.115556175

  Shift w.r.t. Gamma in fractional coordinates (k-lattice)
     0.000000000  0.000000000  0.000000000

 
 Subroutine IBZKPT returns following result:
 ===========================================
 
 Found      4 irreducible k-points:
 
 Following reciprocal coordinates:
            Coordinates               Weight
  0.000000  0.000000  0.000000      1.000000
  0.333333  0.000000  0.000000      6.000000
  0.333333  0.333333  0.000000     12.000000
  0.333333  0.333333  0.333333      8.000000
 
 Following cartesian coordinates:
            Coordinates               Weight
  0.000000  0.000000  0.000000      1.000000
  0.115556  0.000000  0.000000      6.000000
  0.115556  0.115556  0.000000     12.000000
  0.115556  0.115556  0.115556      8.000000
 


--------------------------------------------------------------------------------------------------------




 Dimension of arrays:
   k-points           NKPTS =      4   k-points in BZ     NKDIM =      4   number of bands    NBANDS=     28
   number of dos      NEDOS =    301   number of ions     NIONS =      2
   non local maximal  LDIM  =      6   non local SUM 2l+1 LMDIM =     18
   total plane-waves  NPLWV =   2744
   max r-space proj   IRMAX =      1   max aug-charges    IRDMAX=   4177
   dimension x,y,z NGX =    14 NGY =   14 NGZ =   14
   dimension x,y,z NGXF=    28 NGYF=   28 NGZF=   28
   support grid    NGXF=    28 NGYF=   28 NGZF=   28
   ions per type =               2
   NGX,Y,Z   is equivalent  to a cutoff of   8.07,  8.07,  8.07 a.u.
   NGXF,Y,Z  is equivalent  to a cutoff of  16.14, 16.14, 16.14 a.u.

 SYSTEM =  HECN                                    
 POSCAR =  Cr                                      

 Startparameter for this run:
   NWRITE =      2    write-flag & timer
   PREC   = normal    normal or accurate (medium, high low for compatibility)
   ISTART =      0    job   : 0-new  1-cont  2-samecut
   ICHARG =      2    charge: 1-file 2-atom 10-const
   ISPIN  =      1    spin polarized calculation?
   LNONCOLLINEAR =      F non collinear calculations
   LSORBIT =      F    spin-orbit coupling
   INIWAV =      1    electr: 0-lowe 1-rand  2-diag
   LASPH  =      F    aspherical Exc in radial PAW
 Electronic Relaxation 1
   ENCUT  =  400.0 eV  29.40 Ry    5.42 a.u.   4.70  4.70  4.70*2*pi/ulx,y,z
   ENINI  =  400.0     initial cutoff
   ENAUG  =  519.4 eV  augmentation charge cutoff
   NELM   =     60;   NELMIN=  2; NELMDL= -5     # of ELM steps 
   EDIFF  = 0.1E-04   stopping-criterion for ELM
   LREAL  =      F    real-space projection
   NLSPLINE    = F    spline interpolate recip. space projectors
   LCOMPAT=      F    compatible to vasp.4.4
   GGA_COMPAT  = T    GGA compatible to vasp.4.4-vasp.4.6
   LMAXPAW     = -100 max onsite density
   LMAXMIX     =    2 max onsite mixed and CHGCAR
   VOSKOWN=      0    Vosko Wilk Nusair interpolation
   ROPT   =    0.00000
 Ionic relaxation
   EDIFFG = -.1E-01   stopping-criterion for IOM
   NSW    =    100    number of steps for IOM
   NBLOCK =      1;   KBLOCK =    100    inner block; outer block 
   IBRION =      2    ionic relax: 0-MD 1-quasi-New 2-CG
   NFREE  =      1    steps in history (QN), initial steepest desc. (CG)
   ISIF   =      3    stress and relaxation
   IWAVPR =     11    prediction:  0-non 1-charg 2-wave 3-comb
   ISYM   =      2    0-nonsym 1-usesym 2-fastsym
   LCORR  =      T    Harris-Foulkes like correction to forces

   POTIM  = 0.5000    time-step for ionic-motion
   TEIN   =    0.0    initial temperature
   TEBEG  =    0.0;   TEEND  =   0.0 temperature during run
   SMASS  =  -3.00    Nose mass-parameter (am)
   estimated Nose-frequenzy (Omega)   =  0.10E-29 period in steps = 0.13E+47 mass=  -0.190E-27a.u.
   SCALEE = 1.0000    scale energy and forces
   NPACO  =    256;   APACO  = 10.0  distance and # of slots for P.C.
   PSTRESS=    0.0 pullay stress

  Mass of Ions in am
   POMASS =  52.00
  Ionic Valenz
   ZVAL   =  12.00
  Atomic Wigner-Seitz radii
   RWIGS  =  -1.00
  virtual crystal weights 
   VCA    =   1.00
   NELECT =      24.0000    total number of electrons
   NUPDOWN=      -1.0000    fix difference up-down

 DOS related values:
   EMIN   =  10.00;   EMAX   =-10.00  energy-range for DOS
   EFERMI =   0.00;   METHOD = LEGACY      
   ISMEAR =     0;   SIGMA  =   0.10  broadening in eV -4-tet -1-fermi 0-gaus

 Electronic relaxation 2 (details)
   IALGO  =     68    algorithm
   LDIAG  =      T    sub-space diagonalisation (order eigenvalues)
   LSUBROT=      F    optimize rotation matrix (better conditioning)
   TURBO    =      0    0=normal 1=particle mesh
   IRESTART =      0    0=no restart 2=restart with 2 vectors
   NREBOOT  =      0    no. of reboots
   NMIN     =      0    reboot dimension
   EREF     =   0.00    reference energy to select bands
   IMIX   =      4    mixing-type and parameters
     AMIX     =   0.40;   BMIX     =  1.00
     AMIX_MAG =   1.60;   BMIX_MAG =  1.00
     AMIN     =   0.10
     WC   =   100.;   INIMIX=   1;  MIXPRE=   1;  MAXMIX= -45

 Intra band minimization:
   WEIMIN = 0.0010     energy-eigenvalue tresh-hold
   EBREAK =  0.89E-07  absolut break condition
   DEPER  =   0.30     relativ break condition  

   TIME   =   0.40     timestep for ELM

  volume/ion in A,a.u.               =      12.00        80.99
  Fermi-wavevector in a.u.,A,eV,Ry     =   1.637041  3.093560 36.462314  2.679904
  Thomas-Fermi vector in A             =   2.728247
 
 Write flags
   LWAVE        =      F    write WAVECAR
   LDOWNSAMPLE  =      F    k-point downsampling of WAVECAR
   LCHARG       =      F    write CHGCAR
   LVTOT        =      F    write LOCPOT, total local potential
   LVHAR        =      F    write LOCPOT, Hartree potential only
   WRT_POTENTIAL= false  ! write potential to hdf5 file
   LELF         =      F    write electronic localiz. function (ELF)
   LORBIT       =      0    0 simple, 1 ext, 2 COOP (PROOUT), +10 PAW based schemes


 Dipole corrections
   LMONO      =      F    monopole corrections only (constant potential shift)
   LDIPOL     =      F    correct potential (dipole corrections)
   IDIPOL     =      0    1-x, 2-y, 3-z, 4-all directions 
   EPSILON    =  1.0000000 bulk dielectric constant
   LVACPOTAV  =      F  vacuum potentials using an averaging scheme for the charge density
   VACPOTFLAT =  0.1000000 required flatness to determine vacuum potential
 Exchange correlation treatment:
   GGA     = PE    functional components
   XC_C    = 1    coefficients multiplying the functional components
   LIBXC   =     F    Libxc                    
   VOSKOWN =     0    Vosko Wilk Nusair interpolation
   LHFCALC =     F    Hartree Fock is set to
   LHFONE  =     F    Hartree Fock one center treatment
   AEXX    =    0.0000 exact exchange contribution

 Parameters of functionals:
   PE:
     No parameter
 
 Van der Waals corrections
   IVDW    =     0    specifies the selected vdW correction

 Linear response parameters
   LEPSILON=     F    determine dielectric tensor
   LRPA    =     F    only Hartree local field effects (RPA)
   LNABLA  =     F    use nabla operator in PAW spheres
   LVEL    =     F    velocity operator in full k-point grid
   CSHIFT  =0.1000    complex shift for real part using Kramers Kronig
   OMEGAMAX=  -1.0    maximum frequency
   DEG_THRESHOLD= 0.2000000E-02 threshold for treating states as degnerate
   RTIME   =   -0.100 relaxation time in fs
  (WPLASMAI=    0.000 imaginary part of plasma frequency in eV, 0.658/RTIME)
   DFIELD  = 0.0000000 0.0000000 0.0000000 field for delta impulse in time
 
  Optional k-point grid parameters
   LKPOINTS_OPT  =     F    use optional k-point grid
   KPOINTS_OPT_MODE=     1    mode for optional k-point grid
 
 Orbital magnetization related:
   ORBITALMAG=     F  switch on orbital magnetization
   LCHIMAG   =     F  perturbation theory with respect to B field
   DQ        =  0.001000  dq finite difference perturbation B field
   LLRAUG    =     F  two centre corrections for induced B field
   LBONE     =     F  B-component reconstruction in AE one-centre
   LVGVCALC  =     T  calculate vGv susceptibility
   LVGVAPPL  =     F  apply vGv susceptibility instead of pGv for G=0

 Random number generation:
   RANDOM_GENERATOR = DEFAULT
   PCG_SEED         = not used


--------------------------------------------------------------------------------------------------------


 conjugate gradient relaxation of ions
 charge density and potential will be updated during run
 non-spin polarized calculation
 RMM-DIIS sequential band-by-band and
  variant of blocked Davidson during initial phase
 perform sub-space diagonalisation
    before iterative eigenvector-optimisation
 modified Broyden-mixing scheme, WC =      100.0
 initial mixing is a Kerker type mixing with AMIX =  0.4000 and BMIX =      1.0000
 Hartree-type preconditioning will be used
 using additional bands           16
 reciprocal scheme for non local part
 use partial core corrections
 calculate Harris-corrections to forces 
   (improved forces if not selfconsistent)
 use gradient corrections 
 use of overlap-Matrix (Vanderbilt PP)
 Gauss-broadening in eV      SIGMA  =   0.10


--------------------------------------------------------------------------------------------------------


  energy-cutoff  :      400.00
  volume of cell :       24.00
      direct lattice vectors                 reciprocal lattice vectors
     2.884599924  0.000000000  0.000000000     0.346668525  0.000000000  0.000000000
     0.000000000  2.884599924  0.000000000     0.000000000  0.346668525  0.000000000
     0.000000000  0.000000000  2.884599924     0.000000000  0.000000000  0.346668525

  length of vectors
     2.884599924  2.884599924  2.884599924     0.346668525  0.346668525  0.346668525


 
 k-points in units of 2pi/SCALE and weight: HECN                                    
   0.00000000  0.00000000  0.00000000       0.037
   0.11555617  0.00000000  0.00000000       0.222
   0.11555617  0.11555617  0.00000000       0.444
   0.11555617  0.11555617  0.11555617       0.296
 
 k-points in reciprocal lattice and weights: HECN                                    
   0.00000000  0.00000000  0.00000000       0.037
   0.33333333  0.00000000  0.00000000       0.222
   0.33333333  0.33333333  0.00000000       0.444
   0.33333333  0.33333333  0.33333333       0.296
 
 position of ions in fractional coordinates (direct lattice) 
   0.00000000  0.00000000  0.00000000
   0.50000000  0.50000000  0.50000000
 
 position of ions in cartesian coordinates  (Angst):
   0.00000000  0.00000000  0.00000000
   1.44229996  1.44229996  1.44229996
 


--------------------------------------------------------------------------------------------------------


 k-point     1 :   0.0000 0.0000 0.0000  plane waves:     461
 k-point     2 :   0.3333 0.0000 0.0000  plane waves:     434
 k-point     3 :   0.3333 0.3333 0.0000  plane waves:     432
 k-point     4 :   0.3333 0.3333 0.3333  plane waves:     438

 maximum and minimum number of plane-waves per node :       461      432

 maximum number of plane-waves:       461
 maximum index in each direction: 
   IXMAX=    4   IYMAX=    4   IZMAX=    4
   IXMIN=   -5   IYMIN=   -5   IZMIN=   -5


 serial   3D FFT for wavefunctions
 parallel 3D FFT for charge:
    minimum data exchange during FFTs selected (reduces bandwidth)


 total amount of memory used by VASP MPI-rank0    30554. kBytes
=======================================================================

   base      :      30000. kBytes
   nonl-proj :        289. kBytes
   fftplans  :         48. kBytes
   grid      :        152. kBytes
   one-center:         31. kBytes
   wavefun   :         34. kBytes
 
     INWAV:  cpu time      0.0000: real time      0.0001
 Broyden mixing: mesh for mixing (old mesh)
   NGX =  9   NGY =  9   NGZ =  9
  (NGX  = 28   NGY  = 28   NGZ  = 28)
  gives a total of    729 points

 initial charge density was supplied:
 charge density of overlapping atoms calculated
 number of electron      24.0000000 magnetization 
 keeping initial charge density in first step


--------------------------------------------------------------------------------------------------------


 Maximum index for augmentation-charges          293 (set IRDMAX)


--------------------------------------------------------------------------------------------------------


 First call to EWALD:  gamma=   0.614
 Maximum number of real-space cells 3x 3x 3
 Maximum number of reciprocal cells 3x 3x 3

    FEWALD:  cpu time      0.0013: real time      0.0017


--------------------------------------- Ionic step        1  -------------------------------------------




--------------------------------------- Iteration      1(   1)  ---------------------------------------


    POTLOK:  cpu time      0.0073: real time      0.0161
    SETDIJ:  cpu time      0.0029: real time      0.0040
     EDDAV:  cpu time      0.0371: real time      0.0447
       DOS:  cpu time      0.0012: real time      0.0040
    --------------------------------------------
      LOOP:  cpu time      0.0486: real time      0.0691

 eigenvalue-minimisations  :   224
 total energy-change (2. order) : 0.2512320E+02  (-0.1464816E+04)
 number of electron      24.0000000 magnetization 
 augmentation part       24.0000000 magnetization 

 Free energy of the ion-electron system (eV)
  ---------------------------------------------------
  alpha Z        PSCENC =       263.48252105
  Ewald energy   TEWEN  =     -2616.03105683
  -Hartree energ DENC   =      -652.28868354
  -exchange      EXHF   =         0.00000000
  -V(xc)+E(xc)   XCENC  =       111.40270211
  PAW double counting   =      2352.04044707    -2448.59216350
  entropy T*S    EENTRO =        -0.00088309
  eigenvalues    EBANDS =      -279.96627461
  atomic energy  EATOM  =      3295.07659131
  Solvation  Ediel_sol  =         0.00000000
  ---------------------------------------------------
  free energy    TOTEN  =        25.12319996 eV

  energy without entropy =       25.12408305  energy(sigma->0) =       25.12364151


--------------------------------------------------------------------------------------------------------




--------------------------------------- Iteration      1(   2)  ---------------------------------------


     EDDAV:  cpu time      0.0405: real time      0.3545
       DOS:  cpu time      0.0003: real time      0.0003
    --------------------------------------------
      LOOP:  cpu time      0.0407: real time      0.3546

 eigenvalue-minimisations  :   252
 total energy-change (2. order) :-0.4754853E+02  (-0.4754662E+02)
 number of electron      24.0000000 magnetization 
 augmentation part       24.0000000 magnetization 

 Free energy of the ion-electron system (eV)
  ---------------------------------------------------
  alpha Z        PSCENC =       263.48252105
  Ewald energy   TEWEN  =     -2616.03105683
  -Hartree energ DENC   =      -652.28868354
  -exchange      EXHF   =         0.00000000
  -V(xc)+E(xc)   XCENC  =       111.40270211
  PAW double counting   =      2352.04044707    -2448.59216350
  entropy T*S    EENTRO =        -0.00000484
  eigenvalues    EBANDS =      -327.51567857
  atomic energy  EATOM  =      3295.07659131
  Solvation  Ediel_sol  =         0.00000000
  ---------------------------------------------------
  free energy    TOTEN  =       -22.42532575 eV

  energy without entropy =      -22.42532091  energy(sigma->0) =      -22.42532333


--------------------------------------------------------------------------------------------------------




--------------------------------------- Iteration      1(   3)  ---------------------------------------


     EDDAV:  cpu time      0.0231: real time      0.0233
       DOS:  cpu time      0.0003: real time      0.0003
    --------------------------------------------
      LOOP:  cpu time      0.0234: real time      0.0236

 eigenvalue-minimisations  :   224
 total energy-change (2. order) :-0.1165879E+00  (-0.1165879E+00)
 number of electron      24.0000000 magnetization 
 augmentation part       24.0000000 magnetization 

 Free energy of the ion-electron system (eV)
  ---------------------------------------------------
  alpha Z        PSCENC =       263.48252105
  Ewald energy   TEWEN  =     -2616.03105683
  -Hartree energ DENC   =      -652.28868354
  -exchange      EXHF   =         0.00000000
  -V(xc)+E(xc)   XCENC  =       111.40270211
  PAW double counting   =      2352.04044707    -2448.59216350
  entropy T*S    EENTRO =        -0.00000496
  eigenvalues    EBANDS =      -327.63226637
  atomic energy  EATOM  =      3295.07659131
  Solvation  Ediel_sol  =         0.00000000
  ---------------------------------------------------
  free energy    TOTEN  =       -22.54191366 eV

  energy without entropy =      -22.54190870  energy(sigma->0) =      -22.54191118


--------------------------------------------------------------------------------------------------------




--------------------------------------- Iteration      1(   4)  ---------------------------------------


     EDDAV:  cpu time      0.0634: real time      0.0642
       DOS:  cpu time      0.0003: real time      0.0003
    --------------------------------------------
      LOOP:  cpu time      0.0637: real time      0.0645

 eigenvalue-minimisations  :   420
 total energy-change (2. order) :-0.7624655E-03  (-0.7624650E-03)
 number of electron      24.0000000 magnetization 
 augmentation part       24.0000000 magnetization 

 Free energy of the ion-electron system (eV)
  ---------------------------------------------------
  alpha Z        PSCENC =       263.48252105
  Ewald energy   TEWEN  =     -2616.03105683
  -Hartree energ DENC   =      -652.28868354
  -exchange      EXHF   =         0.00000000
  -V(xc)+E(xc)   XCENC  =       111.40270211
  PAW double counting   =      2352.04044707    -2448.59216350
  entropy T*S    EENTRO =        -0.00000496
  eigenvalues    EBANDS =      -327.63302884
  atomic energy  EATOM  =      3295.07659131
  Solvation  Ediel_sol  =         0.00000000
  ---------------------------------------------------
  free energy    TOTEN  =       -22.54267613 eV

  energy without entropy =      -22.54267117  energy(sigma->0) =      -22.54267365


--------------------------------------------------------------------------------------------------------




--------------------------------------- Iteration      1(   5)  ---------------------------------------


     EDDAV:  cpu time      0.0237: real time      0.0245
       DOS:  cpu time      0.0004: real time      0.0004
    CHARGE:  cpu time      0.0020: real time      0.0070
    MIXING:  cpu time      0.0010: real time      0.0076
    --------------------------------------------
      LOOP:  cpu time      0.0272: real time      0.0396

 eigenvalue-minimisations  :   224
 total energy-change (2. order) :-0.2425531E-07  (-0.2430573E-07)
 number of electron      23.9999600 magnetization 
 augmentation part       10.8167147 magnetization 

 Broyden mixing:
  rms(total) = 0.11887E+01    rms(broyden)= 0.11877E+01
  rms(prec ) = 0.35964E+01
  weight for this iteration     100.00

 Free energy of the ion-electron system (eV)
  ---------------------------------------------------
  alpha Z        PSCENC =       263.48252105
  Ewald energy   TEWEN  =     -2616.03105683
  -Hartree energ DENC   =      -652.28868354
  -exchange      EXHF   =         0.00000000
  -V(xc)+E(xc)   XCENC  =       111.40270211
  PAW double counting   =      2352.04044707    -2448.59216350
  entropy T*S    EENTRO =        -0.00000496
  eigenvalues    EBANDS =      -327.63302886
  atomic energy  EATOM  =      3295.07659131
  Solvation  Ediel_sol  =         0.00000000
  ---------------------------------------------------
  free energy    TOTEN  =       -22.54267615 eV

  energy without entropy =      -22.54267119  energy(sigma->0) =      -22.54267367


--------------------------------------------------------------------------------------------------------




--------------------------------------- Iteration      1(   6)  ---------------------------------------


    POTLOK:  cpu time      0.0020: real time      0.0022
    SETDIJ:  cpu time      0.0014: real time      0.0014
    EDDIAG:  cpu time      0.0155: real time      0.0222
  RMM-DIIS:  cpu time      0.0014: real time      0.0044
    ORTHCH:  cpu time      0.0012: real time      0.0011
       DOS:  cpu time      0.0003: real time      0.0003
    CHARGE:  cpu time      0.0013: real time      0.0013
    MIXING:  cpu time      0.0006: real time      0.0014
    --------------------------------------------
      LOOP:  cpu time      0.0235: real time      0.0343

 eigenvalue-minimisations  :   238
 total energy-change (2. order) : 0.3356179E+01  (-0.3623868E+00)
 number of electron      23.9999550 magnetization 
 augmentation part       11.9020628 magnetization 

 Broyden mixing:
  rms(total) = 0.16592E+00    rms(broyden)= 0.16563E+00
  rms(prec ) = 0.33506E+00
  weight for this iteration     100.00

 eigenvalues of (default mixing * dielectric matrix)
  average eigenvalue GAMMA=   0.9699
  0.9699

 Free energy of the ion-electron system (eV)
  ---------------------------------------------------
  alpha Z        PSCENC =       263.48252105
  Ewald energy   TEWEN  =     -2616.03105683
  -Hartree energ DENC   =      -590.94718735
  -exchange      EXHF   =         0.00000000
  -V(xc)+E(xc)   XCENC  =       108.28042317
  PAW double counting   =      2321.08254106    -2415.16169254
  entropy T*S    EENTRO =        -0.00425025
  eigenvalues    EBANDS =      -384.96438638
  atomic energy  EATOM  =      3295.07659131
  Solvation  Ediel_sol  =         0.00000000
  ---------------------------------------------------
  free energy    TOTEN  =       -19.18649676 eV

  energy without entropy =      -19.18224651  energy(sigma->0) =      -19.18437163


--------------------------------------------------------------------------------------------------------




--------------------------------------- Iteration      1(   7)  ---------------------------------------


    POTLOK:  cpu time      0.0017: real time      0.0019
    SETDIJ:  cpu time      0.0013: real time      0.0012
    EDDIAG:  cpu time      0.0083: real time      0.0083
  RMM-DIIS:  cpu time      0.0009: real time      0.0009
    ORTHCH:  cpu time      0.0009: real time      0.0009
       DOS:  cpu time      0.0003: real time      0.0003
    CHARGE:  cpu time      0.0010: real time      0.0010
    MIXING:  cpu time      0.0002: real time      0.0002
    --------------------------------------------
      LOOP:  cpu time      0.0145: real time      0.0147

 eigenvalue-minimisations  :   250
 total energy-change (2. order) :-0.1544037E-01  (-0.3938356E-01)
 number of electron      23.9999555 magnetization 
 augmentation part       11.7907334 magnetization 

 Broyden mixing:
  rms(total) = 0.11158E+00    rms(broyden)= 0.11155E+00
  rms(prec ) = 0.31291E+00
  weight for this iteration     100.00

 eigenvalues of (default mixing * dielectric matrix)
  average eigenvalue GAMMA=   1.7714
  0.9059  2.6369

 Free energy of the ion-electron system (eV)
  ---------------------------------------------------
  alpha Z        PSCENC =       263.48252105
  Ewald energy   TEWEN  =     -2616.03105683
  -Hartree energ DENC   =      -590.53956889
  -exchange      EXHF   =         0.00000000
  -V(xc)+E(xc)   XCENC  =       108.28507146
  PAW double counting   =      2360.89440232    -2458.15891919
  entropy T*S    EENTRO =        -0.00464273
  eigenvalues    EBANDS =      -382.20633563
  atomic energy  EATOM  =      3295.07659131
  Solvation  Ediel_sol  =         0.00000000
  ---------------------------------------------------
  free energy    TOTEN  =       -19.20193713 eV

  energy without entropy =      -19.19729440  energy(sigma->0) =      -19.19961576


--------------------------------------------------------------------------------------------------------




--------------------------------------- Iteration      1(   8)  ---------------------------------------


    POTLOK:  cpu time      0.0015: real time      0.0015
    SETDIJ:  cpu time      0.0011: real time      0.0011
    EDDIAG:  cpu time      0.0076: real time      0.0076
  RMM-DIIS:  cpu time      0.0008: real time      0.0008
    ORTHCH:  cpu time      0.0009: real time      0.0009
       DOS:  cpu time      0.0002: real time      0.0002
    CHARGE:  cpu time      0.0009: real time      0.0009
    MIXING:  cpu time      0.0002: real time      0.0002
    --------------------------------------------
      LOOP:  cpu time      0.0132: real time      0.0132

 eigenvalue-minimisations  :   255
 total energy-change (2. order) : 0.2784703E-01  (-0.4613166E-02)
 number of electron      23.9999552 magnetization 
 augmentation part       11.8703911 magnetization 

 Broyden mixing:
  rms(total) = 0.47368E-01    rms(broyden)= 0.47343E-01
  rms(prec ) = 0.14296E+00
  weight for this iteration     100.00

 eigenvalues of (default mixing * dielectric matrix)
  average eigenvalue GAMMA=   1.3823
  2.5822  0.9473  0.6173

 Free energy of the ion-electron system (eV)
  ---------------------------------------------------
  alpha Z        PSCENC =       263.48252105
  Ewald energy   TEWEN  =     -2616.03105683
  -Hartree energ DENC   =      -580.78055010
  -exchange      EXHF   =         0.00000000
  -V(xc)+E(xc)   XCENC  =       107.83339943
  PAW double counting   =      2410.63003776    -2512.20788826
  entropy T*S    EENTRO =        -0.00772318
  eigenvalues    EBANDS =      -387.16942128
  atomic energy  EATOM  =      3295.07659131
  Solvation  Ediel_sol  =         0.00000000
  ---------------------------------------------------
  free energy    TOTEN  =       -19.17409010 eV

  energy without entropy =      -19.16636692  energy(sigma->0) =      -19.17022851


--------------------------------------------------------------------------------------------------------




--------------------------------------- Iteration      1(   9)  ---------------------------------------


    POTLOK:  cpu time      0.0015: real time      0.0020
    SETDIJ:  cpu time      0.0011: real time      0.0011
    EDDIAG:  cpu time      0.0073: real time      0.0073
  RMM-DIIS:  cpu time      0.0009: real time      0.0009
    ORTHCH:  cpu time      0.0009: real time      0.0009
       DOS:  cpu time      0.0004: real time      0.0004
    CHARGE:  cpu time      0.0009: real time      0.0009
    MIXING:  cpu time      0.0002: real time      0.0002
    --------------------------------------------
      LOOP:  cpu time      0.0132: real time      0.0136

 eigenvalue-minimisations  :   245
 total energy-change (2. order) : 0.4363264E-02  (-0.2992131E-03)
 number of electron      23.9999553 magnetization 
 augmentation part       11.8450957 magnetization 

 Broyden mixing:
  rms(total) = 0.19266E-01    rms(broyden)= 0.19265E-01
  rms(prec ) = 0.58559E-01
  weight for this iteration     100.00

 eigenvalues of (default mixing * dielectric matrix)
  average eigenvalue GAMMA=   1.5140
  2.4950  1.3621  1.3621  0.8366

 Free energy of the ion-electron system (eV)
  ---------------------------------------------------
  alpha Z        PSCENC =       263.48252105
  Ewald energy   TEWEN  =     -2616.03105683
  -Hartree energ DENC   =      -582.22836816
  -exchange      EXHF   =         0.00000000
  -V(xc)+E(xc)   XCENC  =       107.90549792
  PAW double counting   =      2412.24617608    -2513.80163621
  entropy T*S    EENTRO =        -0.00710583
  eigenvalues    EBANDS =      -385.81234618
  atomic energy  EATOM  =      3295.07659131
  Solvation  Ediel_sol  =         0.00000000
  ---------------------------------------------------
  free energy    TOTEN  =       -19.16972684 eV

  energy without entropy =      -19.16262101  energy(sigma->0) =      -19.16617392


--------------------------------------------------------------------------------------------------------




--------------------------------------- Iteration      1(  10)  ---------------------------------------


    POTLOK:  cpu time      0.0015: real time      0.0016
    SETDIJ:  cpu time      0.0011: real time      0.0011
    EDDIAG:  cpu time      0.0072: real time      0.0072
  RMM-DIIS:  cpu time      0.0009: real time      0.0009
    ORTHCH:  cpu time      0.0010: real time      0.0010
       DOS:  cpu time      0.0002: real time      0.0002
    CHARGE:  cpu time      0.0009: real time      0.0009
    MIXING:  cpu time      0.0002: real time      0.0002
    --------------------------------------------
      LOOP:  cpu time      0.0129: real time      0.0131

 eigenvalue-minimisations  :   245
 total energy-change (2. order) : 0.8357264E-03  (-0.1220139E-03)
 number of electron      23.9999554 magnetization 
 augmentation part       11.8319145 magnetization 

 Broyden mixing:
  rms(total) = 0.35151E-02    rms(broyden)= 0.35142E-02
  rms(prec ) = 0.99141E-02
  weight for this iteration     100.00

 eigenvalues of (default mixing * dielectric matrix)
  average eigenvalue GAMMA=   1.6111
  2.5995  2.5995  1.1297  0.8056  0.9210

 Free energy of the ion-electron system (eV)
  ---------------------------------------------------
  alpha Z        PSCENC =       263.48252105
  Ewald energy   TEWEN  =     -2616.03105683
  -Hartree energ DENC   =      -583.19517584
  -exchange      EXHF   =         0.00000000
  -V(xc)+E(xc)   XCENC  =       107.95279202
  PAW double counting   =      2415.79382472    -2517.20082189
  entropy T*S    EENTRO =        -0.00680675
  eigenvalues    EBANDS =      -385.04075890
  atomic energy  EATOM  =      3295.07659131
  Solvation  Ediel_sol  =         0.00000000
  ---------------------------------------------------
  free energy    TOTEN  =       -19.16889111 eV

  energy without entropy =      -19.16208436  energy(sigma->0) =      -19.16548774


--------------------------------------------------------------------------------------------------------




--------------------------------------- Iteration      1(  11)  ---------------------------------------


    POTLOK:  cpu time      0.0014: real time      0.0014
    SETDIJ:  cpu time      0.0011: real time      0.0011
    EDDIAG:  cpu time      0.0076: real time      0.0079
  RMM-DIIS:  cpu time      0.0009: real time      0.0009
    ORTHCH:  cpu time      0.0009: real time      0.0009
       DOS:  cpu time      0.0003: real time      0.0003
    CHARGE:  cpu time      0.0009: real time      0.0009
    MIXING:  cpu time      0.0002: real time      0.0002
    --------------------------------------------
      LOOP:  cpu time      0.0133: real time      0.0136

 eigenvalue-minimisations  :   250
 total energy-change (2. order) :-0.9016569E-05  (-0.4310886E-04)
 number of electron      23.9999554 magnetization 
 augmentation part       11.8299299 magnetization 

 Broyden mixing:
  rms(total) = 0.53681E-03    rms(broyden)= 0.53567E-03
  rms(prec ) = 0.14826E-02
  weight for this iteration     100.00

 eigenvalues of (default mixing * dielectric matrix)
  average eigenvalue GAMMA=   1.4258
  2.5754  2.5754  1.1526  0.8811  0.7595  0.6109

 Free energy of the ion-electron system (eV)
  ---------------------------------------------------
  alpha Z        PSCENC =       263.48252105
  Ewald energy   TEWEN  =     -2616.03105683
  -Hartree energ DENC   =      -583.37988446
  -exchange      EXHF   =         0.00000000
  -V(xc)+E(xc)   XCENC  =       107.96195047
  PAW double counting   =      2417.93608760    -2519.31643621
  entropy T*S    EENTRO =        -0.00676629
  eigenvalues    EBANDS =      -384.89190677
  atomic energy  EATOM  =      3295.07659131
  Solvation  Ediel_sol  =         0.00000000
  ---------------------------------------------------
  free energy    TOTEN  =       -19.16890013 eV

  energy without entropy =      -19.16213384  energy(sigma->0) =      -19.16551699


--------------------------------------------------------------------------------------------------------




--------------------------------------- Iteration      1(  12)  ---------------------------------------


    POTLOK:  cpu time      0.0015: real time      0.0017
    SETDIJ:  cpu time      0.0011: real time      0.0011
    EDDIAG:  cpu time      0.0075: real time      0.0075
  RMM-DIIS:  cpu time      0.0006: real time      0.0006
    ORTHCH:  cpu time      0.0009: real time      0.0009
       DOS:  cpu time      0.0002: real time      0.0002
    --------------------------------------------
      LOOP:  cpu time      0.0119: real time      0.0121

 eigenvalue-minimisations  :   187
 total energy-change (2. order) :-0.2609129E-05  (-0.3140666E-05)
 number of electron      23.9999554 magnetization 
 augmentation part       11.8299299 magnetization 

 Free energy of the ion-electron system (eV)
  ---------------------------------------------------
  alpha Z        PSCENC =       263.48252105
  Ewald energy   TEWEN  =     -2616.03105683
  -Hartree energ DENC   =      -583.38015512
  -exchange      EXHF   =         0.00000000
  -V(xc)+E(xc)   XCENC  =       107.96202094
  PAW double counting   =      2417.90091106    -2519.28482944
  entropy T*S    EENTRO =        -0.00676597
  eigenvalues    EBANDS =      -384.88813974
  atomic energy  EATOM  =      3295.07659131
  Solvation  Ediel_sol  =         0.00000000
  ---------------------------------------------------
  free energy    TOTEN  =       -19.16890274 eV

  energy without entropy =      -19.16213677  energy(sigma->0) =      -19.16551976


--------------------------------------------------------------------------------------------------------




 average (electrostatic) potential at core
  the test charge radii are     1.0025
  (the norm of the test charge is              1.0000)
       1 -46.2244       2 -46.2244
 
 
 
 E-fermi :   6.4354     XC(G=0): -13.4686     alpha+bet :-15.2663

 val. band max:        6.3208979856   @ k =   0.3333   0.0000   0.0000
 cond. band min:       6.5498058240   @ k =   0.3333   0.0000   0.0000
 fundamental gap:      0.2289078383
 Fermi energy:         6.4353519048

 k-point     1 :       0.0000    0.0000    0.0000
  band No.  band energies     occupation 
      1     -36.6161      2.00000
      2     -36.6161      2.00000
      3     -36.6161      2.00000
      4     -36.0543      2.00000
      5     -36.0543      2.00000
      6     -36.0543      2.00000
      7      -0.9724      2.00000
      8       2.5967      2.00000
      9       2.5967      2.00000
     10       5.8090      2.00000
     11       5.8090      2.00000
     12       5.8090      2.00000
     13       7.7396      0.00000
     14       7.7396      0.00000
     15       8.9798      0.00000
     16       8.9798      0.00000
     17       8.9798      0.00000
     18      17.0790      0.00000
     19      17.0790      0.00000
     20      17.0790      0.00000
     21      23.3532      0.00000
     22      23.3532      0.00000
     23      29.3328      0.00000
     24      29.3328      0.00000
     25      29.3328      0.00000
     26      29.3655      0.00000
     27      36.0131      0.00000
     28      36.0154      0.00000

 k-point     2 :       0.3333    0.0000    0.0000
  band No.  band energies     occupation 
      1     -36.5852      2.00000
      2     -36.4688      2.00000
      3     -36.4688      2.00000
      4     -36.3070      2.00000
      5     -36.1873      2.00000
      6     -36.1873      2.00000
      7       1.1377      2.00000
      8       3.3659      2.00000
      9       3.7493      2.00000
     10       5.8779      2.00000
     11       5.8779      2.00000
     12       6.3209      1.89447
     13       6.5498      0.10553
     14       7.1748      0.00000
     15       7.1748      0.00000
     16       8.1322      0.00000
     17       8.2681      0.00000
     18      11.2270      0.00000
     19      21.1604      0.00000
     20      21.1604      0.00000
     21      23.6702      0.00000
     22      25.3624      0.00000
     23      25.5316      0.00000
     24      27.8751      0.00000
     25      27.8781      0.00000
     26      29.1095      0.00000
     27      36.2765      0.00000
     28      36.7196      0.00000

 k-point     3 :       0.3333    0.3333    0.0000
  band No.  band energies     occupation 
      1     -36.8033      2.00000
      2     -36.6689      2.00000
      3     -36.3889      2.00000
      4     -36.2480      2.00000
      5     -36.2009      2.00000
      6     -36.0560      2.00000
      7       2.1812      2.00000
      8       3.1035      2.00000
      9       4.6865      2.00000
     10       5.0847      2.00000
     11       5.2217      2.00000
     12       5.8529      2.00000
     13       7.0665      0.00000
     14       7.5876      0.00000
     15       7.9347      0.00000
     16       8.3010      0.00000
     17       9.2548      0.00000
     18      11.3682      0.00000
     19      16.1553      0.00000
     20      19.9738      0.00000
     21      23.5712      0.00000
     22      24.0773      0.00000
     23      25.2427      0.00000
     24      29.6039      0.00000
     25      30.1836      0.00000
     26      32.4358      0.00000
     27      34.2359      0.00000
     28      35.0886      0.00000

 k-point     4 :       0.3333    0.3333    0.3333
  band No.  band energies     occupation 
      1     -36.6922      2.00000
      2     -36.6117      2.00000
      3     -36.6117      2.00000
      4     -36.2376      2.00000
      5     -36.2376      2.00000
      6     -36.1544      2.00000
      7       3.8352      2.00000
      8       3.9354      2.00000
      9       4.3744      2.00000
     10       4.3744      2.00000
     11       4.6613      2.00000
     12       4.6613      2.00000
     13       7.9258      0.00000
     14       7.9258      0.00000
     15       7.9931      0.00000
     16       7.9931      0.00000
     17      10.7866      0.00000
     18      14.9967      0.00000
     19      14.9967      0.00000
     20      17.6326      0.00000
     21      20.5447      0.00000
     22      20.5447      0.00000
     23      22.5202      0.00000
     24      26.1985      0.00000
     25      34.0525      0.00000
     26      34.0525      0.00000
     27      35.3297      0.00000
     28      40.1173      0.00000


--------------------------------------------------------------------------------------------------------


 soft charge-density along one line, spin component           1
         0         1         2         3         4         5         6         7         8         9
 total charge-density along one line
 
 pseudopotential strength for first ion, spin component:           1
-42.852  -0.000  -0.000  15.220   0.000   0.000   0.000  -0.000
 -0.000 -42.852  -0.000   0.000  15.220   0.000   0.000  -0.000
 -0.000  -0.000 -42.852   0.000   0.000  15.220  -0.000   0.000
 15.220   0.000   0.000   0.087  -0.000  -0.000   0.000   0.000
  0.000  15.220   0.000  -0.000   0.087  -0.000  -0.000   0.000
  0.000   0.000  15.220  -0.000  -0.000   0.087   0.000  -0.000
  0.000   0.000  -0.000   0.000  -0.000   0.000  -5.067  -0.000
 -0.000  -0.000   0.000   0.000   0.000  -0.000  -0.000  -5.067
  0.000  -0.000  -0.000  -0.000   0.000  -0.000   0.000   0.000
  0.000   0.000  -0.000  -0.000  -0.000   0.000  -0.000  -0.000
  0.000  -0.000   0.000  -0.000   0.000   0.000  -0.000   0.000
 -0.000  -0.000   0.000   0.000   0.000  -0.000  -0.563   0.000
  0.000   0.000  -0.000  -0.000  -0.000   0.000   0.000  -0.563
 -0.000   0.000   0.000   0.000  -0.000  -0.000  -0.000  -0.000
 -0.000  -0.000   0.000   0.000   0.000  -0.000   0.000   0.000
 -0.000   0.000  -0.000   0.000  -0.000   0.000   0.000  -0.000
  0.000   0.000  -0.000  -0.000  -0.000   0.000   0.000   0.000
 -0.000  -0.000   0.000   0.000   0.000  -0.000  -0.000  -0.000
 total augmentation occupancy for first ion, spin component:           1
  1.979   0.000   0.000  -0.005  -0.000  -0.000  -0.000   0.000  -0.000   0.000   0.000   0.000   0.000  -0.000   0.000   0.000
  0.000   1.979  -0.000  -0.000  -0.005   0.000   0.000   0.000  -0.000   0.000  -0.000  -0.000  -0.000   0.000   0.000   0.000
  0.000  -0.000   1.979  -0.000   0.000  -0.005   0.000   0.000   0.000   0.000  -0.000   0.000  -0.000   0.000  -0.000   0.000
 -0.005  -0.000  -0.000   0.213  -0.000  -0.000   0.000  -0.000   0.000   0.000   0.000   0.000  -0.000  -0.000   0.000   0.000
  0.000  -0.005   0.000  -0.000   0.213   0.000  -0.000   0.000   0.000  -0.000  -0.000  -0.000  -0.000  -0.000   0.000   0.000
 -0.000  -0.000  -0.005  -0.000   0.000   0.213   0.000  -0.000   0.000   0.000   0.000   0.000   0.000   0.000  -0.000  -0.000
 -0.000  -0.000   0.000   0.000   0.000   0.000   1.082  -0.000  -0.000   0.000  -0.000   0.304   0.000  -0.000   0.000   0.000
  0.000   0.000   0.000  -0.000   0.000   0.000  -0.000   1.082  -0.000   0.000  -0.000  -0.000   0.304   0.000   0.000   0.000
  0.000   0.000   0.000   0.000   0.000  -0.000   0.000  -0.000   0.828  -0.000   0.000   0.000   0.000   0.292  -0.000  -0.000
 -0.000   0.000   0.000   0.000  -0.000   0.000   0.000   0.000  -0.000   1.082   0.000  -0.000  -0.000   0.000   0.304  -0.000
 -0.000  -0.000   0.000  -0.000  -0.000  -0.000  -0.000  -0.000   0.000   0.000   0.828  -0.000  -0.000   0.000   0.000   0.292
  0.000   0.000   0.000   0.000   0.000   0.000   0.304  -0.000   0.000  -0.000  -0.000   0.146   0.000   0.000  -0.000   0.000
  0.000  -0.000  -0.000  -0.000  -0.000  -0.000   0.000   0.304   0.000   0.000  -0.000   0.000   0.146  -0.000  -0.000   0.000
  0.000   0.000  -0.000  -0.000   0.000   0.000  -0.000  -0.000   0.292   0.000  -0.000  -0.000   0.000   0.178  -0.000   0.000
 -0.000   0.000  -0.000  -0.000   0.000  -0.000   0.000   0.000   0.000   0.304   0.000  -0.000  -0.000  -0.000   0.146   0.000
 -0.000  -0.000   0.000   0.000  -0.000   0.000   0.000  -0.000   0.000   0.000   0.292   0.000   0.000   0.000   0.000   0.178
  0.000   0.000   0.000   0.000   0.000   0.000   0.000  -0.000  -0.000   0.000  -0.000   0.000   0.000  -0.000   0.000  -0.000
  0.000   0.000   0.000   0.000   0.000   0.000  -0.000  -0.000   0.000  -0.000   0.000  -0.000   0.000   0.000   0.000  -0.000


------------------------ aborting loop because EDIFF is reached ----------------------------------------


    CHARGE:  cpu time      0.0010: real time      0.0012
    FORLOC:  cpu time      0.0001: real time      0.0010
    FORNL :  cpu time      0.0012: real time      0.0033
    STRESS:  cpu time      0.0060: real time      0.0093
    FORCOR:  cpu time      0.0022: real time      0.0042
    FORHAR:  cpu time      0.0005: real time      0.0009
    MIXING:  cpu time      0.0005: real time      0.0005
    OFIELD:  cpu time      0.0001: real time      0.0006

  FORCE on cell =-STRESS in cart. coord.  units (eV):
  Direction    XX          YY          ZZ          XY          YZ          ZX
  --------------------------------------------------------------------------------------
  Alpha Z   263.48252   263.48252   263.48252
  Ewald    -872.01029  -872.01029  -872.01029    -0.00000    -0.00000     0.00000
  Hartree   194.48203   194.48203   194.48203    -0.00000    -0.00000    -0.00000
  E(xc)    -130.77388  -130.77388  -130.77388     0.00000     0.00000     0.00000
  Local     279.93800   279.93800   279.93800     0.00000     0.00000     0.00000
  n-local  -138.67926  -137.13106  -132.29363     2.41237     0.04892     0.04976
  augment   110.96262   110.96262   110.96262     0.00000     0.00000    -0.00000
  Kinetic   288.12081   285.98879   292.33656     5.08232    -0.50218    -0.50254
  Fock        0.00000     0.00000     0.00000     0.00000     0.00000     0.00000
  -------------------------------------------------------------------------------------
  Total      -1.13827    -1.13827    -1.13827    -0.00000    -0.00000     0.00000
  in kB     -75.97972   -75.97972   -75.97972    -0.00000    -0.00000     0.00000
  external pressure =      -75.98 kB  Pullay stress =        0.00 kB


 VOLUME and BASIS-vectors are now :
 -----------------------------------------------------------------------------
  energy-cutoff  :      400.00
  volume of cell :       24.00
      direct lattice vectors                 reciprocal lattice vectors
     2.884599924  0.000000000  0.000000000     0.346668525  0.000000000  0.000000000
     0.000000000  2.884599924  0.000000000     0.000000000  0.346668525  0.000000000
     0.000000000  0.000000000  2.884599924     0.000000000  0.000000000  0.346668525

  length of vectors
     2.884599924  2.884599924  2.884599924     0.346668525  0.346668525  0.346668525


 FORCES acting on ions
    electron-ion (+dipol)            ewald-force                    non-local-force                 convergence-correction
 -----------------------------------------------------------------------------------------------
   -.149E-13 0.786E-14 -.716E-13   -.939E-14 0.114E-14 -.300E-14   0.278E-21 0.273E-21 0.313E-21   -.162E-13 0.129E-13 -.482E-13
   0.325E-12 -.139E-11 0.502E-13   0.101E-13 -.171E-14 0.601E-14   0.272E-21 0.285E-21 0.223E-21   0.362E-13 0.110E-13 -.695E-13
 -----------------------------------------------------------------------------------------------
   0.310E-12 -.138E-11 -.214E-13   0.683E-15 -.562E-15 0.301E-14   0.551E-21 0.557E-21 0.535E-21   0.200E-13 0.239E-13 -.118E-12
 
 
 POSITION                                       TOTAL-FORCE (eV/Angst)
 -----------------------------------------------------------------------------------
      0.00000      0.00000      0.00000        -0.000000      0.000000     -0.000000
      1.44230      1.44230      1.44230         0.000000     -0.000000      0.000000
 -----------------------------------------------------------------------------------
    total drift:                                0.000000     -0.000000     -0.000000


--------------------------------------------------------------------------------------------------------



  FREE ENERGIE OF THE ION-ELECTRON SYSTEM (eV)
  ---------------------------------------------------
  free  energy   TOTEN  =       -19.16890274 eV

  energy  without entropy=      -19.16213677  energy(sigma->0) =      -19.16551976
 


--------------------------------------------------------------------------------------------------------


    POTLOK:  cpu time      0.0047: real time      0.0051


--------------------------------------------------------------------------------------------------------




--------------------------------------------------------------------------------------------------------


    WAVPRE:  cpu time      0.0031: real time      0.0091
    FEWALD:  cpu time      0.0001: real time      0.0006
    GENKIN:  cpu time      0.0002: real time      0.0002
    ORTHCH:  cpu time      0.0014: real time      0.0014
     LOOP+:  cpu time      0.3320: real time      0.7130


--------------------------------------- Ionic step        2  -------------------------------------------




--------------------------------------- Iteration      2(   1)  ---------------------------------------


    POTLOK:  cpu time      0.0014: real time      0.0015
    SETDIJ:  cpu time      0.0021: real time      0.0021
     EDDAV:  cpu time      0.0229: real time      0.0230
       DOS:  cpu time      0.0003: real time      0.0003
    CHARGE:  cpu time      0.0010: real time      0.0010
    MIXING:  cpu time      0.0001: real time      0.0001
    --------------------------------------------
      LOOP:  cpu time      0.0279: real time      0.0281

 eigenvalue-minimisations  :   224
 total energy-change (2. order) :-0.2510562E+01  (-0.6741698E+01)
 number of electron      24.0000118 magnetization 
 augmentation part       10.9774701 magnetization 

 Broyden mixing:
  rms(total) = 0.11255E+01    rms(broyden)= 0.11247E+01
  rms(prec ) = 0.29986E+01
  weight for this iteration     100.00

 Free energy of the ion-electron system (eV)
  ---------------------------------------------------
  alpha Z        PSCENC =       286.43408398
  Ewald energy   TEWEN  =     -2689.88589233
  -Hartree energ DENC   =      -599.86474948
  -exchange      EXHF   =         0.00000000
  -V(xc)+E(xc)   XCENC  =       111.26818601
  PAW double counting   =      2417.89876867    -2519.28226282
  entropy T*S    EENTRO =        -0.00000690
  eigenvalues    EBANDS =      -323.32418078
  atomic energy  EATOM  =      3295.07659131
  Solvation  Ediel_sol  =         0.00000000
  ---------------------------------------------------
  free energy    TOTEN  =       -21.67946234 eV

  energy without entropy =      -21.67945544  energy(sigma->0) =      -21.67945889


--------------------------------------------------------------------------------------------------------




--------------------------------------- Iteration      2(   2)  ---------------------------------------


    POTLOK:  cpu time      0.0016: real time      0.0018
    SETDIJ:  cpu time      0.0012: real time      0.0012
    EDDIAG:  cpu time      0.0077: real time      0.0077
  RMM-DIIS:  cpu time      0.0009: real time      0.0009
    ORTHCH:  cpu time      0.0009: real time      0.0009
       DOS:  cpu time      0.0002: real time      0.0002
    CHARGE:  cpu time      0.0009: real time      0.0009
    MIXING:  cpu time      0.0001: real time      0.0001
    --------------------------------------------
      LOOP:  cpu time      0.0136: real time      0.0138

 eigenvalue-minimisations  :   237
 total energy-change (2. order) : 0.2514537E+01  (-0.2364294E+00)
 number of electron      24.0000128 magnetization 
 augmentation part       11.8655937 magnetization 

 Broyden mixing:
  rms(total) = 0.18338E+00    rms(broyden)= 0.18316E+00
  rms(prec ) = 0.34848E+00
  weight for this iteration     100.00

 eigenvalues of (default mixing * dielectric matrix)
  average eigenvalue GAMMA=   1.0642
  1.0642

 Free energy of the ion-electron system (eV)
  ---------------------------------------------------
  alpha Z        PSCENC =       286.43408398
  Ewald energy   TEWEN  =     -2689.88589233
  -Hartree energ DENC   =      -552.90105192
  -exchange      EXHF   =         0.00000000
  -V(xc)+E(xc)   XCENC  =       108.82837507
  PAW double counting   =      2398.96448265    -2496.92165461
  entropy T*S    EENTRO =        -0.00320718
  eigenvalues    EBANDS =      -368.75665248
  atomic energy  EATOM  =      3295.07659131
  Solvation  Ediel_sol  =         0.00000000
  ---------------------------------------------------
  free energy    TOTEN  =       -19.16492550 eV

  energy without entropy =      -19.16171832  energy(sigma->0) =      -19.16332191


--------------------------------------------------------------------------------------------------------




--------------------------------------- Iteration      2(   3)  ---------------------------------------


    POTLOK:  cpu time      0.0016: real time      0.0016
    SETDIJ:  cpu time      0.0011: real time      0.0011
    EDDIAG:  cpu time      0.0070: real time      0.0070
  RMM-DIIS:  cpu time      0.0009: real time      0.0009
    ORTHCH:  cpu time      0.0009: real time      0.0009
       DOS:  cpu time      0.0002: real time      0.0002
    CHARGE:  cpu time      0.0009: real time      0.0009
    MIXING:  cpu time      0.0002: real time      0.0002
    --------------------------------------------
      LOOP:  cpu time      0.0128: real time      0.0129

 eigenvalue-minimisations  :   260
 total energy-change (2. order) : 0.1535883E-02  (-0.2900719E-01)
 number of electron      24.0000127 magnetization 
 augmentation part       11.8007380 magnetization 

 Broyden mixing:
  rms(total) = 0.12841E+00    rms(broyden)= 0.12840E+00
  rms(prec ) = 0.24788E+00
  weight for this iteration     100.00

 eigenvalues of (default mixing * dielectric matrix)
  average eigenvalue GAMMA=   1.7109
  0.9296  2.4921

 Free energy of the ion-electron system (eV)
  ---------------------------------------------------
  alpha Z        PSCENC =       286.43408398
  Ewald energy   TEWEN  =     -2689.88589233
  -Hartree energ DENC   =      -553.19795585
  -exchange      EXHF   =         0.00000000
  -V(xc)+E(xc)   XCENC  =       108.83360715
  PAW double counting   =      2429.28140060    -2529.08057070
  entropy T*S    EENTRO =        -0.00292183
  eigenvalues    EBANDS =      -366.62173194
  atomic energy  EATOM  =      3295.07659131
  Solvation  Ediel_sol  =         0.00000000
  ---------------------------------------------------
  free energy    TOTEN  =       -19.16338962 eV

  energy without entropy =      -19.16046778  energy(sigma->0) =      -19.16192870


--------------------------------------------------------------------------------------------------------




--------------------------------------- Iteration      2(   4)  ---------------------------------------


    POTLOK:  cpu time      0.0015: real time      0.0015
    SETDIJ:  cpu time      0.0011: real time      0.0011
    EDDIAG:  cpu time      0.0073: real time      0.0074
  RMM-DIIS:  cpu time      0.0009: real time      0.0009
    ORTHCH:  cpu time      0.0009: real time      0.0009
       DOS:  cpu time      0.0002: real time      0.0002
    CHARGE:  cpu time      0.0009: real time      0.0009
    MIXING:  cpu time      0.0002: real time      0.0002
    --------------------------------------------
      LOOP:  cpu time      0.0130: real time      0.0130

 eigenvalue-minimisations  :   254
 total energy-change (2. order) : 0.2697099E-01  (-0.2456518E-02)
 number of electron      24.0000128 magnetization 
 augmentation part       11.8576754 magnetization 

 Broyden mixing:
  rms(total) = 0.34574E-01    rms(broyden)= 0.34564E-01
  rms(prec ) = 0.10437E+00
  weight for this iteration     100.00

 eigenvalues of (default mixing * dielectric matrix)
  average eigenvalue GAMMA=   1.4611
  2.5638  1.0436  0.7757

 Free energy of the ion-electron system (eV)
  ---------------------------------------------------
  alpha Z        PSCENC =       286.43408398
  Ewald energy   TEWEN  =     -2689.88589233
  -Hartree energ DENC   =      -548.78767487
  -exchange      EXHF   =         0.00000000
  -V(xc)+E(xc)   XCENC  =       108.58900285
  PAW double counting   =      2467.97297704    -2570.12333484
  entropy T*S    EENTRO =        -0.00328280
  eigenvalues    EBANDS =      -368.40888897
  atomic energy  EATOM  =      3295.07659131
  Solvation  Ediel_sol  =         0.00000000
  ---------------------------------------------------
  free energy    TOTEN  =       -19.13641863 eV

  energy without entropy =      -19.13313582  energy(sigma->0) =      -19.13477723


--------------------------------------------------------------------------------------------------------




--------------------------------------- Iteration      2(   5)  ---------------------------------------


    POTLOK:  cpu time      0.0015: real time      0.0015
    SETDIJ:  cpu time      0.0014: real time      0.0014
    EDDIAG:  cpu time      0.0074: real time      0.0074
  RMM-DIIS:  cpu time      0.0008: real time      0.0008
    ORTHCH:  cpu time      0.0009: real time      0.0009
       DOS:  cpu time      0.0002: real time      0.0002
    CHARGE:  cpu time      0.0009: real time      0.0009
    MIXING:  cpu time      0.0002: real time      0.0002
    --------------------------------------------
      LOOP:  cpu time      0.0133: real time      0.0133

 eigenvalue-minimisations  :   241
 total energy-change (2. order) : 0.2513304E-02  (-0.4618296E-03)
 number of electron      24.0000128 magnetization 
 augmentation part       11.8272581 magnetization 

 Broyden mixing:
  rms(total) = 0.37376E-02    rms(broyden)= 0.37290E-02
  rms(prec ) = 0.56401E-02
  weight for this iteration     100.00

 eigenvalues of (default mixing * dielectric matrix)
  average eigenvalue GAMMA=   1.8354
  2.8992  2.4866  1.1198  0.8359

 Free energy of the ion-electron system (eV)
  ---------------------------------------------------
  alpha Z        PSCENC =       286.43408398
  Ewald energy   TEWEN  =     -2689.88589233
  -Hartree energ DENC   =      -550.43175954
  -exchange      EXHF   =         0.00000000
  -V(xc)+E(xc)   XCENC  =       108.67293358
  PAW double counting   =      2473.47982584    -2575.78847564
  entropy T*S    EENTRO =        -0.00289077
  eigenvalues    EBANDS =      -366.68832176
  atomic energy  EATOM  =      3295.07659131
  Solvation  Ediel_sol  =         0.00000000
  ---------------------------------------------------
  free energy    TOTEN  =       -19.13390532 eV

  energy without entropy =      -19.13101455  energy(sigma->0) =      -19.13245994


--------------------------------------------------------------------------------------------------------




--------------------------------------- Iteration      2(   6)  ---------------------------------------


    POTLOK:  cpu time      0.0014: real time      0.0016
    SETDIJ:  cpu time      0.0011: real time      0.0011
    EDDIAG:  cpu time      0.0069: real time      0.0069
  RMM-DIIS:  cpu time      0.0009: real time      0.0009
    ORTHCH:  cpu time      0.0009: real time      0.0009
       DOS:  cpu time      0.0002: real time      0.0002
    CHARGE:  cpu time      0.0010: real time      0.0010
    MIXING:  cpu time      0.0002: real time      0.0002
    --------------------------------------------
      LOOP:  cpu time      0.0126: real time      0.0128

 eigenvalue-minimisations  :   248
 total energy-change (2. order) : 0.7384100E-04  (-0.7045789E-04)
 number of electron      24.0000128 magnetization 
 augmentation part       11.8288816 magnetization 

 Broyden mixing:
  rms(total) = 0.72225E-03    rms(broyden)= 0.71984E-03
  rms(prec ) = 0.18510E-02
  weight for this iteration     100.00

 eigenvalues of (default mixing * dielectric matrix)
  average eigenvalue GAMMA=   1.6395
  2.7715  2.5203  1.1289  0.9445  0.8323

 Free energy of the ion-electron system (eV)
  ---------------------------------------------------
  alpha Z        PSCENC =       286.43408398
  Ewald energy   TEWEN  =     -2689.88589233
  -Hartree energ DENC   =      -550.74394587
  -exchange      EXHF   =         0.00000000
  -V(xc)+E(xc)   XCENC  =       108.68777342
  PAW double counting   =      2474.95976260    -2576.97646503
  entropy T*S    EENTRO =        -0.00286099
  eigenvalues    EBANDS =      -366.68287858
  atomic energy  EATOM  =      3295.07659131
  Solvation  Ediel_sol  =         0.00000000
  ---------------------------------------------------
  free energy    TOTEN  =       -19.13383148 eV

  energy without entropy =      -19.13097049  energy(sigma->0) =      -19.13240099


--------------------------------------------------------------------------------------------------------




--------------------------------------- Iteration      2(   7)  ---------------------------------------


    POTLOK:  cpu time      0.0015: real time      0.0016
    SETDIJ:  cpu time      0.0013: real time      0.0013
    EDDIAG:  cpu time      0.0072: real time      0.0072
  RMM-DIIS:  cpu time      0.0008: real time      0.0007
    ORTHCH:  cpu time      0.0009: real time      0.0009
       DOS:  cpu time      0.0002: real time      0.0002
    --------------------------------------------
      LOOP:  cpu time      0.0119: real time      0.0120

 eigenvalue-minimisations  :   195
 total energy-change (2. order) :-0.5129505E-06  (-0.6949249E-05)
 number of electron      24.0000128 magnetization 
 augmentation part       11.8288816 magnetization 

 Free energy of the ion-electron system (eV)
  ---------------------------------------------------
  alpha Z        PSCENC =       286.43408398
  Ewald energy   TEWEN  =     -2689.88589233
  -Hartree energ DENC   =      -550.74044486
  -exchange      EXHF   =         0.00000000
  -V(xc)+E(xc)   XCENC  =       108.68753171
  PAW double counting   =      2474.87918229    -2576.86203651
  entropy T*S    EENTRO =        -0.00286647
  eigenvalues    EBANDS =      -366.71998111
  atomic energy  EATOM  =      3295.07659131
  Solvation  Ediel_sol  =         0.00000000
  ---------------------------------------------------
  free energy    TOTEN  =       -19.13383199 eV

  energy without entropy =      -19.13096553  energy(sigma->0) =      -19.13239876


--------------------------------------------------------------------------------------------------------




 average (electrostatic) potential at core
  the test charge radii are     1.0025
  (the norm of the test charge is              1.0000)
       1 -45.3287       2 -45.3287
 
 
 
 E-fermi :   7.2354     XC(G=0): -13.9564     alpha+bet :-16.5962

 val. band max:        7.0881152620   @ k =   0.3333   0.0000   0.0000
 cond. band min:       7.3826518165   @ k =   0.3333   0.0000   0.0000
 fundamental gap:      0.2945365545
 Fermi energy:         7.2353835393

 k-point     1 :       0.0000    0.0000    0.0000
  band No.  band energies     occupation 
      1     -35.8130      2.00000
      2     -35.8130      2.00000
      3     -35.8130      2.00000
      4     -35.0922      2.00000
      5     -35.0922      2.00000
      6     -35.0922      2.00000
      7      -0.3954      2.00000
      8       2.9410      2.00000
      9       2.9410      2.00000
     10       6.5572      2.00000
     11       6.5572      2.00000
     12       6.5572      2.00000
     13       8.7112      0.00000
     14       8.7112      0.00000
     15      10.1204      0.00000
     16      10.1204      0.00000
     17      10.1204      0.00000
     18      18.7407      0.00000
     19      18.7407      0.00000
     20      18.7407      0.00000
     21      25.3205      0.00000
     22      25.3205      0.00000
     23      30.9783      0.00000
     24      30.9783      0.00000
     25      30.9783      0.00000
     26      32.2284      0.00000
     27      37.9395      0.00000
     28      37.9396      0.00000

 k-point     2 :       0.3333    0.0000    0.0000
  band No.  band energies     occupation 
      1     -35.7821      2.00000
      2     -35.6243      2.00000
      3     -35.6243      2.00000
      4     -35.4259      2.00000
      5     -35.2633      2.00000
      6     -35.2633      2.00000
      7       1.8452      2.00000
      8       3.9215      2.00000
      9       4.2108      2.00000
     10       6.6353      2.00000
     11       6.6353      2.00000
     12       7.0881      1.96272
     13       7.3827      0.03728
     14       8.0943      0.00000
     15       8.0943      0.00000
     16       9.1600      0.00000
     17       9.3292      0.00000
     18      12.6437      0.00000
     19      23.1360      0.00000
     20      23.1360      0.00000
     21      25.5754      0.00000
     22      27.2943      0.00000
     23      27.3524      0.00000
     24      29.9973      0.00000
     25      30.0087      0.00000
     26      31.2206      0.00000
     27      38.9609      0.00000
     28      39.3610      0.00000

 k-point     3 :       0.3333    0.3333    0.0000
  band No.  band energies     occupation 
      1     -36.0645      2.00000
      2     -35.8931      2.00000
      3     -35.5210      2.00000
      4     -35.3402      2.00000
      5     -35.2834      2.00000
      6     -35.0966      2.00000
      7       2.7773      2.00000
      8       3.5880      2.00000
      9       5.2922      2.00000
     10       5.8021      2.00000
     11       5.8968      2.00000
     12       6.7231      2.00000
     13       7.9642      0.00000
     14       8.5522      0.00000
     15       8.9382      0.00000
     16       9.3577      0.00000
     17      10.4325      0.00000
     18      12.7494      0.00000
     19      17.9915      0.00000
     20      21.8907      0.00000
     21      25.6802      0.00000
     22      25.8489      0.00000
     23      26.8950      0.00000
     24      32.1535      0.00000
     25      32.3524      0.00000
     26      34.4878      0.00000
     27      36.7723      0.00000
     28      37.4529      0.00000

 k-point     4 :       0.3333    0.3333    0.3333
  band No.  band energies     occupation 
      1     -35.9222      2.00000
      2     -35.8170      2.00000
      3     -35.8170      2.00000
      4     -35.3323      2.00000
      5     -35.3323      2.00000
      6     -35.2223      2.00000
      7       4.4886      2.00000
      8       4.6069      2.00000
      9       4.9689      2.00000
     10       4.9689      2.00000
     11       5.3374      2.00000
     12       5.3374      2.00000
     13       8.9321      0.00000
     14       8.9321      0.00000
     15       9.0118      0.00000
     16       9.0118      0.00000
     17      12.1375      0.00000
     18      16.6194      0.00000
     19      16.6194      0.00000
     20      19.5390      0.00000
     21      22.3431      0.00000
     22      22.3431      0.00000
     23      24.7894      0.00000
     24      28.3902      0.00000
     25      35.9713      0.00000
     26      35.9713      0.00000
     27      37.3202      0.00000
     28      42.2648      0.00000


--------------------------------------------------------------------------------------------------------


 soft charge-density along one line, spin component           1
         0         1         2         3         4         5         6         7         8         9
 total charge-density along one line
 
 pseudopotential strength for first ion, spin component:           1
-42.307   0.000  -0.000  14.841  -0.000   0.000   0.000  -0.000
  0.000 -42.307  -0.000  -0.000  14.841   0.000  -0.000  -0.000
 -0.000  -0.000 -42.307   0.000   0.000  14.841  -0.000  -0.000
 14.841  -0.000   0.000   0.303   0.000  -0.000  -0.000   0.000
 -0.000  14.841   0.000   0.000   0.303  -0.000   0.000   0.000
  0.000   0.000  14.841  -0.000  -0.000   0.303   0.000   0.000
  0.000  -0.000  -0.000  -0.000   0.000   0.000  -4.606   0.000
 -0.000  -0.000  -0.000   0.000   0.000   0.000   0.000  -4.606
  0.000  -0.000  -0.000  -0.000   0.000   0.000   0.000   0.000
 -0.000   0.000  -0.000   0.000  -0.000   0.000   0.000  -0.000
  0.000  -0.000   0.000  -0.000   0.000  -0.000   0.000  -0.000
 -0.000   0.000   0.000   0.000  -0.000  -0.000  -0.651  -0.000
  0.000   0.000   0.000  -0.000  -0.000  -0.000  -0.000  -0.651
 -0.000   0.000   0.000   0.000  -0.000  -0.000  -0.000  -0.000
  0.000  -0.000   0.000  -0.000   0.000  -0.000  -0.000   0.000
 -0.000   0.000  -0.000   0.000  -0.000   0.000  -0.000   0.000
  0.000   0.000  -0.000  -0.000  -0.000   0.000   0.000  -0.000
 -0.000  -0.000   0.000   0.000   0.000  -0.000  -0.000   0.000
 total augmentation occupancy for first ion, spin component:           1
  1.982  -0.000  -0.000   0.004  -0.000  -0.000   0.000   0.000  -0.000   0.000   0.000  -0.000   0.000   0.000   0.000   0.000
 -0.000   1.982  -0.000  -0.000   0.004  -0.000  -0.000   0.000   0.000   0.000  -0.000   0.000  -0.000   0.000   0.000   0.000
 -0.000  -0.000   1.982  -0.000   0.000   0.004  -0.000   0.000  -0.000   0.000   0.000   0.000   0.000   0.000  -0.000   0.000
  0.004  -0.000  -0.000   0.242  -0.000  -0.000  -0.000  -0.000  -0.000   0.000  -0.000   0.000  -0.000   0.000   0.000  -0.000
 -0.000   0.004   0.000  -0.000   0.242  -0.000  -0.000  -0.000  -0.000   0.000   0.000   0.000   0.000  -0.000  -0.000  -0.000
 -0.000   0.000   0.004  -0.000  -0.000   0.242  -0.000  -0.000   0.000  -0.000  -0.000  -0.000   0.000   0.000   0.000   0.000
  0.000  -0.000  -0.000  -0.000  -0.000  -0.000   1.104  -0.000   0.000  -0.000  -0.000   0.388  -0.000   0.000  -0.000   0.000
  0.000   0.000   0.000  -0.000  -0.000  -0.000  -0.000   1.104  -0.000  -0.000   0.000  -0.000   0.388  -0.000  -0.000   0.000
  0.000   0.000   0.000   0.000   0.000   0.000   0.000  -0.000   0.863  -0.000  -0.000   0.000  -0.000   0.368  -0.000  -0.000
  0.000   0.000   0.000  -0.000   0.000  -0.000  -0.000  -0.000  -0.000   1.104  -0.000  -0.000  -0.000   0.000   0.388  -0.000
 -0.000   0.000   0.000  -0.000   0.000   0.000  -0.000   0.000  -0.000  -0.000   0.863  -0.000   0.000  -0.000  -0.000   0.368
 -0.000   0.000   0.000   0.000   0.000  -0.000   0.388   0.000   0.000  -0.000  -0.000   0.208  -0.000   0.000  -0.000   0.000
  0.000  -0.000   0.000  -0.000   0.000  -0.000   0.000   0.388  -0.000  -0.000   0.000  -0.000   0.208  -0.000  -0.000   0.000
  0.000   0.000  -0.000  -0.000   0.000   0.000   0.000  -0.000   0.368   0.000  -0.000   0.000  -0.000   0.248  -0.000  -0.000
  0.000   0.000  -0.000  -0.000  -0.000   0.000  -0.000  -0.000   0.000   0.388  -0.000  -0.000  -0.000  -0.000   0.208  -0.000
  0.000   0.000   0.000  -0.000   0.000   0.000   0.000  -0.000  -0.000  -0.000   0.368   0.000   0.000   0.000  -0.000   0.248
  0.000   0.000   0.000   0.000   0.000   0.000  -0.000  -0.000   0.000   0.000   0.000  -0.000  -0.000  -0.000   0.000   0.000
  0.000   0.000   0.000   0.000   0.000   0.000  -0.000   0.000   0.000  -0.000   0.000   0.000   0.000   0.000  -0.000   0.000


------------------------ aborting loop because EDIFF is reached ----------------------------------------


    CHARGE:  cpu time      0.0009: real time      0.0009
    FORLOC:  cpu time      0.0000: real time      0.0000
    FORNL :  cpu time      0.0007: real time      0.0007
    STRESS:  cpu time      0.0041: real time      0.0041
    FORCOR:  cpu time      0.0007: real time      0.0007
    FORHAR:  cpu time      0.0002: real time      0.0002
[...]




--------------------------------------- Iteration      3(   6)  ---------------------------------------


    POTLOK:  cpu time      0.0015: real time      0.0016
    SETDIJ:  cpu time      0.0011: real time      0.0011
    EDDIAG:  cpu time      0.0068: real time      0.0069
  RMM-DIIS:  cpu time      0.0008: real time      0.0008
    ORTHCH:  cpu time      0.0010: real time      0.0010
       DOS:  cpu time      0.0002: real time      0.0002
    CHARGE:  cpu time      0.0009: real time      0.0009
    MIXING:  cpu time      0.0002: real time      0.0002
    --------------------------------------------
      LOOP:  cpu time      0.0126: real time      0.0128

 eigenvalue-minimisations  :   235
 total energy-change (2. order) : 0.5891417E-04  (-0.1355667E-04)
 number of electron      23.9999701 magnetization 
 augmentation part       11.8317793 magnetization 

 Broyden mixing:
  rms(total) = 0.34510E-02    rms(broyden)= 0.34507E-02
  rms(prec ) = 0.99487E-02
  weight for this iteration     100.00

 eigenvalues of (default mixing * dielectric matrix)
  average eigenvalue GAMMA=   1.5968
  2.6865  2.3647  0.8210  0.9737  1.1379

 Free energy of the ion-electron system (eV)
  ---------------------------------------------------
  alpha Z        PSCENC =       271.88771733
  Ewald energy   TEWEN  =     -2643.55786796
  -Hartree energ DENC   =      -570.85996436
  -exchange      EXHF   =         0.00000000
  -V(xc)+E(xc)   XCENC  =       108.21700337
  PAW double counting   =      2437.78566615    -2539.39473650
  entropy T*S    EENTRO =        -0.00516720
  eigenvalues    EBANDS =      -378.33734377
  atomic energy  EATOM  =      3295.07659131
  Solvation  Ediel_sol  =         0.00000000
  ---------------------------------------------------
  free energy    TOTEN  =       -19.18810162 eV

  energy without entropy =      -19.18293442  energy(sigma->0) =      -19.18551802


--------------------------------------------------------------------------------------------------------




--------------------------------------- Iteration      3(   7)  ---------------------------------------


    POTLOK:  cpu time      0.0015: real time      0.0017
    SETDIJ:  cpu time      0.0012: real time      0.0012
    EDDIAG:  cpu time      0.0069: real time      0.0069
  RMM-DIIS:  cpu time      0.0007: real time      0.0007
    ORTHCH:  cpu time      0.0009: real time      0.0009
       DOS:  cpu time      0.0002: real time      0.0002
    CHARGE:  cpu time      0.0009: real time      0.0009
    MIXING:  cpu time      0.0002: real time      0.0002
    --------------------------------------------
      LOOP:  cpu time      0.0125: real time      0.0127

 eigenvalue-minimisations  :   184
 total energy-change (2. order) : 0.2663438E-04  (-0.2000399E-05)
 number of electron      23.9999701 magnetization 
 augmentation part       11.8287838 magnetization 

 Broyden mixing:
  rms(total) = 0.18735E-03    rms(broyden)= 0.18731E-03
  rms(prec ) = 0.48776E-03
  weight for this iteration     100.00

 eigenvalues of (default mixing * dielectric matrix)
  average eigenvalue GAMMA=   1.4004
  2.6835  2.3501  0.8199  0.9697  1.1962  0.3831

 Free energy of the ion-electron system (eV)
  ---------------------------------------------------
  alpha Z        PSCENC =       271.88771733
  Ewald energy   TEWEN  =     -2643.55786796
  -Hartree energ DENC   =      -571.03563597
  -exchange      EXHF   =         0.00000000
  -V(xc)+E(xc)   XCENC  =       108.22595886
  PAW double counting   =      2438.06022580    -2539.65075360
  entropy T*S    EENTRO =        -0.00511751
  eigenvalues    EBANDS =      -378.18919326
  atomic energy  EATOM  =      3295.07659131
  Solvation  Ediel_sol  =         0.00000000
  ---------------------------------------------------
  free energy    TOTEN  =       -19.18807498 eV

  energy without entropy =      -19.18295747  energy(sigma->0) =      -19.18551623


--------------------------------------------------------------------------------------------------------




--------------------------------------- Iteration      3(   8)  ---------------------------------------


    POTLOK:  cpu time      0.0014: real time      0.0016
    SETDIJ:  cpu time      0.0011: real time      0.0011
    EDDIAG:  cpu time      0.0070: real time      0.0070
  RMM-DIIS:  cpu time      0.0006: real time      0.0006
    ORTHCH:  cpu time      0.0009: real time      0.0009
       DOS:  cpu time      0.0002: real time      0.0002
    --------------------------------------------
      LOOP:  cpu time      0.0113: real time      0.0114

 eigenvalue-minimisations  :   170
 total energy-change (2. order) :-0.9966334E-06  (-0.7337497E-06)
 number of electron      23.9999701 magnetization 
 augmentation part       11.8287838 magnetization 

 Free energy of the ion-electron system (eV)
  ---------------------------------------------------
  alpha Z        PSCENC =       271.88771733
  Ewald energy   TEWEN  =     -2643.55786796
  -Hartree energ DENC   =      -571.03778966
  -exchange      EXHF   =         0.00000000
  -V(xc)+E(xc)   XCENC  =       108.22607061
  PAW double counting   =      2438.09010342    -2539.68278571
  entropy T*S    EENTRO =        -0.00511621
  eigenvalues    EBANDS =      -378.18499911
  atomic energy  EATOM  =      3295.07659131
  Solvation  Ediel_sol  =         0.00000000
  ---------------------------------------------------
  free energy    TOTEN  =       -19.18807598 eV

  energy without entropy =      -19.18295976  energy(sigma->0) =      -19.18551787


--------------------------------------------------------------------------------------------------------




 average (electrostatic) potential at core
  the test charge radii are     1.0025
  (the norm of the test charge is              1.0000)
       1 -45.8938       2 -45.8938
 
 
 
 E-fermi :   6.7314     XC(G=0): -13.6502     alpha+bet :-15.7534

 val. band max:        6.6053041547   @ k =   0.3333   0.0000   0.0000
 cond. band min:       6.8574517451   @ k =   0.3333   0.0000   0.0000
 fundamental gap:      0.2521475904
 Fermi energy:         6.7313779498

 k-point     1 :       0.0000    0.0000    0.0000
  band No.  band energies     occupation 
      1     -36.3182      2.00000
      2     -36.3182      2.00000
      3     -36.3182      2.00000
      4     -35.7008      2.00000
      5     -35.7008      2.00000
      6     -35.7008      2.00000
      7      -0.7660      2.00000
      8       2.7263      2.00000
      9       2.7263      2.00000
     10       6.0858      2.00000
     11       6.0858      2.00000
     12       6.0858      2.00000
     13       8.0979      0.00000
     14       8.0979      0.00000
     15       9.3992      0.00000
     16       9.3992      0.00000
     17       9.3992      0.00000
     18      17.6872      0.00000
     19      17.6872      0.00000
     20      17.6872      0.00000
     21      24.0758      0.00000
     22      24.0758      0.00000
     23      29.9423      0.00000
     24      29.9423      0.00000
     25      29.9424      0.00000
     26      30.4239      0.00000
     27      36.4332      0.00000
     28      36.4332      0.00000

 k-point     2 :       0.3333    0.0000    0.0000
  band No.  band energies     occupation 
      1     -36.2871      2.00000
      2     -36.1564      2.00000
      3     -36.1564      2.00000
      4     -35.9815      2.00000
      5     -35.8471      2.00000
      6     -35.8471      2.00000
      7       1.3923      2.00000
      8       3.5703      2.00000
      9       3.9220      2.00000
     10       6.1578      2.00000
     11       6.1578      2.00000
     12       6.6053      1.92541
     13       6.8575      0.07459
     14       7.5134      0.00000
     15       7.5134      0.00000
     16       8.5107      0.00000
     17       8.6584      0.00000
     18      11.7445      0.00000
     19      21.8847      0.00000
     20      21.8847      0.00000
     21      24.3703      0.00000
     22      26.0985      0.00000
     23      26.1812      0.00000
     24      28.6596      0.00000
     25      28.6596      0.00000
     26      29.8903      0.00000
     27      37.9068      0.00000
     28      39.5468      0.00000

 k-point     3 :       0.3333    0.3333    0.0000
  band No.  band energies     occupation 
      1     -36.5276      2.00000
      2     -36.3802      2.00000
      3     -36.0684      2.00000
      4     -35.9135      2.00000
      5     -35.8628      2.00000
      6     -35.7033      2.00000
      7       2.4001      2.00000
      8       3.2829      2.00000
      9       4.9114      2.00000
     10       5.3481      2.00000
     11       5.4717      2.00000
     12       6.1690      2.00000
     13       7.3976      0.00000
     14       7.9430      0.00000
     15       8.3045      0.00000
     16       8.6897      0.00000
     17       9.6875      0.00000
     18      11.8724      0.00000
     19      16.8280      0.00000
     20      20.6779      0.00000
     21      24.3452      0.00000
     22      24.7314      0.00000
     23      25.8540      0.00000
     24      30.5398      0.00000
     25      30.9400      0.00000
     26      33.0861      0.00000
     27      35.1286      0.00000
     28      35.8240      0.00000

 k-point     4 :       0.3333    0.3333    0.3333
  band No.  band energies     occupation 
      1     -36.4056      2.00000
      2     -36.3165      2.00000
      3     -36.3165      2.00000
      4     -35.9038      2.00000
      5     -35.9038      2.00000
      6     -35.8112      2.00000
      7       4.1156      2.00000
      8       4.1405      2.00000
      9       4.5943      2.00000
     10       4.5943      2.00000
     11       4.9094      2.00000
     12       4.9094      2.00000
     13       8.2965      0.00000
     14       8.2965      0.00000
     15       8.3681      0.00000
     16       8.3681      0.00000
     17      11.2814      0.00000
     18      15.5907      0.00000
     19      15.5907      0.00000
     20      18.3326      0.00000
     21      21.2058      0.00000
     22      21.2058      0.00000
     23      23.3520      0.00000
     24      27.0032      0.00000
     25      34.5225      0.00000
     26      34.5225      0.00000
     27      36.0667      0.00000
     28      40.6421      0.00000


--------------------------------------------------------------------------------------------------------


 soft charge-density along one line, spin component           1
         0         1         2         3         4         5         6         7         8         9
 total charge-density along one line
 
 pseudopotential strength for first ion, spin component:           1
-42.651   0.000  -0.000  15.080  -0.000   0.000  -0.000  -0.000
  0.000 -42.651   0.000  -0.000  15.080  -0.000  -0.000  -0.000
 -0.000   0.000 -42.651   0.000  -0.000  15.080  -0.000  -0.000
 15.080  -0.000   0.000   0.166   0.000  -0.000   0.000   0.000
 -0.000  15.080  -0.000   0.000   0.166   0.000   0.000   0.000
  0.000  -0.000  15.080  -0.000   0.000   0.166   0.000   0.000
 -0.000  -0.000  -0.000   0.000   0.000   0.000  -4.897   0.000
 -0.000  -0.000  -0.000   0.000   0.000   0.000   0.000  -4.897
  0.000  -0.000   0.000  -0.000   0.000  -0.000   0.000   0.000
 -0.000  -0.000  -0.000   0.000   0.000   0.000  -0.000  -0.000
  0.000  -0.000  -0.000  -0.000   0.000  -0.000   0.000  -0.000
  0.000   0.000   0.000  -0.000  -0.000  -0.000  -0.596  -0.000
  0.000   0.000   0.000  -0.000  -0.000  -0.000  -0.000  -0.596
 -0.000   0.000  -0.000   0.000  -0.000   0.000  -0.000  -0.000
  0.000   0.000   0.000  -0.000  -0.000  -0.000   0.000   0.000
 -0.000   0.000   0.000   0.000  -0.000  -0.000  -0.000   0.000
  0.000   0.000   0.000  -0.000  -0.000  -0.000   0.000  -0.000
 -0.000  -0.000  -0.000   0.000   0.000   0.000  -0.000   0.000
 total augmentation occupancy for first ion, spin component:           1
  1.980  -0.000  -0.000  -0.002   0.000   0.000   0.000  -0.000  -0.000  -0.000  -0.000  -0.000   0.000   0.000   0.000   0.000
 -0.000   1.980  -0.000   0.000  -0.002   0.000   0.000  -0.000   0.000  -0.000   0.000   0.000   0.000   0.000   0.000   0.000
 -0.000  -0.000   1.980   0.000   0.000  -0.002  -0.000  -0.000  -0.000  -0.000  -0.000   0.000   0.000   0.000   0.000   0.000
 -0.002   0.000  -0.000   0.224  -0.000  -0.000  -0.000   0.000  -0.000   0.000  -0.000  -0.000  -0.000  -0.000  -0.000   0.000
 -0.000  -0.002   0.000  -0.000   0.224   0.000   0.000   0.000   0.000   0.000  -0.000  -0.000   0.000   0.000  -0.000  -0.000
  0.000   0.000  -0.002  -0.000  -0.000   0.224   0.000   0.000  -0.000   0.000  -0.000   0.000  -0.000   0.000   0.000  -0.000
  0.000   0.000  -0.000  -0.000   0.000   0.000   1.090  -0.000   0.000  -0.000  -0.000   0.334   0.000   0.000  -0.000  -0.000
 -0.000  -0.000  -0.000   0.000   0.000   0.000  -0.000   1.090  -0.000  -0.000   0.000  -0.000   0.334   0.000   0.000  -0.000
  0.000  -0.000   0.000   0.000   0.000   0.000   0.000  -0.000   0.841  -0.000  -0.000   0.000   0.000   0.319   0.000   0.000
 -0.000  -0.000  -0.000  -0.000   0.000   0.000  -0.000  -0.000   0.000   1.090   0.000  -0.000   0.000   0.000   0.334   0.000
  0.000  -0.000   0.000   0.000   0.000  -0.000  -0.000   0.000   0.000  -0.000   0.841  -0.000   0.000  -0.000  -0.000   0.319
 -0.000   0.000   0.000  -0.000  -0.000   0.000   0.334   0.000   0.000  -0.000  -0.000   0.167   0.000  -0.000   0.000   0.000
  0.000   0.000   0.000  -0.000   0.000  -0.000  -0.000   0.334  -0.000   0.000   0.000  -0.000   0.167  -0.000  -0.000   0.000
 -0.000  -0.000   0.000   0.000   0.000   0.000   0.000   0.000   0.319   0.000   0.000  -0.000  -0.000   0.202  -0.000  -0.000
  0.000   0.000   0.000  -0.000  -0.000   0.000  -0.000   0.000   0.000   0.334   0.000  -0.000  -0.000  -0.000   0.167   0.000
 -0.000  -0.000   0.000  -0.000  -0.000  -0.000  -0.000  -0.000  -0.000   0.000   0.319   0.000  -0.000   0.000  -0.000   0.202
  0.000   0.000   0.000   0.000   0.000   0.000   0.000   0.000  -0.000   0.000  -0.000  -0.000  -0.000  -0.000  -0.000   0.000
  0.000   0.000   0.000  -0.000  -0.000  -0.000   0.000   0.000   0.000  -0.000  -0.000   0.000  -0.000   0.000   0.000  -0.000


------------------------ aborting loop because EDIFF is reached ----------------------------------------


    CHARGE:  cpu time      0.0010: real time      0.0010
    FORLOC:  cpu time      0.0000: real time      0.0000
    FORNL :  cpu time      0.0007: real time      0.0007
    STRESS:  cpu time      0.0045: real time      0.0045
    FORCOR:  cpu time      0.0007: real time      0.0007
    FORHAR:  cpu time      0.0002: real time      0.0002
    MIXING:  cpu time      0.0002: real time      0.0002
    OFIELD:  cpu time      0.0000: real time      0.0000

  FORCE on cell =-STRESS in cart. coord.  units (eV):
  Direction    XX          YY          ZZ          XY          YZ          ZX
  --------------------------------------------------------------------------------------
  Alpha Z   271.88772   271.88772   271.88772
  Ewald    -881.18589  -881.18589  -881.18589    -0.00000     0.00000     0.00000
  Hartree   190.34288   190.34288   190.34288    -0.00000    -0.00000    -0.00000
  E(xc)    -131.02431  -131.02431  -131.02431     0.00000     0.00000    -0.00000
  Local     284.96896   284.96896   284.96896     0.00000     0.00000    -0.00000
  n-local  -138.41941  -136.83323  -131.82345     2.48537     0.02145     0.02116
  augment   110.81139   110.81139   110.81139     0.00000     0.00000     0.00000
  Kinetic   289.10252   286.86697   293.66067     5.30001    -0.48110    -0.48092
  Fock        0.00000     0.00000     0.00000     0.00000     0.00000     0.00000
  -------------------------------------------------------------------------------------
  Total      -0.01457    -0.01457    -0.01457    -0.00000    -0.00000     0.00000
  in kB      -1.00345    -1.00345    -1.00345    -0.00000    -0.00000     0.00000
  external pressure =       -1.00 kB  Pullay stress =        0.00 kB


 VOLUME and BASIS-vectors are now :
 -----------------------------------------------------------------------------
  energy-cutoff  :      400.00
  volume of cell :       23.26
      direct lattice vectors                 reciprocal lattice vectors
     2.854563193 -0.000000000  0.000000000     0.350316294  0.000000000  0.000000000
    -0.000000000  2.854563193 -0.000000000     0.000000000  0.350316294  0.000000000
    -0.000000000 -0.000000000  2.854563193    -0.000000000  0.000000000  0.350316294

  length of vectors
     2.854563193  2.854563193  2.854563193     0.350316294  0.350316294  0.350316294


 FORCES acting on ions
    electron-ion (+dipol)            ewald-force                    non-local-force                 convergence-correction
 -----------------------------------------------------------------------------------------------
   -.241E-13 0.401E-13 -.793E-13   -.173E-13 0.148E-15 -.104E-14   -.393E-22 0.283E-22 -.266E-22   -.275E-13 0.113E-14 -.463E-13
   0.348E-12 -.135E-11 0.528E-13   0.159E-13 -.174E-15 0.451E-14   -.304E-22 0.236E-22 -.281E-22   -.244E-13 0.740E-14 -.648E-13
 -----------------------------------------------------------------------------------------------
   0.323E-12 -.131E-11 -.265E-13   -.143E-14 -.261E-16 0.347E-14   -.696E-22 0.519E-22 -.547E-22   -.519E-13 0.852E-14 -.111E-12
 
 
 POSITION                                       TOTAL-FORCE (eV/Angst)
 -----------------------------------------------------------------------------------
     -0.00000      0.00000     -0.00000         0.000000     -0.000000      0.000000
      1.42728      1.42728      1.42728        -0.000000      0.000000     -0.000000
 -----------------------------------------------------------------------------------
    total drift:                                0.000000     -0.000000     -0.000000


--------------------------------------------------------------------------------------------------------



  FREE ENERGIE OF THE ION-ELECTRON SYSTEM (eV)
  ---------------------------------------------------
  free  energy   TOTEN  =       -19.18807598 eV

  energy  without entropy=      -19.18295976  energy(sigma->0) =      -19.18551787
 
 d Force = 0.4439132E-62[ 0.139E-63, 0.874E-62]  d Energy = 0.5424399E-01-0.542E-01
 d Force = 0.5370524E-46[-0.542E-47, 0.113E-45]  d Ewald  =-0.4632802E+02 0.463E+02


--------------------------------------------------------------------------------------------------------


    POTLOK:  cpu time      0.0033: real time      0.0033


--------------------------------------------------------------------------------------------------------




--------------------------------------------------------------------------------------------------------


  
 reached required accuracy - stopping structural energy minimisation
     LOOP+:  cpu time      0.1503: real time      0.1522
    4ORBIT:  cpu time      0.0000: real time      0.0000

 total amount of memory used by VASP MPI-rank0    30554. kBytes
=======================================================================

   base      :      30000. kBytes
   nonl-proj :        289. kBytes
   fftplans  :         48. kBytes
   grid      :        152. kBytes
   one-center:         31. kBytes
   wavefun   :         34. kBytes
 
  
  
 General timing and accounting informations for this job:
 ========================================================
  
                  Total CPU time used (sec):        0.966
                            User time (sec):        0.760
                          System time (sec):        0.206
                         Elapsed time (sec):        1.657
  
                   Maximum memory used (kb):       61176.
                   Average memory used (kb):          N/A
  
                          Minor page faults:        13471
                          Major page faults:            0
                 Voluntary context switches:         1384
