<?xml version="1.0" encoding="ISO-8859-1"?>
<modeling>
 <generator>
  <i name="program" type="string">vasp </i>
  <i name="version" type="string">6.4.3  </i>
  <i name="subversion" type="string">19Mar24 (build Sep 18 2024 11:30:23) complex                          parallel </i>
  <i name="platform" type="string">LinuxIFC </i>
  <i name="date" type="string">2026 07 07 </i>
  <i name="time" type="string">16:45:32 </i>
 </generator>
 <incar>
  <i type="string" name="SYSTEM">HECN</i>
  <i type="int" name="ISTART">     0</i>
  <i type="string" name="PREC">Normal</i>
  <i type="string" name="ALGO">Fast</i>
  <i type="int" name="ICHARG">     2</i>
  <i type="int" name="NELM">    60</i>
  <i type="int" name="IBRION">     2</i>
  <i name="EDIFF">      0.00001000</i>
  <i name="EDIFFG">     -0.01000000</i>
  <i type="int" name="NSW">   100</i>
  <i type="int" name="ISIF">     3</i>
  <i name="ENCUT">    400.00000000</i>
  <i name="POTIM">      0.50000000</i>
  <i type="logical" name="LREAL"> F  </i>
  <i type="int" name="ISMEAR">     0</i>
  <i name="SIGMA">      0.10000000</i>
  <i type="logical" name="LWAVE"> F  </i>
  <i type="logical" name="LCHARG"> F  </i>
 </incar>
 <primitive_cell>
  <structure name="primitive_cell" >
   <crystal>
    <varray name="basis" >
     <v>       1.44229996       1.44229996      -1.44229996 </v>
     <v>      -1.44229996       1.44229996       1.44229996 </v>
     <v>       1.44229996      -1.44229996       1.44229996 </v>
    </varray>
    <i name="volume">     12.00125787 </i>
    <varray name="rec_basis" >
     <v>       0.34666852       0.34666852      -0.00000000 </v>
     <v>      -0.00000000       0.34666852       0.34666852 </v>
     <v>       0.34666852      -0.00000000       0.34666852 </v>
    </varray>
   </crystal>
   <varray name="positions" >
    <v>       0.00000000       0.00000000       0.00000000 </v>
   </varray>
  </structure>
  <varray name="primitive_index" >
   <v type="int" >        1 </v>
  </varray>
 </primitive_cell>
 <kpoints>
  <generation param="Gamma">
   <v type="int" name="divisions">       3        3        3 </v>
   <v name="usershift">      0.00000000       0.00000000       0.00000000 </v>
   <v name="genvec1">      0.33333333       0.00000000       0.00000000 </v>
   <v name="genvec2">      0.00000000       0.33333333       0.00000000 </v>
   <v name="genvec3">      0.00000000       0.00000000       0.33333333 </v>
   <v name="shift">      0.00000000       0.00000000       0.00000000 </v>
  </generation>
  <varray name="kpointlist" >
   <v>       0.00000000       0.00000000       0.00000000 </v>
   <v>       0.33333333       0.00000000       0.00000000 </v>
   <v>       0.33333333       0.33333333       0.00000000 </v>
   <v>       0.33333333       0.33333333       0.33333333 </v>
  </varray>
  <varray name="weights" >
   <v>       0.03703704 </v>
   <v>       0.22222222 </v>
   <v>       0.44444444 </v>
   <v>       0.29629630 </v>
  </varray>
 </kpoints>
 <parameters>
  <separator name="general" >
   <i type="string" name="SYSTEM">HECN</i>
   <i type="logical" name="LCOMPAT"> F  </i>
  </separator>
  <separator name="electronic" >
   <i type="string" name="PREC">normal</i>
   <i name="ENMAX">    400.00000000</i>
   <i name="ENAUG">    519.42400000</i>
   <i name="EDIFF">      0.00001000</i>
   <i type="int" name="IALGO">    68</i>
   <i type="int" name="IWAVPR">    11</i>
   <i type="int" name="NBANDS">    28</i>
   <i type="int" name="NBANDSLOW">    -1</i>
   <i type="int" name="NBANDSHIGH">    -1</i>
   <i name="NELECT">     24.00000000</i>
   <i type="int" name="TURBO">     0</i>
   <i type="int" name="IRESTART">     0</i>
   <i type="int" name="NREBOOT">     0</i>
   <i type="int" name="NMIN">     0</i>
   <i name="EREF">      0.00000000</i>
   <separator name="electronic smearing" >
    <i type="int" name="ISMEAR">     0</i>
    <i name="SIGMA">      0.10000000</i>
    <i name="KSPACING">      0.50000000</i>
    <i type="logical" name="KGAMMA"> T  </i>
    <i type="logical" name="KBLOWUP"> T  </i>
   </separator>
   <separator name="electronic projectors" >
    <i type="logical" name="LREAL"> F  </i>
    <v name="ROPT">      0.00000000</v>
    <i type="int" name="LMAXPAW">  -100</i>
    <i type="int" name="LMAXMIX">     2</i>
    <i type="logical" name="NLSPLINE"> F  </i>
   </separator>
   <separator name="electronic startup" >
    <i type="int" name="ISTART">     0</i>
    <i type="int" name="ICHARG">     2</i>
    <i type="int" name="INIWAV">     1</i>
   </separator>
   <separator name="electronic spin" >
    <i type="int" name="ISPIN">     1</i>
    <i type="logical" name="LNONCOLLINEAR"> F  </i>
    <v name="MAGMOM">      1.00000000      1.00000000</v>
    <i name="NUPDOWN">     -1.00000000</i>
    <i type="logical" name="LSORBIT"> F  </i>
    <v name="SAXIS">      0.00000000      0.00000000      1.00000000</v>
    <i type="logical" name="LSPIRAL"> F  </i>
    <v name="QSPIRAL">      0.00000000      0.00000000      0.00000000</v>
    <i type="logical" name="LZEROZ"> F  </i>
   </separator>
   <separator name="electronic exchange-correlation" >
    <i type="logical" name="LASPH"> F  </i>
   </separator>
   <separator name="electronic convergence" >
    <i type="int" name="NELM">    60</i>
    <i type="int" name="NELMDL">    -5</i>
    <i type="int" name="NELMIN">     2</i>
    <i name="ENINI">    400.00000000</i>
    <separator name="electronic convergence detail" >
     <i type="logical" name="LDIAG"> T  </i>
     <i type="logical" name="LSUBROT"> F  </i>
     <i name="WEIMIN">      0.00100000</i>
     <i name="EBREAK">      0.00000009</i>
     <i name="DEPER">      0.30000000</i>
     <i type="int" name="NRMM">     4</i>
     <i name="TIME">      0.40000000</i>
    </separator>
   </separator>
   <separator name="electronic mixer" >
    <i name="AMIX">      0.40000000</i>
    <i name="BMIX">      1.00000000</i>
    <i name="AMIN">      0.10000000</i>
    <i name="AMIX_MAG">      1.60000000</i>
    <i name="BMIX_MAG">      1.00000000</i>
    <separator name="electronic mixer details" >
     <i type="int" name="IMIX">     4</i>
     <i type="logical" name="MIXFIRST"> F  </i>
     <i type="int" name="MAXMIX">   -45</i>
     <i name="WC">    100.00000000</i>
     <i type="int" name="INIMIX">     1</i>
     <i type="int" name="MIXPRE">     1</i>
     <i type="int" name="MREMOVE">     5</i>
    </separator>
   </separator>
   <separator name="electronic dipolcorrection" >
    <i type="logical" name="LDIPOL"> F  </i>
    <i type="logical" name="LMONO"> F  </i>
    <i type="int" name="IDIPOL">     0</i>
    <i name="EPSILON">      1.00000000</i>
    <v name="DIPOL">   -100.00000000   -100.00000000   -100.00000000</v>
    <i name="EFIELD">      0.00000000</i>
    <i type="logical" name="LVACPOTAV"> F  </i>
   </separator>
  </separator>
  <separator name="grids" >
   <i type="int" name="NGX">    14</i>
   <i type="int" name="NGY">    14</i>
   <i type="int" name="NGZ">    14</i>
   <i type="int" name="NGXF">    28</i>
   <i type="int" name="NGYF">    28</i>
   <i type="int" name="NGZF">    28</i>
   <i type="logical" name="ADDGRID"> F  </i>
  </separator>
  <separator name="ionic" >
   <i type="int" name="NSW">   100</i>
   <i type="int" name="IBRION">     2</i>
   <i type="int" name="MDALGO">     0</i>
   <i type="int" name="ISIF">     3</i>
   <i name="PSTRESS">      0.00000000</i>
   <i name="EDIFFG">     -0.01000000</i>
   <i type="int" name="NFREE">     1</i>
   <i name="POTIM">      0.50000000</i>
   <i name="SMASS">     -3.00000000</i>
   <i name="SCALEE">      1.00000000</i>
  </separator>
  <separator name="ionic md" >
   <i name="TEBEG">      0.00010000</i>
   <i name="TEEND">      0.00010000</i>
   <i type="int" name="NBLOCK">     1</i>
   <i type="int" name="KBLOCK">   100</i>
   <i type="int" name="NPACO">   256</i>
   <i name="APACO">     10.00000000</i>
  </separator>
  <separator name="symmetry" >
   <i type="int" name="ISYM">     2</i>
   <i name="SYMPREC">      0.00001000</i>
  </separator>
  <separator name="dos" >
   <i type="int" name="LORBIT">     0</i>
   <v name="RWIGS">     -1.00000000</v>
   <i type="int" name="NEDOS">   301</i>
   <i name="EMIN">     10.00000000</i>
   <i name="EMAX">    -10.00000000</i>
   <i name="EFERMI">      0.00000000</i>
  </separator>
  <separator name="writing" >
   <i type="int" name="NWRITE">     2</i>
   <i type="logical" name="LWAVE"> F  </i>
   <i type="logical" name="LDOWNSAMPLE"> F  </i>
   <i type="logical" name="LCHARG"> F  </i>
   <i type="logical" name="LPARD"> F  </i>
   <i type="logical" name="LVTOT"> F  </i>
   <i type="logical" name="LVHAR"> F  </i>
   <i type="logical" name="LELF"> F  </i>
   <i type="logical" name="LOPTICS"> F  </i>
   <v name="STM">      0.00000000      0.00000000      0.00000000      0.00000000      0.00000000      0.00000000      0.00000000</v>
  </separator>
  <separator name="performance" >
   <i type="int" name="NPAR">    28</i>
   <i type="int" name="NSIM">     4</i>
   <i type="int" name="NBLK">    -1</i>
   <i type="logical" name="LPLANE"> T  </i>
   <i type="logical" name="LSCALAPACK"> T  </i>
   <i type="logical" name="LSCAAWARE"> T  </i>
   <i type="logical" name="LSCALU"> F  </i>
   <i type="logical" name="LASYNC"> F  </i>
   <i type="logical" name="LORBITALREAL"> F  </i>
  </separator>
  <separator name="miscellaneous" >
   <i type="int" name="IDIOT">     3</i>
   <i type="int" name="PHON_NSTRUCT">    -1</i>
   <i type="logical" name="LMUSIC"> F  </i>
   <v name="POMASS">     51.99600000</v>
   <v name="DARWINR">      0.00000000</v>
   <v name="DARWINV">      1.00000000</v>
   <i type="logical" name="LCORR"> T  </i>
  </separator>
  <i type="logical" name="GGA_COMPAT"> T  </i>
  <i type="logical" name="LBERRY"> F  </i>
  <i type="int" name="ICORELEVEL">     0</i>
  <i type="logical" name="LDAU"> F  </i>
  <i type="int" name="I_CONSTRAINED_M">     0</i>
  <separator name="electronic exchange-correlation" >
   <i type="string" name="GGA    ">PE</i>
   <i type="string" name="XC_C">1</i>
   <i type="int" name="VOSKOWN">     0</i>
   <i type="logical" name="LHFCALC"> F  </i>
   <i type="string" name="PRECFOCK"></i>
   <i type="logical" name="LSYMGRAD"> F  </i>
   <i type="logical" name="LHFONE"> F  </i>
   <i type="logical" name="LRHFCALC"> F  </i>
   <i type="logical" name="LTHOMAS"> F  </i>
   <i type="logical" name="LMODELHF"> F  </i>
   <i type="logical" name="LFOCKACE"> F  </i>
   <i name="ENCUT4O">     -1.00000000</i>
   <i type="int" name="EXXOEP">     0</i>
   <i type="int" name="FOURORBIT">     0</i>
   <i name="AEXX">      0.00000000</i>
   <i name="HFALPHA">      0.00000000</i>
   <i name="MCALPHA">      0.00000000</i>
   <i name="ALDAX">      1.00000000</i>
   <i name="AGGAX">      1.00000000</i>
   <i name="AMGGAX">      1.00000000</i>
   <i name="ALDAC">      1.00000000</i>
   <i name="AGGAC">      1.00000000</i>
   <i name="AMGGAC">      1.00000000</i>
   <i type="int" name="NKREDX">     1</i>
   <i type="int" name="NKREDY">     1</i>
   <i type="int" name="NKREDZ">     1</i>
   <i type="logical" name="SHIFTRED"> F  </i>
   <i type="logical" name="ODDONLY"> F  </i>
   <i type="logical" name="EVENONLY"> F  </i>
   <i type="int" name="LMAXFOCK">     0</i>
   <i type="int" name="NMAXFOCKAE">     0</i>
   <i type="logical" name="LFOCKAEDFT"> F  </i>
   <i name="HFSCREEN">      0.00000000</i>
   <i name="HFSCREENC">      0.00000000</i>
   <i type="int" name="NBANDSGWLOW">     0</i>
  </separator>
  <separator name="vdW DFT" >
   <i type="logical" name="LUSE_VDW"> F  </i>
   <i type="int" name="IVDW_NL">    -1</i>
   <i type="logical" name="LSPIN_VDW"> F  </i>
   <i name="ZAB_VDW">     -0.84910000</i>
   <i name="GAMMA_VDW">      1.39626340</i>
   <i name="ALPHA_VDW">      0.00000000</i>
   <i name="PARAM1">      0.12340000</i>
   <i name="PARAM2">      1.00000000</i>
   <i name="BPARAM">      6.30000000</i>
   <i name="CPARAM">      0.00930000</i>
  </separator>
  <separator name="model GW" >
   <i type="int" name="MODEL_GW">     0</i>
   <i name="MODEL_EPS0">      7.20075472</i>
   <i name="MODEL_ALPHA">      1.00000000</i>
  </separator>
  <separator name="linear response parameters" >
   <i type="logical" name="LEPSILON"> F  </i>
   <i type="logical" name="LRPA"> F  </i>
   <i type="logical" name="LNABLA"> F  </i>
   <i type="logical" name="LVEL"> F  </i>
   <i name="CSHIFT">      0.10000000</i>
   <i name="OMEGAMAX">     -1.00000000</i>
   <i name="DEG_THRESHOLD">      0.00200000</i>
   <i name="RTIME">     -0.10000000</i>
   <i name="WPLASMAI">      0.00000000</i>
   <v name="DFIELD">      0.00000000      0.00000000      0.00000000</v>
   <v name="WPLASMA">      0.00000000      0.00000000      0.00000000      0.00000000      0.00000000      0.00000000      0.00000000      0.00000000      0.00000000</v>
  </separator>
  <separator name="orbital magnetization" >
   <i type="logical" name="NUCIND"> F  </i>
   <v name="MAGPOS">      0.00000000      0.00000000      0.00000000</v>
   <i type="logical" name="LNICSALL"> T  </i>
   <i type="logical" name="ORBITALMAG"> F  </i>
   <i type="logical" name="LMAGBLOCH"> F  </i>
   <i type="logical" name="LCHIMAG"> F  </i>
   <i type="logical" name="LGAUGE"> T  </i>
   <i type="int" name="MAGATOM">     0</i>
   <v name="MAGDIPOL">      0.00000000      0.00000000      0.00000000</v>
   <v name="AVECCONST">      0.00000000      0.00000000      0.00000000</v>
  </separator>
  <separator name="response functions" >
   <i type="logical" name="LALL_IN_ONE"> F  </i>
   <i type="int" name="IALL_IN_ONE">    -1</i>
   <i type="int" name="NBANDS_WAVE">    -1</i>
   <i type="logical" name="LFINITE_TEMPERATURE"> F  </i>
   <i type="logical" name="LADDER"> F  </i>
   <i type="logical" name="LRPAFORCE"> F  </i>
   <i type="logical" name="LFXC"> F  </i>
   <i type="logical" name="LHARTREE"> T  </i>
   <i type="int" name="IBSE">     0</i>
   <v type="int" name="KPOINT">    -1     0     0     0</v>
   <i type="logical" name="LTCTC"> F  </i>
   <i type="logical" name="LTCTE"> F  </i>
   <i type="logical" name="LTETE"> F  </i>
   <i type="logical" name="LTRIPLET"> F  </i>
   <i type="logical" name="LFXCEPS"> F  </i>
   <i type="logical" name="LFXHEG"> F  </i>
   <i type="int" name="NATURALO">     2</i>
   <i type="logical" name="LHOLEGF"> F  </i>
   <i type="logical" name="L2ORDER"> F  </i>
   <i type="logical" name="LDMP1"> F  </i>
   <i type="logical" name="LMP2LT"> F  </i>
   <i type="logical" name="LSMP2LT"> F  </i>
   <i type="logical" name="LGWLF"> F  </i>
   <i name="ENCUTGW">     -1.60000002</i>
   <i name="ENCUTGWSOFT">     -1.60000002</i>
   <i name="ENCUTLF">     -1.00000000</i>
   <i type="logical" name="ESF_SPLINES"> F  </i>
   <i name="ESF_CONV">      0.01000000</i>
   <i type="int" name="ESF_NINTER">    15</i>
   <i type="int" name="LMAXMP2">    -1</i>
   <i name="SCISSOR">      0.00000000</i>
   <i type="int" name="NOMEGA">     0</i>
   <i type="int" name="NOMEGAR">     0</i>
   <i type="int" name="NBANDSGW">    -1</i>
   <i type="int" name="NBANDSO">    -1</i>
   <i type="int" name="NBANDSV">    -1</i>
   <i type="int" name="NELMGW">     1</i>
   <i type="int" name="NELMHF">     1</i>
   <i type="int" name="DIM">     3</i>
   <i type="int" name="IESPILON">     4</i>
   <i type="int" name="ANTIRES">     0</i>
   <i name="OMEGAMAX">    -30.00000000</i>
   <i name="OMEGAMIN">    -30.00000000</i>
   <i name="OMEGATL">   -200.00000000</i>
   <i type="int" name="OMEGAGRID">     0</i>
   <i name="CSHIFT">     -0.10000000</i>
   <i type="logical" name="LSELFENERGY"> F  </i>
   <i type="logical" name="LSPECTRAL"> F  </i>
   <i type="logical" name="LSPECTRALGW"> F  </i>
   <i type="logical" name="LSINGLES"> F  </i>
   <i type="logical" name="LFERMIGW"> F  </i>
   <i type="logical" name="ODDONLYGW"> F  </i>
   <i type="logical" name="EVENONLYGW"> F  </i>
   <i type="int" name="NKREDLFX">     1</i>
   <i type="int" name="NKREDLFY">     1</i>
   <i type="int" name="NKREDLFZ">     1</i>
   <i type="int" name="MAXMEM">  2800</i>
   <i type="int" name="TELESCOPE">     0</i>
   <i type="int" name="NTAUPAR">    -1</i>
   <i type="int" name="NOMEGAPAR">    -1</i>
   <i name="DAMP_NEWTON">      0.80000001</i>
   <i name="LAMBDA">      1.00000000</i>
  </separator>
  <separator name="External order field" >
   <i name="OFIELD_KAPPA">      0.00000000</i>
   <v name="OFIELD_K">      0.00000000      0.00000000      0.00000000</v>
   <i name="OFIELD_Q6_NEAR">      0.00000000</i>
   <i name="OFIELD_Q6_FAR">      0.00000000</i>
   <i name="OFIELD_A">      0.00000000</i>
  </separator>
  <separator name="optional k-points parameters" >
   <i type="int" name="KPOINTS_OPT_MODE">     1</i>
   <i type="logical" name="LKPOINTS_OPT"> F  </i>
  </separator>
  <separator name="solvation model" >
   <i type="logical" name="LSOL"> F  </i>
  </separator>
 </parameters>
 <atominfo>
  <atoms>       2 </atoms>
  <types>       1 </types>
  <array name="atoms" >
   <dimension dim="1">ion</dimension>
   <field type="string">element</field>
   <field type="int">atomtype</field>
   <set>
    <rc><c>Cr</c><c>   1</c></rc>
    <rc><c>Cr</c><c>   1</c></rc>
   </set>
  </array>
  <array name="atomtypes" >
   <dimension dim="1">type</dimension>
   <field type="int">atomspertype</field>
   <field type="string">element</field>
   <field>mass</field>
   <field>valence</field>
   <field type="string">pseudopotential</field>
   <set>
    <rc><c>   2</c><c>Cr</c><c>     51.99600000</c><c>     12.00000000</c><c> PAW_PBE Cr_pv 07Sep2000                </c></rc>
   </set>
  </array>
 </atominfo>
 <structure name="initialpos" >
  <crystal>
   <varray name="basis" >
    <v>       2.88459992       0.00000000       0.00000000 </v>
    <v>       0.00000000       2.88459992       0.00000000 </v>
    <v>       0.00000000       0.00000000       2.88459992 </v>
   </varray>
   <i name="volume">     24.00251575 </i>
   <varray name="rec_basis" >
    <v>       0.34666852       0.00000000       0.00000000 </v>
    <v>       0.00000000       0.34666852       0.00000000 </v>
    <v>       0.00000000       0.00000000       0.34666852 </v>
   </varray>
  </crystal>
  <varray name="positions" >
   <v>       0.00000000       0.00000000       0.00000000 </v>
   <v>       0.50000000       0.50000000       0.50000000 </v>
  </varray>
 </structure>
 <calculation>
  <scstep>
   <time name="dav">    0.04    0.04</time>
   <time name="total">    0.05    0.07</time>
   <energy>
    <i name="alphaZ">    263.48252105 </i>
    <i name="ewald">  -2616.03105683 </i>
    <i name="hartreedc">   -652.28868354 </i>
    <i name="XCdc">    111.40270211 </i>
    <i name="pawpsdc">   2352.04044707 </i>
    <i name="pawaedc">  -2448.59216350 </i>
    <i name="eentropy">     -0.00088309 </i>
    <i name="bandstr">   -279.96627461 </i>
    <i name="atom">   3295.07659131 </i>
    <i name="e_fr_energy">     25.12319996 </i>
    <i name="e_wo_entrp">     25.12408305 </i>
    <i name="e_0_energy">     25.12364151 </i>
   </energy>
  </scstep>
  <scstep>
   <time name="dav">    0.04    0.35</time>
   <time name="total">    0.04    0.35</time>
   <energy>
    <i name="e_fr_energy">    -22.42532575 </i>
    <i name="e_wo_entrp">    -22.42532091 </i>
    <i name="e_0_energy">    -22.42532333 </i>
   </energy>
  </scstep>
  <scstep>
   <time name="dav">    0.02    0.02</time>
   <time name="total">    0.02    0.02</time>
   <energy>
    <i name="e_fr_energy">    -22.54191366 </i>
    <i name="e_wo_entrp">    -22.54190870 </i>
    <i name="e_0_energy">    -22.54191118 </i>
   </energy>
  </scstep>
  <scstep>
   <time name="dav">    0.06    0.06</time>
   <time name="total">    0.06    0.06</time>
   <energy>
    <i name="e_fr_energy">    -22.54267613 </i>
    <i name="e_wo_entrp">    -22.54267117 </i>
    <i name="e_0_energy">    -22.54267365 </i>
   </energy>
  </scstep>
  <scstep>
   <time name="dav">    0.02    0.02</time>
   <time name="total">    0.03    0.04</time>
   <energy>
    <i name="e_fr_energy">    -22.54267615 </i>
    <i name="e_wo_entrp">    -22.54267119 </i>
    <i name="e_0_energy">    -22.54267367 </i>
   </energy>
  </scstep>
  <scstep>
   <time name="diag">    0.02    0.02</time>
   <time name="diis">    0.00    0.00</time>
   <time name="orth">    0.00    0.00</time>
   <time name="total">    0.02    0.03</time>
   <energy>
    <i name="e_fr_energy">    -19.18649676 </i>
    <i name="e_wo_entrp">    -19.18224651 </i>
    <i name="e_0_energy">    -19.18437163 </i>
   </energy>
  </scstep>
  <scstep>
   <time name="diag">    0.01    0.01</time>
   <time name="diis">    0.00    0.00</time>
   <time name="orth">    0.00    0.00</time>
   <time name="total">    0.01    0.01</time>
   <energy>
    <i name="e_fr_energy">    -19.20193713 </i>
    <i name="e_wo_entrp">    -19.19729440 </i>
    <i name="e_0_energy">    -19.19961576 </i>
   </energy>
  </scstep>
  <scstep>
   <time name="diag">    0.01    0.01</time>
   <time name="diis">    0.00    0.00</time>
   <time name="orth">    0.00    0.00</time>
   <time name="total">    0.01    0.01</time>
   <energy>
    <i name="e_fr_energy">    -19.17409010 </i>
    <i name="e_wo_entrp">    -19.16636692 </i>
    <i name="e_0_energy">    -19.17022851 </i>
   </energy>
  </scstep>
  <scstep>
   <time name="diag">    0.01    0.01</time>
   <time name="diis">    0.00    0.00</time>
   <time name="orth">    0.00    0.00</time>
   <time name="total">    0.01    0.01</time>
   <energy>
    <i name="e_fr_energy">    -19.16972684 </i>
    <i name="e_wo_entrp">    -19.16262101 </i>
    <i name="e_0_energy">    -19.16617392 </i>
   </energy>
  </scstep>
  <scstep>
   <time name="diag">    0.01    0.01</time>
   <time name="diis">    0.00    0.00</time>
   <time name="orth">    0.00    0.00</time>
   <time name="total">    0.01    0.01</time>
   <energy>
    <i name="e_fr_energy">    -19.16889111 </i>
    <i name="e_wo_entrp">    -19.16208436 </i>
    <i name="e_0_energy">    -19.16548774 </i>
   </energy>
  </scstep>
  <scstep>
   <time name="diag">    0.01    0.01</time>
   <time name="diis">    0.00    0.00</time>
   <time name="orth">    0.00    0.00</time>
   <time name="total">    0.01    0.01</time>
   <energy>
    <i name="e_fr_energy">    -19.16890013 </i>
    <i name="e_wo_entrp">    -19.16213384 </i>
    <i name="e_0_energy">    -19.16551699 </i>
   </energy>
  </scstep>
  <scstep>
   <time name="diag">    0.01    0.01</time>
   <time name="diis">    0.00    0.00</time>
   <time name="orth">    0.00    0.00</time>
   <time name="total">    0.01    0.01</time>
   <energy>
    <i name="alphaZ">    263.48252105 </i>
    <i name="ewald">  -2616.03105683 </i>
    <i name="hartreedc">   -583.38015512 </i>
    <i name="XCdc">    107.96202094 </i>
    <i name="pawpsdc">   2417.90091106 </i>
    <i name="pawaedc">  -2519.28482944 </i>
    <i name="eentropy">     -0.00676597 </i>
    <i name="bandstr">   -384.88813974 </i>
    <i name="atom">   3295.07659131 </i>
    <i name="e_fr_energy">    -19.16890274 </i>
    <i name="e_wo_entrp">    -19.16213677 </i>
    <i name="e_0_energy">    -19.16551976 </i>
   </energy>
  </scstep>
  <structure>
   <crystal>
    <varray name="basis" >
     <v>       2.88459992       0.00000000       0.00000000 </v>
     <v>       0.00000000       2.88459992       0.00000000 </v>
     <v>       0.00000000       0.00000000       2.88459992 </v>
    </varray>
    <i name="volume">     24.00251575 </i>
    <varray name="rec_basis" >
     <v>       0.34666852       0.00000000       0.00000000 </v>
     <v>       0.00000000       0.34666852       0.00000000 </v>
     <v>       0.00000000       0.00000000       0.34666852 </v>
    </varray>
   </crystal>
   <varray name="positions" >
    <v>       0.00000000       0.00000000       0.00000000 </v>
    <v>       0.50000000       0.50000000       0.50000000 </v>
   </varray>
  </structure>
  <varray name="forces" >
   <v>      -0.00000000       0.00000000      -0.00000000 </v>
   <v>       0.00000000      -0.00000000       0.00000000 </v>
  </varray>
  <varray name="stress" >
   <v>     -75.97972196      -0.00000000       0.00000000 </v>
   <v>      -0.00000000     -75.97972196      -0.00000000 </v>
   <v>      -0.00000000      -0.00000000     -75.97972196 </v>
  </varray>
  <energy>
   <i name="e_fr_energy">    -19.16890274 </i>
   <i name="e_wo_entrp">    -19.16213677 </i>
   <i name="e_0_energy">    -19.16551976 </i>
  </energy>
  <time name="totalsc">    0.33    0.71</time>
 </calculation>
 <calculation>
  <scstep>
   <time name="dav">    0.02    0.02</time>
   <time name="total">    0.03    0.03</time>
   <energy>
    <i name="alphaZ">    286.43408398 </i>
    <i name="ewald">  -2689.88589233 </i>
    <i name="hartreedc">   -599.86474948 </i>
    <i name="XCdc">    111.26818601 </i>
    <i name="pawpsdc">   2417.89876867 </i>
    <i name="pawaedc">  -2519.28226282 </i>
    <i name="eentropy">     -0.00000690 </i>
    <i name="bandstr">   -323.32418078 </i>
    <i name="atom">   3295.07659131 </i>
    <i name="e_fr_energy">    -21.67946234 </i>
    <i name="e_wo_entrp">    -21.67945544 </i>
    <i name="e_0_energy">    -21.67945889 </i>
   </energy>
  </scstep>
  <scstep>
   <time name="diag">    0.01    0.01</time>
   <time name="diis">    0.00    0.00</time>
   <time name="orth">    0.00    0.00</time>
   <time name="total">    0.01    0.01</time>
   <energy>
    <i name="e_fr_energy">    -19.16492550 </i>
    <i name="e_wo_entrp">    -19.16171832 </i>
    <i name="e_0_energy">    -19.16332191 </i>
   </energy>
  </scstep>
  <scstep>
   <time name="diag">    0.01    0.01</time>
   <time name="diis">    0.00    0.00</time>
   <time name="orth">    0.00    0.00</time>
   <time name="total">    0.01    0.01</time>
   <energy>
    <i name="e_fr_energy">    -19.16338962 </i>
    <i name="e_wo_entrp">    -19.16046778 </i>
    <i name="e_0_energy">    -19.16192870 </i>
   </energy>
  </scstep>
  <scstep>
   <time name="diag">    0.01    0.01</time>
   <time name="diis">    0.00    0.00</time>
   <time name="orth">    0.00    0.00</time>
   <time name="total">    0.01    0.01</time>
   <energy>
    <i name="e_fr_energy">    -19.13641863 </i>
    <i name="e_wo_entrp">    -19.13313582 </i>
    <i name="e_0_energy">    -19.13477723 </i>
   </energy>
  </scstep>
  <scstep>
   <time name="diag">    0.01    0.01</time>
   <time name="diis">    0.00    0.00</time>
   <time name="orth">    0.00    0.00</time>
   <time name="total">    0.01    0.01</time>
   <energy>
    <i name="e_fr_energy">    -19.13390532 </i>
    <i name="e_wo_entrp">    -19.13101455 </i>
    <i name="e_0_energy">    -19.13245994 </i>
   </energy>
  </scstep>
  <scstep>
   <time name="diag">    0.01    0.01</time>
   <time name="diis">    0.00    0.00</time>
   <time name="orth">    0.00    0.00</time>
   <time name="total">    0.01    0.01</time>
   <energy>
    <i name="e_fr_energy">    -19.13383148 </i>
    <i name="e_wo_entrp">    -19.13097049 </i>
    <i name="e_0_energy">    -19.13240099 </i>
   </energy>
  </scstep>
  <scstep>
   <time name="diag">    0.01    0.01</time>
   <time name="diis">    0.00    0.00</time>
   <time name="orth">    0.00    0.00</time>
   <time name="total">    0.01    0.01</time>
   <energy>
    <i name="alphaZ">    286.43408398 </i>
    <i name="ewald">  -2689.88589233 </i>
    <i name="hartreedc">   -550.74044486 </i>
    <i name="XCdc">    108.68753171 </i>
    <i name="pawpsdc">   2474.87918229 </i>
    <i name="pawaedc">  -2576.86203651 </i>
    <i name="eentropy">     -0.00286647 </i>
    <i name="bandstr">   -366.71998111 </i>
    <i name="atom">   3295.07659131 </i>
    <i name="e_fr_energy">    -19.13383199 </i>
    <i name="e_wo_entrp">    -19.13096553 </i>
    <i name="e_0_energy">    -19.13239876 </i>
   </energy>
  </scstep>
  <structure>
   <crystal>
    <varray name="basis" >
     <v>       2.80539892      -0.00000000       0.00000000 </v>
     <v>      -0.00000000       2.80539892      -0.00000000 </v>
     <v>      -0.00000000      -0.00000000       2.80539892 </v>
    </varray>
    <i name="volume">     22.07922770 </i>
    <varray name="rec_basis" >
     <v>       0.35645554       0.00000000       0.00000000 </v>
     <v>       0.00000000       0.35645554       0.00000000 </v>
     <v>      -0.00000000       0.00000000       0.35645554 </v>
    </varray>
   </crystal>
   <varray name="positions" >
    <v>       1.00000000       0.00000000       1.00000000 </v>
    <v>       0.50000000       0.50000000       0.50000000 </v>
   </varray>
  </structure>
  <varray name="forces" >
   <v>      -0.00000000      -0.00000000       0.00000000 </v>
   <v>       0.00000000       0.00000000      -0.00000000 </v>
  </varray>
  <varray name="stress" >
   <v>     155.05274967       0.00000000       0.00000000 </v>
   <v>       0.00000000     155.05274967       0.00000000 </v>
   <v>      -0.00000000      -0.00000000     155.05274967 </v>
  </varray>
  <energy>
   <i name="e_fr_energy">    -19.13383199 </i>
   <i name="e_wo_entrp">    -19.13096553 </i>
   <i name="e_0_energy">    -19.13239876 </i>
  </energy>
  <time name="totalsc">    0.12    0.12</time>
 </calculation>
 <calculation>
  <scstep>
   <time name="dav">    0.04    0.04</time>
   <time name="total">    0.04    0.04</time>
   <energy>
    <i name="alphaZ">    271.88771733 </i>
    <i name="ewald">  -2643.55786796 </i>
    <i name="hartreedc">   -541.24876280 </i>
    <i name="XCdc">    106.66529748 </i>
    <i name="pawpsdc">   2474.95660419 </i>
    <i name="pawaedc">  -2576.93477395 </i>
    <i name="eentropy">     -0.02954818 </i>
    <i name="bandstr">   -407.08384541 </i>
    <i name="atom">   3295.07659131 </i>
    <i name="e_fr_energy">    -20.26858799 </i>
    <i name="e_wo_entrp">    -20.23903981 </i>
    <i name="e_0_energy">    -20.25381390 </i>
   </energy>
  </scstep>
  <scstep>
   <time name="diag">    0.01    0.01</time>
   <time name="diis">    0.00    0.00</time>
   <time name="orth">    0.00    0.00</time>
   <time name="total">    0.01    0.01</time>
   <energy>
    <i name="e_fr_energy">    -19.23082832 </i>
    <i name="e_wo_entrp">    -19.22830496 </i>
    <i name="e_0_energy">    -19.22956664 </i>
   </energy>
  </scstep>
  <scstep>
   <time name="diag">    0.01    0.01</time>
   <time name="diis">    0.00    0.00</time>
   <time name="orth">    0.00    0.00</time>
   <time name="total">    0.01    0.01</time>
   <energy>
    <i name="e_fr_energy">    -19.19661565 </i>
    <i name="e_wo_entrp">    -19.19189065 </i>
    <i name="e_0_energy">    -19.19425315 </i>
   </energy>
  </scstep>
  <scstep>
   <time name="diag">    0.01    0.01</time>
   <time name="diis">    0.00    0.00</time>
   <time name="orth">    0.00    0.00</time>
   <time name="total">    0.01    0.01</time>
   <energy>
    <i name="e_fr_energy">    -19.18808910 </i>
    <i name="e_wo_entrp">    -19.18309653 </i>
    <i name="e_0_energy">    -19.18559281 </i>
   </energy>
  </scstep>
  <scstep>
   <time name="diag">    0.01    0.01</time>
   <time name="diis">    0.00    0.00</time>
   <time name="orth">    0.00    0.00</time>
   <time name="total">    0.01    0.01</time>
   <energy>
    <i name="e_fr_energy">    -19.18816053 </i>
    <i name="e_wo_entrp">    -19.18312775 </i>
    <i name="e_0_energy">    -19.18564414 </i>
   </energy>
  </scstep>
  <scstep>
   <time name="diag">    0.01    0.01</time>
   <time name="diis">    0.00    0.00</time>
   <time name="orth">    0.00    0.00</time>
   <time name="total">    0.01    0.01</time>
   <energy>
    <i name="e_fr_energy">    -19.18810162 </i>
    <i name="e_wo_entrp">    -19.18293442 </i>
    <i name="e_0_energy">    -19.18551802 </i>
   </energy>
  </scstep>
  <scstep>
   <time name="diag">    0.01    0.01</time>
   <time name="diis">    0.00    0.00</time>
   <time name="orth">    0.00    0.00</time>
   <time name="total">    0.01    0.01</time>
   <energy>
    <i name="e_fr_energy">    -19.18807498 </i>
    <i name="e_wo_entrp">    -19.18295747 </i>
    <i name="e_0_energy">    -19.18551623 </i>
   </energy>
  </scstep>
  <scstep>
   <time name="diag">    0.01    0.01</time>
   <time name="diis">    0.00    0.00</time>
   <time name="orth">    0.00    0.00</time>
   <time name="total">    0.01    0.01</time>
   <energy>
    <i name="alphaZ">    271.88771733 </i>
    <i name="ewald">  -2643.55786796 </i>
    <i name="hartreedc">   -571.03778966 </i>
    <i name="XCdc">    108.22607061 </i>
    <i name="pawpsdc">   2438.09010342 </i>
    <i name="pawaedc">  -2539.68278571 </i>
    <i name="eentropy">     -0.00511621 </i>
    <i name="bandstr">   -378.18499911 </i>
    <i name="atom">   3295.07659131 </i>
    <i name="e_fr_energy">    -19.18807598 </i>
    <i name="e_wo_entrp">    -19.18295976 </i>
    <i name="e_0_energy">    -19.18551787 </i>
   </energy>
  </scstep>
  <structure>
   <crystal>
    <varray name="basis" >
     <v>       2.85456319      -0.00000000       0.00000000 </v>
     <v>      -0.00000000       2.85456319      -0.00000000 </v>
     <v>      -0.00000000      -0.00000000       2.85456319 </v>
    </varray>
    <i name="volume">     23.26049673 </i>
    <varray name="rec_basis" >
     <v>       0.35031629       0.00000000       0.00000000 </v>
     <v>       0.00000000       0.35031629       0.00000000 </v>
     <v>      -0.00000000       0.00000000       0.35031629 </v>
    </varray>
   </crystal>
   <varray name="positions" >
    <v>       0.00000000       0.00000000       0.00000000 </v>
    <v>       0.50000000       0.50000000       0.50000000 </v>
   </varray>
  </structure>
  <varray name="forces" >
   <v>       0.00000000      -0.00000000       0.00000000 </v>
   <v>      -0.00000000       0.00000000      -0.00000000 </v>
  </varray>
  <varray name="stress" >
   <v>      -1.00345351      -0.00000000       0.00000000 </v>
   <v>      -0.00000000      -1.00345351      -0.00000000 </v>
   <v>       0.00000000      -0.00000000      -1.00345351 </v>
  </varray>
  <energy>
   <i name="e_fr_energy">    -19.18807598 </i>
   <i name="e_wo_entrp">    -19.18295976 </i>
   <i name="e_0_energy">    -19.18551787 </i>
  </energy>
  <time name="totalsc">    0.15    0.15</time>
  <eigenvalues>
   <array>
    <dimension dim="1">band</dimension>
    <dimension dim="2">kpoint</dimension>
    <dimension dim="3">spin</dimension>
    <field>eigene</field>
    <field>occ</field>
    <set>
     <set comment="spin 1">
      <set comment="kpoint 1">
       <r>  -36.3182    1.0000 </r>
       <r>  -36.3182    1.0000 </r>
       <r>  -36.3182    1.0000 </r>
       <r>  -35.7008    1.0000 </r>
       <r>  -35.7008    1.0000 </r>
       <r>  -35.7008    1.0000 </r>
       <r>   -0.7660    1.0000 </r>
       <r>    2.7263    1.0000 </r>
       <r>    2.7263    1.0000 </r>
       <r>    6.0858    1.0000 </r>
       <r>    6.0858    1.0000 </r>
       <r>    6.0858    1.0000 </r>
       <r>    8.0979    0.0000 </r>
       <r>    8.0979    0.0000 </r>
       <r>    9.3992    0.0000 </r>
       <r>    9.3992    0.0000 </r>
       <r>    9.3992    0.0000 </r>
       <r>   17.6872    0.0000 </r>
       <r>   17.6872    0.0000 </r>
       <r>   17.6872    0.0000 </r>
       <r>   24.0758    0.0000 </r>
       <r>   24.0758    0.0000 </r>
       <r>   29.9423    0.0000 </r>
       <r>   29.9423    0.0000 </r>
       <r>   29.9424    0.0000 </r>
       <r>   30.4239    0.0000 </r>
       <r>   36.4332    0.0000 </r>
       <r>   36.4332    0.0000 </r>
      </set>
      <set comment="kpoint 2">
       <r>  -36.2871    1.0000 </r>
       <r>  -36.1564    1.0000 </r>
       <r>  -36.1564    1.0000 </r>
       <r>  -35.9815    1.0000 </r>
       <r>  -35.8471    1.0000 </r>
       <r>  -35.8471    1.0000 </r>
       <r>    1.3923    1.0000 </r>
       <r>    3.5703    1.0000 </r>
       <r>    3.9220    1.0000 </r>
       <r>    6.1578    1.0000 </r>
       <r>    6.1578    1.0000 </r>
       <r>    6.6053    0.9627 </r>
       <r>    6.8575    0.0373 </r>
       <r>    7.5134    0.0000 </r>
       <r>    7.5134    0.0000 </r>
       <r>    8.5107    0.0000 </r>
       <r>    8.6584    0.0000 </r>
       <r>   11.7445    0.0000 </r>
       <r>   21.8847    0.0000 </r>
       <r>   21.8847    0.0000 </r>
       <r>   24.3703    0.0000 </r>
       <r>   26.0985    0.0000 </r>
       <r>   26.1812    0.0000 </r>
       <r>   28.6596    0.0000 </r>
       <r>   28.6596    0.0000 </r>
       <r>   29.8903    0.0000 </r>
       <r>   37.9068    0.0000 </r>
       <r>   39.5468    0.0000 </r>
      </set>
      <set comment="kpoint 3">
       <r>  -36.5276    1.0000 </r>
       <r>  -36.3802    1.0000 </r>
       <r>  -36.0684    1.0000 </r>
       <r>  -35.9135    1.0000 </r>
       <r>  -35.8628    1.0000 </r>
       <r>  -35.7033    1.0000 </r>
       <r>    2.4001    1.0000 </r>
       <r>    3.2829    1.0000 </r>
       <r>    4.9114    1.0000 </r>
       <r>    5.3481    1.0000 </r>
       <r>    5.4717    1.0000 </r>
       <r>    6.1690    1.0000 </r>
       <r>    7.3976    0.0000 </r>
       <r>    7.9430    0.0000 </r>
       <r>    8.3045    0.0000 </r>
       <r>    8.6897    0.0000 </r>
       <r>    9.6875    0.0000 </r>
       <r>   11.8724    0.0000 </r>
       <r>   16.8280    0.0000 </r>
       <r>   20.6779    0.0000 </r>
       <r>   24.3452    0.0000 </r>
       <r>   24.7314    0.0000 </r>
       <r>   25.8540    0.0000 </r>
       <r>   30.5398    0.0000 </r>
       <r>   30.9400    0.0000 </r>
       <r>   33.0861    0.0000 </r>
       <r>   35.1286    0.0000 </r>
       <r>   35.8240    0.0000 </r>
      </set>
      <set comment="kpoint 4">
       <r>  -36.4056    1.0000 </r>
       <r>  -36.3165    1.0000 </r>
       <r>  -36.3165    1.0000 </r>
       <r>  -35.9038    1.0000 </r>
       <r>  -35.9038    1.0000 </r>
       <r>  -35.8112    1.0000 </r>
       <r>    4.1156    1.0000 </r>
       <r>    4.1405    1.0000 </r>
       <r>    4.5943    1.0000 </r>
       <r>    4.5943    1.0000 </r>
       <r>    4.9094    1.0000 </r>
       <r>    4.9094    1.0000 </r>
       <r>    8.2965    0.0000 </r>
       <r>    8.2965    0.0000 </r>
       <r>    8.3681    0.0000 </r>
       <r>    8.3681    0.0000 </r>
       <r>   11.2814    0.0000 </r>
       <r>   15.5907    0.0000 </r>
       <r>   15.5907    0.0000 </r>
       <r>   18.3326    0.0000 </r>
       <r>   21.2058    0.0000 </r>
       <r>   21.2058    0.0000 </r>
       <r>   23.3520    0.0000 </r>
       <r>   27.0032    0.0000 </r>
       <r>   34.5225    0.0000 </r>
       <r>   34.5225    0.0000 </r>
       <r>   36.0667    0.0000 </r>
       <r>   40.6421    0.0000 </r>
      </set>
     </set>
    </set>
   </array>
  </eigenvalues>
  <separator name="orbital magnetization" >
   <v name="MAGDIPOLOUT">      0.00000000      0.00000000      0.00000000</v>
  </separator>
  <dos>
   <i name="efermi">      6.73137795 </i>
   <total>
    <array>
     <dimension dim="1">gridpoints</dimension>
     <dimension dim="2">spin</dimension>
     <field>energy</field>
     <field>total</field>
     <field>integrated</field>
     <set>
      <set comment="spin 1">
       <r>   -40.3861     0.0000     0.0000 </r>
       <r>   -40.1031     0.0000     0.0000 </r>
       <r>   -39.8202     0.0000     0.0000 </r>
       <r>   -39.5372     0.0000     0.0000 </r>
       <r>   -39.2542     0.0000     0.0000 </r>
       <r>   -38.9713     0.0000     0.0000 </r>
       <r>   -38.6883     0.0000     0.0000 </r>
       <r>   -38.4054     0.0000     0.0000 </r>
       <r>   -38.1224     0.0000     0.0000 </r>
       <r>   -37.8395     0.0000     0.0000 </r>
       <r>   -37.5565     0.0000     0.0000 </r>
       <r>   -37.2736     0.0000     0.0000 </r>
       <r>   -36.9906     0.0000     0.0000 </r>
       <r>   -36.7076     0.0171     0.0048 </r>
       <r>   -36.4247     4.9074     1.3934 </r>
       <r>   -36.1417    12.2526     4.8603 </r>
       <r>   -35.8588    14.6560     9.0074 </r>
       <r>   -35.5758    10.4328    11.9594 </r>
       <r>   -35.2929     0.1436    12.0000 </r>
       <r>   -35.0099     0.0000    12.0000 </r>
       <r>   -34.7270     0.0000    12.0000 </r>
       <r>   -34.4440     0.0000    12.0000 </r>
       <r>   -34.1610     0.0000    12.0000 </r>
       <r>   -33.8781     0.0000    12.0000 </r>
       <r>   -33.5951     0.0000    12.0000 </r>
       <r>   -33.3122     0.0000    12.0000 </r>
       <r>   -33.0292     0.0000    12.0000 </r>
       <r>   -32.7463     0.0000    12.0000 </r>
       <r>   -32.4633     0.0000    12.0000 </r>
       <r>   -32.1804     0.0000    12.0000 </r>
       <r>   -31.8974     0.0000    12.0000 </r>
       <r>   -31.6144     0.0000    12.0000 </r>
       <r>   -31.3315     0.0000    12.0000 </r>
       <r>   -31.0485     0.0000    12.0000 </r>
       <r>   -30.7656     0.0000    12.0000 </r>
       <r>   -30.4826     0.0000    12.0000 </r>
       <r>   -30.1997     0.0000    12.0000 </r>
       <r>   -29.9167     0.0000    12.0000 </r>
       <r>   -29.6338     0.0000    12.0000 </r>
       <r>   -29.3508     0.0000    12.0000 </r>
       <r>   -29.0678     0.0000    12.0000 </r>
       <r>   -28.7849     0.0000    12.0000 </r>
       <r>   -28.5019     0.0000    12.0000 </r>
       <r>   -28.2190     0.0000    12.0000 </r>
       <r>   -27.9360     0.0000    12.0000 </r>
       <r>   -27.6531     0.0000    12.0000 </r>
       <r>   -27.3701     0.0000    12.0000 </r>
       <r>   -27.0872     0.0000    12.0000 </r>
       <r>   -26.8042     0.0000    12.0000 </r>
       <r>   -26.5213     0.0000    12.0000 </r>
       <r>   -26.2383     0.0000    12.0000 </r>
       <r>   -25.9553     0.0000    12.0000 </r>
       <r>   -25.6724     0.0000    12.0000 </r>
       <r>   -25.3894     0.0000    12.0000 </r>
       <r>   -25.1065     0.0000    12.0000 </r>
       <r>   -24.8235     0.0000    12.0000 </r>
       <r>   -24.5406     0.0000    12.0000 </r>
       <r>   -24.2576     0.0000    12.0000 </r>
       <r>   -23.9747     0.0000    12.0000 </r>
       <r>   -23.6917     0.0000    12.0000 </r>
       <r>   -23.4087     0.0000    12.0000 </r>
       <r>   -23.1258     0.0000    12.0000 </r>
       <r>   -22.8428     0.0000    12.0000 </r>
       <r>   -22.5599     0.0000    12.0000 </r>
       <r>   -22.2769     0.0000    12.0000 </r>
       <r>   -21.9940     0.0000    12.0000 </r>
       <r>   -21.7110     0.0000    12.0000 </r>
       <r>   -21.4281     0.0000    12.0000 </r>
       <r>   -21.1451     0.0000    12.0000 </r>
       <r>   -20.8621     0.0000    12.0000 </r>
       <r>   -20.5792     0.0000    12.0000 </r>
       <r>   -20.2962     0.0000    12.0000 </r>
       <r>   -20.0133     0.0000    12.0000 </r>
       <r>   -19.7303     0.0000    12.0000 </r>
       <r>   -19.4474     0.0000    12.0000 </r>
       <r>   -19.1644     0.0000    12.0000 </r>
       <r>   -18.8815     0.0000    12.0000 </r>
       <r>   -18.5985     0.0000    12.0000 </r>
       <r>   -18.3155     0.0000    12.0000 </r>
       <r>   -18.0326     0.0000    12.0000 </r>
       <r>   -17.7496     0.0000    12.0000 </r>
       <r>   -17.4667     0.0000    12.0000 </r>
       <r>   -17.1837     0.0000    12.0000 </r>
       <r>   -16.9008     0.0000    12.0000 </r>
       <r>   -16.6178     0.0000    12.0000 </r>
       <r>   -16.3349     0.0000    12.0000 </r>
       <r>   -16.0519     0.0000    12.0000 </r>
       <r>   -15.7689     0.0000    12.0000 </r>
       <r>   -15.4860     0.0000    12.0000 </r>
       <r>   -15.2030     0.0000    12.0000 </r>
       <r>   -14.9201     0.0000    12.0000 </r>
       <r>   -14.6371     0.0000    12.0000 </r>
       <r>   -14.3542     0.0000    12.0000 </r>
       <r>   -14.0712     0.0000    12.0000 </r>
       <r>   -13.7883     0.0000    12.0000 </r>
       <r>   -13.5053     0.0000    12.0000 </r>
       <r>   -13.2223     0.0000    12.0000 </r>
       <r>   -12.9394     0.0000    12.0000 </r>
       <r>   -12.6564     0.0000    12.0000 </r>
       <r>   -12.3735     0.0000    12.0000 </r>
       <r>   -12.0905     0.0000    12.0000 </r>
       <r>   -11.8076     0.0000    12.0000 </r>
       <r>   -11.5246     0.0000    12.0000 </r>
       <r>   -11.2417     0.0000    12.0000 </r>
       <r>   -10.9587     0.0000    12.0000 </r>
       <r>   -10.6757     0.0000    12.0000 </r>
       <r>   -10.3928     0.0000    12.0000 </r>
       <r>   -10.1098     0.0000    12.0000 </r>
       <r>    -9.8269     0.0000    12.0000 </r>
       <r>    -9.5439     0.0000    12.0000 </r>
       <r>    -9.2610     0.0000    12.0000 </r>
       <r>    -8.9780     0.0000    12.0000 </r>
       <r>    -8.6951     0.0000    12.0000 </r>
       <r>    -8.4121     0.0000    12.0000 </r>
       <r>    -8.1291     0.0000    12.0000 </r>
       <r>    -7.8462     0.0000    12.0000 </r>
       <r>    -7.5632     0.0000    12.0000 </r>
       <r>    -7.2803     0.0000    12.0000 </r>
       <r>    -6.9973     0.0000    12.0000 </r>
       <r>    -6.7144     0.0000    12.0000 </r>
       <r>    -6.4314     0.0000    12.0000 </r>
       <r>    -6.1485     0.0000    12.0000 </r>
       <r>    -5.8655     0.0000    12.0000 </r>
       <r>    -5.5826     0.0000    12.0000 </r>
       <r>    -5.2996     0.0000    12.0000 </r>
       <r>    -5.0166     0.0000    12.0000 </r>
       <r>    -4.7337     0.0000    12.0000 </r>
       <r>    -4.4507     0.0000    12.0000 </r>
       <r>    -4.1678     0.0000    12.0000 </r>
       <r>    -3.8848     0.0000    12.0000 </r>
       <r>    -3.6019     0.0000    12.0000 </r>
       <r>    -3.3189     0.0000    12.0000 </r>
       <r>    -3.0360     0.0000    12.0000 </r>
       <r>    -2.7530     0.0000    12.0000 </r>
       <r>    -2.4700     0.0000    12.0000 </r>
       <r>    -2.1871     0.0000    12.0000 </r>
       <r>    -1.9041     0.0000    12.0000 </r>
       <r>    -1.6212     0.0000    12.0000 </r>
       <r>    -1.3382     0.0000    12.0000 </r>
       <r>    -1.0553     0.0000    12.0000 </r>
       <r>    -0.7723     0.1215    12.0344 </r>
       <r>    -0.4894     0.1402    12.0741 </r>
       <r>    -0.2064     0.0000    12.0741 </r>
       <r>     0.0766     0.0000    12.0741 </r>
       <r>     0.3595     0.0000    12.0741 </r>
       <r>     0.6425     0.0000    12.0741 </r>
       <r>     0.9254     0.0000    12.0741 </r>
       <r>     1.2084     0.0073    12.0761 </r>
       <r>     1.4913     1.4367    12.4827 </r>
       <r>     1.7743     0.1267    12.5185 </r>
       <r>     2.0572     0.0000    12.5185 </r>
       <r>     2.3402     0.6232    12.6949 </r>
       <r>     2.6232     2.5536    13.4174 </r>
       <r>     2.9061     0.4853    13.5547 </r>
       <r>     3.1891     0.2925    13.6375 </r>
       <r>     3.4720     2.9694    14.4777 </r>
       <r>     3.7550     1.4604    14.8909 </r>
       <r>     4.0379     1.9232    15.4351 </r>
       <r>     4.3209     3.8140    16.5143 </r>
       <r>     4.6038     2.3351    17.1750 </r>
       <r>     4.8868     4.5795    18.4708 </r>
       <r>     5.1698     4.6364    19.7827 </r>
       <r>     5.4527     4.1439    20.9553 </r>
       <r>     5.7357     2.1212    21.5555 </r>
       <r>     6.0186     0.2641    21.6302 </r>
       <r>     6.3016     6.6419    23.5096 </r>
       <r>     6.5845     0.7666    23.7265 </r>
       <r>     6.8675     1.8406    24.2473 </r>
       <r>     7.1504     0.6976    24.4446 </r>
       <r>     7.4334     2.5840    25.1758 </r>
       <r>     7.7164     3.6939    26.2210 </r>
       <r>     7.9993     2.5193    26.9339 </r>
       <r>     8.2823     4.5620    28.2247 </r>
       <r>     8.5652     9.5897    30.9382 </r>
       <r>     8.8482     4.7548    32.2835 </r>
       <r>     9.1311     0.0451    32.2963 </r>
       <r>     9.4141     0.4585    32.4260 </r>
       <r>     9.6970     2.0656    33.0105 </r>
       <r>     9.9800     1.4026    33.4074 </r>
       <r>    10.2630     0.0001    33.4074 </r>
       <r>    10.5459     0.0000    33.4074 </r>
       <r>    10.8289     0.0000    33.4074 </r>
       <r>    11.1118     0.0172    33.4123 </r>
       <r>    11.3948     1.9630    33.9677 </r>
       <r>    11.6777     0.3944    34.0793 </r>
       <r>    11.9607     4.0976    35.2387 </r>
       <r>    12.2436     0.3343    35.3333 </r>
       <r>    12.5266     0.0000    35.3333 </r>
       <r>    12.8096     0.0000    35.3333 </r>
       <r>    13.0925     0.0000    35.3333 </r>
       <r>    13.3755     0.0000    35.3333 </r>
       <r>    13.6584     0.0000    35.3333 </r>
       <r>    13.9414     0.0000    35.3333 </r>
       <r>    14.2243     0.0000    35.3333 </r>
       <r>    14.5073     0.0000    35.3333 </r>
       <r>    14.7902     0.0000    35.3333 </r>
       <r>    15.0732     0.0000    35.3333 </r>
       <r>    15.3562     0.0019    35.3339 </r>
       <r>    15.6391     3.1521    36.2258 </r>
       <r>    15.9221     1.0346    36.5185 </r>
       <r>    16.2050     0.0000    36.5185 </r>
       <r>    16.4880     0.0000    36.5185 </r>
       <r>    16.7709     0.6587    36.7049 </r>
       <r>    17.0539     2.4805    37.4068 </r>
       <r>    17.3368     0.0022    37.4074 </r>
       <r>    17.6198     0.1338    37.4453 </r>
       <r>    17.9027     0.6506    37.6294 </r>
       <r>    18.1857     0.0404    37.6408 </r>
       <r>    18.4687     1.9979    38.2061 </r>
       <r>    18.7516     0.0569    38.2222 </r>
       <r>    19.0346     0.0000    38.2222 </r>
       <r>    19.3175     0.0000    38.2222 </r>
       <r>    19.6005     0.0000    38.2222 </r>
       <r>    19.8834     0.0000    38.2222 </r>
       <r>    20.1664     0.0000    38.2222 </r>
       <r>    20.4493     0.0019    38.2228 </r>
       <r>    20.7323     2.4460    38.9149 </r>
       <r>    21.0153     0.7082    39.1153 </r>
       <r>    21.2982     3.7734    40.1830 </r>
       <r>    21.5812     0.4004    40.2963 </r>
       <r>    21.8641     1.2112    40.6390 </r>
       <r>    22.1471     1.9299    41.1851 </r>
       <r>    22.4300     0.0003    41.1852 </r>
       <r>    22.7130     0.0000    41.1852 </r>
       <r>    22.9959     0.0000    41.1852 </r>
       <r>    23.2789     0.3152    41.2744 </r>
       <r>    23.5619     1.7759    41.7769 </r>
       <r>    23.8448     0.0034    41.7779 </r>
       <r>    24.1278     0.4061    41.8928 </r>
       <r>    24.4107     3.8275    42.9758 </r>
       <r>    24.6937     1.9351    43.5233 </r>
       <r>    24.9766     2.2074    44.1479 </r>
       <r>    25.2596     0.0008    44.1481 </r>
       <r>    25.5425     0.0000    44.1482 </r>
       <r>    25.8255     1.0793    44.4536 </r>
       <r>    26.1085     3.1733    45.3515 </r>
       <r>    26.3914     2.0279    45.9253 </r>
       <r>    26.6744     0.0023    45.9259 </r>
       <r>    26.9573     0.5405    46.0789 </r>
       <r>    27.2403     1.5529    46.5183 </r>
       <r>    27.5232     0.0008    46.5185 </r>
       <r>    27.8062     0.0000    46.5185 </r>
       <r>    28.0891     0.0000    46.5185 </r>
       <r>    28.3721     0.0001    46.5185 </r>
       <r>    28.6551     1.4896    46.9400 </r>
       <r>    28.9380     1.6516    47.4074 </r>
       <r>    29.2210     0.0001    47.4074 </r>
       <r>    29.5039     0.0000    47.4074 </r>
       <r>    29.7869     0.1237    47.4424 </r>
       <r>    30.0698     2.1956    48.0637 </r>
       <r>    30.3528     0.0908    48.0894 </r>
       <r>    30.6357     3.0745    48.9593 </r>
       <r>    30.9187     1.4730    49.3761 </r>
       <r>    31.2017     1.9429    49.9258 </r>
       <r>    31.4846     0.0003    49.9259 </r>
       <r>    31.7676     0.0000    49.9259 </r>
       <r>    32.0505     0.0000    49.9259 </r>
       <r>    32.3335     0.0000    49.9259 </r>
       <r>    32.6164     0.0000    49.9259 </r>
       <r>    32.8994     0.0130    49.9296 </r>
       <r>    33.1823     2.8557    50.7376 </r>
       <r>    33.4653     0.2728    50.8148 </r>
       <r>    33.7483     0.0000    50.8148 </r>
       <r>    34.0312     0.0000    50.8148 </r>
       <r>    34.3142     0.0067    50.8167 </r>
       <r>    34.5971     3.5716    51.8273 </r>
       <r>    34.8801     0.6110    52.0002 </r>
       <r>    35.1630     2.1565    52.6104 </r>
       <r>    35.4460     0.9842    52.8889 </r>
       <r>    35.7289     0.2809    52.9684 </r>
       <r>    36.0119     3.3070    53.9041 </r>
       <r>    36.2949     1.6597    54.3737 </r>
       <r>    36.5778     0.5010    54.5155 </r>
       <r>    36.8608     0.0107    54.5185 </r>
       <r>    37.1437     0.0000    54.5185 </r>
       <r>    37.4267     0.0000    54.5185 </r>
       <r>    37.7096     0.0042    54.5197 </r>
       <r>    37.9926     1.3896    54.9129 </r>
       <r>    38.2755     0.1770    54.9630 </r>
       <r>    38.5585     0.0000    54.9630 </r>
       <r>    38.8414     0.0000    54.9630 </r>
       <r>    39.1244     0.0000    54.9630 </r>
       <r>    39.4074     0.0381    54.9738 </r>
       <r>    39.6903     1.4993    55.3980 </r>
       <r>    39.9733     0.0333    55.4074 </r>
       <r>    40.2562     0.0000    55.4074 </r>
       <r>    40.5392     0.1525    55.4506 </r>
       <r>    40.8221     1.9304    55.9968 </r>
       <r>    41.1051     0.0114    56.0000 </r>
       <r>    41.3880     0.0000    56.0000 </r>
       <r>    41.6710     0.0000    56.0000 </r>
       <r>    41.9540     0.0000    56.0000 </r>
       <r>    42.2369     0.0000    56.0000 </r>
       <r>    42.5199     0.0000    56.0000 </r>
       <r>    42.8028     0.0000    56.0000 </r>
       <r>    43.0858     0.0000    56.0000 </r>
       <r>    43.3687     0.0000    56.0000 </r>
       <r>    43.6517     0.0000    56.0000 </r>
       <r>    43.9346     0.0000    56.0000 </r>
       <r>    44.2176     0.0000    56.0000 </r>
       <r>    44.5006     0.0000    56.0000 </r>
      </set>
     </set>
    </array>
   </total>
  </dos>
 </calculation>
 <structure name="finalpos" >
  <crystal>
   <varray name="basis" >
    <v>       2.85456319      -0.00000000       0.00000000 </v>
    <v>      -0.00000000       2.85456319      -0.00000000 </v>
    <v>      -0.00000000      -0.00000000       2.85456319 </v>
   </varray>
   <i name="volume">     23.26049673 </i>
   <varray name="rec_basis" >
    <v>       0.35031629       0.00000000       0.00000000 </v>
    <v>       0.00000000       0.35031629       0.00000000 </v>
    <v>      -0.00000000       0.00000000       0.35031629 </v>
   </varray>
  </crystal>
  <varray name="positions" >
   <v>       0.00000000       0.00000000       0.00000000 </v>
   <v>       0.50000000       0.50000000       0.50000000 </v>
  </varray>
 </structure>
</modeling>
