HECN                                    
           1
     8.932500    0.000000    0.000000
     0.005753    9.055598    0.000000
     0.032102   -0.015743    8.937128
   Nb   Ta   V    N    C    Cr   Mo
   7   6   7  13  19   6   6
Direct configuration=     1
   0.99688001  0.99204997  0.99924002
   0.25398003  0.99714995  0.24912000
   0.24803003  0.50165000  0.24955001
   0.50501006  0.49745998  0.99834003
   0.50479003  0.24631001  0.74710002
   0.99427992  0.50449999  0.49779000
   0.49950005  0.75481999  0.74817004
   0.99437004  0.23617001  0.26379999
   0.75718000  0.74102998  0.01100000
   0.00201000  0.25541000  0.73894001
   0.75307001  0.26163001  0.50533002
   0.99514004  0.74492004  0.74511997
   0.25679999  0.49462002  0.74545002
   0.24788999  0.24839000  0.99657997
   0.50833000  0.25676999  0.25376001
   0.74879004  0.98787999  0.26967001
   0.75719000  0.25603001  0.99591997
   0.24762001  0.74973999  0.99974006
   0.25272001  0.24823001  0.50015003
   0.24457999  0.75048999  0.49983999
   0.24982001  0.24942998  0.24825000
   0.26146999  0.99984002  0.99295996
   0.00281000  0.25024000  0.00130000
   0.75313998  0.24617000  0.25492002
   0.74767001  0.99748000  0.01202000
   0.50714994  0.99977000  0.24673000
   0.99051999  0.48088002  0.24100998
   0.50519005  0.76130999  0.00855000
   0.98896989  0.00202000  0.73708999
   0.75744996  0.24437997  0.74896999
   0.73632001  0.00417000  0.51063000
   0.50563996  0.23264999  0.49544997
   0.50008998  0.00061000  0.73471998
   0.99720000  0.99771992  0.25899999
   0.50427997  0.24673000  0.00262000
   0.25133999  0.74958002  0.24910999
   0.24328000  0.50072997  0.99510994
   0.99837005  0.74313996  0.00460000
   0.75633000  0.73891003  0.25767000
   0.75839004  0.50315998  0.00288000
   0.50700002  0.50333002  0.25878999
   0.24900999  0.25315000  0.74854000
   0.24446000  0.99823996  0.50287998
   0.99804009  0.24229999  0.50128003
   0.24177002  0.75340997  0.75018002
   0.25841001  0.50062002  0.50129001
   0.99000004  0.76215003  0.49746000
   0.99203996  0.50055999  0.75138002
   0.75036005  0.74888000  0.74756004
   0.74036002  0.50197000  0.50067003
   0.50575006  0.74958002  0.49720000
   0.50501003  0.50217998  0.73912003
   0.51588997  0.01358000  0.98075008
   0.99841994  0.50976998  0.98613004
   0.50379003  0.73926997  0.25905001
   0.23780002  0.01082000  0.74607998
   0.47957999  0.98308000  0.49717999
   0.74279003  0.97869994  0.76450995
   0.99864998  0.77573999  0.26102000
   0.73551001  0.51468004  0.26666001
   0.02362000  0.99783001  0.49557002
   0.50539000  0.52833005  0.49917999
   0.73876003  0.52828003  0.73814999
   0.75400003  0.72937999  0.49116997
HECN                                    
           1
     8.162420    0.019196   -0.006778
     0.024718    8.265586    0.002306
     0.022519   -0.012021    8.189301
   Nb   Ta   V    N    C    Cr   Mo
   7   6   7  13  19   6   6
Direct configuration=     2
   0.99822278  0.99378728  0.99858315
   0.25947261  0.99520257  0.24653207
   0.25189215  0.50332030  0.24764530
   0.50395222  0.49231040  0.99986998
   0.50116562  0.24174207  0.75061208
   0.99752039  0.50302481  0.50049008
   0.49530794  0.76066694  0.74924877
   0.99463363  0.23670651  0.25832178
   0.75348338  0.74516029  0.01143112
   0.00411096  0.25285565  0.74415248
   0.74686150  0.25451652  0.50345726
   0.00225909  0.74799661  0.74734627
   0.25526296  0.49686889  0.74809465
   0.25009909  0.24946011  0.99391454
   0.50967048  0.25507297  0.25134652
   0.74483803  0.98670254  0.27206489
   0.75334535  0.25836115  0.99419145
   0.24388145  0.74846776  0.99972181
   0.25178072  0.24898607  0.50222847
   0.24477175  0.74987194  0.49898810
   0.24972179  0.24903930  0.24865924
   0.25992554  0.99979085  0.99301224
   0.00246978  0.24777279  0.00130683
   0.75166317  0.24428652  0.25429388
   0.74727030  0.99783020  0.00884797
   0.50703273  0.00014299  0.24908244
   0.99580689  0.47992738  0.24444218
   0.50434714  0.75909939  0.00637065
   0.98899426  0.00229507  0.74380183
   0.75548487  0.24383499  0.75080634
   0.73580157  0.00592763  0.50548881
   0.50388475  0.23211885  0.49469964
   0.50190816  0.00069738  0.73861020
   0.99558457  0.00163514  0.25243652
   0.50486627  0.24614001  0.00338349
   0.25311043  0.74948224  0.24924266
   0.24483911  0.50060700  0.99715434
   0.00327596  0.74303141  0.00334202
   0.75290720  0.74667138  0.25248996
   0.75744826  0.49772138  0.00279546
   0.49913296  0.50205582  0.25332251
   0.25078609  0.24902996  0.74861184
   0.25493967  0.99696108  0.50516136
   0.00091588  0.24653618  0.50066019
   0.24492443  0.75407812  0.75025686
   0.25443708  0.50066119  0.49820837
   0.99746176  0.75765509  0.50071217
   0.99535070  0.50064854  0.75115117
   0.74786899  0.75845305  0.75038580
   0.74749134  0.49673165  0.50206197
   0.50009164  0.75799542  0.49489773
   0.49958524  0.50056504  0.74575298
   0.51866137  0.01886783  0.97836954
   0.99984564  0.51333235  0.98335534
   0.50362058  0.73827946  0.26033067
   0.23786764  0.01287946  0.74831444
   0.47848287  0.98279147  0.49526901
   0.73906485  0.97475849  0.76677241
   0.00076297  0.77579232  0.25866416
   0.73340978  0.51028437  0.25910461
   0.02275052  0.99935787  0.49647181
   0.49923655  0.52567268  0.49715856
   0.74088362  0.52014762  0.74523707
   0.75355335  0.73733139  0.49126210
HECN                                    
           1
     8.622089    0.007738   -0.002732
     0.013397    8.737153    0.000930
     0.028239   -0.014243    8.635687
   Nb   Ta   V    N    C    Cr   Mo
   7   6   7  13  19   6   6
Direct configuration=     3
   0.99734871  0.99265305  0.99901064
   0.25588309  0.99648393  0.24821456
   0.24937295  0.50223348  0.24888428
   0.50463436  0.49567674  0.99887296
   0.50352413  0.24472452  0.74832537
   0.99539983  0.50399496  0.49872917
   0.49805487  0.75683708  0.74854942
   0.99446530  0.23635501  0.26189035
   0.75590432  0.74245368  0.01115305
   0.00273170  0.25453029  0.74075537
   0.75090702  0.25915873  0.50467925
  -0.00238771  0.74599585  0.74589273
   0.25626904  0.49539638  0.74637314
   0.24865918  0.24876313  0.99564986
   0.50879352  0.25618434  0.25291767
   0.74741644  0.98746702  0.27050674
   0.75586137  0.25683050  0.99531995
   0.24632161  0.74929409  0.99973548
   0.25239432  0.24849060  0.50087518
   0.24464599  0.75027625  0.49954282
   0.24978512  0.24929472  0.24839263
   0.26093431  0.99982067  0.99297901
   0.00268817  0.24938575  0.00130211
   0.75262527  0.24551589  0.25470221
   0.74753370  0.99759997  0.01091457
   0.50710858 -0.00010067  0.24755015
   0.99234996  0.48055905  0.24220334
   0.50489551  0.76054335  0.00779037
   0.98897507  0.00211650  0.73942964
   0.75676666  0.24418876  0.74961107
   0.73614580  0.00477643  0.50883849
   0.50503089  0.23246339  0.49518927
   0.50071846  0.00064374  0.73607507
   0.99664954 -0.00092898  0.25671370
   0.50448194  0.24652687  0.00288571
   0.25195370  0.74954889  0.24915526
   0.24381934  0.50069017  0.99582171
   0.00007180  0.74310960  0.00415882
   0.75515803  0.74158954  0.25586763
   0.75805503  0.50127659  0.00285003
   0.50427298  0.50287613  0.25688815
   0.24961942  0.25172703  0.74856332
   0.24809080  0.99781375  0.50366931
  -0.00095573  0.24377010  0.50106320
   0.24286487  0.75364597  0.75020522
   0.25703407  0.50062765  0.50021797
   0.99257875  0.76060656  0.49858877
   0.99318829  0.50059561  0.75129847
   0.74950959  0.75218937  0.74854817
   0.74282402  0.50016843  0.50115040
   0.50380227  0.75248302  0.49640210
   0.50312270  0.50161420  0.74143478
   0.51686057  0.01541352  0.97991975
   0.99892142  0.51100432  0.98516272
   0.50372902  0.73892720  0.25949633
   0.23782545  0.01153317  0.74685921
   0.47920015  0.98297813  0.49651440
   0.74149085  0.97733085  0.76529988
  -0.00061592  0.77576085  0.26019766
   0.73477902  0.51315436  0.26402667
   0.02332038  0.99835755  0.49588512
   0.50325313  0.52740080  0.49847820
   0.73947985  0.52547051  0.74061775
   0.75385748  0.73213079  0.49120380
HECN                                    
           1
     8.607807    0.008094   -0.002858
     0.013749    8.722501    0.000972
     0.028061   -0.014174    8.621817
   Nb   Ta   V    N    C    Cr   Mo
   7   6   7  13  19   6   6
Direct configuration=     4
   0.99737448  0.99268642  0.99899804
   0.25598864  0.99644641  0.24816493
   0.24944712  0.50226552  0.24884774
   0.50461414  0.49557776  0.99890233
   0.50345459  0.24463677  0.74839276
   0.99546214  0.50396654  0.49878102
   0.49797423  0.75694955  0.74857009
   0.99447032  0.23636533  0.26178520
   0.75583322  0.74253314  0.01116129
   0.00277214  0.25448114  0.74085543
   0.75078784  0.25902210  0.50464328
  -0.00225096  0.74605487  0.74593550
   0.25623949  0.49543963  0.74642388
   0.24870159  0.24878367  0.99559871
   0.50881930  0.25615170  0.25287136
   0.74734054  0.98744445  0.27055268
   0.75578745  0.25687538  0.99528675
   0.24624980  0.74926969  0.99973511
   0.25237627  0.24850515  0.50091507
   0.24464968  0.75026437  0.49952647
   0.24978324  0.24928721  0.24840048
   0.26090464  0.99981975  0.99298001
   0.00268168  0.24933833  0.00130224
   0.75259693  0.24547971  0.25469018
   0.74752599  0.99760671  0.01085369
   0.50710634 -0.00009350  0.24759530
   0.99245158  0.48054064  0.24226926
   0.50487934  0.76050088  0.00774854
   0.98897558  0.00212178  0.73955847
   0.75672892  0.24417831  0.74964630
   0.73613578  0.00481024  0.50873980
   0.50499717  0.23245321  0.49517486
   0.50075342  0.00064538  0.73614975
   0.99661839 -0.00085368  0.25658770
   0.50449322  0.24651552  0.00290037
   0.25198772  0.74954698  0.24915782
   0.24384931  0.50068778  0.99586096
   0.00016606  0.74310743  0.00413470
   0.75509209  0.74173880  0.25576816
   0.75803702  0.50117207  0.00284842
   0.50412181  0.50285178  0.25678317
   0.24965362  0.25164781  0.74856472
   0.24829219  0.99778898  0.50371317
  -0.00090055  0.24385149  0.50105131
   0.24292547  0.75365876  0.75020671
   0.25695772  0.50062852  0.50015879
   0.99272222  0.76052002  0.49865125
   0.99325190  0.50059726  0.75129410
   0.74946158  0.75237342  0.74860237
   0.74296114  0.50006761  0.50117717
   0.50369339  0.75264488  0.49635786
   0.50301853  0.50158323  0.74156206
   0.51691371  0.01551512  0.97987406
   0.99894873  0.51107278  0.98510947
   0.50372579  0.73890816  0.25952092
   0.23782673  0.01157275  0.74690210
   0.47917906  0.98297261  0.49647772
   0.74141936  0.97725514  0.76534329
  -0.00057533  0.77576183  0.26015246
   0.73473869  0.51306992  0.26388165
   0.02330365  0.99838694  0.49590242
   0.50313493  0.52734982  0.49843937
   0.73952084  0.52531413  0.74075381
   0.75384876  0.73228364  0.49120555
HECN                                    
           1
     8.596338    0.022865   -0.004358
     0.028757    8.661362    0.002197
     0.026495   -0.012813    8.619416
   Nb   Ta   V    N    C    Cr   Mo
   7   6   7  13  19   6   6
Direct configuration=     5
   0.00034245  0.99600502  0.99697406
   0.26249334  0.99580408  0.24473496
   0.25263548  0.50300304  0.24636283
   0.50240781  0.49121304  0.00089123
   0.49988134  0.24013355  0.75192900
   0.00068549  0.50174694  0.50098727
   0.49262196  0.76305461  0.75086989
   0.99647122  0.23838028  0.25277205
   0.75093467  0.74885176  0.00951002
   0.00462941  0.25041901  0.74943499
   0.74454313  0.24996401  0.50251889
   0.00433173  0.75089667  0.74995871
   0.25257725  0.49855841  0.74972574
   0.25163072  0.24980002  0.99324196
   0.50943648  0.25351286  0.24969138
   0.74273358  0.98722146  0.27180158
   0.75140971  0.25840467  0.99405538
   0.24323647  0.74822839  0.99997016
   0.25201265  0.24925098  0.50251162
   0.24574244  0.74939377  0.49850338
   0.25165657  0.24888641  0.24858690
   0.26091913  0.99950601  0.99190662
   0.00238860  0.24855842  0.00149872
   0.74809864  0.24311166  0.25106020
   0.74614853  0.99963171  0.00817932
   0.50807364  0.00011823  0.24904382
   0.99736301  0.48301544  0.24385273
   0.50173762  0.75950567  0.00644847
   0.98845901  0.00232091  0.74660719
   0.75378715  0.24343308  0.75386350
   0.73635073  0.00526066  0.50507914
   0.50065082  0.23255280  0.49365388
   0.50178819  0.00098679  0.74036971
   0.99434143  0.00357509  0.24919903
   0.50459501  0.24501319  0.00538660
   0.25554102  0.74928563  0.24898714
   0.24439865  0.50028717  0.99838684
   0.00678110  0.74203164  0.00379047
   0.74985087  0.75162233  0.25070630
   0.75875862  0.49321506  0.00310416
   0.49403659  0.50094072  0.25056759
   0.25253185  0.24584671  0.74888694
   0.26117724  0.99678024  0.50726573
   0.00369856  0.24875937  0.50065446
   0.24743672  0.75599803  0.75053304
   0.25235028  0.50028698  0.49679111
   0.00194348  0.75522850  0.50198548
   0.99681115  0.50057273  0.75193068
   0.74708629  0.76208856  0.75077117
   0.74943699  0.49546207  0.50250926
   0.49661110  0.76346264  0.49343509
   0.49780956  0.49968847  0.74810309
   0.51873573  0.01980375  0.97805084
   0.00098866  0.51300755  0.98340679
   0.50271709  0.73981281  0.25950093
   0.23831396  0.01274201  0.75046653
   0.47941398  0.98404651  0.49298313
   0.73725510  0.97611224  0.76829811
   0.00283502  0.76952127  0.25500001
   0.73573213  0.50471649  0.25306554
   0.01828913  0.00177426  0.49808368
   0.49643265  0.51963963  0.49639093
   0.74389810  0.51410684  0.75140082
   0.75201335  0.74384090  0.49376332
HECN                                    
           1
     8.596279    0.022940   -0.004366
     0.028833    8.661051    0.002203
     0.026487   -0.012806    8.619404
   Nb   Ta   V    N    C    Cr   Mo
   7   6   7  13  19   6   6
Direct configuration=     6
   0.00035753  0.99602198  0.99696377
   0.26252646  0.99580074  0.24471753
   0.25265171  0.50300679  0.24635019
   0.50239661  0.49119071  0.00090135
   0.49986320  0.24011052  0.75194699
   0.00071211  0.50173553  0.50099850
   0.49259466  0.76308591  0.75088158
   0.99648138  0.23839059  0.25272621
   0.75090968  0.74888416  0.00950161
   0.00463891  0.25039819  0.74947863
   0.74451142  0.24991768  0.50250808
   0.00436521  0.75092140  0.74997918
   0.25255858  0.49857441  0.74974253
   0.25164562  0.24980520  0.99322998
   0.50943964  0.25349934  0.24967521
   0.74271013  0.98722036  0.27180793
   0.75138741  0.25841254  0.99404911
   0.24322114  0.74822308  0.99997136
   0.25201080  0.24925480  0.50251974
   0.24574801  0.74938930  0.49849818
   0.25166611  0.24888434  0.24858785
   0.26091920  0.99950440  0.99190117
   0.00238712  0.24855443  0.00149972
   0.74807576  0.24309957  0.25104174
   0.74614149  0.99964209  0.00816572
   0.50807856  0.00011930  0.24905119
   0.99738799  0.48302807  0.24386079
   0.50172164  0.75950061  0.00644185
   0.98845638  0.00232192  0.74664304
   0.75377219  0.24342928  0.75388495
   0.73635181  0.00526297  0.50506053
   0.50062869  0.23255335  0.49364614
   0.50179346  0.00098853  0.74039117
   0.99432979  0.00359780  0.24916145
   0.50459555  0.24500550  0.00539924
   0.25555911  0.74928427  0.24898627
   0.24440145  0.50028511  0.99839969
   0.00681478  0.74202608  0.00378873
   0.74982409  0.75167299  0.25068055
   0.75876236  0.49317432  0.00310546
   0.49398526  0.50093103  0.25053597
   0.25254655  0.24581698  0.74888859
   0.26124285  0.99677496  0.50728381
   0.00372193  0.24878446  0.50065245
   0.24745967  0.75600997  0.75053470
   0.25232683  0.50028527  0.49677398
   0.00199048  0.75520133  0.50200245
   0.99682927  0.50057258  0.75193392
   0.74707411  0.76213832  0.75078219
   0.74947000  0.49543843  0.50251604
   0.49657494  0.76351809  0.49342021
   0.49778307  0.49967881  0.74813635
   0.51874497  0.01982569  0.97804157
   0.00099903  0.51301744  0.98339813
   0.50271194  0.73981745  0.25950082
   0.23831643  0.01274799  0.75048466
   0.47941516  0.98405201  0.49296535
   0.73723391  0.97610642  0.76831313
   0.00285243  0.76948929  0.25497381
   0.73573725  0.50467372  0.25301054
   0.01826357  0.00179165  0.49809476
   0.49639859  0.51960022  0.49638051
   0.74392050  0.51404941  0.75145498
   0.75200391  0.74390009  0.49377632
HECN                                    
           1
     8.683362    0.012714   -0.003224
     0.018673    8.717101    0.003234
     0.027956   -0.011921    8.703796
   Nb   Ta   V    N    C    Cr   Mo
   7   6   7  13  19   6   6
Direct configuration=     7
   0.00319529  0.99598541  0.99638072
   0.26400210  0.99520500  0.24463013
   0.25147024  0.50379108  0.24568911
   0.50141010  0.48964948  0.00117586
   0.49912610  0.23940426  0.75346904
   0.00197331  0.50030248  0.50313980
   0.49231576  0.76254437  0.75045837
   0.99657907  0.24129576  0.24968482
   0.75089944  0.74956571  0.00654005
   0.00475901  0.24838333  0.75192162
   0.74479542  0.24641577  0.50204607
   0.00361895  0.75213341  0.75195003
   0.25072930  0.49819360  0.75048188
   0.25382110  0.25052508  0.99140330
   0.51055915  0.25189210  0.24813898
   0.73940185  0.98777368  0.27189066
   0.74868132  0.25771814  0.99400236
   0.24270397  0.74730916  0.00155302
   0.25167428  0.24876802  0.50400922
   0.24667481  0.74913430  0.49731118
   0.25265780  0.24786449  0.24869538
   0.26176552  0.99921496  0.99177881
   0.00202689  0.24976254  0.00190901
   0.74642069  0.24147032  0.24849468
   0.74566177  0.00139633  0.00591537
   0.50919966  0.00010438  0.24936242
   0.99872254  0.48741921  0.24480538
   0.49981361  0.75920079  0.00525951
   0.98823229  0.00239315  0.74776574
   0.75312130  0.24355740  0.75474110
   0.73902064  0.00475790  0.50462019
   0.49774203  0.23582823  0.49358434
   0.50186695  0.00161470  0.74317971
   0.99477411 -0.00078100  0.24881661
   0.50354336  0.24346832  0.00684124
   0.25834476  0.74988642  0.24851487
   0.24386449  0.49971579  0.99856015
   0.00563326  0.74215388  0.00471872
   0.74672971  0.75229266  0.25239143
   0.76020743  0.49220507  0.00415468
   0.49593717  0.50112323  0.25013488
   0.25229784  0.24489691  0.74876782
   0.26011662  0.99777355  0.50917952
   0.00448784  0.25060934  0.50009637
   0.24881483  0.75789296  0.75071793
   0.25110596  0.49977552  0.49734557
   0.00468707  0.75320456  0.50114389
   0.99842301  0.50110719  0.75293862
   0.74816647  0.75900978  0.74975143
   0.74865566  0.49825502  0.50169073
   0.49477162  0.76108210  0.49224689
   0.49850811  0.49999011  0.74835384
   0.52064282  0.02123975  0.97698954
   0.00243873  0.51423894  0.98101012
   0.50133624  0.73955618  0.26076869
   0.23696449  0.01152353  0.75317700
   0.48111967  0.98619009  0.48844687
   0.73250120  0.97919131  0.77265398
   0.00421829  0.76904852  0.25263844
   0.73265220  0.50374303  0.25055846
   0.02016713  0.00348814  0.49637425
   0.49783253  0.51945645  0.49522364
   0.74514216  0.51382415  0.75626374
   0.75127336  0.74426370  0.49354236
HECN                                    
           1
     8.664683    0.014907   -0.003469
     0.020852    8.705079    0.003013
     0.027641   -0.012111    8.685694
   Nb   Ta   V    N    C    Cr   Mo
   7   6   7  13  19   6   6
Direct configuration=     8
   0.00259271  0.99599247  0.99650465
   0.26368891  0.99533158  0.24464872
   0.25172090  0.50362423  0.24582952
   0.50161998  0.48997820  0.00111748
   0.49928284  0.23955500  0.75314569
   0.00170593  0.50060762  0.50268496
   0.49237511  0.76265984  0.75054824
   0.99655750  0.24067653  0.25033093
   0.75090135  0.74942039  0.00716914
   0.00473409  0.24881275  0.75140264
   0.74473599  0.24716200  0.50214413
   0.00377716  0.75187535  0.75153140
   0.25111785  0.49827524  0.75032477
   0.25335891  0.25037106  0.99179139
   0.51032180  0.25223430  0.24846529
   0.74010420  0.98765661  0.27187301
   0.74925611  0.25786682  0.99401219
   0.24281407  0.74750410  0.00121702
   0.25174591  0.24887188  0.50369281
   0.24647804  0.74918838  0.49756334
   0.25244748  0.24808158  0.24867254
   0.26158588  0.99927643  0.99180482
   0.00210309  0.24950517  0.00182209
   0.74677247  0.24181789  0.24903562
   0.74576312  0.00102255  0.00639341
   0.50896161  0.00010728  0.24929634
   0.99843807  0.48648307  0.24460488
   0.50021880  0.75926514  0.00551059
   0.98827989  0.00237806  0.74752725
   0.75325951  0.24353029  0.75455923
   0.73845405  0.00486485  0.50471379
   0.49835415  0.23513104  0.49359747
   0.50185127  0.00148130  0.74258740
   0.99468086  0.00015206  0.24888977
   0.50376722  0.24379622  0.00653487
   0.25775308  0.74975737  0.24861510
   0.24397866  0.49983726  0.99852604
   0.00588414  0.74212696  0.00452115
   0.74738667  0.75216143  0.25202794
   0.75990085  0.49241129  0.00393183
   0.49552263  0.50108176  0.25022014
   0.25235088  0.24509305  0.74879344
   0.26035557  0.99756107  0.50877683
   0.00432472  0.25022022  0.50021456
   0.24852660  0.75749133  0.75067909
   0.25136535  0.49988448  0.49722411
   0.00411495  0.75362939  0.50132629
   0.99808449  0.50099288  0.75272527
   0.74793528  0.75967621  0.74997033
   0.74882784  0.49765495  0.50186608
   0.49515513  0.76160167  0.49249601
   0.49835408  0.49992359  0.74830767
   0.52023944  0.02093789  0.97721310
   0.00213264  0.51397819  0.98151744
   0.50162846  0.73961225  0.26049933
   0.23725196  0.01178489  0.75260504
   0.48075706  0.98573389  0.48940676
   0.73350550  0.97853519  0.77173186
   0.00392830  0.76914205  0.25313454
   0.73330745  0.50394210  0.25107920
   0.01976244  0.00312606  0.49673981
   0.49752804  0.51948670  0.49546941
   0.74488294  0.51387196  0.75524232
   0.75142839  0.74418639  0.49359204
HECN                                    
           1
     8.638947    0.001626   -0.000575
     0.007532    8.656362    0.004739
     0.030465   -0.010361    8.660376
   Nb   Ta   V    N    C    Cr   Mo
   7   6   7  13  19   6   6
Direct configuration=     9
   0.00645216  0.99561438  0.99672556
   0.26481100  0.99456954  0.24503946
   0.25121364  0.50466349  0.24596052
   0.50055617  0.48853003  0.00111870
   0.49882849  0.23949232  0.75452815
   0.00166863  0.49922160  0.50566426
   0.49358123  0.76158277  0.74951113
   0.99603557  0.24184787  0.24798487
   0.75098217  0.74982548  0.00499834
   0.00464109  0.24674280  0.75263089
   0.74557685  0.24487212  0.50155335
   0.00303117  0.75308653  0.75254484
   0.25055698  0.49783984  0.75061728
   0.25599448  0.25127102  0.98911662
   0.51236183  0.25054693  0.24727582
   0.73593091  0.98791959  0.27217063
   0.74563225  0.25631771  0.99403864
   0.24186396  0.74620271  0.00327699
   0.25099598  0.24825772  0.50616450
   0.24752158  0.74899384  0.49591779
   0.25273136  0.24705341  0.24876637
   0.26236585  0.99898375  0.99235644
   0.00166027  0.25090110  0.00221255
   0.74595384  0.23998530  0.24694437
   0.74592742  0.00261324  0.00372178
   0.50980665 -0.00003356  0.24967832
   0.99989419  0.49073357  0.24620918
   0.49887566  0.75857627  0.00358200
   0.98820568  0.00239031  0.74766288
   0.75283168  0.24337872  0.75447133
   0.74165238  0.00456743  0.50415192
   0.49629961  0.23931658  0.49399025
   0.50159668  0.00179185  0.74564272
   0.99556513 -0.00184376  0.24914717
   0.50212709  0.24222338  0.00759591
   0.26030645  0.75029457  0.24795202
   0.24352070  0.49909881  0.99839132
   0.00365554  0.74255089  0.00534283
   0.74477050  0.75161196  0.25292611
   0.76134565  0.49258429  0.00540681
   0.49734121  0.50147035  0.25015196
   0.25151602  0.24476064  0.74868360
   0.25897622  0.99878015  0.51033915
   0.00431497  0.25116016  0.49952988
   0.24879342  0.75914745  0.75091617
   0.25119215  0.49932377  0.49820822
   0.00587196  0.75253373  0.49999960
   0.99909072  0.50138497  0.75361542
   0.74913799  0.75695223  0.74869907
   0.74762057  0.50014252  0.50115252
   0.49424884  0.75849585  0.49172926
   0.49951841  0.50058614  0.74764480
   0.52316167  0.02215073  0.97574546
   0.00388276  0.51620108  0.97809435
   0.49993959  0.73927321  0.26307088
   0.23477572  0.01024693  0.75610151
   0.48184412  0.98790508  0.48342900
   0.72723540  0.98051056  0.77737422
   0.00503062  0.76817814  0.25139089
   0.72988554  0.50446998  0.24980140
   0.02273297  0.00469073  0.49421372
   0.49929528  0.51980762  0.49432768
   0.74607714  0.51428244  0.75951528
   0.75118865  0.74336890  0.49327550
HECN                                    
           1
     8.639077    0.001693   -0.000589
     0.007600    8.656608    0.004730
     0.030451   -0.010369    8.660504
   Nb   Ta   V    N    C    Cr   Mo
   7   6   7  13  19   6   6
Direct configuration=    10
   0.00643263  0.99561627  0.99672445
   0.26480533  0.99457340  0.24503748
   0.25121620  0.50465821  0.24595985
   0.50056157  0.48853739  0.00111869
   0.49883079  0.23949265  0.75452115
   0.00166883  0.49922864  0.50564918
   0.49357513  0.76158823  0.74951638
   0.99603820  0.24184192  0.24799674
   0.75098175  0.74982342  0.00500933
   0.00464158  0.24675331  0.75262467
   0.74557261  0.24488373  0.50155634
   0.00303494  0.75308039  0.75253971
   0.25055982  0.49784206  0.75061580
   0.25598113  0.25126642  0.98913017
   0.51235152  0.25055547  0.24728184
   0.73595203  0.98791829  0.27216912
   0.74565061  0.25632560  0.99403850
   0.24186878  0.74620933  0.00326656
   0.25099979  0.24826085  0.50615199
   0.24751629  0.74899482  0.49592613
   0.25272993  0.24705862  0.24876589
   0.26236190  0.99898523  0.99235364
   0.00166250  0.25089401  0.00221058
   0.74595800  0.23999460  0.24695495
   0.74592657  0.00260516  0.00373530
   0.50980237 -0.00003285  0.24967639
   0.99988679  0.49071199  0.24620106
   0.49888246  0.75857978  0.00359176
   0.98820605  0.00239025  0.74766219
   0.75283385  0.24337949  0.75447177
   0.74163620  0.00456891  0.50415477
   0.49630998  0.23929536  0.49398826
   0.50159797  0.00179028  0.74562726
   0.99556067 -0.00183364  0.24914586
   0.50213540  0.24223138  0.00759054
   0.26029352  0.75029183  0.24795538
   0.24352302  0.49910256  0.99839200
   0.00366682  0.74254876  0.00533867
   0.74478375  0.75161477  0.25292156
   0.76133834  0.49258340  0.00539934
   0.49733200  0.50146836  0.25015231
   0.25152025  0.24476233  0.74868415
   0.25898320  0.99877397  0.51033124
   0.00431501  0.25115539  0.49953335
   0.24879206  0.75913904  0.75091497
   0.25119303  0.49932662  0.49820324
   0.00586307  0.75253927  0.50000631
   0.99908562  0.50138297  0.75361092
   0.74913192  0.75696604  0.74870551
   0.74762666  0.50012990  0.50115613
   0.49425345  0.75851162  0.49173313
   0.49951251  0.50058276  0.74764816
   0.52314687  0.02214456  0.97575290
   0.00387388  0.51618978  0.97811168
   0.49994815  0.73927494  0.26305787
   0.23478827  0.01025476  0.75608381
   0.48183859  0.98789405  0.48345926
   0.72726714  0.98050059  0.77734565
   0.00502504  0.76818302  0.25139971
   0.72990285  0.50446732  0.24980786
   0.02271791  0.00468277  0.49422651
   0.49928633  0.51980597  0.49433346
   0.74607109  0.51428035  0.75949366
   0.75118987  0.74337305  0.49327710
HECN                                    
           1
     8.641971   -0.002205    0.005552
     0.003700    8.652863    0.005698
     0.036622   -0.009420    8.667547
   Nb   Ta   V    N    C    Cr   Mo
   7   6   7  13  19   6   6
Direct configuration=    11
   0.00991462  0.99562923  0.99789372
   0.26489033  0.99463010  0.24519365
   0.25179381  0.50472762  0.24739517
   0.49970023  0.48878606  0.00074184
   0.49900879  0.24064959  0.75445061
   0.00002512  0.49887112  0.50751509
   0.49546231  0.76048508  0.74847748
   0.99518676  0.24148159  0.24738021
   0.75020403  0.75033782  0.00508847
   0.00401180  0.24559252  0.75216479
   0.74625512  0.24525933  0.50087284
   0.00325620  0.75433256  0.75151982
   0.25172404  0.49853544  0.74996523
   0.25780154  0.25189415  0.98678278
   0.51440759  0.24937531  0.24751248
   0.73351523  0.98782325  0.27226379
   0.74246335  0.25397206  0.99452461
   0.24092759  0.74511011  0.00457684
   0.25002590  0.24812767  0.50876098
   0.24840025  0.74895237  0.49445011
   0.25212734  0.24692962  0.24876597
   0.26299943  0.99869904  0.99337227
   0.00129859  0.25204938  0.00202851
   0.74642133  0.23864558  0.24605527
   0.74762195  0.00383624  0.00326087
   0.50952894 -0.00059854  0.24918951
   0.00086121  0.49254146  0.24758182
   0.49837196  0.75774161  0.00191222
   0.98810969  0.00211552  0.74675881
   0.75245568  0.24240373  0.75354294
   0.74330144  0.00403645  0.50378511
   0.49598647  0.24181403  0.49441197
   0.50001146  0.00156107  0.74684699
   0.99589508  0.00080177  0.24886477
   0.50034465  0.24147540  0.00797385
   0.26120045  0.75002329  0.24731589
   0.24332237  0.49850790  0.99842150
   0.00265795  0.74299466  0.00511318
   0.74407254  0.75116627  0.25141450
   0.76231033  0.49322246  0.00656681
   0.49535627  0.50139874  0.24943202
   0.25117659  0.24468024  0.74875002
   0.26039033  0.99917847  0.51077150
   0.00381585  0.25050050  0.49913556
   0.24837235  0.75984666  0.75105444
   0.25197541  0.49892556  0.49861138
   0.00613705  0.75309494  0.49934029
   0.99880749  0.50114503  0.75365909
   0.74938274  0.75834145  0.74812640
   0.74778513  0.49928508  0.50160799
   0.49455633  0.75915798  0.49203125
   0.50025218  0.50107677  0.74684943
   0.52475707  0.02147601  0.97560397
   0.00498463  0.51803144  0.97641742
   0.49864767  0.73990940  0.26588305
   0.23267028  0.00899557  0.75925241
   0.48190152  0.98974069  0.47956118
   0.72341283  0.98034891  0.77991013
   0.00557846  0.76534509  0.25140719
   0.73073777  0.50544460  0.25009595
   0.02319331  0.00532890  0.49266957
   0.49980915  0.51782142  0.49426998
   0.74687959  0.51287504  0.76096392
   0.75154690  0.74351134  0.49388273
HECN                                    
           1
     8.643779   -0.004642    0.009390
     0.001263    8.650523    0.006302
     0.040479   -0.008827    8.671949
   Nb   Ta   V    N    C    Cr   Mo
   7   6   7  13  19   6   6
Direct configuration=    12
   0.01208959  0.99563823  0.99862237
   0.26494339  0.99466556  0.24529113
   0.25215407  0.50477107  0.24829124