  64  64   0   0
  0.1140291E+02  0.8988729E-09  0.9028610E-09  0.8992757E-09  0.5000000E-15
  1.000000000000000E-004
  CAR 
 HECN                                    
     15.41723986    -50.15671006  301      8.67282825      1.00000000
    -50.157  0.0000E+00  0.0000E+00
    -49.938  0.0000E+00  0.0000E+00
    -49.720  0.0000E+00  0.0000E+00
    -49.501  0.0000E+00  0.0000E+00
    -49.282  0.0000E+00  0.0000E+00
    -49.064  0.0000E+00  0.0000E+00
    -48.845  0.0000E+00  0.0000E+00
    -48.627  0.0000E+00  0.0000E+00
    -48.408  0.0000E+00  0.0000E+00
    -48.189  0.0000E+00  0.0000E+00
    -47.971  0.0000E+00  0.0000E+00
    -47.752  0.1524E-16  0.3331E-17
    -47.534  0.1948E-07  0.4258E-08
    -47.315  0.2561E-02  0.5598E-03
    -47.097  0.2519E+00  0.5562E-01
    -46.878  0.2923E+00  0.1195E+00
    -46.659  0.2273E-02  0.1200E+00
    -46.441  0.7063E-08  0.1200E+00
    -46.222  0.0000E+00  0.1200E+00
    -46.004  0.0000E+00  0.1200E+00
    -45.785  0.0000E+00  0.1200E+00
    -45.567  0.0000E+00  0.1200E+00
    -45.348  0.0000E+00  0.1200E+00
    -45.129  0.0000E+00  0.1200E+00
    -44.911  0.0000E+00  0.1200E+00
    -44.692  0.0000E+00  0.1200E+00
    -44.474  0.0000E+00  0.1200E+00
    -44.255  0.0000E+00  0.1200E+00
    -44.036  0.0000E+00  0.1200E+00
    -43.818  0.0000E+00  0.1200E+00
    -43.599  0.0000E+00  0.1200E+00
    -43.381  0.0000E+00  0.1200E+00
    -43.162  0.0000E+00  0.1200E+00
    -42.944  0.0000E+00  0.1200E+00
    -42.725  0.0000E+00  0.1200E+00
    -42.506  0.0000E+00  0.1200E+00
    -42.288  0.0000E+00  0.1200E+00
    -42.069  0.0000E+00  0.1200E+00
    -41.851  0.0000E+00  0.1200E+00
    -41.632  0.0000E+00  0.1200E+00
    -41.414  0.0000E+00  0.1200E+00
    -41.195  0.1655E-13  0.1200E+00
    -40.976  0.1345E-05  0.1200E+00
    -40.758  0.1268E-01  0.1228E+00
    -40.539  0.7676E-01  0.1395E+00
    -40.321  0.6101E-02  0.1409E+00
    -40.102  0.3184E+00  0.2105E+00
    -39.883  0.2241E+00  0.2595E+00
    -39.665  0.2486E-02  0.2600E+00
    -39.446  0.2063E-07  0.2600E+00
    -39.228  0.2032E-16  0.2600E+00
    -39.009  0.0000E+00  0.2600E+00
    -38.791  0.0000E+00  0.2600E+00
    -38.572  0.0000E+00  0.2600E+00
    -38.353  0.0000E+00  0.2600E+00
    -38.135  0.0000E+00  0.2600E+00
    -37.916  0.0000E+00  0.2600E+00
    -37.698  0.0000E+00  0.2600E+00
    -37.479  0.0000E+00  0.2600E+00
    -37.260  0.0000E+00  0.2600E+00
    -37.042  0.0000E+00  0.2600E+00
    -36.823  0.0000E+00  0.2600E+00
    -36.605  0.0000E+00  0.2600E+00
    -36.386  0.0000E+00  0.2600E+00
    -36.168  0.0000E+00  0.2600E+00
    -35.949  0.0000E+00  0.2600E+00
    -35.730  0.0000E+00  0.2600E+00
    -35.512  0.0000E+00  0.2600E+00
    -35.293  0.0000E+00  0.2600E+00
    -35.075  0.0000E+00  0.2600E+00
    -34.856  0.0000E+00  0.2600E+00
    -34.638  0.0000E+00  0.2600E+00
    -34.419  0.0000E+00  0.2600E+00
    -34.200  0.0000E+00  0.2600E+00
    -33.982  0.0000E+00  0.2600E+00
    -33.763  0.0000E+00  0.2600E+00
    -33.545  0.0000E+00  0.2600E+00
    -33.326  0.0000E+00  0.2600E+00
    -33.107  0.0000E+00  0.2600E+00
    -32.889  0.0000E+00  0.2600E+00
    -32.670  0.0000E+00  0.2600E+00
    -32.452  0.0000E+00  0.2600E+00
    -32.233  0.0000E+00  0.2600E+00
    -32.015  0.0000E+00  0.2600E+00
    -31.796  0.0000E+00  0.2600E+00
    -31.577  0.0000E+00  0.2600E+00
    -31.359  0.1240E-08  0.2600E+00
    -31.140  0.6217E-03  0.2601E+00
    -30.922  0.7266E-01  0.2760E+00
    -30.703  0.4680E+00  0.3783E+00
    -30.485  0.8222E+00  0.5580E+00
    -30.266  0.2784E+00  0.6189E+00
    -30.047  0.5094E-02  0.6200E+00
    -29.829  0.7050E-07  0.6200E+00
    -29.610  0.1219E-15  0.6200E+00
    -29.392  0.0000E+00  0.6200E+00
    -29.173  0.0000E+00  0.6200E+00
    -28.954  0.0000E+00  0.6200E+00
    -28.736  0.0000E+00  0.6200E+00
    -28.517  0.0000E+00  0.6200E+00
    -28.299  0.0000E+00  0.6200E+00
    -28.080  0.0000E+00  0.6200E+00
    -27.862  0.0000E+00  0.6200E+00
    -27.643  0.0000E+00  0.6200E+00
    -27.424  0.0000E+00  0.6200E+00
    -27.206  0.0000E+00  0.6200E+00
    -26.987  0.0000E+00  0.6200E+00
    -26.769  0.0000E+00  0.6200E+00
    -26.550  0.0000E+00  0.6200E+00
    -26.332  0.0000E+00  0.6200E+00
    -26.113  0.0000E+00  0.6200E+00
    -25.894  0.0000E+00  0.6200E+00
    -25.676  0.0000E+00  0.6200E+00
    -25.457  0.0000E+00  0.6200E+00
    -25.239  0.0000E+00  0.6200E+00
    -25.020  0.0000E+00  0.6200E+00
    -24.801  0.0000E+00  0.6200E+00
    -24.583  0.0000E+00  0.6200E+00
    -24.364  0.0000E+00  0.6200E+00
    -24.146  0.0000E+00  0.6200E+00
    -23.927  0.4804E-10  0.6200E+00
    -23.709  0.1344E-03  0.6200E+00
    -23.490  0.1002E+00  0.6419E+00
    -23.271  0.6123E+00  0.7758E+00
    -23.053  0.7815E+00  0.9466E+00
    -22.834  0.1570E+00  0.9809E+00
    -22.616  0.1504E+00  0.1014E+01
    -22.397  0.4293E+00  0.1108E+01
    -22.178  0.3003E+00  0.1173E+01
    -21.960  0.6480E+00  0.1315E+01
    -21.741  0.1159E+00  0.1340E+01
    -21.523  0.1633E+00  0.1376E+01
    -21.304  0.1100E+00  0.1400E+01
    -21.086  0.1891E-03  0.1400E+01
    -20.867  0.6783E-10  0.1400E+01
    -20.648  0.0000E+00  0.1400E+01
    -20.430  0.0000E+00  0.1400E+01
    -20.211  0.0000E+00  0.1400E+01
    -19.993  0.0000E+00  0.1400E+01
    -19.774  0.0000E+00  0.1400E+01
    -19.556  0.1160E-14  0.1400E+01
    -19.337  0.3018E-06  0.1400E+01
    -19.118  0.1096E-01  0.1402E+01
    -18.900  0.2328E+00  0.1453E+01
    -18.681  0.8145E-01  0.1471E+01
    -18.463  0.6717E+00  0.1618E+01
    -18.244  0.7605E+00  0.1784E+01
    -18.025  0.1591E+00  0.1819E+01
    -17.807  0.5010E-02  0.1820E+01
    -17.588  0.1198E-06  0.1820E+01
    -17.370  0.3112E-15  0.1820E+01
    -17.151  0.0000E+00  0.1820E+01
    -16.933  0.0000E+00  0.1820E+01
    -16.714  0.0000E+00  0.1820E+01
    -16.495  0.0000E+00  0.1820E+01
    -16.277  0.0000E+00  0.1820E+01
    -16.058  0.0000E+00  0.1820E+01
    -15.840  0.0000E+00  0.1820E+01
    -15.621  0.0000E+00  0.1820E+01
    -15.403  0.0000E+00  0.1820E+01
    -15.184  0.0000E+00  0.1820E+01
    -14.965  0.0000E+00  0.1820E+01
    -14.747  0.0000E+00  0.1820E+01
    -14.528  0.0000E+00  0.1820E+01
    -14.310  0.0000E+00  0.1820E+01
    -14.091  0.0000E+00  0.1820E+01
    -13.872  0.0000E+00  0.1820E+01
    -13.654  0.0000E+00  0.1820E+01
    -13.435  0.0000E+00  0.1820E+01
    -13.217  0.0000E+00  0.1820E+01
    -12.998  0.0000E+00  0.1820E+01
    -12.780  0.0000E+00  0.1820E+01
    -12.561  0.0000E+00  0.1820E+01
    -12.342  0.0000E+00  0.1820E+01
    -12.124  0.0000E+00  0.1820E+01
    -11.905  0.0000E+00  0.1820E+01
    -11.687  0.0000E+00  0.1820E+01
    -11.468  0.0000E+00  0.1820E+01
    -11.249  0.0000E+00  0.1820E+01
    -11.031  0.0000E+00  0.1820E+01
    -10.812  0.0000E+00  0.1820E+01
    -10.594  0.0000E+00  0.1820E+01
    -10.375  0.0000E+00  0.1820E+01
    -10.157  0.0000E+00  0.1820E+01
     -9.938  0.0000E+00  0.1820E+01
     -9.719  0.0000E+00  0.1820E+01
     -9.501  0.0000E+00  0.1820E+01
     -9.282  0.0000E+00  0.1820E+01
     -9.064  0.0000E+00  0.1820E+01
     -8.845  0.0000E+00  0.1820E+01
     -8.627  0.0000E+00  0.1820E+01
     -8.408  0.0000E+00  0.1820E+01
     -8.189  0.1604E-12  0.1820E+01
     -7.971  0.1656E-05  0.1820E+01
     -7.752  0.4935E-02  0.1821E+01
     -7.534  0.6768E-01  0.1836E+01
     -7.315  0.3569E-01  0.1844E+01
     -7.096  0.7742E-01  0.1861E+01
     -6.878  0.9822E-01  0.1882E+01
     -6.659  0.1101E+00  0.1906E+01
     -6.441  0.2331E+00  0.1957E+01
     -6.222  0.2588E+00  0.2014E+01
     -6.004  0.2484E+00  0.2068E+01
     -5.785  0.5523E-01  0.2080E+01
     -5.566  0.4928E-04  0.2080E+01
     -5.348  0.1339E-10  0.2080E+01
     -5.129  0.0000E+00  0.2080E+01
     -4.911  0.0000E+00  0.2080E+01
     -4.692  0.9312E-16  0.2080E+01
     -4.474  0.2203E-07  0.2080E+01
     -4.255  0.7919E-03  0.2080E+01
     -4.036  0.5005E-01  0.2091E+01
     -3.818  0.4398E-01  0.2101E+01
     -3.599  0.8414E-01  0.2119E+01
     -3.381  0.1012E+00  0.2141E+01
     -3.162  0.1272E+00  0.2169E+01
     -2.943  0.1952E+00  0.2212E+01
     -2.725  0.2190E+00  0.2260E+01
     -2.506  0.2682E+00  0.2318E+01
     -2.288  0.1806E+00  0.2358E+01
     -2.069  0.1950E+00  0.2400E+01
     -1.851  0.1498E+00  0.2433E+01
     -1.632  0.9723E-01  0.2454E+01
     -1.413  0.2462E-01  0.2460E+01
     -1.195  0.1553E-02  0.2460E+01
     -0.976  0.6824E-06  0.2460E+01
     -0.758  0.5201E-13  0.2460E+01
     -0.539  0.0000E+00  0.2460E+01
     -0.321  0.0000E+00  0.2460E+01
     -0.102  0.1775E-14  0.2460E+01
      0.117  0.9337E-07  0.2460E+01
      0.335  0.6056E-03  0.2460E+01
      0.554  0.5412E-02  0.2461E+01
      0.772  0.2591E-01  0.2467E+01
      0.991  0.6452E-01  0.2481E+01
      1.210  0.8868E-01  0.2500E+01
      1.428  0.1358E+00  0.2530E+01
      1.647  0.1782E+00  0.2569E+01
      1.865  0.2206E+00  0.2617E+01
      2.084  0.2515E+00  0.2672E+01
      2.302  0.2727E+00  0.2732E+01
      2.521  0.2725E+00  0.2791E+01
      2.740  0.3428E+00  0.2866E+01
      2.958  0.3498E+00  0.2943E+01
      3.177  0.3760E+00  0.3025E+01
      3.395  0.4604E+00  0.3126E+01
      3.614  0.5715E+00  0.3251E+01
      3.833  0.6668E+00  0.3396E+01
      4.051  0.6706E+00  0.3543E+01
      4.270  0.6639E+00  0.3688E+01
      4.488  0.6429E+00  0.3829E+01
      4.707  0.5360E+00  0.3946E+01
      4.925  0.4429E+00  0.4043E+01
      5.144  0.3561E+00  0.4120E+01
      5.363  0.3215E+00  0.4191E+01
      5.581  0.2595E+00  0.4247E+01
      5.800  0.2098E+00  0.4293E+01
      6.018  0.1827E+00  0.4333E+01
      6.237  0.1509E+00  0.4366E+01
      6.455  0.8674E-01  0.4385E+01
      6.674  0.1460E+00  0.4417E+01
      6.893  0.1798E+00  0.4456E+01
      7.111  0.1781E+00  0.4495E+01
      7.330  0.1910E+00  0.4537E+01
      7.548  0.1839E+00  0.4577E+01
      7.767  0.1863E+00  0.4618E+01
      7.986  0.2090E+00  0.4664E+01
      8.204  0.2077E+00  0.4709E+01
      8.423  0.2308E+00  0.4759E+01
      8.641  0.2031E+00  0.4804E+01
      8.860  0.1972E+00  0.4847E+01
      9.078  0.2352E+00  0.4898E+01
      9.297  0.2616E+00  0.4956E+01
      9.516  0.2835E+00  0.5017E+01
      9.734  0.3749E+00  0.5099E+01
      9.953  0.3823E+00  0.5183E+01
     10.171  0.3982E+00  0.5270E+01
     10.390  0.4105E+00  0.5360E+01
     10.608  0.4190E+00  0.5451E+01
     10.827  0.4169E+00  0.5542E+01
     11.046  0.4337E+00  0.5637E+01
     11.264  0.4436E+00  0.5734E+01
     11.483  0.4171E+00  0.5825E+01
     11.701  0.4114E+00  0.5915E+01
     11.920  0.4419E+00  0.6012E+01
     12.139  0.3901E+00  0.6097E+01
     12.357  0.2407E+00  0.6150E+01
     12.576  0.4648E-01  0.6160E+01
     12.794  0.3476E-03  0.6160E+01
     13.013  0.1975E-08  0.6160E+01
     13.231  0.1505E-17  0.6160E+01
     13.450  0.0000E+00  0.6160E+01
     13.669  0.0000E+00  0.6160E+01
     13.887  0.0000E+00  0.6160E+01
     14.106  0.0000E+00  0.6160E+01
     14.324  0.0000E+00  0.6160E+01
     14.543  0.0000E+00  0.6160E+01
     14.762  0.0000E+00  0.6160E+01
     14.980  0.0000E+00  0.6160E+01
     15.199  0.0000E+00  0.6160E+01
     15.417  0.0000E+00  0.6160E+01
