       N       E                     dE             d eps       ncg     rms          rms(c)
DAV:   1     0.387429974515E+04    0.38743E+04   -0.21350E+05  8624   0.134E+03
DAV:   2    -0.226432814348E+03   -0.41007E+04   -0.38593E+04  9800   0.500E+02
DAV:   3    -0.741917901920E+03   -0.51549E+03   -0.50479E+03 14028   0.148E+02
DAV:   4    -0.774036971563E+03   -0.32119E+02   -0.31865E+02 14224   0.374E+01
DAV:   5    -0.777225691400E+03   -0.31887E+01   -0.31826E+01 15008   0.107E+01    0.568E+01
RMM:   6    -0.660321320915E+03    0.11690E+03   -0.55630E+02 12057   0.323E+01    0.180E+01
RMM:   7    -0.660685702295E+03   -0.36438E+00   -0.10743E+02 13438   0.187E+01    0.128E+01
RMM:   8    -0.660001314333E+03    0.68439E+00   -0.32899E+01 14024   0.842E+00    0.842E+00
RMM:   9    -0.659772555170E+03    0.22876E+00   -0.81128E+00 13537   0.482E+00    0.581E+00
RMM:  10    -0.659746373456E+03    0.26182E-01   -0.41564E+00 13971   0.290E+00    0.329E+00
RMM:  11    -0.659845723349E+03   -0.99350E-01   -0.20946E+00 14462   0.220E+00    0.162E+00
RMM:  12    -0.659901253675E+03   -0.55530E-01   -0.12809E+00 14506   0.157E+00    0.108E+00
RMM:  13    -0.659985913801E+03   -0.84660E-01   -0.10600E+00 14815   0.130E+00    0.925E-01
RMM:  14    -0.660045451461E+03   -0.59538E-01   -0.64250E-01 14837   0.108E+00    0.896E-01
RMM:  15    -0.660069900555E+03   -0.24449E-01   -0.38315E-01 14504   0.908E-01    0.514E-01
RMM:  16    -0.660094577711E+03   -0.24677E-01   -0.32633E-01 14746   0.756E-01    0.194E-01
RMM:  17    -0.660114065689E+03   -0.19488E-01   -0.21153E-01 15151   0.619E-01    0.217E-01
RMM:  18    -0.660128446340E+03   -0.14381E-01   -0.15437E-01 15253   0.520E-01    0.147E-01
RMM:  19    -0.660138434514E+03   -0.99882E-02   -0.10849E-01 15316   0.450E-01    0.821E-02
RMM:  20    -0.660146387038E+03   -0.79525E-02   -0.85467E-02 15221   0.393E-01    0.909E-02
RMM:  21    -0.660152300305E+03   -0.59133E-02   -0.62278E-02 15193   0.347E-01    0.354E-02
RMM:  22    -0.660156939441E+03   -0.46391E-02   -0.48678E-02 15147   0.305E-01    0.294E-02
RMM:  23    -0.660160441158E+03   -0.35017E-02   -0.36621E-02 15016   0.270E-01    0.168E-02
RMM:  24    -0.660163170559E+03   -0.27294E-02   -0.28867E-02 14579   0.240E-01    0.468E-02
RMM:  25    -0.660165242742E+03   -0.20722E-02   -0.21512E-02 14879   0.215E-01    0.582E-02
RMM:  26    -0.660166881635E+03   -0.16389E-02   -0.17705E-02 14646   0.196E-01    0.781E-02
RMM:  27    -0.660168116887E+03   -0.12353E-02   -0.13231E-02 14579   0.172E-01    0.321E-02
RMM:  28    -0.660169122723E+03   -0.10058E-02   -0.10697E-02 14335   0.154E-01    0.558E-02
RMM:  29    -0.660169906677E+03   -0.78395E-03   -0.83250E-03 14149   0.141E-01    0.985E-02
RMM:  30    -0.660170633414E+03   -0.72674E-03   -0.71091E-03 14386   0.133E-01    0.211E-01
RMM:  31    -0.660171101951E+03   -0.46854E-03   -0.53684E-03 14090   0.117E-01    0.205E-01
RMM:  32    -0.660171492559E+03   -0.39061E-03   -0.43298E-03 13914   0.104E-01    0.213E-01
RMM:  33    -0.660171799349E+03   -0.30679E-03   -0.33798E-03 13985   0.953E-02    0.222E-01
RMM:  34    -0.660172026304E+03   -0.22695E-03   -0.28010E-03 13756   0.860E-02    0.209E-01
RMM:  35    -0.660172205189E+03   -0.17889E-03   -0.20821E-03 13679   0.796E-02    0.210E-01
RMM:  36    -0.660172333769E+03   -0.12858E-03   -0.18944E-03 13697   0.721E-02    0.175E-01
RMM:  37    -0.660172442696E+03   -0.10893E-03   -0.13213E-03 13326   0.672E-02    0.167E-01
RMM:  38    -0.660172553380E+03   -0.11068E-03   -0.11772E-03 13083   0.598E-02    0.176E-01
RMM:  39    -0.660172619705E+03   -0.66325E-04   -0.87548E-04 12947   0.557E-02    0.169E-01
RMM:  40    -0.660172690224E+03   -0.70518E-04   -0.78746E-04 12747   0.512E-02    0.170E-01
RMM:  41    -0.660172745976E+03   -0.55752E-04   -0.60597E-04 12666   0.476E-02    0.176E-01
RMM:  42    -0.660172794495E+03   -0.48519E-04   -0.54283E-04 12550   0.441E-02    0.180E-01
RMM:  43    -0.660172833157E+03   -0.38662E-04   -0.43300E-04 12331   0.411E-02    0.180E-01
RMM:  44    -0.660172847137E+03   -0.13979E-04   -0.37919E-04 11925   0.392E-02    0.154E-01
RMM:  45    -0.660172857802E+03   -0.10665E-04   -0.31049E-04 11956   0.386E-02    0.122E-01
RMM:  46    -0.660172868972E+03   -0.11170E-04   -0.28886E-04 11754   0.368E-02    0.845E-02
RMM:  47    -0.660172886301E+03   -0.17329E-04   -0.22982E-04 11194   0.353E-02    0.729E-02
RMM:  48    -0.660172902152E+03   -0.15851E-04   -0.19054E-04 10350   0.308E-02    0.643E-02
RMM:  49    -0.660172916226E+03   -0.14074E-04   -0.16658E-04 10072   0.298E-02    0.611E-02
RMM:  50    -0.660172928225E+03   -0.12000E-04   -0.14374E-04  9629   0.276E-02    0.579E-02
RMM:  51    -0.660172940035E+03   -0.11809E-04   -0.13145E-04  9411   0.262E-02    0.582E-02
RMM:  52    -0.660172948985E+03   -0.89500E-05   -0.11471E-04  9088   0.253E-02    0.489E-02
RMM:  53    -0.660172957630E+03   -0.86453E-05   -0.10419E-04  8625   0.247E-02    0.436E-02
RMM:  54    -0.660172965507E+03   -0.78768E-05   -0.94052E-05  8285   0.238E-02
   1 F= -.66017297E+03 E0= -.66012424E+03  d E =-.660173E+03
       N       E                     dE             d eps       ncg     rms          rms(c)
DAV:   1    -0.660177106691E+03   -0.41491E-02   -0.23040E-01 12208   0.140E+00    0.400E-01
RMM:   2    -0.660174205045E+03    0.29016E-02   -0.21315E-02 13341   0.408E-01    0.241E-01
RMM:   3    -0.660173616312E+03    0.58873E-03   -0.69766E-03 13659   0.182E-01    0.176E-01
RMM:   4    -0.660172851540E+03    0.76477E-03   -0.21975E-03 13107   0.103E-01    0.811E-02
RMM:   5    -0.660172761037E+03    0.90504E-04   -0.79640E-04 13600   0.598E-02    0.533E-02
RMM:   6    -0.660172704550E+03    0.56487E-04   -0.25981E-04 13143   0.342E-02    0.198E-02
RMM:   7    -0.660172700416E+03    0.41340E-05   -0.13758E-04 10907   0.231E-02    0.148E-02
RMM:   8    -0.660172697882E+03    0.25339E-05   -0.78299E-05  9521   0.181E-02
   2 F= -.66017270E+03 E0= -.66012398E+03  d E =0.267625E-03
       N       E                     dE             d eps       ncg     rms          rms(c)
DAV:   1    -0.660174591879E+03   -0.18915E-02   -0.70693E-02 11788   0.770E-01    0.212E-01
RMM:   2    -0.660173757642E+03    0.83424E-03   -0.65077E-03 13371   0.231E-01    0.128E-01
RMM:   3    -0.660173599022E+03    0.15862E-03   -0.21101E-03 13605   0.101E-01    0.913E-02
RMM:   4    -0.660173405219E+03    0.19380E-03   -0.64131E-04 13058   0.569E-02    0.428E-02
RMM:   5    -0.660173391335E+03    0.13884E-04   -0.24107E-04 12818   0.324E-02    0.276E-02
RMM:   6    -0.660173382002E+03    0.93330E-05   -0.72496E-05 10419   0.222E-02
   3 F= -.66017338E+03 E0= -.66012466E+03  d E =-.416496E-03
