  64  64   0   0
  0.1129557E+02  0.8932500E-09  0.9055600E-09  0.8937200E-09  0.5000000E-15
  1.000000000000000E-004
  CAR 
 HECN                                    
     14.98408676    -49.66882882  301      9.33210979      1.00000000
    -49.669  0.0000E+00  0.0000E+00
    -49.453  0.0000E+00  0.0000E+00
    -49.238  0.0000E+00  0.0000E+00
    -49.022  0.0000E+00  0.0000E+00
    -48.807  0.0000E+00  0.0000E+00
    -48.591  0.0000E+00  0.0000E+00
    -48.376  0.0000E+00  0.0000E+00
    -48.160  0.0000E+00  0.0000E+00
    -47.945  0.0000E+00  0.0000E+00
    -47.729  0.0000E+00  0.0000E+00
    -47.514  0.0000E+00  0.0000E+00
    -47.298  0.4121E-16  0.8882E-17
    -47.083  0.2842E-07  0.6124E-08
    -46.867  0.2436E-02  0.5251E-03
    -46.652  0.1094E+00  0.2409E-01
    -46.436  0.3303E+00  0.9527E-01
    -46.221  0.2054E+00  0.1395E+00
    -46.005  0.2164E-02  0.1400E+00
    -45.790  0.8123E-08  0.1400E+00
    -45.574  0.0000E+00  0.1400E+00
    -45.359  0.0000E+00  0.1400E+00
    -45.143  0.0000E+00  0.1400E+00
    -44.928  0.0000E+00  0.1400E+00
    -44.712  0.0000E+00  0.1400E+00
    -44.497  0.0000E+00  0.1400E+00
    -44.281  0.0000E+00  0.1400E+00
    -44.066  0.0000E+00  0.1400E+00
    -43.850  0.0000E+00  0.1400E+00
    -43.635  0.0000E+00  0.1400E+00
    -43.419  0.0000E+00  0.1400E+00
    -43.204  0.0000E+00  0.1400E+00
    -42.988  0.0000E+00  0.1400E+00
    -42.773  0.0000E+00  0.1400E+00
    -42.557  0.0000E+00  0.1400E+00
    -42.341  0.0000E+00  0.1400E+00
    -42.126  0.0000E+00  0.1400E+00
    -41.910  0.0000E+00  0.1400E+00
    -41.695  0.0000E+00  0.1400E+00
    -41.479  0.0000E+00  0.1400E+00
    -41.264  0.0000E+00  0.1400E+00
    -41.048  0.0000E+00  0.1400E+00
    -40.833  0.0000E+00  0.1400E+00
    -40.617  0.0000E+00  0.1400E+00
    -40.402  0.0000E+00  0.1400E+00
    -40.186  0.0000E+00  0.1400E+00
    -39.971  0.0000E+00  0.1400E+00
    -39.755  0.0000E+00  0.1400E+00
    -39.540  0.0000E+00  0.1400E+00
    -39.324  0.0000E+00  0.1400E+00
    -39.109  0.0000E+00  0.1400E+00
    -38.893  0.0000E+00  0.1400E+00
    -38.678  0.0000E+00  0.1400E+00
    -38.462  0.0000E+00  0.1400E+00
    -38.247  0.0000E+00  0.1400E+00
    -38.031  0.0000E+00  0.1400E+00
    -37.816  0.0000E+00  0.1400E+00
    -37.600  0.0000E+00  0.1400E+00
    -37.385  0.0000E+00  0.1400E+00
    -37.169  0.0000E+00  0.1400E+00
    -36.954  0.0000E+00  0.1400E+00
    -36.738  0.0000E+00  0.1400E+00
    -36.523  0.0000E+00  0.1400E+00
    -36.307  0.0000E+00  0.1400E+00
    -36.092  0.0000E+00  0.1400E+00
    -35.876  0.0000E+00  0.1400E+00
    -35.661  0.0000E+00  0.1400E+00
    -35.445  0.0000E+00  0.1400E+00
    -35.230  0.0000E+00  0.1400E+00
    -35.014  0.0000E+00  0.1400E+00
    -34.799  0.0000E+00  0.1400E+00
    -34.583  0.0000E+00  0.1400E+00
    -34.368  0.0000E+00  0.1400E+00
    -34.152  0.0000E+00  0.1400E+00
    -33.937  0.0000E+00  0.1400E+00
    -33.721  0.0000E+00  0.1400E+00
    -33.506  0.0000E+00  0.1400E+00
    -33.290  0.0000E+00  0.1400E+00
    -33.075  0.0000E+00  0.1400E+00
    -32.859  0.0000E+00  0.1400E+00
    -32.644  0.0000E+00  0.1400E+00
    -32.428  0.0000E+00  0.1400E+00
    -32.213  0.0000E+00  0.1400E+00
    -31.997  0.0000E+00  0.1400E+00
    -31.782  0.0000E+00  0.1400E+00
    -31.566  0.0000E+00  0.1400E+00
    -31.351  0.0000E+00  0.1400E+00
    -31.135  0.0000E+00  0.1400E+00
    -30.919  0.0000E+00  0.1400E+00
    -30.704  0.5760E-09  0.1400E+00
    -30.488  0.5156E-03  0.1401E+00
    -30.273  0.1165E+00  0.1652E+00
    -30.057  0.4767E+00  0.2679E+00
    -29.842  0.6935E+00  0.4174E+00
    -29.626  0.3582E+00  0.4946E+00
    -29.411  0.2509E-01  0.5000E+00
    -29.195  0.2199E-05  0.5000E+00
    -28.980  0.3166E-13  0.5000E+00
    -28.764  0.0000E+00  0.5000E+00
    -28.549  0.0000E+00  0.5000E+00
    -28.333  0.0000E+00  0.5000E+00
    -28.118  0.0000E+00  0.5000E+00
    -27.902  0.0000E+00  0.5000E+00
    -27.687  0.0000E+00  0.5000E+00
    -27.471  0.0000E+00  0.5000E+00
    -27.256  0.0000E+00  0.5000E+00
    -27.040  0.1545E-16  0.5000E+00
    -26.825  0.1444E-07  0.5000E+00
    -26.609  0.1793E-02  0.5004E+00
    -26.394  0.1068E+00  0.5234E+00
    -26.178  0.4895E+00  0.6289E+00
    -25.963  0.6132E+00  0.7610E+00
    -25.747  0.4034E+00  0.8480E+00
    -25.532  0.5573E-01  0.8600E+00
    -25.316  0.3108E-04  0.8600E+00
    -25.101  0.4513E-11  0.8600E+00
    -24.885  0.0000E+00  0.8600E+00
    -24.670  0.0000E+00  0.8600E+00
    -24.454  0.0000E+00  0.8600E+00
    -24.239  0.0000E+00  0.8600E+00
    -24.023  0.0000E+00  0.8600E+00
    -23.808  0.0000E+00  0.8600E+00
    -23.592  0.4883E-15  0.8600E+00
    -23.377  0.1300E-06  0.8600E+00
    -23.161  0.4882E-02  0.8611E+00
    -22.946  0.1672E+00  0.8971E+00
    -22.730  0.5017E+00  0.1005E+01
    -22.515  0.1083E+01  0.1239E+01
    -22.299  0.1922E+00  0.1280E+01
    -22.084  0.1245E+00  0.1307E+01
    -21.868  0.1522E+00  0.1340E+01
    -21.653  0.1573E+00  0.1374E+01
    -21.437  0.7494E+00  0.1535E+01
    -21.222  0.6312E+00  0.1671E+01
    -21.006  0.1318E+00  0.1700E+01
    -20.791  0.1940E-02  0.1700E+01
    -20.575  0.1708E-07  0.1700E+01
    -20.360  0.2061E-16  0.1700E+01
    -20.144  0.0000E+00  0.1700E+01
    -19.928  0.0000E+00  0.1700E+01
    -19.713  0.0000E+00  0.1700E+01
    -19.497  0.0000E+00  0.1700E+01
    -19.282  0.0000E+00  0.1700E+01
    -19.066  0.0000E+00  0.1700E+01
    -18.851  0.0000E+00  0.1700E+01
    -18.635  0.0000E+00  0.1700E+01
    -18.420  0.0000E+00  0.1700E+01
    -18.204  0.0000E+00  0.1700E+01
    -17.989  0.0000E+00  0.1700E+01
    -17.773  0.0000E+00  0.1700E+01
    -17.558  0.0000E+00  0.1700E+01
    -17.342  0.0000E+00  0.1700E+01
    -17.127  0.0000E+00  0.1700E+01
    -16.911  0.0000E+00  0.1700E+01
    -16.696  0.0000E+00  0.1700E+01
    -16.480  0.0000E+00  0.1700E+01
    -16.265  0.0000E+00  0.1700E+01
    -16.049  0.0000E+00  0.1700E+01
    -15.834  0.0000E+00  0.1700E+01
    -15.618  0.0000E+00  0.1700E+01
    -15.403  0.0000E+00  0.1700E+01
    -15.187  0.0000E+00  0.1700E+01
    -14.972  0.0000E+00  0.1700E+01
    -14.756  0.0000E+00  0.1700E+01
    -14.541  0.0000E+00  0.1700E+01
    -14.325  0.0000E+00  0.1700E+01
    -14.110  0.0000E+00  0.1700E+01
    -13.894  0.0000E+00  0.1700E+01
    -13.679  0.0000E+00  0.1700E+01
    -13.463  0.0000E+00  0.1700E+01
    -13.248  0.0000E+00  0.1700E+01
    -13.032  0.0000E+00  0.1700E+01
    -12.817  0.0000E+00  0.1700E+01
    -12.601  0.0000E+00  0.1700E+01
    -12.386  0.0000E+00  0.1700E+01
    -12.170  0.0000E+00  0.1700E+01
    -11.955  0.0000E+00  0.1700E+01
    -11.739  0.0000E+00  0.1700E+01
    -11.524  0.0000E+00  0.1700E+01
    -11.308  0.0000E+00  0.1700E+01
    -11.093  0.0000E+00  0.1700E+01
    -10.877  0.0000E+00  0.1700E+01
    -10.662  0.0000E+00  0.1700E+01
    -10.446  0.0000E+00  0.1700E+01
    -10.231  0.0000E+00  0.1700E+01
    -10.015  0.0000E+00  0.1700E+01
     -9.800  0.0000E+00  0.1700E+01
     -9.584  0.0000E+00  0.1700E+01
     -9.369  0.0000E+00  0.1700E+01
     -9.153  0.0000E+00  0.1700E+01
     -8.937  0.0000E+00  0.1700E+01
     -8.722  0.0000E+00  0.1700E+01
     -8.506  0.0000E+00  0.1700E+01
     -8.291  0.0000E+00  0.1700E+01
     -8.075  0.5113E-16  0.1700E+01
     -7.860  0.1026E-07  0.1700E+01
     -7.644  0.3831E-03  0.1700E+01
     -7.429  0.2233E-01  0.1705E+01
     -7.213  0.6173E-01  0.1718E+01
     -6.998  0.4060E-01  0.1727E+01
     -6.782  0.1713E+00  0.1764E+01
     -6.567  0.1105E+00  0.1788E+01
     -6.351  0.1193E+00  0.1813E+01
     -6.136  0.1784E+00  0.1852E+01
     -5.920  0.2558E+00  0.1907E+01
     -5.705  0.1446E+00  0.1938E+01
     -5.489  0.9812E-01  0.1959E+01
     -5.274  0.3431E-02  0.1960E+01
     -5.058  0.7127E-07  0.1960E+01
     -4.843  0.2248E-15  0.1960E+01
     -4.627  0.0000E+00  0.1960E+01
     -4.412  0.3816E-18  0.1960E+01
     -4.196  0.5954E-09  0.1960E+01
     -3.981  0.1159E-03  0.1960E+01
     -3.765  0.1805E-01  0.1964E+01
     -3.550  0.6607E-01  0.1978E+01
     -3.334  0.4804E-01  0.1989E+01
     -3.119  0.7843E-01  0.2005E+01
     -2.903  0.1354E+00  0.2035E+01
     -2.688  0.2255E+00  0.2083E+01
     -2.472  0.2965E+00  0.2147E+01
     -2.257  0.3004E+00  0.2212E+01
     -2.041  0.1964E+00  0.2254E+01
     -1.826  0.1414E+00  0.2285E+01
     -1.610  0.1162E+00  0.2310E+01
     -1.395  0.1080E+00  0.2333E+01
     -1.179  0.2969E-01  0.2339E+01
     -0.964  0.2954E-02  0.2340E+01
     -0.748  0.1751E-04  0.2340E+01
     -0.533  0.3325E-10  0.2340E+01
     -0.317  0.0000E+00  0.2340E+01
     -0.102  0.0000E+00  0.2340E+01
      0.114  0.5686E-16  0.2340E+01
      0.329  0.1009E-07  0.2340E+01
      0.545  0.3017E-03  0.2340E+01
      0.760  0.8236E-02  0.2342E+01
      0.976  0.2679E-01  0.2348E+01
      1.191  0.8700E-01  0.2366E+01
      1.407  0.9200E-01  0.2386E+01
      1.622  0.1402E+00  0.2416E+01
      1.838  0.1675E+00  0.2453E+01
      2.054  0.2085E+00  0.2497E+01
      2.269  0.2649E+00  0.2555E+01
      2.485  0.2581E+00  0.2610E+01
      2.700  0.2689E+00  0.2668E+01
      2.916  0.3171E+00  0.2736E+01
      3.131  0.3112E+00  0.2804E+01
      3.347  0.3176E+00  0.2872E+01
      3.562  0.4296E+00  0.2965E+01
      3.778  0.4724E+00  0.3066E+01
      3.993  0.5787E+00  0.3191E+01
      4.209  0.6669E+00  0.3335E+01
      4.424  0.6931E+00  0.3484E+01
      4.640  0.7065E+00  0.3636E+01
      4.855  0.6338E+00  0.3773E+01
      5.071  0.5141E+00  0.3884E+01
      5.286  0.3917E+00  0.3968E+01
      5.502  0.3171E+00  0.4037E+01
      5.717  0.2489E+00  0.4090E+01
      5.933  0.2460E+00  0.4143E+01
      6.148  0.1932E+00  0.4185E+01
      6.364  0.1806E+00  0.4224E+01
      6.579  0.1137E+00  0.4248E+01
      6.795  0.9061E-01  0.4268E+01
      7.010  0.1281E+00  0.4295E+01
      7.226  0.1600E+00  0.4330E+01
      7.441  0.1631E+00  0.4365E+01
      7.657  0.2004E+00  0.4408E+01
      7.872  0.2071E+00  0.4453E+01
      8.088  0.1864E+00  0.4493E+01
      8.303  0.1746E+00  0.4531E+01
      8.519  0.2599E+00  0.4587E+01
      8.734  0.2543E+00  0.4641E+01
      8.950  0.2109E+00  0.4687E+01
      9.165  0.1923E+00  0.4728E+01
      9.381  0.1907E+00  0.4769E+01
      9.596  0.2216E+00  0.4817E+01
      9.812  0.2551E+00  0.4872E+01
     10.027  0.2936E+00  0.4935E+01
     10.243  0.3327E+00  0.5007E+01
     10.458  0.3864E+00  0.5090E+01
     10.674  0.3925E+00  0.5175E+01
     10.889  0.4156E+00  0.5265E+01
     11.105  0.4570E+00  0.5363E+01
     11.320  0.4607E+00  0.5462E+01
     11.536  0.4942E+00  0.5569E+01
     11.751  0.4997E+00  0.5677E+01
     11.967  0.3102E+00  0.5743E+01
     12.182  0.7603E-01  0.5760E+01
     12.398  0.9195E-03  0.5760E+01
     12.613  0.7121E-08  0.5760E+01
     12.829  0.7632E-17  0.5760E+01
     13.044  0.0000E+00  0.5760E+01
     13.260  0.0000E+00  0.5760E+01
     13.476  0.0000E+00  0.5760E+01
     13.691  0.0000E+00  0.5760E+01
     13.907  0.0000E+00  0.5760E+01
     14.122  0.0000E+00  0.5760E+01
     14.338  0.0000E+00  0.5760E+01
     14.553  0.0000E+00  0.5760E+01
     14.769  0.0000E+00  0.5760E+01
     14.984  0.0000E+00  0.5760E+01
