 running on   24 total cores
 distrk:  each k-point on   24 cores,    1 groups
 distr:  one band on    1 cores,   24 groups
 using from now: INCAR     
 vasp.5.4.4.18Apr17-6-g9f103f2a35 (build Oct 18 2021 20:38:43) complex          
  
 POSCAR found type information on POSCAR  Hf Ta Nb N  C  W  Mo
 POSCAR found :  7 types and      64 ions
 scaLAPACK will be used

 ----------------------------------------------------------------------------- 
|                                                                             |
|           W    W    AA    RRRRR   N    N  II  N    N   GGGG   !!!           |
|           W    W   A  A   R    R  NN   N  II  NN   N  G    G  !!!           |
|           W    W  A    A  R    R  N N  N  II  N N  N  G       !!!           |
|           W WW W  AAAAAA  RRRRR   N  N N  II  N  N N  G  GGG   !            |
|           WW  WW  A    A  R   R   N   NN  II  N   NN  G    G                |
|           W    W  A    A  R    R  N    N  II  N    N   GGGG   !!!           |
|                                                                             |
|      For optimal performance we recommend to set                            |
|        NCORE= 4 - approx SQRT( number of cores)                             |
|      NCORE specifies how many cores store one orbital (NPAR=cpu/NCORE).     |
|      This setting can  greatly improve the performance of VASP for DFT.     |
|      The default,   NCORE=1            might be grossly inefficient         |
|      on modern multi-core architectures or massively parallel machines.     |
|      Do your own testing !!!!                                               |
|      Unfortunately you need to use the default for GW and RPA calculations. |
|      (for HF NCORE is supported but not extensively tested yet)             |
|                                                                             |
 ----------------------------------------------------------------------------- 


 ----------------------------------------------------------------------------- 
|                                                                             |
|  ADVICE TO THIS USER RUNNING 'VASP/VAMP'   (HEAR YOUR MASTER'S VOICE ...):  |
|                                                                             |
|      You have a (more or less) 'large supercell' and for larger cells       |
|      it might be more efficient to use real space projection operators      |
|      So try LREAL= Auto  in the INCAR   file.                               |
|      Mind: If you want to do a very accurate calculations keep the          |
|      reciprocal projection scheme          (i.e. LREAL=.FALSE.)             |
|                                                                             |
 ----------------------------------------------------------------------------- 

 LDA part: xc-table for Pade appr. of Perdew
 POSCAR, INCAR and KPOINTS ok, starting setup
 FFT: planning ...
 WAVECAR not read
 entering main loop
       N       E                     dE             d eps       ncg     rms          rms(c)
DAV:   1     0.432923490192E+04    0.43292E+04   -0.21311E+05  8064   0.141E+03
DAV:   2    -0.222773209711E+03   -0.45520E+04   -0.43588E+04  9456   0.565E+02
DAV:   3    -0.754184279170E+03   -0.53141E+03   -0.51865E+03 13152   0.167E+02
DAV:   4    -0.785227172613E+03   -0.31043E+02   -0.30360E+02 13728   0.416E+01
DAV:   5    -0.787998136071E+03   -0.27710E+01   -0.27401E+01 14424   0.908E+00    0.556E+01
RMM:   6    -0.680374471820E+03    0.10762E+03   -0.72950E+02 11617   0.365E+01    0.159E+01
RMM:   7    -0.674909907009E+03    0.54646E+01   -0.61914E+01 12087   0.191E+01    0.106E+01
RMM:   8    -0.673673246265E+03    0.12367E+01   -0.13309E+01 11819   0.510E+00    0.733E+00
RMM:   9    -0.673082348105E+03    0.59090E+00   -0.40233E+00 12131   0.366E+00    0.418E+00
RMM:  10    -0.673021935488E+03    0.60413E-01   -0.20450E+00 12493   0.201E+00    0.225E+00
RMM:  11    -0.672940696705E+03    0.81239E-01   -0.59715E-01 12370   0.150E+00    0.138E+00
RMM:  12    -0.672929740381E+03    0.10956E-01   -0.47782E-01 12931   0.808E-01    0.757E-01
RMM:  13    -0.672951286587E+03   -0.21546E-01   -0.25693E-01 13510   0.565E-01    0.659E-01
RMM:  14    -0.672953383604E+03   -0.20970E-02   -0.93655E-02 12884   0.379E-01    0.439E-01
RMM:  15    -0.672955075908E+03   -0.16923E-02   -0.70948E-02 12827   0.343E-01    0.128E-01
RMM:  16    -0.672957462919E+03   -0.23870E-02   -0.28662E-02 13708   0.191E-01    0.990E-02
RMM:  17    -0.672958859474E+03   -0.13966E-02   -0.17687E-02 13749   0.114E-01    0.692E-02
RMM:  18    -0.672959734207E+03   -0.87473E-03   -0.10395E-02 13627   0.993E-02    0.318E-02
RMM:  19    -0.672960351011E+03   -0.61680E-03   -0.65181E-03 12731   0.645E-02    0.168E-02
WARNING in EDDRMM: call to ZHEGV failed, returncode =   8  4      5
RMM:  20    -0.672960699188E+03   -0.34818E-03   -0.36884E-03 12055   0.555E-02    0.187E-02
RMM:  21    -0.672960953227E+03   -0.25404E-03   -0.25896E-03 11478   0.404E-02    0.103E-02
RMM:  22    -0.672961094290E+03   -0.14106E-03   -0.13914E-03 10953   0.365E-02    0.712E-03
RMM:  23    -0.672961201846E+03   -0.10756E-03   -0.10878E-03  9748   0.277E-02    0.330E-03
RMM:  24    -0.672961254160E+03   -0.52314E-04   -0.53437E-04  9137   0.250E-02    0.363E-03
RMM:  25    -0.672961298041E+03   -0.43881E-04   -0.43433E-04  7706   0.206E-02    0.185E-03
RMM:  26    -0.672961316772E+03   -0.18731E-04   -0.20274E-04  7575   0.196E-02    0.312E-03
RMM:  27    -0.672961331784E+03   -0.15011E-04   -0.14794E-04  6513   0.172E-02    0.659E-04
RMM:  28    -0.672961338971E+03   -0.71875E-05   -0.79214E-05  6311   0.160E-02
   1 F= -.67296134E+03 E0= -.67289334E+03  d E =-.672961E+03
 curvature:   0.00 expect dE= 0.000E+00 dE for cont linesearch  0.000E+00
 trial: gam= 0.00000 g(F)=  0.247E+01 g(S)=  0.905E+00 ort = 0.000E+00 (trialstep = 0.100E+01)
 search vector abs. value=  0.337E+01
 bond charge predicted
       N       E                     dE             d eps       ncg     rms          rms(c)
DAV:   1    -0.675339370922E+03   -0.23780E+01   -0.50679E+02  9360   0.616E+01    0.110E+01
RMM:   2    -0.675281753882E+03    0.57617E-01   -0.42145E+01 12339   0.185E+01    0.590E+00
RMM:   3    -0.674690340669E+03    0.59141E+00   -0.52198E+00 12094   0.727E+00    0.476E+00
RMM:   4    -0.674154194790E+03    0.53615E+00   -0.19713E+00 11498   0.303E+00    0.177E+00
RMM:   5    -0.674099514783E+03    0.54680E-01   -0.43792E-01 12060   0.170E+00    0.103E+00
RMM:   6    -0.674082814587E+03    0.16700E-01   -0.14243E-01 13400   0.701E-01    0.483E-01
RMM:   7    -0.674083536497E+03   -0.72191E-03   -0.40597E-02 13939   0.338E-01    0.263E-01
RMM:   8    -0.674085974605E+03   -0.24381E-02   -0.20595E-02 14584   0.192E-01    0.226E-01
RMM:   9    -0.674087593393E+03   -0.16188E-02   -0.96678E-03 14487   0.136E-01    0.168E-01
RMM:  10    -0.674088784745E+03   -0.11914E-02   -0.64492E-03 14644   0.110E-01    0.123E-01
RMM:  11    -0.674089417449E+03   -0.63270E-03   -0.40775E-03 14504   0.878E-02    0.609E-02
RMM:  12    -0.674089649067E+03   -0.23162E-03   -0.24091E-03 14217   0.716E-02    0.328E-02
RMM:  13    -0.674089768797E+03   -0.11973E-03   -0.13060E-03 13583   0.512E-02    0.168E-02
RMM:  14    -0.674089840405E+03   -0.71609E-04   -0.74952E-04 12623   0.418E-02    0.113E-02
RMM:  15    -0.674089884893E+03   -0.44487E-04   -0.44942E-04 12289   0.335E-02    0.492E-03
RMM:  16    -0.674089910925E+03   -0.26032E-04   -0.26209E-04 11235   0.273E-02    0.357E-03
RMM:  17    -0.674089927520E+03   -0.16595E-04   -0.16396E-04 10140   0.218E-02    0.173E-03
RMM:  18    -0.674089936835E+03   -0.93151E-05   -0.96570E-05  8515   0.209E-02
   2 F= -.67408994E+03 E0= -.67403286E+03  d E =-.112860E+01
 trial-energy change:   -1.128598  1 .order   -1.044995   -3.373265    1.283274
 step:   0.7449(harm=  0.7244)  dis= 0.05503  next Energy=  -674.252240 (dE=-0.129E+01)
 bond charge predicted
       N       E                     dE             d eps       ncg     rms          rms(c)
DAV:   1    -0.674314056583E+03   -0.22413E+00   -0.33270E+01  9552   0.161E+01    0.280E+00
RMM:   2    -0.674340950498E+03   -0.26894E-01   -0.29977E+00 12261   0.495E+00    0.160E+00
RMM:   3    -0.674300976282E+03    0.39974E-01   -0.37561E-01 12183   0.180E+00    0.131E+00
RMM:   4    -0.674259931656E+03    0.41045E-01   -0.12465E-01 11904   0.780E-01    0.523E-01
RMM:   5    -0.674254540190E+03    0.53915E-02   -0.35333E-02 11944   0.467E-01    0.291E-01
RMM:   6    -0.674252881450E+03    0.16587E-02   -0.10451E-02 12949   0.211E-01    0.137E-01
RMM:   7    -0.674252725413E+03    0.15604E-03   -0.32911E-03 13851   0.959E-02    0.724E-02
RMM:   8    -0.674252780015E+03   -0.54602E-04   -0.14337E-03 13830   0.606E-02    0.487E-02
WARNING in EDDRMM: call to ZHEGV failed, returncode =   6  3      7
RMM:   9    -0.674252850562E+03   -0.70547E-04   -0.81202E-04 13304   0.403E-02    0.382E-02
WARNING in EDDRMM: call to ZHEGV failed, returncode =   6  3      8
RMM:  10    -0.674252896158E+03   -0.45595E-04   -0.49269E-04 12246   0.335E-02    0.292E-02
RMM:  11    -0.674252922515E+03   -0.26357E-04   -0.28740E-04 11151   0.269E-02    0.197E-02
RMM:  12    -0.674252935230E+03   -0.12715E-04   -0.19756E-04 10692   0.265E-02    0.935E-03
WARNING in EDDRMM: call to ZHEGV failed, returncode =   8  4      5
RMM:  13    -0.674252941111E+03   -0.58813E-05   -0.11148E-04  8803   0.213E-02    0.455E-03
RMM:  14    -0.674252947451E+03   -0.63394E-05   -0.75034E-05  7644   0.205E-02
   3 F= -.67425295E+03 E0= -.67419440E+03  d E =-.129161E+01
 curvature:  -0.36 expect dE=-0.734E+00 dE for cont linesearch -0.895E-04
 trial: gam= 0.59579 g(F)=  0.809E+00 g(S)=  0.123E+01 ort = 0.289E-01 (trialstep = 0.949E+00)
 search vector abs. value=  0.327E+01
 bond charge predicted
       N       E                     dE             d eps       ncg     rms          rms(c)
DAV:   1    -0.672637236871E+03    0.16157E+01   -0.45758E+02  8712   0.555E+01    0.711E+00
RMM:   2    -0.675961229064E+03   -0.33240E+01   -0.43452E+01 12426   0.175E+01    0.641E+00
RMM:   3    -0.675068128507E+03    0.89310E+00   -0.42030E+00 12339   0.588E+00    0.331E+00
RMM:   4    -0.674847353301E+03    0.22078E+00   -0.10768E+00 12354   0.209E+00    0.191E+00
RMM:   5    -0.674786413414E+03    0.60940E-01   -0.42341E-01 12071   0.154E+00    0.113E+00
RMM:   6    -0.674763728074E+03    0.22685E-01   -0.14983E-01 12580   0.760E-01    0.481E-01
RMM:   7    -0.674762737591E+03    0.99048E-03   -0.50446E-02 13225   0.378E-01    0.297E-01
RMM:   8    -0.674762960805E+03   -0.22321E-03   -0.22360E-02 14155   0.206E-01    0.176E-01
RMM:   9    -0.674763744254E+03   -0.78345E-03   -0.98781E-03 14353   0.128E-01    0.138E-01
RMM:  10    -0.674764363939E+03   -0.61969E-03   -0.57019E-03 14430   0.909E-02    0.104E-01
RMM:  11    -0.674764743269E+03   -0.37933E-03   -0.34960E-03 14247   0.740E-02    0.654E-02
RMM:  12    -0.674764920735E+03   -0.17747E-03   -0.20279E-03 13801   0.568E-02    0.388E-02
RMM:  13    -0.674765011053E+03   -0.90318E-04   -0.11883E-03 13457   0.459E-02    0.256E-02
WARNING in EDDRMM: call to ZHEGV failed, returncode =   8  4      5
RMM:  14    -0.674765073338E+03   -0.62285E-04   -0.73583E-04 12752   0.358E-02    0.131E-02
WARNING in EDDRMM: call to ZHEGV failed, returncode =   6  3      9
RMM:  15    -0.674765103962E+03   -0.30624E-04   -0.36844E-04 10937   0.281E-02    0.950E-03
RMM:  16    -0.674765125842E+03   -0.21880E-04   -0.26087E-04 10272   0.249E-02    0.609E-03
WARNING in EDDRMM: call to ZHEGV failed, returncode =   6  3      5
WARNING in EDDRMM: call to ZHEGV failed, returncode =   6  3     10
RMM:  17    -0.674765136480E+03   -0.10637E-04   -0.13159E-04  8272   0.218E-02    0.275E-03
RMM:  18    -0.674765145204E+03   -0.87240E-05   -0.98024E-05  7444   0.197E-02
   4 F= -.67476515E+03 E0= -.67470806E+03  d E =-.512198E+00
 trial-energy change:   -0.512198  1 .order   -0.551291   -1.951054    0.848472
 step:   0.6440(harm=  0.6614)  dis= 0.06529  next Energy=  -674.902770 (dE=-0.650E+00)
 bond charge predicted
       N       E                     dE             d eps       ncg     rms          rms(c)
DAV:   1    -0.674702269561E+03    0.62867E-01   -0.46724E+01  8592   0.174E+01    0.230E+00
RMM:   2    -0.675018872710E+03   -0.31660E+00   -0.42501E+00 12284   0.546E+00    0.202E+00
RMM:   3    -0.674930479627E+03    0.88393E-01   -0.46630E-01 12059   0.230E+00    0.103E+00
RMM:   4    -0.674910060777E+03    0.20419E-01   -0.11931E-01 12276   0.735E-01    0.602E-01
RMM:   5    -0.674904726966E+03    0.53338E-02   -0.42481E-02 12057   0.483E-01    0.369E-01
RMM:   6    -0.674902223976E+03    0.25030E-02   -0.13839E-02 12525   0.241E-01    0.136E-01
RMM:   7    -0.674902288091E+03   -0.64115E-04   -0.45575E-03 13083   0.113E-01    0.934E-02
RMM:   8    -0.674902330486E+03   -0.42395E-04   -0.20035E-03 13676   0.640E-02    0.523E-02
RMM:   9    -0.674902432892E+03   -0.10241E-03   -0.89233E-04 12630   0.395E-02    0.419E-02
RMM:  10    -0.674902507710E+03   -0.74819E-04   -0.48989E-04 11616   0.292E-02    0.300E-02
WARNING in EDDRMM: call to ZHEGV failed, returncode =   8  4      7
RMM:  11    -0.674902563170E+03   -0.55460E-04   -0.31961E-04 11010   0.247E-02    0.202E-02
RMM:  12    -0.674902592178E+03   -0.29008E-04   -0.16541E-04  8751   0.205E-02    0.981E-03
RMM:  13    -0.674902604771E+03   -0.12593E-04   -0.10584E-04  7904   0.216E-02    0.584E-03
RMM:  14    -0.674902609838E+03   -0.50673E-05   -0.56079E-05  6525   0.176E-02
   5 F= -.67490261E+03 E0= -.67484502E+03  d E =-.649662E+00
 curvature:  -0.52 expect dE=-0.289E+00 dE for cont linesearch -0.316E-05
 trial: gam= 0.25076 g(F)=  0.507E+00 g(S)=  0.440E-01 ort =-0.444E-02 (trialstep = 0.888E+00)
 search vector abs. value=  0.755E+00
 bond charge predicted
       N       E                     dE             d eps       ncg     rms          rms(c)
DAV:   1    -0.674244723588E+03    0.65788E+00   -0.99007E+01  8736   0.245E+01    0.177E+00
RMM:   2    -0.675219496254E+03   -0.97477E+00   -0.10718E+01 12273   0.830E+00    0.959E-01
RMM:   3    -0.675250756766E+03   -0.31261E-01   -0.91749E-01 12192   0.341E+00    0.784E-01
RMM:   4    -0.675252923779E+03   -0.21670E-02   -0.14406E-01 12703   0.715E-01    0.585E-01
RMM:   5    -0.675249058786E+03    0.38650E-02   -0.54952E-02 11946   0.565E-01    0.313E-01
RMM:   6    -0.675249337596E+03   -0.27881E-03   -0.21944E-02 12337   0.242E-01    0.161E-01
RMM:   7    -0.675249121532E+03    0.21606E-03   -0.63670E-03 12883   0.138E-01    0.929E-02
RMM:   8    -0.675249218896E+03   -0.97364E-04   -0.36528E-03 13250   0.714E-02    0.531E-02
RMM:   9    -0.675249325373E+03   -0.10648E-03   -0.15407E-03 12614   0.447E-02    0.309E-02
RMM:  10    -0.675249401654E+03   -0.76281E-04   -0.83878E-04 11642   0.301E-02    0.203E-02
RMM:  11    -0.675249445567E+03   -0.43913E-04   -0.45912E-04  9815   0.259E-02    0.109E-02
RMM:  12    -0.675249470421E+03   -0.24854E-04   -0.26248E-04  8204   0.209E-02    0.618E-03
RMM:  13    -0.675249484132E+03   -0.13711E-04   -0.14721E-04  6855   0.211E-02    0.385E-03
RMM:  14    -0.675249492290E+03   -0.81582E-05   -0.90531E-05  6170   0.179E-02
   6 F= -.67524949E+03 E0= -.67519827E+03  d E =-.346882E+00
 trial-energy change:   -0.346882  1 .order   -0.341381   -0.488613   -0.194149
 step:   1.3863(harm=  1.4735)  dis= 0.08463  next Energy=  -675.304936 (dE=-0.402E+00)
 bond charge predicted
       N       E                     dE             d eps       ncg     rms          rms(c)
DAV:   1    -0.674985214290E+03    0.26427E+00   -0.31130E+01  8736   0.138E+01    0.993E-01
RMM:   2    -0.675294762925E+03   -0.30955E+00   -0.34052E+00 12266   0.467E+00    0.536E-01
RMM:   3    -0.675304938753E+03   -0.10176E-01   -0.29089E-01 12256   0.191E+00    0.429E-01
RMM:   4    -0.675305677039E+03   -0.73829E-03   -0.44193E-02 12787   0.398E-01    0.328E-01
RMM:   5    -0.675304423134E+03    0.12539E-02   -0.19388E-02 11900   0.333E-01    0.148E-01
RMM:   6    -0.675304606850E+03   -0.18372E-03   -0.62227E-03 12338   0.127E-01    0.782E-02
RMM:   7    -0.675304584803E+03    0.22046E-04   -0.21763E-03 12516   0.766E-02    0.437E-02
RMM:   8    -0.675304646391E+03   -0.61588E-04   -0.11665E-03 12495   0.423E-02    0.272E-02
RMM:   9    -0.675304688145E+03   -0.41754E-04   -0.53431E-04 10391   0.270E-02    0.154E-02
RMM:  10    -0.675304713398E+03   -0.25253E-04   -0.26907E-04  8805   0.208E-02    0.104E-02
RMM:  11    -0.675304729401E+03   -0.16003E-04   -0.16249E-04  7160   0.187E-02    0.548E-03
RMM:  12    -0.675304737812E+03   -0.84111E-05   -0.85663E-05  6350   0.181E-02
   7 F= -.67530474E+03 E0= -.67525661E+03  d E =-.402128E+00
 curvature:  -0.99 expect dE=-0.382E+00 dE for cont linesearch -0.247E-04
 trial: gam= 0.66345 g(F)=  0.353E+00 g(S)=  0.337E-01 ort =-0.434E-02 (trialstep = 0.988E+00)
 search vector abs. value=  0.713E+00
 bond charge predicted
       N       E                     dE             d eps       ncg     rms          rms(c)
DAV:   1    -0.674506750512E+03    0.79798E+00   -0.11380E+02  8664   0.264E+01    0.227E+00
RMM:   2    -0.675508773030E+03   -0.10020E+01   -0.11722E+01 12377   0.858E+00    0.120E+00
RMM:   3    -0.675547624909E+03   -0.38852E-01   -0.99528E-01 12158   0.343E+00    0.965E-01
RMM:   4    -0.675543853288E+03    0.37716E-02   -0.18805E-01 12548   0.824E-01    0.637E-01
RMM:   5    -0.675539228750E+03    0.46245E-02   -0.70679E-02 12223   0.641E-01    0.291E-01
RMM:   6    -0.675539327617E+03   -0.98867E-04   -0.22076E-02 12480   0.233E-01    0.157E-01
RMM:   7    -0.675539551318E+03   -0.22370E-03   -0.85826E-03 12993   0.146E-01    0.941E-02
RMM:   8    -0.675539740956E+03   -0.18964E-03   -0.42329E-03 13977   0.748E-02    0.485E-02
RMM:   9    -0.675539914456E+03   -0.17350E-03   -0.20518E-03 12968   0.512E-02    0.315E-02
WARNING in EDDRMM: call to ZHEGV failed, returncode =   8  4     10
RMM:  10    -0.675540017425E+03   -0.10297E-03   -0.11701E-03 12438   0.381E-02    0.205E-02
RMM:  11    -0.675540072912E+03   -0.55487E-04   -0.65303E-04 10942   0.315E-02    0.108E-02
RMM:  12    -0.675540107738E+03   -0.34826E-04   -0.38806E-04 10536   0.272E-02    0.774E-03
RMM:  13    -0.675540128265E+03   -0.20527E-04   -0.22820E-04  9153   0.219E-02    0.461E-03
RMM:  14    -0.675540140669E+03   -0.12404E-04   -0.13924E-04  8186   0.197E-02    0.306E-03
RMM:  15    -0.675540148228E+03   -0.75592E-05   -0.86969E-05  6908   0.190E-02
   8 F= -.67554015E+03 E0= -.67549365E+03  d E =-.235410E+00
 trial-energy change:   -0.235410  1 .order   -0.226849   -0.379001   -0.074697
 step:   1.1891(harm=  1.2301)  dis= 0.05743  next Energy=  -675.547840 (dE=-0.243E+00)
 bond charge predicted
       N       E                     dE             d eps       ncg     rms          rms(c)
DAV:   1    -0.675506281910E+03    0.33859E-01   -0.47315E+00  9408   0.537E+00    0.461E-01
RMM:   2    -0.675547472300E+03   -0.41190E-01   -0.48208E-01 12387   0.174E+00    0.241E-01
RMM:   3    -0.675548646534E+03   -0.11742E-02   -0.38685E-02 12111   0.669E-01    0.186E-01
RMM:   4    -0.675548510786E+03    0.13575E-03   -0.67880E-03 12461   0.162E-01    0.125E-01
RMM:   5    -0.675548329206E+03    0.18158E-03   -0.28343E-03 12037   0.121E-01    0.514E-02
RMM:   6    -0.675548339287E+03   -0.10081E-04   -0.88901E-04 12258   0.487E-02    0.261E-02
RMM:   7    -0.675548353649E+03   -0.14362E-04   -0.36926E-04 11078   0.286E-02    0.171E-02
RMM:   8    -0.675548363883E+03   -0.10234E-04   -0.19797E-04  8783   0.179E-02    0.951E-03
RMM:   9    -0.675548369263E+03   -0.53804E-05   -0.89604E-05  6362   0.170E-02
   9 F= -.67554837E+03 E0= -.67550183E+03  d E =-.243631E+00
 curvature:  -1.11 expect dE=-0.247E+00 dE for cont linesearch -0.116E-04
 trial: gam= 0.32916 g(F)=  0.185E+00 g(S)=  0.372E-01 ort = 0.273E-02 (trialstep = 0.103E+01)
 search vector abs. value=  0.301E+00
 bond charge predicted
       N       E                     dE             d eps       ncg     rms          rms(c)
DAV:   1    -0.675410492054E+03    0.13787E+00   -0.49751E+01  8760   0.179E+01    0.204E+00
RMM:   2    -0.675693932578E+03   -0.28344E+00   -0.42168E+00 12280   0.534E+00    0.117E+00
RMM:   3    -0.675681615317E+03    0.12317E-01   -0.41375E-01 12110   0.230E+00    0.859E-01
RMM:   4    -0.675667448310E+03    0.14167E-01   -0.97969E-02 12101   0.682E-01    0.406E-01
RMM:   5    -0.675665914629E+03    0.15337E-02   -0.30977E-02 12011   0.438E-01    0.221E-01
RMM:   6    -0.675665599810E+03    0.31482E-03   -0.10140E-02 13039   0.189E-01    0.104E-01
RMM:   7    -0.675665747258E+03   -0.14745E-03   -0.35464E-03 13841   0.803E-02    0.581E-02
RMM:   8    -0.675665909129E+03   -0.16187E-03   -0.16450E-03 13506   0.511E-02    0.354E-02
WARNING in EDDRMM: call to ZHEGV failed, returncode =   6  3      8
RMM:   9    -0.675666010218E+03   -0.10109E-03   -0.83812E-04 12356   0.338E-02    0.253E-02
WARNING in EDDRMM: call to ZHEGV failed, returncode =   8  4      6
RMM:  10    -0.675666067406E+03   -0.57188E-04   -0.45277E-04 11440   0.278E-02    0.184E-02
RMM:  11    -0.675666098503E+03   -0.31096E-04   -0.24679E-04  9697   0.229E-02    0.120E-02
RMM:  12    -0.675666114547E+03   -0.16044E-04   -0.14082E-04  8462   0.225E-02    0.752E-03
RMM:  13    -0.675666123193E+03   -0.86457E-05   -0.78513E-05  6925   0.196E-02
  10 F= -.67566612E+03 E0= -.67561879E+03  d E =-.117754E+00
 trial-energy change:   -0.117754  1 .order   -0.116068   -0.229499   -0.002636
 step:   1.0394(harm=  1.0399)  dis= 0.04327  next Energy=  -675.666138 (dE=-0.118E+00)
 bond charge predicted
       N       E                     dE             d eps       ncg     rms          rms(c)
DAV:   1    -0.675666111046E+03    0.35006E-05   -0.62818E-03 10152   0.201E-01    0.226E-02
RMM:   2    -0.675666152134E+03   -0.41088E-04   -0.58211E-04 11786   0.618E-02    0.126E-02
RMM:   3    -0.675666152091E+03    0.42404E-07   -0.77567E-05  7142   0.306E-02
  11 F= -.67566615E+03 E0= -.67561880E+03  d E =-.117783E+00
 curvature:  -0.70 expect dE=-0.970E-01 dE for cont linesearch -0.204E-06
 trial: gam= 0.59027 g(F)=  0.618E-01 g(S)=  0.766E-01 ort = 0.296E-03 (trialstep = 0.103E+01)
 search vector abs. value=  0.244E+00
 bond charge predicted
       N       E                     dE             d eps       ncg     rms          rms(c)
DAV:   1    -0.675456873779E+03    0.20928E+00   -0.40189E+01  8664   0.173E+01    0.241E+00
RMM:   2    -0.675734131076E+03   -0.27726E+00   -0.47353E+00 12453   0.585E+00    0.135E+00
RMM:   3    -0.675720924181E+03    0.13207E-01   -0.46262E-01 12427   0.197E+00    0.103E+00
RMM:   4    -0.675698228061E+03    0.22696E-01   -0.10769E-01 12201   0.736E-01    0.481E-01
RMM:   5    -0.675694689676E+03    0.35384E-02   -0.35496E-02 12265   0.476E-01    0.262E-01
RMM:   6    -0.675693676275E+03    0.10134E-02   -0.12035E-02 12924   0.215E-01    0.115E-01
RMM:   7    -0.675693783792E+03   -0.10752E-03   -0.40890E-03 13457   0.101E-01    0.687E-02
RMM:   8    -0.675693888400E+03   -0.10461E-03   -0.17238E-03 13697   0.603E-02    0.499E-02
RMM:   9    -0.675693977847E+03   -0.89447E-04   -0.99279E-04 12807   0.407E-02    0.377E-02
RMM:  10    -0.675694027065E+03   -0.49218E-04   -0.57291E-04 12157   0.333E-02    0.237E-02
RMM:  11    -0.675694051266E+03   -0.24201E-04   -0.33274E-04 11208   0.276E-02    0.148E-02
WARNING in EDDRMM: call to ZHEGV failed, returncode =   6  3      8
RMM:  12    -0.675694065104E+03   -0.13838E-04   -0.20099E-04 10113   0.251E-02    0.863E-03
RMM:  13    -0.675694073886E+03   -0.87818E-05   -0.11104E-04  7999   0.215E-02    0.386E-03
RMM:  14    -0.675694080413E+03   -0.65269E-05   -0.75772E-05  7487   0.191E-02
  12 F= -.67569408E+03 E0= -.67564489E+03  d E =-.279283E-01
 trial-energy change:   -0.027928  1 .order   -0.027443   -0.142760    0.087874
 step:   0.6408(harm=  0.6377)  dis= 0.01971  next Energy=  -675.710664 (dE=-0.445E-01)
 bond charge predicted
       N       E                     dE             d eps       ncg     rms          rms(c)
DAV:   1    -0.675679635383E+03    0.14439E-01   -0.57392E+00  8928   0.649E+00    0.877E-01
RMM:   2    -0.675717389055E+03   -0.37754E-01   -0.63689E-01 12378   0.209E+00    0.518E-01
RMM:   3    -0.675713813855E+03    0.35752E-02   -0.56962E-02 12156   0.793E-01    0.371E-01
RMM:   4    -0.675711082189E+03    0.27317E-02   -0.16845E-02 11968   0.297E-01    0.167E-01
RMM:   5    -0.675710779725E+03    0.30246E-03   -0.47031E-03 11842   0.181E-01    0.966E-02
RMM:   6    -0.675710664582E+03    0.11514E-03   -0.14051E-03 12534   0.764E-02    0.423E-02
RMM:   7    -0.675710694763E+03   -0.30181E-04   -0.46280E-04 11975   0.369E-02    0.235E-02
RMM:   8    -0.675710718812E+03   -0.24048E-04   -0.18989E-04  9136   0.237E-02    0.152E-02
RMM:   9    -0.675710738517E+03   -0.19705E-04   -0.99114E-05  7225   0.179E-02    0.999E-03
RMM:  10    -0.675710751866E+03   -0.13349E-04   -0.57487E-05  6240   0.169E-02    0.624E-03
RMM:  11    -0.675710757694E+03   -0.58278E-05   -0.31620E-05  5548   0.165E-02
  13 F= -.67571076E+03 E0= -.67566232E+03  d E =-.446056E-01
 curvature:  -0.56 expect dE=-0.389E-01 dE for cont linesearch -0.157E-05
 trial: gam= 0.51569 g(F)=  0.479E-01 g(S)=  0.214E-01 ort =-0.826E-03 (trialstep = 0.952E+00)
 search vector abs. value=  0.133E+00
 bond charge predicted
       N       E                     dE             d eps       ncg     rms          rms(c)
DAV:   1    -0.675568527792E+03    0.14222E+00   -0.18969E+01  8400   0.109E+01    0.896E-01
RMM:   2    -0.675754036026E+03   -0.18551E+00   -0.21102E+00 12456   0.362E+00    0.533E-01
RMM:   3    -0.675752982191E+03    0.10538E-02   -0.14302E-01 12336   0.121E+00    0.383E-01
RMM:   4    -0.675751836864E+03    0.11453E-02   -0.25526E-02 12438   0.305E-01    0.255E-01
RMM:   5    -0.675751171699E+03    0.66516E-03   -0.10817E-02 11927   0.242E-01    0.134E-01
RMM:   6    -0.675751141042E+03    0.30657E-04   -0.41451E-03 12321   0.109E-01    0.606E-02
RMM:   7    -0.675751186584E+03   -0.45543E-04   -0.13906E-03 12671   0.584E-02    0.344E-02
RMM:   8    -0.675751238079E+03   -0.51495E-04   -0.72209E-04 12308   0.332E-02    0.211E-02
WARNING in EDDRMM: call to ZHEGV failed, returncode =   6  3      7
RMM:   9    -0.675751277750E+03   -0.39671E-04   -0.34698E-04  9351   0.226E-02    0.137E-02
RMM:  10    -0.675751299998E+03   -0.22248E-04   -0.18538E-04  7266   0.211E-02    0.781E-03
RMM:  11    -0.675751311563E+03   -0.11564E-04   -0.10339E-04  6292   0.214E-02    0.487E-03
RMM:  12    -0.675751317850E+03   -0.62878E-05   -0.62292E-05  6001   0.163E-02
  14 F= -.67575132E+03 E0= -.67570319E+03  d E =-.405602E-01
 trial-energy change:   -0.040560  1 .order   -0.040283   -0.065605   -0.014962
 step:   1.2223(harm=  1.2337)  dis= 0.03068  next Energy=  -675.753445 (dE=-0.427E-01)
 bond charge predicted
       N       E                     dE             d eps       ncg     rms          rms(c)
DAV:   1    -0.675738750263E+03    0.12561E-01   -0.15257E+00  8400   0.308E+00    0.254E-01
RMM:   2    -0.675753679912E+03   -0.14930E-01   -0.17013E-01 12449   0.103E+00    0.148E-01
RMM:   3    -0.675753715077E+03   -0.35165E-04   -0.11902E-02 12322   0.337E-01    0.109E-01
RMM:   4    -0.675753635974E+03    0.79103E-04   -0.21876E-03 12214   0.897E-02    0.715E-02
RMM:   5    -0.675753599358E+03    0.36616E-04   -0.97860E-04 11681   0.732E-02    0.365E-02
RMM:   6    -0.675753608127E+03   -0.87692E-05   -0.38730E-04 11224   0.333E-02    0.168E-02
RMM:   7    -0.675753615085E+03   -0.69581E-05   -0.13616E-04  7671   0.225E-02    0.963E-03
RMM:   8    -0.675753622560E+03   -0.74753E-05   -0.77013E-05  6113   0.156E-02
  15 F= -.67575362E+03 E0= -.67570556E+03  d E =-.428649E-01
 curvature:  -1.19 expect dE=-0.383E-01 dE for cont linesearch -0.305E-08
 trial: gam= 0.43008 g(F)=  0.284E-01 g(S)=  0.378E-02 ort =-0.185E-04 (trialstep = 0.101E+01)
 search vector abs. value=  0.568E-01
 bond charge predicted
       N       E                     dE             d eps       ncg     rms          rms(c)
DAV:   1    -0.675702586739E+03    0.51028E-01   -0.91791E+00  8736   0.747E+00    0.621E-01
RMM:   2    -0.675775155718E+03   -0.72569E-01   -0.85088E-01 12257   0.233E+00    0.340E-01
RMM:   3    -0.675775399935E+03   -0.24422E-03   -0.69061E-02 12180   0.844E-01    0.264E-01
RMM:   4    -0.675774958461E+03    0.44147E-03   -0.13028E-02 12266   0.218E-01    0.172E-01
RMM:   5    -0.675774662606E+03    0.29585E-03   -0.53144E-03 11863   0.168E-01    0.751E-02
RMM:   6    -0.675774663515E+03   -0.90827E-06   -0.17682E-03 12226   0.671E-02    0.359E-02
RMM:   7    -0.675774693680E+03   -0.30166E-04   -0.72486E-04 12046   0.408E-02    0.231E-02
RMM:   8    -0.675774714747E+03   -0.21067E-04   -0.36108E-04 10573   0.218E-02    0.149E-02
WARNING in EDDRMM: call to ZHEGV failed, returncode =   6  3      9
RMM:   9    -0.675774725516E+03   -0.10769E-04   -0.17631E-04  7459   0.178E-02    0.928E-03
RMM:  10    -0.675774730528E+03   -0.50119E-05   -0.94760E-05  6488   0.177E-02
  16 F= -.67577473E+03 E0= -.67572665E+03  d E =-.211080E-01
 trial-energy change:   -0.021108  1 .order   -0.020656   -0.032346   -0.008966
 step:   1.3406(harm=  1.3922)  dis= 0.01821  next Energy=  -675.776236 (dE=-0.226E-01)
 bond charge predicted
       N       E                     dE             d eps       ncg     rms          rms(c)
DAV:   1    -0.675768599001E+03    0.61265E-02   -0.10128E+00  8928   0.248E+00    0.206E-01
RMM:   2    -0.675776609867E+03   -0.80109E-02   -0.93897E-02 12253   0.774E-01    0.113E-01
RMM:   3    -0.675776667568E+03   -0.57701E-04   -0.79501E-03 12123   0.280E-01    0.875E-02
RMM:   4    -0.675776617913E+03    0.49656E-04   -0.14910E-03 11945   0.751E-02    0.563E-02
RMM:   5    -0.675776587777E+03    0.30136E-04   -0.66988E-04 11504   0.594E-02    0.246E-02
RMM:   6    -0.675776588204E+03   -0.42696E-06   -0.23363E-04 10245   0.264E-02    0.119E-02
RMM:   7    -0.675776591720E+03   -0.35168E-05   -0.10414E-04  6443   0.180E-02    0.772E-03
RMM:   8    -0.675776593324E+03   -0.16039E-05   -0.50301E-05  5624   0.142E-02
  17 F= -.67577659E+03 E0= -.67572850E+03  d E =-.229708E-01
 curvature:  -1.21 expect dE=-0.302E-01 dE for cont linesearch -0.339E-04
 trial: gam= 0.73490 g(F)=  0.156E-01 g(S)=  0.940E-02 ort = 0.126E-02 (trialstep = 0.106E+01)
 search vector abs. value=  0.575E-01
 bond charge predicted
       N       E                     dE             d eps       ncg     rms          rms(c)
DAV:   1    -0.675726859694E+03    0.49732E-01   -0.10426E+01  8928   0.833E+00    0.929E-01
RMM:   2    -0.675794695415E+03   -0.67836E-01   -0.95618E-01 12325   0.249E+00    0.576E-01
RMM:   3    -0.675790721855E+03    0.39736E-02   -0.87635E-02 12083   0.103E+00    0.392E-01
RMM:   4    -0.675788219774E+03    0.25021E-02   -0.21215E-02 12081   0.324E-01    0.195E-01
RMM:   5    -0.675787968060E+03    0.25171E-03   -0.70252E-03 12018   0.207E-01    0.112E-01
RMM:   6    -0.675787873849E+03    0.94212E-04   -0.23855E-03 12674   0.905E-02    0.488E-02
RMM:   7    -0.675787926201E+03   -0.52352E-04   -0.84716E-04 12960   0.436E-02    0.284E-02
RMM:   8    -0.675787971983E+03   -0.45782E-04   -0.38899E-04 11479   0.260E-02    0.172E-02
RMM:   9    -0.675788001158E+03   -0.29175E-04   -0.20529E-04  9087   0.199E-02    0.110E-02
RMM:  10    -0.675788017068E+03   -0.15910E-04   -0.10816E-04  7120   0.193E-02    0.678E-03
RMM:  11    -0.675788024575E+03   -0.75072E-05   -0.59229E-05  5937   0.197E-02
  18 F= -.67578802E+03 E0= -.67574068E+03  d E =-.114313E-01
 trial-energy change:   -0.011431  1 .order   -0.011055   -0.027450    0.005340
 step:   0.8969(harm=  0.8874)  dis= 0.01225  next Energy=  -675.788434 (dE=-0.118E-01)
 bond charge predicted
       N       E                     dE             d eps       ncg     rms          rms(c)
DAV:   1    -0.675787033122E+03    0.98395E-03   -0.24702E-01  9648   0.129E+00    0.143E-01
RMM:   2    -0.675788627601E+03   -0.15945E-02   -0.22598E-02 12354   0.385E-01    0.887E-02
RMM:   3    -0.675788539962E+03    0.87639E-04   -0.20647E-03 12072   0.160E-01    0.622E-02
RMM:   4    -0.675788465343E+03    0.74619E-04   -0.48857E-04 11975   0.508E-02    0.318E-02
RMM:   5    -0.675788446241E+03    0.19102E-04   -0.15152E-04  9649   0.327E-02    0.176E-02
RMM:   6    -0.675788437526E+03    0.87146E-05   -0.41407E-05  5747   0.227E-02
  19 F= -.67578844E+03 E0= -.67574098E+03  d E =-.118442E-01
 curvature:  -0.98 expect dE=-0.232E-01 dE for cont linesearch -0.937E-06
 trial: gam= 0.99871 g(F)=  0.104E-01 g(S)=  0.132E-01 ort = 0.234E-03 (trialstep = 0.725E+00)
 search vector abs. value=  0.815E-01
 bond charge predicted
       N       E                     dE             d eps       ncg     rms          rms(c)
DAV:   1    -0.675748952953E+03    0.39493E-01   -0.69448E+00  8496   0.654E+00    0.571E-01
RMM:   2    -0.675798318906E+03   -0.49366E-01   -0.60359E-01 12242   0.201E+00    0.294E-01
RMM:   3    -0.675799036344E+03   -0.71744E-03   -0.52263E-02 12092   0.750E-01    0.231E-01
RMM:   4    -0.675798700107E+03    0.33624E-03   -0.11003E-02 12351   0.208E-01    0.149E-01
RMM:   5    -0.675798476108E+03    0.22400E-03   -0.37260E-03 11986   0.158E-01    0.762E-02
RMM:   6    -0.675798431171E+03    0.44938E-04   -0.13761E-03 12112   0.661E-02    0.307E-02
RMM:   7    -0.675798449001E+03   -0.17831E-04   -0.50115E-04 11431   0.383E-02    0.196E-02
WARNING in EDDRMM: call to ZHEGV failed, returncode =   6  3      9
RMM:   8    -0.675798463340E+03   -0.14339E-04   -0.23776E-04  9038   0.201E-02    0.143E-02
RMM:   9    -0.675798469262E+03   -0.59212E-05   -0.12482E-04  7020   0.193E-02    0.879E-03
RMM:  10    -0.675798471091E+03   -0.18291E-05   -0.66624E-05  6164   0.186E-02
  20 F= -.67579847E+03 E0= -.67575126E+03  d E =-.100336E-01
 trial-energy change:   -0.010034  1 .order   -0.009906   -0.017315   -0.002496
 step:   0.8403(harm=  0.8473)  dis= 0.01453  next Energy=  -675.798670 (dE=-0.102E-01)
 bond charge predicted
       N       E                     dE             d eps       ncg     rms          rms(c)
DAV:   1    -0.675797509251E+03    0.96001E-03   -0.17590E-01  9312   0.104E+00    0.876E-02
RMM:   2    -0.675798751823E+03   -0.12426E-02   -0.15032E-02 12161   0.313E-01    0.471E-02
RMM:   3    -0.675798773743E+03   -0.21921E-04   -0.14219E-03 11746   0.123E-01    0.362E-02
RMM:   4    -0.675798764080E+03    0.96631E-05   -0.30200E-04 10282   0.356E-02    0.221E-02
RMM:   5    -0.675798757808E+03    0.62721E-05   -0.12035E-04  8241   0.305E-02    0.113E-02
RMM:   6    -0.675798756483E+03    0.13246E-05   -0.53142E-05  6099   0.156E-02
  21 F= -.67579876E+03 E0= -.67575158E+03  d E =-.103190E-01
 curvature:  -1.44 expect dE=-0.119E-01 dE for cont linesearch -0.774E-05
 trial: gam= 0.24364 g(F)=  0.743E-02 g(S)=  0.818E-03 ort = 0.662E-03 (trialstep = 0.748E+00)
 search vector abs. value=  0.134E-01
 bond charge predicted
       N       E                     dE             d eps       ncg     rms          rms(c)
DAV:   1    -0.675794046192E+03    0.47116E-02   -0.12260E+00  8448   0.272E+00    0.228E-01
RMM:   2    -0.675803292984E+03   -0.92468E-02   -0.10839E-01 12358   0.877E-01    0.117E-01
RMM:   3    -0.675803288417E+03    0.45671E-05   -0.91454E-03 12060   0.320E-01    0.851E-02
RMM:   4    -0.675803239101E+03    0.49316E-04   -0.15747E-03 12167   0.798E-02    0.534E-02
RMM:   5    -0.675803217674E+03    0.21427E-04   -0.64274E-04 11489   0.617E-02    0.234E-02
RMM:   6    -0.675803218778E+03   -0.11038E-05   -0.19075E-04  9804   0.255E-02    0.114E-02
RMM:   7    -0.675803224117E+03   -0.53388E-05   -0.90103E-05  6568   0.168E-02
  22 F= -.67580322E+03 E0= -.67575612E+03  d E =-.446763E-02
 trial-energy change:   -0.004468  1 .order   -0.004352   -0.006290   -0.002414
 step:   1.1159(harm=  1.2141)  dis= 0.00648  next Energy=  -675.803831 (dE=-0.507E-02)
 bond charge predicted
       N       E                     dE             d eps       ncg     rms          rms(c)
DAV:   1    -0.675801776993E+03    0.14418E-02   -0.29687E-01  8880   0.134E+00    0.112E-01
RMM:   2    -0.675804038495E+03   -0.22615E-02   -0.26392E-02 12356   0.432E-01    0.578E-02
RMM:   3    -0.675804054563E+03   -0.16069E-04   -0.23574E-03 11900   0.158E-01    0.420E-02
RMM:   4    -0.675804047018E+03    0.75459E-05   -0.43437E-04 10933   0.431E-02    0.264E-02
RMM:   5    -0.675804044079E+03    0.29384E-05   -0.18665E-04  9860   0.376E-02    0.107E-02
RMM:   6    -0.675804046557E+03   -0.24774E-05   -0.64762E-05  6469   0.155E-02
  23 F= -.67580405E+03 E0= -.67575699E+03  d E =-.529007E-02
 curvature:  -0.92 expect dE=-0.303E-02 dE for cont linesearch -0.491E-04
 ZBRENT: extrapolating
 opt :   1.2461  next Energy=  -675.804101 (dE=-0.534E-02)
 bond charge predicted
       N       E                     dE             d eps       ncg     rms          rms(c)
DAV:   1    -0.675803825169E+03    0.21891E-03   -0.37322E-02  9072   0.475E-01    0.400E-02
RMM:   2    -0.675804115261E+03   -0.29009E-03   -0.33836E-03 12256   0.154E-01    0.209E-02
RMM:   3    -0.675804123466E+03   -0.82057E-05   -0.35545E-04 10326   0.609E-02    0.155E-02
RMM:   4    -0.675804122525E+03    0.94127E-06   -0.64566E-05  6138   0.208E-02
  24 F= -.67580412E+03 E0= -.67575708E+03  d E =-.536604E-02
 curvature:  -1.03 expect dE=-0.392E-02 dE for cont linesearch -0.214E-07
 trial: gam= 0.47864 g(F)=  0.294E-02 g(S)=  0.848E-03 ort =-0.167E-04 (trialstep = 0.848E+00)
 search vector abs. value=  0.684E-02
 bond charge predicted
       N       E                     dE             d eps       ncg     rms          rms(c)
DAV:   1    -0.675800092275E+03    0.40312E-02   -0.82021E-01  8496   0.224E+00    0.199E-01
RMM:   2    -0.675806518072E+03   -0.64258E-02   -0.76360E-02 12416   0.736E-01    0.106E-01
RMM:   3    -0.675806458773E+03    0.59299E-04   -0.60668E-03 12200   0.255E-01    0.780E-02
RMM:   4    -0.675806391514E+03    0.67258E-04   -0.10210E-03 12059   0.656E-02    0.483E-02
RMM:   5    -0.675806370718E+03    0.20797E-04   -0.44991E-04 11389   0.522E-02    0.217E-02
RMM:   6    -0.675806370533E+03    0.18431E-06   -0.13668E-04  9056   0.220E-02    0.991E-03
RMM:   7    -0.675806373263E+03   -0.27292E-05   -0.55580E-05  5809   0.172E-02
  25 F= -.67580637E+03 E0= -.67575934E+03  d E =-.225074E-02
 trial-energy change:   -0.002251  1 .order   -0.002104   -0.003205   -0.001004
 step:   1.1023(harm=  1.2344)  dis= 0.00488  next Energy=  -675.806528 (dE=-0.241E-02)
 bond charge predicted
       N       E                     dE             d eps       ncg     rms          rms(c)
DAV:   1    -0.675806022291E+03    0.34824E-03   -0.74368E-02  9024   0.676E-01    0.601E-02
RMM:   2    -0.675806614157E+03   -0.59187E-03   -0.69903E-03 12357   0.222E-01    0.321E-02
RMM:   3    -0.675806618983E+03   -0.48259E-05   -0.64243E-04 11335   0.822E-02    0.235E-02
RMM:   4    -0.675806614542E+03    0.44410E-05   -0.12159E-04  8034   0.268E-02    0.146E-02
RMM:   5    -0.675806615143E+03   -0.60190E-06   -0.57036E-05  6541   0.217E-02
  26 F= -.67580662E+03 E0= -.67575958E+03  d E =-.249262E-02
 curvature:  -0.99 expect dE=-0.151E-02 dE for cont linesearch -0.410E-04
 ZBRENT: increasing intervall
 opt :   1.6114  next Energy=  -675.806555 (dE=-0.243E-02)
 bond charge predicted
       N       E                     dE             d eps       ncg     rms          rms(c)
DAV:   1    -0.675804200332E+03    0.24142E-02   -0.29536E-01  8496   0.135E+00    0.121E-01
RMM:   2    -0.675806517445E+03   -0.23171E-02   -0.27634E-02 12386   0.442E-01    0.629E-02
RMM:   3    -0.675806504530E+03    0.12915E-04   -0.22736E-03 12088   0.158E-01    0.455E-02
RMM:   4    -0.675806487303E+03    0.17227E-04   -0.40474E-04 10968   0.421E-02    0.285E-02
RMM:   5    -0.675806482061E+03    0.52416E-05   -0.17559E-04  9395   0.382E-02    0.124E-02
RMM:   6    -0.675806483589E+03   -0.15278E-05   -0.59843E-05  6357   0.163E-02
  27 F= -.67580648E+03 E0= -.67575947E+03  d E =-.236106E-02
 curvature:   1.45 expect dE= 0.553E-02 dE for cont linesearch  0.271E-03
 ZBRENT: bracketing found
 ZBRENT: interpolating
 opt :   1.2654  next Energy=  -675.806659 (dE=-0.254E-02)
 bond charge predicted
       N       E                     dE             d eps       ncg     rms          rms(c)
DAV:   1    -0.675805661031E+03    0.82103E-03   -0.13649E-01  8640   0.915E-01    0.816E-02
RMM:   2    -0.675806715366E+03   -0.10543E-02   -0.12564E-02 12417   0.299E-01    0.429E-02
RMM:   3    -0.675806690630E+03    0.24736E-04   -0.90694E-04 11951   0.102E-01    0.311E-02
RMM:   4    -0.675806674063E+03    0.16567E-04   -0.13764E-04  8346   0.277E-02    0.187E-02
RMM:   5    -0.675806666349E+03    0.77148E-05   -0.52597E-05  6148   0.283E-02
  28 F= -.67580667E+03 E0= -.67575965E+03  d E =-.254382E-02
 curvature:  -0.23 expect dE=-0.545E-03 dE for cont linesearch -0.259E-06
 trial: gam= 0.66371 g(F)=  0.140E-02 g(S)=  0.943E-03 ort =-0.873E-04 (trialstep = 0.931E+00)
 search vector abs. value=  0.524E-02
 bond charge predicted
       N       E                     dE             d eps       ncg     rms          rms(c)
DAV:   1    -0.675803295032E+03    0.33790E-02   -0.74836E-01  8448   0.218E+00    0.235E-01
RMM:   2    -0.675808064083E+03   -0.47691E-02   -0.65521E-02 12349   0.683E-01    0.131E-01
RMM:   3    -0.675807933644E+03    0.13044E-03   -0.59284E-03 12095   0.269E-01    0.980E-02
RMM:   4    -0.675807774839E+03    0.15880E-03   -0.14166E-03 12021   0.824E-02    0.503E-02
RMM:   5    -0.675807737239E+03    0.37601E-04   -0.41232E-04 11336   0.538E-02    0.262E-02
RMM:   6    -0.675807723689E+03    0.13549E-04   -0.14576E-04  9049   0.263E-02    0.110E-02
RMM:   7    -0.675807722067E+03    0.16225E-05   -0.51116E-05  5968   0.181E-02
  29 F= -.67580772E+03 E0= -.67576059E+03  d E =-.105572E-02
 trial-energy change:   -0.001056  1 .order   -0.001029   -0.002128    0.000069
 step:   0.9020(harm=  0.9020)  dis= 0.00400  next Energy=  -675.807697 (dE=-0.103E-02)
 bond charge predicted
       N       E                     dE             d eps       ncg     rms          rms(c)
DAV:   1    -0.675807717507E+03    0.61825E-05   -0.75943E-04  9984   0.691E-02    0.893E-03
RMM:   2    -0.675807721286E+03   -0.37790E-05   -0.74628E-05  7875   0.222E-02
  30 F= -.67580772E+03 E0= -.67576059E+03  d E =-.105494E-02
 curvature:  -1.03 expect dE=-0.213E-02 dE for cont linesearch -0.524E-05
 trial: gam= 0.82802 g(F)=  0.909E-03 g(S)=  0.114E-02 ort = 0.163E-03 (trialstep = 0.820E+00)
 search vector abs. value=  0.592E-02
 bond charge predicted
       N       E                     dE             d eps       ncg     rms          rms(c)
DAV:   1    -0.675804730617E+03    0.29869E-02   -0.64270E-01  8856   0.203E+00    0.230E-01
RMM:   2    -0.675808647381E+03   -0.39168E-02   -0.56647E-02 12397   0.631E-01    0.128E-01
RMM:   3    -0.675808597560E+03    0.49821E-04   -0.55805E-03 12154   0.254E-01    0.940E-02
RMM:   4    -0.675808465800E+03    0.13176E-03   -0.13270E-03 12070   0.787E-02    0.469E-02
RMM:   5    -0.675808457075E+03    0.87252E-05   -0.41572E-04 11451   0.524E-02    0.251E-02
RMM:   6    -0.675808459336E+03   -0.22614E-05   -0.14578E-04  8978   0.259E-02    0.117E-02
RMM:   7    -0.675808464195E+03   -0.48595E-05   -0.53895E-05  5973   0.176E-02
  31 F= -.67580846E+03 E0= -.67576143E+03  d E =-.742910E-03
 trial-energy change:   -0.000743  1 .order   -0.000773   -0.001794    0.000248
 step:   0.7202(harm=  0.7202)  dis= 0.00358  next Energy=  -675.808510 (dE=-0.788E-03)
 bond charge predicted
       N       E                     dE             d eps       ncg     rms          rms(c)
DAV:   1    -0.675808435035E+03    0.24301E-04   -0.94506E-03  9120   0.246E-01    0.283E-02
RMM:   2    -0.675808493938E+03   -0.58903E-04   -0.83995E-04 12269   0.764E-02    0.157E-02
RMM:   3    -0.675808489335E+03    0.46028E-05   -0.73696E-05  6892   0.321E-02
  32 F= -.67580849E+03 E0= -.67576145E+03  d E =-.768049E-03
 curvature:  -0.97 expect dE=-0.126E-02 dE for cont linesearch -0.275E-05
 trial: gam= 0.72200 g(F)=  0.636E-03 g(S)=  0.657E-03 ort = 0.129E-03 (trialstep = 0.800E+00)
 search vector abs. value=  0.456E-02
 bond charge predicted
       N       E                     dE             d eps       ncg     rms          rms(c)
DAV:   1    -0.675805486569E+03    0.30074E-02   -0.46735E-01  8400   0.167E+00    0.137E-01
RMM:   2    -0.675808996016E+03   -0.35094E-02   -0.41100E-02 12362   0.529E-01    0.714E-02
RMM:   3    -0.675809076240E+03   -0.80224E-04   -0.34413E-03 12118   0.194E-01    0.581E-02
RMM:   4    -0.675809046875E+03    0.29365E-04   -0.57769E-04 11676   0.488E-02    0.371E-02
RMM:   5    -0.675809028975E+03    0.17900E-04   -0.24612E-04 10545   0.400E-02    0.155E-02
RMM:   6    -0.675809027469E+03    0.15068E-05   -0.84019E-05  6860   0.188E-02
  33 F= -.67580903E+03 E0= -.67576202E+03  d E =-.538134E-03
 trial-energy change:   -0.000538  1 .order   -0.000603   -0.001109   -0.000098
 step:   0.9423(harm=  0.8772)  dis= 0.00429  next Energy=  -675.809036 (dE=-0.546E-03)
 bond charge predicted
       N       E                     dE             d eps       ncg     rms          rms(c)
DAV:   1    -0.675808916073E+03    0.11290E-03   -0.14949E-02  8928   0.299E-01    0.254E-02
RMM:   2    -0.675809036665E+03   -0.12059E-03   -0.14082E-03 12132   0.958E-02    0.139E-02
RMM:   3    -0.675809042720E+03   -0.60544E-05   -0.16524E-04  8938   0.397E-02    0.112E-02
RMM:   4    -0.675809041825E+03    0.89437E-06   -0.34928E-05  5715   0.163E-02
  34 F= -.67580904E+03 E0= -.67576204E+03  d E =-.552490E-03
 curvature:  -0.43 expect dE=-0.225E-03 dE for cont linesearch -0.997E-06
 trial: gam= 0.33210 g(F)=  0.488E-03 g(S)=  0.407E-04 ort =-0.103E-03 (trialstep = 0.828E+00)
 search vector abs. value=  0.963E-03
 bond charge predicted
       N       E                     dE             d eps       ncg     rms          rms(c)
DAV:   1    -0.675808504472E+03    0.53825E-03   -0.10512E-01  8496   0.776E-01    0.617E-02
RMM:   2    -0.675809323759E+03   -0.81929E-03   -0.93932E-03 12420   0.250E-01    0.346E-02
RMM:   3    -0.675809341792E+03   -0.18033E-04   -0.77416E-04 11608   0.831E-02    0.265E-02
RMM:   4    -0.675809338034E+03    0.37576E-05   -0.13767E-04  8599   0.245E-02    0.172E-02
RMM:   5    -0.675809337656E+03    0.37781E-06   -0.57343E-05  6251   0.229E-02
  35 F= -.67580934E+03 E0= -.67576234E+03  d E =-.295831E-03
 trial-energy change:   -0.000296  1 .order   -0.000279   -0.000409   -0.000149
 step:   1.3032(harm=  1.3032)  dis= 0.00214  next Energy=  -675.809364 (dE=-0.322E-03)
 bond charge predicted
       N       E                     dE             d eps       ncg     rms          rms(c)
DAV:   1    -0.675809100518E+03    0.23752E-03   -0.34320E-02  8592   0.443E-01    0.363E-02
RMM:   2    -0.675809367852E+03   -0.26733E-03   -0.30926E-03 12270   0.143E-01    0.199E-02
RMM:   3    -0.675809379278E+03   -0.11426E-04   -0.30541E-04 10206   0.530E-02    0.150E-02
RMM:   4    -0.675809379002E+03    0.27596E-06   -0.57132E-05  6086   0.197E-02
  36 F= -.67580938E+03 E0= -.67576239E+03  d E =-.337177E-03
 curvature:  -1.27 expect dE=-0.372E-03 dE for cont linesearch -0.589E-05
 ZBRENT: interpolating
 opt :   1.1746  next Energy=  -675.809383 (dE=-0.341E-03)
 bond charge predicted
       N       E                     dE             d eps       ncg     rms          rms(c)
DAV:   1    -0.675809362496E+03    0.16782E-04   -0.25863E-03  9600   0.124E-01    0.983E-03
RMM:   2    -0.675809384942E+03   -0.22446E-04   -0.25031E-04 10393   0.393E-02    0.522E-03
RMM:   3    -0.675809382520E+03    0.24219E-05   -0.16302E-05  4931   0.216E-02
  37 F= -.67580938E+03 E0= -.67576239E+03  d E =-.340695E-03
 curvature:  -0.93 expect dE=-0.279E-03 dE for cont linesearch -0.613E-05
 ZBRENT: interpolating
 opt :   1.2446  next Energy=  -675.809381 (dE=-0.339E-03)
 bond charge predicted
       N       E                     dE             d eps       ncg     rms          rms(c)
DAV:   1    -0.675809378966E+03    0.59757E-05   -0.73755E-04  9192   0.661E-02    0.534E-03
RMM:   2    -0.675809384380E+03   -0.54139E-05   -0.64348E-05  7130   0.201E-02
  38 F= -.67580938E+03 E0= -.67576240E+03  d E =-.342555E-03
 curvature:  -0.30 expect dE=-0.853E-04 dE for cont linesearch -0.113E-05
 ZBRENT: bisectioning
 opt :   1.2096  next Energy=  -675.809386 (dE=-0.345E-03)
 bond charge predicted
       N       E                     dE             d eps       ncg     rms          rms(c)
DAV:   1    -0.675809383423E+03   -0.44567E-05   -0.17970E-04  9096   0.354E-02    0.263E-03
RMM:   2    -0.675809384552E+03   -0.11290E-05   -0.11731E-05  4959   0.894E-03
  39 F= -.67580938E+03 E0= -.67576240E+03  d E =-.342727E-03
 curvature:  -0.54 expect dE=-0.159E-03 dE for cont linesearch -0.210E-05
 ZBRENT: interpolating
 opt :   1.2272  next Energy=  -675.809385 (dE=-0.343E-03)
 bond charge predicted
       N       E                     dE             d eps       ncg     rms          rms(c)
DAV:   1    -0.675809384535E+03   -0.11115E-05   -0.44736E-05  8904   0.177E-02    0.153E-03
RMM:   2    -0.675809384828E+03   -0.29318E-06   -0.32946E-06  4398   0.555E-03
  40 F= -.67580938E+03 E0= -.67576240E+03  d E =-.343002E-03
 curvature:  -0.14 expect dE=-0.391E-04 dE for cont linesearch -0.144E-07
 trial: gam= 0.54517 g(F)=  0.230E-03 g(S)=  0.586E-04 ort =-0.101E-04 (trialstep = 0.908E+00)
 search vector abs. value=  0.564E-03
 bond charge predicted
       N       E                     dE             d eps       ncg     rms          rms(c)
DAV:   1    -0.675809014260E+03    0.37027E-03   -0.74518E-02  8496   0.672E-01    0.684E-02
RMM:   2    -0.675809562860E+03   -0.54860E-03   -0.69861E-03 12227   0.214E-01    0.376E-02
RMM:   3    -0.675809561022E+03    0.18375E-05   -0.60537E-04 11461   0.855E-02    0.282E-02
RMM:   4    -0.675809547118E+03    0.13904E-04   -0.13831E-04  8507   0.260E-02    0.148E-02
RMM:   5    -0.675809541186E+03    0.59320E-05   -0.43068E-05  5840   0.247E-02
  41 F= -.67580954E+03 E0= -.67576253E+03  d E =-.156358E-03
 trial-energy change:   -0.000156  1 .order   -0.000148   -0.000257   -0.000038
 step:   1.0649(harm=  1.0649)  dis= 0.00132  next Energy=  -675.809536 (dE=-0.151E-03)
 bond charge predicted
       N       E                     dE             d eps       ncg     rms          rms(c)
DAV:   1    -0.675809525322E+03    0.21796E-04   -0.21776E-03  9072   0.115E-01    0.123E-02
RMM:   2    -0.675809544255E+03   -0.18933E-04   -0.24394E-04 10212   0.373E-02    0.702E-03
RMM:   3    -0.675809541808E+03    0.24477E-05   -0.26520E-05  5412   0.221E-02
  42 F= -.67580954E+03 E0= -.67576252E+03  d E =-.156980E-03
 curvature:  -1.06 expect dE=-0.181E-03 dE for cont linesearch -0.498E-05
 trial: gam= 0.00000 g(F)=  0.887E-04 g(S)=  0.817E-04 ort =-0.515E-04 (trialstep = 0.939E+00)
 search vector abs. value=  0.170E-03
 reached required accuracy - stopping structural energy minimisation
