<?xml version="1.0" encoding="ISO-8859-1"?>
<modeling>
 <generator>
  <i name="program" type="string">vasp </i>
  <i name="version" type="string">5.4.4.18Apr17-6-g9f103f2a35  </i>
  <i name="subversion" type="string">(build Oct 18 2021 20:38:43) complex            parallel </i>
  <i name="platform" type="string">LinuxIFC </i>
  <i name="date" type="string">2024 06 22 </i>
  <i name="time" type="string">10:20:03 </i>
 </generator>
 <incar>
  <i type="string" name="SYSTEM">HECN</i>
  <i type="int" name="ISTART">     0</i>
  <i type="string" name="PREC">normal</i>
  <i type="string" name="ALGO">Fast</i>
  <i type="int" name="ICHARG">     2</i>
  <i type="int" name="NELM">    60</i>
  <i type="int" name="IBRION">     2</i>
  <i name="EDIFF">      0.00001000</i>
  <i name="EDIFFG">     -0.01000000</i>
  <i type="int" name="NSW">   100</i>
  <i type="int" name="ISIF">     3</i>
  <i name="ENCUT">    400.00000000</i>
  <i name="POTIM">      0.50000000</i>
  <i type="logical" name="LREAL"> F  </i>
  <i type="int" name="ISMEAR">     0</i>
  <i name="SIGMA">      0.10000000</i>
  <i type="logical" name="LWAVE"> F  </i>
  <i type="logical" name="LCHARG"> F  </i>
  <v type="int" name="KPOINT_BSE">    -1     0     0     0</v>
  <i type="int" name="NELM">    60</i>
 </incar>
 <structure name="primitive_cell" >
  <crystal>
   <varray name="basis" >
    <v>       8.93249989       0.00000000       0.00000000 </v>
    <v>       0.00575300       9.05559834       0.00000000 </v>
    <v>       0.03210180      -0.01574346       8.93712807 </v>
   </varray>
   <i name="volume">    722.91652451 </i>
   <varray name="rec_basis" >
    <v>       0.11195074      -0.00007112      -0.00040225 </v>
    <v>       0.00000000       0.11042893       0.00019453 </v>
    <v>       0.00000000       0.00000000       0.11189277 </v>
   </varray>
  </crystal>
  <varray name="positions" >
   <v>      -0.00311999      -0.00795003      -0.00075998 </v>
   <v>      -0.25232999      -0.00252000       0.01202000 </v>
   <v>      -0.00162995      -0.25686004       0.00460000 </v>
   <v>      -0.00280000      -0.00228008       0.25899999 </v>
   <v>       0.00281000       0.25024000       0.00130000 </v>
   <v>      -0.01103011       0.00202000      -0.26291001 </v>
   <v>       0.26146999      -0.00015998      -0.00704004 </v>
   <v>      -0.00135002      -0.22426001       0.26102000 </v>
   <v>      -0.25720997      -0.02130006      -0.23549005 </v>
   <v>       0.23780002       0.01082000      -0.25392002 </v>
   <v>      -0.24282000      -0.25897003       0.01100000 </v>
   <v>       0.24762001      -0.25026001      -0.00025994 </v>
   <v>      -0.00485996      -0.25507996      -0.25488003 </v>
   <v>      -0.24281000       0.25603001      -0.00408003 </v>
   <v>       0.25398003      -0.00285005       0.24912000 </v>
   <v>       0.24788999       0.24839000      -0.00342003 </v>
   <v>      -0.00562996       0.23617001       0.26379999 </v>
   <v>      -0.25120996      -0.01212001       0.26967001 </v>
   <v>       0.00201000       0.25541000      -0.26105999 </v>
   <v>       0.24177002      -0.24659003      -0.24981998 </v>
   <v>      -0.24963995      -0.25112000      -0.25243996 </v>
   <v>      -0.24255004       0.24437997      -0.25103001 </v>
   <v>       0.25133999      -0.25041998       0.24910999 </v>
   <v>      -0.24367000      -0.26108997       0.25767000 </v>
   <v>      -0.24686002       0.24616999       0.25492002 </v>
   <v>       0.24982001       0.24942998       0.24825000 </v>
   <v>       0.24900999       0.25315000      -0.25146000 </v>
   <v>      -0.48411003       0.01358000      -0.01924992 </v>
   <v>      -0.00158006      -0.49023002      -0.01386996 </v>
   <v>       0.02362000      -0.00216999       0.49557002 </v>
   <v>      -0.49480995      -0.23869001       0.00855000 </v>
   <v>      -0.49285006      -0.00023001       0.24673000 </v>
   <v>      -0.24160996      -0.49684002       0.00288000 </v>
   <v>      -0.00999997      -0.23784997       0.49746000 </v>
   <v>      -0.00948001       0.48088003       0.24100999 </v>
   <v>       0.24446000      -0.00176004      -0.49712002 </v>
   <v>      -0.26367999       0.00417000      -0.48937000 </v>
   <v>       0.24328000      -0.49927003      -0.00489006 </v>
   <v>      -0.49572003       0.24673000       0.00262000 </v>
   <v>      -0.00796004      -0.49944001      -0.24861998 </v>
   <v>      -0.00195991       0.24229999      -0.49871997 </v>
   <v>      -0.49991002       0.00061000      -0.26528002 </v>
   <v>      -0.26123997      -0.47171998      -0.26185001 </v>
   <v>       0.49950005      -0.24518001      -0.25182996 </v>
   <v>       0.24457999      -0.24951001       0.49983999 </v>
   <v>      -0.24599997      -0.27062001       0.49116997 </v>
   <v>      -0.49520997       0.24631001      -0.25289998 </v>
   <v>       0.24803003      -0.49835000       0.24955001 </v>
   <v>      -0.26448999      -0.48531996       0.26666001 </v>
   <v>      -0.49167000       0.25676999       0.25376001 </v>
   <v>      -0.49620997      -0.26073003       0.25905001 </v>
   <v>      -0.24692999       0.26163001      -0.49466998 </v>
   <v>       0.25272001       0.24823001      -0.49984997 </v>
   <v>       0.25679999       0.49462002      -0.25454998 </v>
   <v>       0.47957999      -0.01691999       0.49717999 </v>
   <v>      -0.49498994       0.49745998      -0.00165997 </v>
   <v>      -0.00572008      -0.49550001       0.49779000 </v>
   <v>      -0.49436004       0.23264998       0.49544997 </v>
   <v>      -0.49424994      -0.25041998       0.49720000 </v>
   <v>      -0.49299998      -0.49666998       0.25878999 </v>
   <v>      -0.49498997      -0.49782002      -0.26087997 </v>
   <v>      -0.25963999      -0.49803000      -0.49932997 </v>
   <v>       0.25841001      -0.49937998      -0.49870999 </v>
   <v>      -0.49461000      -0.47166995       0.49917999 </v>
  </varray>
 </structure>
 <varray name="primitive_index" >
  <v type="int" >        1 </v>
  <v type="int" >       25 </v>
  <v type="int" >       38 </v>
  <v type="int" >       34 </v>
  <v type="int" >       23 </v>
  <v type="int" >       29 </v>
  <v type="int" >       22 </v>
  <v type="int" >       59 </v>
  <v type="int" >       58 </v>
  <v type="int" >       56 </v>
  <v type="int" >        9 </v>
  <v type="int" >       18 </v>
  <v type="int" >       12 </v>
  <v type="int" >       17 </v>
  <v type="int" >        2 </v>
  <v type="int" >       14 </v>
  <v type="int" >        8 </v>
  <v type="int" >       16 </v>
  <v type="int" >       10 </v>
  <v type="int" >       45 </v>
  <v type="int" >       49 </v>
  <v type="int" >       30 </v>
  <v type="int" >       36 </v>
  <v type="int" >       39 </v>
  <v type="int" >       24 </v>
  <v type="int" >       21 </v>
  <v type="int" >       42 </v>
  <v type="int" >       53 </v>
  <v type="int" >       54 </v>
  <v type="int" >       61 </v>
  <v type="int" >       28 </v>
  <v type="int" >       26 </v>
  <v type="int" >       40 </v>
  <v type="int" >       47 </v>
  <v type="int" >       27 </v>
  <v type="int" >       43 </v>
  <v type="int" >       31 </v>
  <v type="int" >       37 </v>
  <v type="int" >       35 </v>
  <v type="int" >       48 </v>
  <v type="int" >       44 </v>
  <v type="int" >       33 </v>
  <v type="int" >       63 </v>
  <v type="int" >        7 </v>
  <v type="int" >       20 </v>
  <v type="int" >       64 </v>
  <v type="int" >        5 </v>
  <v type="int" >        3 </v>
  <v type="int" >       60 </v>
  <v type="int" >       15 </v>
  <v type="int" >       55 </v>
  <v type="int" >       11 </v>
  <v type="int" >       19 </v>
  <v type="int" >       13 </v>
  <v type="int" >       57 </v>
  <v type="int" >        4 </v>
  <v type="int" >        6 </v>
  <v type="int" >       32 </v>
  <v type="int" >       51 </v>
  <v type="int" >       41 </v>
  <v type="int" >       52 </v>
  <v type="int" >       50 </v>
  <v type="int" >       46 </v>
  <v type="int" >       62 </v>
 </varray>
 <kpoints>
  <generation param="Gamma">
   <v type="int" name="divisions">       3        3        3 </v>
   <v name="usershift">      0.00000000       0.00000000       0.00000000 </v>
   <v name="genvec1">      0.33333333      -0.00000000      -0.00000000 </v>
   <v name="genvec2">      0.00000000       0.33333333       0.00000000 </v>
   <v name="genvec3">      0.00000000       0.00000000       0.33333333 </v>
   <v name="shift">      0.00000000       0.00000000       0.00000000 </v>
  </generation>
  <varray name="kpointlist" >
   <v>       0.00000000       0.00000000       0.00000000 </v>
   <v>       0.33333333       0.00000000       0.00000000 </v>
   <v>       0.00000000       0.33333333       0.00000000 </v>
   <v>       0.33333333       0.33333333       0.00000000 </v>
   <v>      -0.33333333       0.33333333       0.00000000 </v>
   <v>       0.00000000       0.00000000       0.33333333 </v>
   <v>       0.33333333       0.00000000       0.33333333 </v>
   <v>      -0.33333333       0.00000000       0.33333333 </v>
   <v>       0.00000000       0.33333333       0.33333333 </v>
   <v>       0.33333333       0.33333333       0.33333333 </v>
   <v>      -0.33333333       0.33333333       0.33333333 </v>
   <v>       0.00000000      -0.33333333       0.33333333 </v>
   <v>       0.33333333      -0.33333333       0.33333333 </v>
   <v>      -0.33333333      -0.33333333       0.33333333 </v>
  </varray>
  <varray name="weights" >
   <v>       0.03703704 </v>
   <v>       0.07407407 </v>
   <v>       0.07407407 </v>
   <v>       0.07407407 </v>
   <v>       0.07407407 </v>
   <v>       0.07407407 </v>
   <v>       0.07407407 </v>
   <v>       0.07407407 </v>
   <v>       0.07407407 </v>
   <v>       0.07407407 </v>
   <v>       0.07407407 </v>
   <v>       0.07407407 </v>
   <v>       0.07407407 </v>
   <v>       0.07407407 </v>
  </varray>
 </kpoints>
 <parameters>
  <separator name="general" >
   <i type="string" name="SYSTEM">HECN</i>
   <i type="logical" name="LCOMPAT"> F  </i>
  </separator>
  <separator name="electronic" >
   <i type="string" name="PREC">normal</i>
   <i name="ENMAX">    400.00000000</i>
   <i name="ENAUG">    644.87300000</i>
   <i name="EDIFF">      0.00001000</i>
   <i type="int" name="IALGO">    68</i>
   <i type="int" name="IWAVPR">    11</i>
   <i type="int" name="NBANDS">   288</i>
   <i name="NELECT">    476.00000000</i>
   <i type="int" name="TURBO">     0</i>
   <i type="int" name="IRESTART">     0</i>
   <i type="int" name="NREBOOT">     0</i>
   <i type="int" name="NMIN">     0</i>
   <i name="EREF">      0.00000000</i>
   <separator name="electronic smearing" >
    <i type="int" name="ISMEAR">     0</i>
    <i name="SIGMA">      0.10000000</i>
    <i name="KSPACING">      0.50000000</i>
    <i type="logical" name="KGAMMA"> T  </i>
   </separator>
   <separator name="electronic projectors" >
    <i type="logical" name="LREAL"> F  </i>
    <v name="ROPT">      0.00000000      0.00000000      0.00000000      0.00000000      0.00000000      0.00000000      0.00000000</v>
    <i type="int" name="LMAXPAW">  -100</i>
    <i type="int" name="LMAXMIX">     2</i>
    <i type="logical" name="NLSPLINE"> F  </i>
   </separator>
   <separator name="electronic startup" >
    <i type="int" name="ISTART">     0</i>
    <i type="int" name="ICHARG">     2</i>
    <i type="int" name="INIWAV">     1</i>
   </separator>
   <separator name="electronic spin" >
    <i type="int" name="ISPIN">     1</i>
    <i type="logical" name="LNONCOLLINEAR"> F  </i>
    <v name="MAGMOM">      1.00000000      1.00000000      1.00000000      1.00000000      1.00000000      1.00000000      1.00000000      1.00000000      1.00000000      1.00000000      1.00000000      1.00000000      1.00000000      1.00000000      1.00000000      1.00000000      1.00000000      1.00000000      1.00000000      1.00000000
      1.00000000      1.00000000      1.00000000      1.00000000      1.00000000      1.00000000      1.00000000      1.00000000      1.00000000      1.00000000      1.00000000      1.00000000      1.00000000      1.00000000      1.00000000      1.00000000      1.00000000      1.00000000      1.00000000      1.00000000
      1.00000000      1.00000000      1.00000000      1.00000000      1.00000000      1.00000000      1.00000000      1.00000000      1.00000000      1.00000000      1.00000000      1.00000000      1.00000000      1.00000000      1.00000000      1.00000000      1.00000000      1.00000000      1.00000000      1.00000000
      1.00000000      1.00000000      1.00000000      1.00000000</v>
    <i name="NUPDOWN">     -1.00000000</i>
    <i type="logical" name="LSORBIT"> F  </i>
    <v name="SAXIS">      0.00000000      0.00000000      1.00000000</v>
    <i type="logical" name="LSPIRAL"> F  </i>
    <v name="QSPIRAL">      0.00000000      0.00000000      0.00000000</v>
    <i type="logical" name="LZEROZ"> F  </i>
   </separator>
   <separator name="electronic exchange-correlation" >
    <i type="logical" name="LASPH"> F  </i>
    <i type="logical" name="LMETAGGA"> F  </i>
   </separator>
   <separator name="electronic convergence" >
    <i type="int" name="NELM">    60</i>
    <i type="int" name="NELMDL">    -5</i>
    <i type="int" name="NELMIN">     2</i>
    <i name="ENINI">    400.00000000</i>
    <separator name="electronic convergence detail" >
     <i type="logical" name="LDIAG"> T  </i>
     <i type="logical" name="LSUBROT"> F  </i>
     <i name="WEIMIN">      0.00100000</i>
     <i name="EBREAK">      0.00000001</i>
     <i name="DEPER">      0.30000000</i>
     <i type="int" name="NRMM">     4</i>
     <i name="TIME">      0.40000000</i>
    </separator>
   </separator>
   <separator name="electronic mixer" >
    <i name="AMIX">      0.40000000</i>
    <i name="BMIX">      1.00000000</i>
    <i name="AMIN">      0.10000000</i>
    <i name="AMIX_MAG">      1.60000000</i>
    <i name="BMIX_MAG">      1.00000000</i>
    <separator name="electronic mixer details" >
     <i type="int" name="IMIX">     4</i>
     <i type="logical" name="MIXFIRST"> F  </i>
     <i type="int" name="MAXMIX">   -45</i>
     <i name="WC">    100.00000000</i>
     <i type="int" name="INIMIX">     1</i>
     <i type="int" name="MIXPRE">     1</i>
     <i type="int" name="MREMOVE">     5</i>
    </separator>
   </separator>
   <separator name="electronic dipolcorrection" >
    <i type="logical" name="LDIPOL"> F  </i>
    <i type="logical" name="LMONO"> F  </i>
    <i type="int" name="IDIPOL">     0</i>
    <i name="EPSILON">      1.00000000</i>
    <v name="DIPOL">   -100.00000000   -100.00000000   -100.00000000</v>
    <i name="EFIELD">      0.00000000</i>
   </separator>
  </separator>
  <separator name="grids" >
   <i type="int" name="NGX">    48</i>
   <i type="int" name="NGY">    48</i>
   <i type="int" name="NGZ">    48</i>
   <i type="int" name="NGXF">    96</i>
   <i type="int" name="NGYF">    96</i>
   <i type="int" name="NGZF">    96</i>
   <i type="logical" name="ADDGRID"> F  </i>
  </separator>
  <separator name="ionic" >
   <i type="int" name="NSW">   100</i>
   <i type="int" name="IBRION">     2</i>
   <i type="int" name="MDALGO">     0</i>
   <i type="int" name="ISIF">     3</i>
   <i name="PSTRESS">      0.00000000</i>
   <i name="EDIFFG">     -0.01000000</i>
   <i type="int" name="NFREE">     1</i>
   <i name="POTIM">      0.50000000</i>
   <i name="SMASS">     -3.00000000</i>
   <i name="SCALEE">      1.00000000</i>
  </separator>
  <separator name="ionic md" >
   <i name="TEBEG">      0.00010000</i>
   <i name="TEEND">      0.00010000</i>
   <i type="int" name="NBLOCK">     1</i>
   <i type="int" name="KBLOCK">   100</i>
   <i type="int" name="NPACO">   256</i>
   <i name="APACO">     16.00000000</i>
  </separator>
  <separator name="symmetry" >
   <i type="int" name="ISYM">     2</i>
   <i name="SYMPREC">      0.00001000</i>
  </separator>
  <separator name="dos" >
   <i type="int" name="LORBIT">     0</i>
   <v name="RWIGS">     -1.00000000     -1.00000000     -1.00000000     -1.00000000     -1.00000000     -1.00000000     -1.00000000</v>
   <i type="int" name="NEDOS">   301</i>
   <i name="EMIN">     10.00000000</i>
   <i name="EMAX">    -10.00000000</i>
   <i name="EFERMI">      0.00000000</i>
  </separator>
  <separator name="writing" >
   <i type="int" name="NWRITE">     2</i>
   <i type="logical" name="LWAVE"> F  </i>
   <i type="logical" name="LDOWNSAMPLE"> F  </i>
   <i type="logical" name="LCHARG"> F  </i>
   <i type="logical" name="LPARD"> F  </i>
   <i type="logical" name="LVTOT"> F  </i>
   <i type="logical" name="LVHAR"> F  </i>
   <i type="logical" name="LELF"> F  </i>
   <i type="logical" name="LOPTICS"> F  </i>
   <v name="STM">      0.00000000      0.00000000      0.00000000      0.00000000      0.00000000      0.00000000      0.00000000</v>
  </separator>
  <separator name="performance" >
   <i type="int" name="NPAR">    24</i>
   <i type="int" name="NSIM">     4</i>
   <i type="int" name="NBLK">    -1</i>
   <i type="logical" name="LPLANE"> T  </i>
   <i type="logical" name="LSCALAPACK"> T  </i>
   <i type="logical" name="LSCAAWARE"> F  </i>
   <i type="logical" name="LSCALU"> F  </i>
   <i type="logical" name="LASYNC"> F  </i>
   <i type="logical" name="LORBITALREAL"> F  </i>
  </separator>
  <separator name="miscellaneous" >
   <i type="int" name="IDIOT">     3</i>
   <i type="int" name="ISPECIAL">     0</i>
   <i type="logical" name="LMUSIC"> F  </i>
   <v name="POMASS">    178.49000000    180.94800000     92.91000000     14.00100000     12.01100000    183.85000000     95.94000000</v>
   <v name="DARWINR">      0.00000000      0.00000000      0.00000000      0.00000000      0.00000000      0.00000000      0.00000000</v>
   <v name="DARWINV">      1.00000000      1.00000000      1.00000000      1.00000000      1.00000000      1.00000000      1.00000000</v>
   <i type="logical" name="LCORR"> T  </i>
  </separator>
  <i type="logical" name="GGA_COMPAT"> T  </i>
  <i type="logical" name="LBERRY"> F  </i>
  <i type="int" name="ICORELEVEL">     0</i>
  <i type="logical" name="LDAU"> F  </i>
  <i type="int" name="I_CONSTRAINED_M">     0</i>
  <separator name="electronic exchange-correlation" >
   <i type="string" name="GGA">--</i>
   <i type="int" name="VOSKOWN">     0</i>
   <i type="logical" name="LHFCALC"> F  </i>
   <i type="string" name="PRECFOCK"></i>
   <i type="logical" name="LSYMGRAD"> F  </i>
   <i type="logical" name="LHFONE"> F  </i>
   <i type="logical" name="LRHFCALC"> F  </i>
   <i type="logical" name="LTHOMAS"> F  </i>
   <i type="logical" name="LMODELHF"> F  </i>
   <i name="ENCUT4O">     -1.00000000</i>
   <i type="int" name="EXXOEP">     0</i>
   <i type="int" name="FOURORBIT">     0</i>
   <i name="AEXX">      0.00000000</i>
   <i name="HFALPHA">      0.00000000</i>
   <i name="MCALPHA">      0.00000000</i>
   <i name="ALDAX">      1.00000000</i>
   <i name="AGGAX">      1.00000000</i>
   <i name="ALDAC">      1.00000000</i>
   <i name="AGGAC">      1.00000000</i>
   <i type="int" name="NKREDX">     1</i>
   <i type="int" name="NKREDY">     1</i>
   <i type="int" name="NKREDZ">     1</i>
   <i type="logical" name="SHIFTRED"> F  </i>
   <i type="logical" name="ODDONLY"> F  </i>
   <i type="logical" name="EVENONLY"> F  </i>
   <i type="int" name="LMAXFOCK">     0</i>
   <i type="int" name="NMAXFOCKAE">     0</i>
   <i type="logical" name="LFOCKAEDFT"> F  </i>
   <i name="HFSCREEN">      0.00000000</i>
   <i name="HFSCREENC">      0.00000000</i>
   <i type="int" name="NBANDSGWLOW">     0</i>
  </separator>
  <separator name="vdW DFT" >
   <i type="logical" name="LUSE_VDW"> F  </i>
   <i name="Zab_VDW">     -0.84910000</i>
   <i name="PARAM1">      0.12340000</i>
   <i name="PARAM2">      1.00000000</i>
   <i name="PARAM3">      0.00000000</i>
  </separator>
  <separator name="model GW" >
   <i type="int" name="MODEL_GW">     0</i>
   <i name="MODEL_EPS0">      6.77734242</i>
   <i name="MODEL_ALPHA">      1.00000000</i>
  </separator>
  <separator name="linear response parameters" >
   <i type="logical" name="LEPSILON"> F  </i>
   <i type="logical" name="LRPA"> F  </i>
   <i type="logical" name="LNABLA"> F  </i>
   <i type="logical" name="LVEL"> F  </i>
   <i type="int" name="KINTER">     0</i>
   <i name="CSHIFT">      0.10000000</i>
   <i name="OMEGAMAX">     -1.00000000</i>
   <i name="DEG_THRESHOLD">      0.00200000</i>
   <i name="RTIME">     -0.10000000</i>
   <i name="WPLASMAI">      0.00000000</i>
   <v name="DFIELD">      0.00000000      0.00000000      0.00000000</v>
   <v name="WPLASMA">      0.00000000      0.00000000      0.00000000      0.00000000      0.00000000      0.00000000      0.00000000      0.00000000      0.00000000</v>
  </separator>
  <separator name="orbital magnetization" >
   <i type="logical" name="NUCIND"> F  </i>
   <v name="MAGPOS">      0.00000000      0.00000000      0.00000000</v>
   <i type="logical" name="LNICSALL"> T  </i>
   <i type="logical" name="ORBITALMAG"> F  </i>
   <i type="logical" name="LMAGBLOCH"> F  </i>
   <i type="logical" name="LCHIMAG"> F  </i>
   <i type="logical" name="LGAUGE"> T  </i>
   <i type="int" name="MAGATOM">     0</i>
   <v name="MAGDIPOL">      0.00000000      0.00000000      0.00000000</v>
   <v name="AVECCONST">      0.00000000      0.00000000      0.00000000</v>
  </separator>
  <separator name="response functions" >
   <i type="logical" name="LADDER"> F  </i>
   <i type="logical" name="LRPAFORCE"> F  </i>
   <i type="logical" name="LFXC"> F  </i>
   <i type="logical" name="LHARTREE"> T  </i>
   <i type="int" name="IBSE">     0</i>
   <v type="int" name="KPOINT">    -1     0     0     0</v>
   <i type="logical" name="LTCTE"> F  </i>
   <i type="logical" name="LTETE"> F  </i>
   <i type="logical" name="LTRIPLET"> F  </i>
   <i type="logical" name="LFXCEPS"> F  </i>
   <i type="logical" name="LFXHEG"> F  </i>
   <i type="int" name="NATURALO">     2</i>
   <i type="logical" name="L2ORDER"> F  </i>
   <i type="logical" name="LMP2LT"> F  </i>
   <i type="logical" name="LUSEW"> F  </i>
   <i name="ENCUTGW">     -2.00000000</i>
   <i name="ENCUTGWSOFT">     -2.00000000</i>
   <i name="ENCUTLF">     -1.00000000</i>
   <i type="int" name="LMAXMP2">    -1</i>
   <i name="SCISSOR">      0.00000000</i>
   <i type="int" name="NOMEGA">     0</i>
   <i type="int" name="NOMEGAR">     0</i>
   <i type="int" name="NBANDSGW">    -1</i>
   <i type="int" name="NBANDSO">    -1</i>
   <i type="int" name="NBANDSV">    -1</i>
   <i type="int" name="NELM">    60</i>
   <i type="int" name="NELMHF">     1</i>
   <i type="int" name="DIM">     3</i>
   <i type="int" name="ANTIRES">     0</i>
   <i name="OMEGAMAX">    -30.00000000</i>
   <i name="OMEGAMIN">    -30.00000000</i>
   <i name="OMEGATL">   -200.00000000</i>
   <i type="int" name="OMEGAGRID">   140</i>
   <i name="CSHIFT">     -0.10000000</i>
   <i type="logical" name="SELFENERGY"> F  </i>
   <i type="logical" name="LSPECTRAL"> F  </i>
   <i type="logical" name="LSPECTRALGW"> F  </i>
   <i type="logical" name="LSINGLES"> F  </i>
   <i type="logical" name="LFERMIGW"> F  </i>
   <i type="logical" name="ODDONLYGW"> F  </i>
   <i type="logical" name="EVENONLYGW"> F  </i>
   <i type="int" name="NKREDLFX">     1</i>
   <i type="int" name="NKREDLFY">     1</i>
   <i type="int" name="NKREDLFZ">     1</i>
   <i type="int" name="MAXMEM">  2800</i>
   <i type="int" name="TELESCOPE">     0</i>
   <i type="int" name="TAUPAR">     1</i>
   <i type="int" name="OMEGAPAR">    -1</i>
   <i name="LAMBDA">      1.00000000</i>
  </separator>
  <separator name="External order field" >
   <i name="OFIELD_KAPPA">      0.00000000</i>
   <v name="OFIELD_K">      0.00000000      0.00000000      0.00000000</v>
   <i name="OFIELD_Q6_NEAR">      0.00000000</i>
   <i name="OFIELD_Q6_FAR">      0.00000000</i>
   <i name="OFIELD_A">      0.00000000</i>
  </separator>
 </parameters>
 <atominfo>
  <atoms>      64 </atoms>
  <types>       7 </types>
  <array name="atoms" >
   <dimension dim="1">ion</dimension>
   <field type="string">element</field>
   <field type="int">atomtype</field>
   <set>
    <rc><c>Hf</c><c>   1</c></rc>
    <rc><c>Hf</c><c>   1</c></rc>
    <rc><c>Hf</c><c>   1</c></rc>
    <rc><c>Hf</c><c>   1</c></rc>
    <rc><c>Hf</c><c>   1</c></rc>
    <rc><c>Hf</c><c>   1</c></rc>
    <rc><c>Hf</c><c>   1</c></rc>
    <rc><c>Ta</c><c>   2</c></rc>
    <rc><c>Ta</c><c>   2</c></rc>
    <rc><c>Ta</c><c>   2</c></rc>
    <rc><c>Ta</c><c>   2</c></rc>
    <rc><c>Ta</c><c>   2</c></rc>
    <rc><c>Ta</c><c>   2</c></rc>
    <rc><c>Nb</c><c>   3</c></rc>
    <rc><c>Nb</c><c>   3</c></rc>
    <rc><c>Nb</c><c>   3</c></rc>
    <rc><c>Nb</c><c>   3</c></rc>
    <rc><c>Nb</c><c>   3</c></rc>
    <rc><c>Nb</c><c>   3</c></rc>
    <rc><c>Nb</c><c>   3</c></rc>
    <rc><c>N </c><c>   4</c></rc>
    <rc><c>N </c><c>   4</c></rc>
    <rc><c>N </c><c>   4</c></rc>
    <rc><c>N </c><c>   4</c></rc>
    <rc><c>N </c><c>   4</c></rc>
    <rc><c>N </c><c>   4</c></rc>
    <rc><c>N </c><c>   4</c></rc>
    <rc><c>N </c><c>   4</c></rc>
    <rc><c>N </c><c>   4</c></rc>
    <rc><c>N </c><c>   4</c></rc>
    <rc><c>N </c><c>   4</c></rc>
    <rc><c>N </c><c>   4</c></rc>
    <rc><c>N </c><c>   4</c></rc>
    <rc><c>C </c><c>   5</c></rc>
    <rc><c>C </c><c>   5</c></rc>
    <rc><c>C </c><c>   5</c></rc>
    <rc><c>C </c><c>   5</c></rc>
    <rc><c>C </c><c>   5</c></rc>
    <rc><c>C </c><c>   5</c></rc>
    <rc><c>C </c><c>   5</c></rc>
    <rc><c>C </c><c>   5</c></rc>
    <rc><c>C </c><c>   5</c></rc>
    <rc><c>C </c><c>   5</c></rc>
    <rc><c>C </c><c>   5</c></rc>
    <rc><c>C </c><c>   5</c></rc>
    <rc><c>C </c><c>   5</c></rc>
    <rc><c>C </c><c>   5</c></rc>
    <rc><c>C </c><c>   5</c></rc>
    <rc><c>C </c><c>   5</c></rc>
    <rc><c>C </c><c>   5</c></rc>
    <rc><c>C </c><c>   5</c></rc>
    <rc><c>C </c><c>   5</c></rc>
    <rc><c>W </c><c>   6</c></rc>
    <rc><c>W </c><c>   6</c></rc>
    <rc><c>W </c><c>   6</c></rc>
    <rc><c>W </c><c>   6</c></rc>
    <rc><c>W </c><c>   6</c></rc>
    <rc><c>W </c><c>   6</c></rc>
    <rc><c>Mo</c><c>   7</c></rc>
    <rc><c>Mo</c><c>   7</c></rc>
    <rc><c>Mo</c><c>   7</c></rc>
    <rc><c>Mo</c><c>   7</c></rc>
    <rc><c>Mo</c><c>   7</c></rc>
    <rc><c>Mo</c><c>   7</c></rc>
   </set>
  </array>
  <array name="atomtypes" >
   <dimension dim="1">type</dimension>
   <field type="int">atomspertype</field>
   <field type="string">element</field>
   <field>mass</field>
   <field>valence</field>
   <field type="string">pseudopotential</field>
   <set>
    <rc><c>   7</c><c>Hf</c><c>    178.49000000</c><c>     10.00000000</c><c> PAW_PBE Hf_pv 06Sep2000                </c></rc>
    <rc><c>   6</c><c>Ta</c><c>    180.94800000</c><c>     11.00000000</c><c> PAW_PBE Ta_pv 07Sep2000                </c></rc>
    <rc><c>   7</c><c>Nb</c><c>     92.91000000</c><c>     13.00000000</c><c> PAW_PBE Nb_sv 17Jan2003                </c></rc>
    <rc><c>  13</c><c>N </c><c>     14.00100000</c><c>      5.00000000</c><c> PAW_PBE N 08Apr2002                    </c></rc>
    <rc><c>  19</c><c>C </c><c>     12.01100000</c><c>      4.00000000</c><c> PAW_PBE C 08Apr2002                    </c></rc>
    <rc><c>   6</c><c>W </c><c>    183.85000000</c><c>     12.00000000</c><c> PAW_PBE W_pv 06Sep2000                 </c></rc>
    <rc><c>   6</c><c>Mo</c><c>     95.94000000</c><c>      6.00000000</c><c> PAW_PBE Mo 08Apr2002                   </c></rc>
   </set>
  </array>
 </atominfo>
 <structure name="initialpos" >
  <crystal>
   <varray name="basis" >
    <v>       8.93249989       0.00000000       0.00000000 </v>
    <v>       0.00575300       9.05559834       0.00000000 </v>
    <v>       0.03210180      -0.01574346       8.93712807 </v>
   </varray>
   <i name="volume">    722.91652451 </i>
   <varray name="rec_basis" >
    <v>       0.11195074      -0.00007112      -0.00040225 </v>
    <v>       0.00000000       0.11042893       0.00019453 </v>
    <v>       0.00000000       0.00000000       0.11189277 </v>
   </varray>
  </crystal>
  <varray name="positions" >
   <v>       0.99688001       0.99204997       0.99924002 </v>
   <v>       0.25398003       0.99714995       0.24912000 </v>
   <v>       0.24803003       0.50165000       0.24955001 </v>
   <v>       0.50501006       0.49745998       0.99834003 </v>
   <v>       0.50479003       0.24631001       0.74710002 </v>
   <v>       0.99427992       0.50449999       0.49779000 </v>
   <v>       0.49950005       0.75481999       0.74817004 </v>
   <v>       0.99437004       0.23617001       0.26379999 </v>
   <v>       0.75718000       0.74102998       0.01100000 </v>
   <v>       0.00201000       0.25541000       0.73894001 </v>
   <v>       0.75307001       0.26163001       0.50533002 </v>
   <v>       0.99514004       0.74492004       0.74511997 </v>
   <v>       0.25679999       0.49462002       0.74545002 </v>
   <v>       0.24788999       0.24839000       0.99657997 </v>
   <v>       0.50833000       0.25676999       0.25376001 </v>
   <v>       0.74879004       0.98787999       0.26967001 </v>
   <v>       0.75719000       0.25603001       0.99591997 </v>
   <v>       0.24762001       0.74973999       0.99974006 </v>
   <v>       0.25272001       0.24823001       0.50015003 </v>
   <v>       0.24457999       0.75048999       0.49983999 </v>
   <v>       0.24982001       0.24942998       0.24825000 </v>
   <v>       0.26146999       0.99984002       0.99295996 </v>
   <v>       0.00281000       0.25024000       0.00130000 </v>
   <v>       0.75313998       0.24617000       0.25492002 </v>
   <v>       0.74767001       0.99748000       0.01202000 </v>
   <v>       0.50714994       0.99977000       0.24673000 </v>
   <v>       0.99051999       0.48088002       0.24100998 </v>
   <v>       0.50519005       0.76130999       0.00855000 </v>
   <v>       0.98896989       0.00202000       0.73708999 </v>
   <v>       0.75744996       0.24437997       0.74896999 </v>
   <v>       0.73632001       0.00417000       0.51063000 </v>
   <v>       0.50563996       0.23264999       0.49544997 </v>
   <v>       0.50008998       0.00061000       0.73471998 </v>
   <v>       0.99720000       0.99771992       0.25899999 </v>
   <v>       0.50427997       0.24673000       0.00262000 </v>
   <v>       0.25133999       0.74958002       0.24910999 </v>
   <v>       0.24328000       0.50072997       0.99510994 </v>
   <v>       0.99837005       0.74313996       0.00460000 </v>
   <v>       0.75633000       0.73891003       0.25767000 </v>
   <v>       0.75839004       0.50315998       0.00288000 </v>
   <v>       0.50700002       0.50333002       0.25878999 </v>
   <v>       0.24900999       0.25315000       0.74854000 </v>
   <v>       0.24446000       0.99823996       0.50287998 </v>
   <v>       0.99804009       0.24229999       0.50128003 </v>
   <v>       0.24177002       0.75340997       0.75018002 </v>
   <v>       0.25841001       0.50062002       0.50129001 </v>
   <v>       0.99000004       0.76215003       0.49746000 </v>
   <v>       0.99203996       0.50055999       0.75138002 </v>
   <v>       0.75036005       0.74888000       0.74756004 </v>
   <v>       0.74036002       0.50197000       0.50067003 </v>
   <v>       0.50575006       0.74958002       0.49720000 </v>
   <v>       0.50501003       0.50217998       0.73912003 </v>
   <v>       0.51588997       0.01358000       0.98075008 </v>
   <v>       0.99841994       0.50976998       0.98613004 </v>
   <v>       0.50379003       0.73926997       0.25905001 </v>
   <v>       0.23780002       0.01082000       0.74607998 </v>
   <v>       0.47957999       0.98308000       0.49717999 </v>
   <v>       0.74279003       0.97869994       0.76450995 </v>
   <v>       0.99864998       0.77573999       0.26102000 </v>
   <v>       0.73551001       0.51468004       0.26666001 </v>
   <v>       0.02362000       0.99783001       0.49557002 </v>
   <v>       0.50539000       0.52833005       0.49917999 </v>
   <v>       0.73876003       0.52828003       0.73814999 </v>
   <v>       0.75400003       0.72937999       0.49116997 </v>
  </varray>
 </structure>
 <calculation>
  <scstep>
   <time name="dav">   19.91   20.00</time>
   <time name="total">   19.95   20.04</time>
   <energy>
    <i name="alphaZ">   3939.97260233 </i>
    <i name="ewald"> -35829.12445406 </i>
    <i name="hartreedc">  -5440.21625004 </i>
    <i name="XCdc">   1063.77888827 </i>
    <i name="pawpsdc">  22753.96551578 </i>
    <i name="pawaedc"> -21969.06613935 </i>
    <i name="eentropy">     -0.04325218 </i>
    <i name="bandstr">   1532.78407503 </i>
    <i name="atom">  38277.18391613 </i>
    <i name="e_fr_energy">   4329.23490192 </i>
    <i name="e_wo_entrp">   4329.27815411 </i>
    <i name="e_0_energy">   4329.25652801 </i>
   </energy>
  </scstep>
  <scstep>
   <time name="dav">   22.47   22.52</time>
   <time name="total">   22.47   22.52</time>
   <energy>
    <i name="e_fr_energy">   -222.77320971 </i>
    <i name="e_wo_entrp">   -222.66951741 </i>
    <i name="e_0_energy">   -222.72136356 </i>
   </energy>
  </scstep>
  <scstep>
   <time name="dav">   29.71   29.83</time>
   <time name="total">   29.71   29.83</time>
   <energy>
    <i name="e_fr_energy">   -754.18427917 </i>
    <i name="e_wo_entrp">   -754.07941973 </i>
    <i name="e_0_energy">   -754.13184945 </i>
   </energy>
  </scstep>
  <scstep>
   <time name="dav">   31.01   31.06</time>
   <time name="total">   31.01   31.06</time>
   <energy>
    <i name="e_fr_energy">   -785.22717261 </i>
    <i name="e_wo_entrp">   -785.11189322 </i>
    <i name="e_0_energy">   -785.16953292 </i>
   </energy>
  </scstep>
  <scstep>
   <time name="dav">   32.56   32.65</time>
   <time name="total">   32.81   32.91</time>
   <energy>
    <i name="e_fr_energy">   -787.99813607 </i>
    <i name="e_wo_entrp">   -787.87851812 </i>
    <i name="e_0_energy">   -787.93832710 </i>
   </energy>
  </scstep>
  <scstep>
   <time name="diag">    1.64    1.64</time>
   <time name="diis">   19.34   19.37</time>
   <time name="orth">    0.38    0.38</time>
   <time name="total">   21.63   21.67</time>
   <energy>
    <i name="e_fr_energy">   -680.37447182 </i>
    <i name="e_wo_entrp">   -680.23868380 </i>
    <i name="e_0_energy">   -680.30657781 </i>
   </energy>
  </scstep>
  <scstep>
   <time name="diag">    1.66    1.66</time>
   <time name="diis">   20.53   20.57</time>
   <time name="orth">    0.38    0.38</time>
   <time name="total">   22.83   22.88</time>
   <energy>
    <i name="e_fr_energy">   -674.90990701 </i>
    <i name="e_wo_entrp">   -674.78369378 </i>
    <i name="e_0_energy">   -674.84680039 </i>
   </energy>
  </scstep>
  <scstep>
   <time name="diag">    1.65    1.65</time>
   <time name="diis">   19.52   19.54</time>
   <time name="orth">    0.38    0.38</time>
   <time name="total">   21.83   21.85</time>
   <energy>
    <i name="e_fr_energy">   -673.67324626 </i>
    <i name="e_wo_entrp">   -673.53991401 </i>
    <i name="e_0_energy">   -673.60658014 </i>
   </energy>
  </scstep>
  <scstep>
   <time name="diag">    1.65    1.65</time>
   <time name="diis">   19.98   20.00</time>
   <time name="orth">    0.38    0.38</time>
   <time name="total">   22.28   22.31</time>
   <energy>
    <i name="e_fr_energy">   -673.08234811 </i>
    <i name="e_wo_entrp">   -672.94639733 </i>
    <i name="e_0_energy">   -673.01437272 </i>
   </energy>
  </scstep>
  <scstep>
   <time name="diag">    1.65    1.65</time>
   <time name="diis">   20.70   20.73</time>
   <time name="orth">    0.38    0.38</time>
   <time name="total">   23.00   23.04</time>
   <energy>
    <i name="e_fr_energy">   -673.02193549 </i>
    <i name="e_wo_entrp">   -672.89081594 </i>
    <i name="e_0_energy">   -672.95637571 </i>
   </energy>
  </scstep>
  <scstep>
   <time name="diag">    1.67    1.67</time>
   <time name="diis">   20.46   20.47</time>
   <time name="orth">    0.37    0.37</time>
   <time name="total">   22.78   22.80</time>
   <energy>
    <i name="e_fr_energy">   -672.94069670 </i>
    <i name="e_wo_entrp">   -672.80501224 </i>
    <i name="e_0_energy">   -672.87285447 </i>
   </energy>
  </scstep>
  <scstep>
   <time name="diag">    1.64    1.64</time>
   <time name="diis">   21.22   21.25</time>
   <time name="orth">    0.37    0.37</time>
   <time name="total">   23.51   23.54</time>
   <energy>
    <i name="e_fr_energy">   -672.92974038 </i>
    <i name="e_wo_entrp">   -672.79456339 </i>
    <i name="e_0_energy">   -672.86215189 </i>
   </energy>
  </scstep>
  <scstep>
   <time name="diag">    1.67    1.67</time>
   <time name="diis">   22.28   22.31</time>
   <time name="orth">    0.37    0.37</time>
   <time name="total">   24.60   24.63</time>
   <energy>
    <i name="e_fr_energy">   -672.95128659 </i>
    <i name="e_wo_entrp">   -672.81503500 </i>
    <i name="e_0_energy">   -672.88316079 </i>
   </energy>
  </scstep>
  <scstep>
   <time name="diag">    1.64    1.64</time>
   <time name="diis">   20.96   20.98</time>
   <time name="orth">    0.37    0.37</time>
   <time name="total">   23.25   23.28</time>
   <energy>
    <i name="e_fr_energy">   -672.95338360 </i>
    <i name="e_wo_entrp">   -672.81757162 </i>
    <i name="e_0_energy">   -672.88547761 </i>
   </energy>
  </scstep>
  <scstep>
   <time name="diag">    1.64    1.64</time>
   <time name="diis">   20.67   20.72</time>
   <time name="orth">    0.37    0.37</time>
   <time name="total">   22.97   23.02</time>
   <energy>
    <i name="e_fr_energy">   -672.95507591 </i>
    <i name="e_wo_entrp">   -672.81933916 </i>
    <i name="e_0_energy">   -672.88720753 </i>
   </energy>
  </scstep>
  <scstep>
   <time name="diag">    1.65    1.66</time>
   <time name="diis">   22.58   22.60</time>
   <time name="orth">    0.37    0.37</time>
   <time name="total">   24.87   24.92</time>
   <energy>
    <i name="e_fr_energy">   -672.95746292 </i>
    <i name="e_wo_entrp">   -672.82169136 </i>
    <i name="e_0_energy">   -672.88957714 </i>
   </energy>
  </scstep>
  <scstep>
   <time name="diag">    1.64    1.64</time>
   <time name="diis">   22.64   22.67</time>
   <time name="orth">    0.37    0.37</time>
   <time name="total">   24.94   24.96</time>
   <energy>
    <i name="e_fr_energy">   -672.95885947 </i>
    <i name="e_wo_entrp">   -672.82296173 </i>
    <i name="e_0_energy">   -672.89091060 </i>
   </energy>
  </scstep>
  <scstep>
   <time name="diag">    1.66    1.68</time>
   <time name="diis">   22.92   22.97</time>
   <time name="orth">    0.37    0.37</time>
   <time name="total">   25.24   25.32</time>
   <energy>
    <i name="e_fr_energy">   -672.95973421 </i>
    <i name="e_wo_entrp">   -672.82381537 </i>
    <i name="e_0_energy">   -672.89177479 </i>
   </energy>
  </scstep>
  <scstep>
   <time name="diag">    1.66    1.66</time>
   <time name="diis">   21.44   21.48</time>
   <time name="orth">    0.37    0.37</time>
   <time name="total">   23.75   23.79</time>
   <energy>
    <i name="e_fr_energy">   -672.96035101 </i>
    <i name="e_wo_entrp">   -672.82439400 </i>
    <i name="e_0_energy">   -672.89237250 </i>
   </energy>
  </scstep>
  <scstep>
   <time name="diag">    1.64    1.64</time>
   <time name="diis">   20.89   20.93</time>
   <time name="orth">    0.37    0.37</time>
   <time name="total">   23.19   23.23</time>
   <energy>
    <i name="e_fr_energy">   -672.96069919 </i>
    <i name="e_wo_entrp">   -672.82472804 </i>
    <i name="e_0_energy">   -672.89271361 </i>
   </energy>
  </scstep>
  <scstep>
   <time name="diag">    1.67    1.68</time>
   <time name="diis">   19.90   19.94</time>
   <time name="orth">    0.37    0.37</time>
   <time name="total">   22.22   22.28</time>
   <energy>
    <i name="e_fr_energy">   -672.96095323 </i>
    <i name="e_wo_entrp">   -672.82498374 </i>
    <i name="e_0_energy">   -672.89296848 </i>
   </energy>
  </scstep>
  <scstep>
   <time name="diag">    1.64    1.64</time>
   <time name="diis">   18.94   18.97</time>
   <time name="orth">    0.37    0.37</time>
   <time name="total">   21.23   21.27</time>
   <energy>
    <i name="e_fr_energy">   -672.96109429 </i>
    <i name="e_wo_entrp">   -672.82511656 </i>
    <i name="e_0_energy">   -672.89310542 </i>
   </energy>
  </scstep>
  <scstep>
   <time name="diag">    1.68    1.69</time>
   <time name="diis">   17.28   17.33</time>
   <time name="orth">    0.37    0.37</time>
   <time name="total">   19.61   19.67</time>
   <energy>
    <i name="e_fr_energy">   -672.96120185 </i>
    <i name="e_wo_entrp">   -672.82521830 </i>
    <i name="e_0_energy">   -672.89321007 </i>
   </energy>
  </scstep>
  <scstep>
   <time name="diag">    1.67    1.68</time>
   <time name="diis">   15.70   15.77</time>
   <time name="orth">    0.37    0.37</time>
   <time name="total">   18.03   18.10</time>
   <energy>
    <i name="e_fr_energy">   -672.96125416 </i>
    <i name="e_wo_entrp">   -672.82526129 </i>
    <i name="e_0_energy">   -672.89325772 </i>
   </energy>
  </scstep>
  <scstep>
   <time name="diag">    1.65    1.65</time>
   <time name="diis">   13.13   13.16</time>
   <time name="orth">    0.37    0.37</time>
   <time name="total">   15.43   15.47</time>
   <energy>
    <i name="e_fr_energy">   -672.96129804 </i>
    <i name="e_wo_entrp">   -672.82530499 </i>
    <i name="e_0_energy">   -672.89330152 </i>
   </energy>
  </scstep>
  <scstep>
   <time name="diag">    1.64    1.65</time>
   <time name="diis">   13.10   13.16</time>
   <time name="orth">    0.37    0.37</time>
   <time name="total">   15.40   15.46</time>
   <energy>
    <i name="e_fr_energy">   -672.96131677 </i>
    <i name="e_wo_entrp">   -672.82532037 </i>
    <i name="e_0_energy">   -672.89331857 </i>
   </energy>
  </scstep>
  <scstep>
   <time name="diag">    1.65    1.67</time>
   <time name="diis">   11.44   11.49</time>
   <time name="orth">    0.37    0.37</time>
   <time name="total">   13.73   13.82</time>
   <energy>
    <i name="e_fr_energy">   -672.96133178 </i>
    <i name="e_wo_entrp">   -672.82533621 </i>
    <i name="e_0_energy">   -672.89333400 </i>
   </energy>
  </scstep>
  <scstep>
   <time name="diag">    1.64    1.65</time>
   <time name="diis">   11.51   11.52</time>
   <time name="orth">    0.37    0.37</time>
   <time name="total">   13.56   13.58</time>
   <energy>
    <i name="alphaZ">   3939.97260233 </i>
    <i name="ewald"> -35829.12445406 </i>
    <i name="hartreedc">  -5156.16348040 </i>
    <i name="XCdc">   1066.06801579 </i>
    <i name="pawpsdc">  24303.73369390 </i>
    <i name="pawaedc"> -23576.02799689 </i>
    <i name="eentropy">     -0.13599694 </i>
    <i name="bandstr">  -3698.46763885 </i>
    <i name="atom">  38277.18391613 </i>
    <i name="e_fr_energy">   -672.96133897 </i>
    <i name="e_wo_entrp">   -672.82534203 </i>
    <i name="e_0_energy">   -672.89334050 </i>
   </energy>
  </scstep>
  <structure>
   <crystal>
    <varray name="basis" >
     <v>       8.93249989       0.00000000       0.00000000 </v>
     <v>       0.00575300       9.05559834       0.00000000 </v>
     <v>       0.03210180      -0.01574346       8.93712807 </v>
    </varray>
    <i name="volume">    722.91652451 </i>
    <varray name="rec_basis" >
     <v>       0.11195074      -0.00007112      -0.00040225 </v>
     <v>       0.00000000       0.11042893       0.00019453 </v>
     <v>       0.00000000       0.00000000       0.11189277 </v>
    </varray>
   </crystal>
   <varray name="positions" >
    <v>       0.99688001       0.99204997       0.99924002 </v>
    <v>       0.25398003       0.99714995       0.24912000 </v>
    <v>       0.24803003       0.50165000       0.24955001 </v>
    <v>       0.50501006       0.49745998       0.99834003 </v>
    <v>       0.50479003       0.24631001       0.74710002 </v>
    <v>       0.99427992       0.50449999       0.49779000 </v>
    <v>       0.49950005       0.75481999       0.74817004 </v>
    <v>       0.99437004       0.23617001       0.26379999 </v>
    <v>       0.75718000       0.74102998       0.01100000 </v>
    <v>       0.00201000       0.25541000       0.73894001 </v>
    <v>       0.75307001       0.26163001       0.50533002 </v>
    <v>       0.99514004       0.74492004       0.74511997 </v>
    <v>       0.25679999       0.49462002       0.74545002 </v>
    <v>       0.24788999       0.24839000       0.99657997 </v>
    <v>       0.50833000       0.25676999       0.25376001 </v>
    <v>       0.74879004       0.98787999       0.26967001 </v>
    <v>       0.75719000       0.25603001       0.99591997 </v>
    <v>       0.24762001       0.74973999       0.99974006 </v>
    <v>       0.25272001       0.24823001       0.50015003 </v>
    <v>       0.24457999       0.75048999       0.49983999 </v>
    <v>       0.24982001       0.24942998       0.24825000 </v>
    <v>       0.26146999       0.99984002       0.99295996 </v>
    <v>       0.00281000       0.25024000       0.00130000 </v>
    <v>       0.75313998       0.24617000       0.25492002 </v>
    <v>       0.74767001       0.99748000       0.01202000 </v>
    <v>       0.50714994       0.99977000       0.24673000 </v>
    <v>       0.99051999       0.48088002       0.24100998 </v>
    <v>       0.50519005       0.76130999       0.00855000 </v>
    <v>       0.98896989       0.00202000       0.73708999 </v>
    <v>       0.75744996       0.24437997       0.74896999 </v>
    <v>       0.73632001       0.00417000       0.51063000 </v>
    <v>       0.50563996       0.23264999       0.49544997 </v>
    <v>       0.50008998       0.00061000       0.73471998 </v>
    <v>       0.99720000       0.99771992       0.25899999 </v>
    <v>       0.50427997       0.24673000       0.00262000 </v>
    <v>       0.25133999       0.74958002       0.24910999 </v>
    <v>       0.24328000       0.50072997       0.99510994 </v>
    <v>       0.99837005       0.74313996       0.00460000 </v>
    <v>       0.75633000       0.73891003       0.25767000 </v>
    <v>       0.75839004       0.50315998       0.00288000 </v>
    <v>       0.50700002       0.50333002       0.25878999 </v>
    <v>       0.24900999       0.25315000       0.74854000 </v>
    <v>       0.24446000       0.99823996       0.50287998 </v>
    <v>       0.99804009       0.24229999       0.50128003 </v>
    <v>       0.24177002       0.75340997       0.75018002 </v>
    <v>       0.25841001       0.50062002       0.50129001 </v>
    <v>       0.99000004       0.76215003       0.49746000 </v>
    <v>       0.99203996       0.50055999       0.75138002 </v>
    <v>       0.75036005       0.74888000       0.74756004 </v>
    <v>       0.74036002       0.50197000       0.50067003 </v>
    <v>       0.50575006       0.74958002       0.49720000 </v>
    <v>       0.50501003       0.50217998       0.73912003 </v>
    <v>       0.51588997       0.01358000       0.98075008 </v>
    <v>       0.99841994       0.50976998       0.98613004 </v>
    <v>       0.50379003       0.73926997       0.25905001 </v>
    <v>       0.23780002       0.01082000       0.74607998 </v>
    <v>       0.47957999       0.98308000       0.49717999 </v>
    <v>       0.74279003       0.97869994       0.76450995 </v>
    <v>       0.99864998       0.77573999       0.26102000 </v>
    <v>       0.73551001       0.51468004       0.26666001 </v>
    <v>       0.02362000       0.99783001       0.49557002 </v>
    <v>       0.50539000       0.52833005       0.49917999 </v>
    <v>       0.73876003       0.52828003       0.73814999 </v>
    <v>       0.75400003       0.72937999       0.49116997 </v>
   </varray>
  </structure>
  <varray name="forces" >
   <v>       0.05326792       0.36832022      -0.16299853 </v>
   <v>       0.40509604       0.18863162      -0.43240897 </v>
   <v>       0.12727591      -0.21957801      -0.29959942 </v>
   <v>      -0.25495139      -0.58215669       0.11804345 </v>
   <v>      -0.21134901      -0.13227806       0.31772177 </v>
   <v>       0.63245079      -0.35647765       0.33620498 </v>
   <v>      -0.57023799       0.43095499       0.42930781 </v>
   <v>      -0.15438546      -0.28172027      -0.27804005 </v>
   <v>       0.15390019       0.31282377      -0.12856524 </v>
   <v>       0.57500219      -0.06825313       0.54623630 </v>
   <v>      -0.19575634      -0.29780201      -0.45969759 </v>
   <v>       0.83737010      -0.00798073       0.52888178 </v>
   <v>      -0.32508712       0.22400188       0.32810028 </v>
   <v>       0.93213201       0.79400920      -0.60273804 </v>
   <v>       0.21459360       0.10572241      -0.77946985 </v>
   <v>      -0.08138479      -0.14157513       0.42762471 </v>
   <v>      -1.12267678       0.32410055      -0.01181043 </v>
   <v>      -0.93590994      -0.87490097       0.04059870 </v>
   <v>      -0.49430690       0.52009720       0.44871977 </v>
   <v>      -0.01529815      -0.49257222      -0.05796107 </v>
   <v>      -0.15398920      -0.08244165      -0.02347007 </v>
   <v>      -0.23613070      -0.04755516       0.30201799 </v>
   <v>      -0.00567738      -0.31647264      -0.03520932 </v>
   <v>       0.07664285      -0.24238056      -0.05780152 </v>
   <v>       0.40490796      -0.14271594       0.24314583 </v>
   <v>      -0.50752822      -0.13753692      -0.34265600 </v>
   <v>       0.90381705      -0.09283084       0.55831305 </v>
   <v>       0.01009588      -0.29716599      -0.37296540 </v>
   <v>      -0.18449519       0.06753262       1.06626527 </v>
   <v>      -0.40032628      -0.17445703      -0.05623836 </v>
   <v>      -0.02662745       0.40137786       0.01361395 </v>
   <v>       0.16037613      -0.19467300       0.52901868 </v>
   <v>      -0.24599127       0.04453062       0.25526857 </v>
   <v>       0.23748034       1.02749860      -1.18647281 </v>
   <v>      -0.07167060       0.59253805      -0.17950204 </v>
   <v>       0.33833698       0.00881407      -0.08309034 </v>
   <v>       0.43645399      -0.17884846       0.19335856 </v>
   <v>       0.18214396       0.31628152      -0.25669562 </v>
   <v>      -0.15377212       0.94829774      -1.05326002 </v>
   <v>      -0.31310400      -0.65960947       0.04790831 </v>
   <v>      -1.68600023      -0.37539756      -0.86694519 </v>
   <v>       0.25217399      -0.14753014      -0.00175589 </v>
   <v>       1.53132023      -0.11445391      -0.05063749 </v>
   <v>      -0.05423976       0.71449078      -0.03172051 </v>
   <v>       0.38552136       0.06809739       0.03847439 </v>
   <v>      -0.70720246      -0.17940467      -0.30069079 </v>
   <v>       0.78586416      -0.69979213       0.70210835 </v>
   <v>       0.53498638      -0.05258681      -0.55478402 </v>
   <v>      -0.38571328       1.16582312       0.34765467 </v>
   <v>       1.20685000      -1.15975164       0.34105185 </v>
   <v>      -0.47876239       1.29708462       0.30955469 </v>
   <v>      -1.00778150      -0.25671137       1.01646371 </v>
   <v>       0.24346692       0.31770403      -0.08548309 </v>
   <v>       0.30220885       0.00941484      -0.12539857 </v>
   <v>      -0.17145402      -0.05357784       0.00409064 </v>
   <v>      -0.18655521       0.10629445       0.31242307 </v>
   <v>       0.38461090       0.45417628      -0.67238263 </v>
   <v>      -0.15817454      -0.14089241       0.39481570 </v>
   <v>       0.07812500       0.06437134      -0.25700380 </v>
   <v>      -0.08737409      -1.03122446      -1.19871461 </v>
   <v>      -0.85117266       0.46099519      -0.21242054 </v>
   <v>      -0.49382925      -1.03553728      -0.32677481 </v>
   <v>       0.58057688      -1.01876025       1.34544568 </v>
   <v>      -0.03813288       0.95361805       0.00293014 </v>
  </varray>
  <varray name="stress" >
   <v>     -42.62354085       2.58421501       4.72572915 </v>
   <v>       2.58421471     -54.71028688      -3.01620653 </v>
   <v>       4.72572883      -3.01620708     -31.82382734 </v>
  </varray>
  <energy>
   <i name="e_fr_energy">   -672.96133897 </i>
   <i name="e_wo_entrp">   -672.89334050 </i>
   <i name="e_0_energy">     -0.13599694 </i>
  </energy>
  <time name="totalsc">  667.38  668.89</time>
 </calculation>
 <calculation>
  <scstep>
   <time name="dav">   22.58   22.67</time>
   <time name="total">   22.86   22.96</time>
   <energy>
    <i name="alphaZ">   4118.32893483 </i>
    <i name="ewald"> -36269.95069216 </i>
    <i name="hartreedc">  -5326.47351199 </i>
    <i name="XCdc">   1090.13958426 </i>
    <i name="pawpsdc">  24303.76547561 </i>
    <i name="pawaedc"> -23576.04975890 </i>
    <i name="eentropy">     -0.11644962 </i>
    <i name="bandstr">  -3292.16686909 </i>
    <i name="atom">  38277.18391613 </i>
    <i name="e_fr_energy">   -675.33937092 </i>
    <i name="e_wo_entrp">   -675.22292131 </i>
    <i name="e_0_energy">   -675.28114611 </i>
   </energy>
  </scstep>
  <scstep>
   <time name="diag">    1.65    1.65</time>
   <time name="diis">   20.29   20.35</time>
   <time name="orth">    0.37    0.37</time>
   <time name="total">   22.58   22.64</time>
   <energy>
    <i name="e_fr_energy">   -675.28175388 </i>
    <i name="e_wo_entrp">   -675.16986560 </i>
    <i name="e_0_energy">   -675.22580974 </i>
   </energy>
  </scstep>
  <scstep>
   <time name="diag">    1.67    1.67</time>
   <time name="diis">   20.02   20.08</time>
   <time name="orth">    0.37    0.37</time>
   <time name="total">   22.34   22.41</time>
   <energy>
    <i name="e_fr_energy">   -674.69034067 </i>
    <i name="e_wo_entrp">   -674.57796312 </i>
    <i name="e_0_energy">   -674.63415190 </i>
   </energy>
  </scstep>
  <scstep>
   <time name="diag">    1.65    1.65</time>
   <time name="diis">   18.80   18.83</time>
   <time name="orth">    0.37    0.37</time>
   <time name="total">   21.10   21.14</time>
   <energy>
    <i name="e_fr_energy">   -674.15419479 </i>
    <i name="e_wo_entrp">   -674.03850634 </i>
    <i name="e_0_energy">   -674.09635056 </i>
   </energy>
  </scstep>
  <scstep>
   <time name="diag">    1.64    1.64</time>
   <time name="diis">   20.10   20.14</time>
   <time name="orth">    0.38    0.38</time>
   <time name="total">   22.40   22.45</time>
   <energy>
    <i name="e_fr_energy">   -674.09951478 </i>
    <i name="e_wo_entrp">   -673.98631948 </i>
    <i name="e_0_energy">   -674.04291713 </i>
   </energy>
  </scstep>
  <scstep>
   <time name="diag">    1.65    1.65</time>
   <time name="diis">   21.94   21.97</time>
   <time name="orth">    0.37    0.37</time>
   <time name="total">   24.25   24.28</time>
   <energy>
    <i name="e_fr_energy">   -674.08281459 </i>
    <i name="e_wo_entrp">   -673.96853281 </i>
    <i name="e_0_energy">   -674.02567370 </i>
   </energy>
  </scstep>
  <scstep>
   <time name="diag">    1.68    1.68</time>
   <time name="diis">   22.60   22.64</time>
   <time name="orth">    0.37    0.37</time>
   <time name="total">   24.93   24.97</time>
   <energy>
    <i name="e_fr_energy">   -674.08353650 </i>
    <i name="e_wo_entrp">   -673.96944559 </i>
    <i name="e_0_energy">   -674.02649104 </i>
   </energy>
  </scstep>
  <scstep>
   <time name="diag">    1.65    1.65</time>
   <time name="diis">   23.88   24.01</time>
   <time name="orth">    0.37    0.37</time>
   <time name="total">   26.17   26.32</time>
   <energy>
    <i name="e_fr_energy">   -674.08597461 </i>
    <i name="e_wo_entrp">   -673.97183455 </i>
    <i name="e_0_energy">   -674.02890458 </i>
   </energy>
  </scstep>
  <scstep>
   <time name="diag">    1.64    1.64</time>
   <time name="diis">   23.89   23.91</time>
   <time name="orth">    0.37    0.37</time>
   <time name="total">   26.17   26.21</time>
   <energy>
    <i name="e_fr_energy">   -674.08759339 </i>
    <i name="e_wo_entrp">   -673.97344543 </i>
    <i name="e_0_energy">   -674.03051941 </i>
   </energy>
  </scstep>
  <scstep>
   <time name="diag">    1.64    1.64</time>
   <time name="diis">   23.87   23.89</time>
   <time name="orth">    0.37    0.37</time>
   <time name="total">   26.16   26.19</time>
   <energy>
    <i name="e_fr_energy">   -674.08878475 </i>
    <i name="e_wo_entrp">   -673.97465543 </i>
    <i name="e_0_energy">   -674.03172009 </i>
   </energy>
  </scstep>
  <scstep>
   <time name="diag">    1.66    1.67</time>
   <time name="diis">   23.90   23.93</time>
   <time name="orth">    0.37    0.37</time>
   <time name="total">   26.21   26.26</time>
   <energy>
    <i name="e_fr_energy">   -674.08941745 </i>
    <i name="e_wo_entrp">   -673.97528262 </i>
    <i name="e_0_energy">   -674.03235004 </i>
   </energy>
  </scstep>
  <scstep>
   <time name="diag">    1.64    1.65</time>
   <time name="diis">   23.09   23.20</time>
   <time name="orth">    0.37    0.37</time>
   <time name="total">   25.40   25.52</time>
   <energy>
    <i name="e_fr_energy">   -674.08964907 </i>
    <i name="e_wo_entrp">   -673.97550635 </i>
    <i name="e_0_energy">   -674.03257771 </i>
   </energy>
  </scstep>
  <scstep>
   <time name="diag">    1.65    1.65</time>
   <time name="diis">   22.50   22.53</time>
   <time name="orth">    0.37    0.37</time>
   <time name="total">   24.80   24.84</time>
   <energy>
    <i name="e_fr_energy">   -674.08976880 </i>
    <i name="e_wo_entrp">   -673.97563242 </i>
    <i name="e_0_energy">   -674.03270061 </i>
   </energy>
  </scstep>
  <scstep>
   <time name="diag">    1.66    1.67</time>
   <time name="diis">   20.92   20.97</time>
   <time name="orth">    0.38    0.38</time>
   <time name="total">   23.24   23.29</time>
   <energy>
    <i name="e_fr_energy">   -674.08984041 </i>
    <i name="e_wo_entrp">   -673.97569636 </i>
    <i name="e_0_energy">   -674.03276838 </i>
   </energy>
  </scstep>
  <scstep>
   <time name="diag">    1.66    1.66</time>
   <time name="diis">   20.94   20.98</time>
   <time name="orth">    0.40    0.40</time>
   <time name="total">   23.27   23.32</time>
   <energy>
    <i name="e_fr_energy">   -674.08988489 </i>
    <i name="e_wo_entrp">   -673.97574309 </i>
    <i name="e_0_energy">   -674.03281399 </i>
   </energy>
  </scstep>
  <scstep>
   <time name="diag">    1.65    1.65</time>
   <time name="diis">   19.02   19.07</time>
   <time name="orth">    0.37    0.37</time>
   <time name="total">   21.32   21.37</time>
   <energy>
    <i name="e_fr_energy">   -674.08991093 </i>
    <i name="e_wo_entrp">   -673.97576706 </i>
    <i name="e_0_energy">   -674.03283899 </i>
   </energy>
  </scstep>
  <scstep>
   <time name="diag">    1.64    1.64</time>
   <time name="diis">   17.24   17.28</time>
   <time name="orth">    0.39    0.39</time>
   <time name="total">   19.54   19.59</time>
   <energy>
    <i name="e_fr_energy">   -674.08992752 </i>
    <i name="e_wo_entrp">   -673.97578317 </i>
    <i name="e_0_energy">   -674.03285535 </i>
   </energy>
  </scstep>
  <scstep>
   <time name="diag">    1.65    1.66</time>
   <time name="diis">   14.92   14.95</time>
   <time name="orth">    0.37    0.37</time>
   <time name="total">   16.98   17.02</time>
   <energy>
    <i name="alphaZ">   4118.32893483 </i>
    <i name="ewald"> -36269.95069216 </i>
    <i name="hartreedc">  -5112.06163753 </i>
    <i name="XCdc">   1078.17011939 </i>
    <i name="pawpsdc">  24746.04309993 </i>
    <i name="pawaedc"> -24019.97753023 </i>
    <i name="eentropy">     -0.11414391 </i>
    <i name="bandstr">  -3491.71200329 </i>
    <i name="atom">  38277.18391613 </i>
    <i name="e_fr_energy">   -674.08993684 </i>
    <i name="e_wo_entrp">   -673.97579292 </i>
    <i name="e_0_energy">   -674.03286488 </i>
   </energy>
  </scstep>
  <structure>
   <crystal>
    <varray name="basis" >
     <v>       8.80300538       0.00785110       0.01435723 </v>
     <v>       0.01362889       8.88709757      -0.00928057 </v>
     <v>       0.04598725      -0.02459058       8.84046181 </v>
    </varray>
    <i name="volume">    691.60850078 </i>
    <varray name="rec_basis" >
     <v>       0.11359869      -0.00017483      -0.00059142 </v>
     <v>      -0.00010087       0.11252316       0.00031352 </v>
     <v>      -0.00018459       0.00011841       0.11311755 </v>
    </varray>
   </crystal>
   <varray name="positions" >
    <v>       0.99716960       0.99401062       0.99836015 </v>
    <v>       0.25617562       0.99815081       0.24678585 </v>
    <v>       0.24872399       0.50047742       0.24793277 </v>
    <v>       0.50363283       0.49435971       0.99897723 </v>
    <v>       0.50364287       0.24560830       0.74881508 </v>
    <v>       0.99769036       0.50260405       0.49960483 </v>
    <v>       0.49641050       0.75711988       0.75048745 </v>
    <v>       0.99354259       0.23466657       0.26229913 </v>
    <v>       0.75801260       0.74269530       0.01030600 </v>
    <v>       0.00510511       0.25505152       0.74188860 </v>
    <v>       0.75202271       0.26003919       0.50284857 </v>
    <v>       0.99965228       0.74488248       0.74797488 </v>
    <v>       0.25503713       0.49581645       0.74722111 </v>
    <v>       0.25293322       0.25261433       0.99332639 </v>
    <v>       0.50950374       0.25732590       0.24955243 </v>
    <v>       0.74834268       0.98712978       0.27197833 </v>
    <v>       0.75112576       0.25775651       0.99585622 </v>
    <v>       0.24256756       0.74507944       0.99995921 </v>
    <v>       0.25003986       0.25100498       0.50257222 </v>
    <v>       0.24450018       0.74786532       0.49952711 </v>
    <v>       0.24898909       0.24899056       0.24812330 </v>
    <v>       0.26018900       0.99958951       0.99459026 </v>
    <v>       0.00278111       0.24855370       0.00110994 </v>
    <v>       0.75355587       0.24487820       0.25460800 </v>
    <v>       0.74985261       0.99672198       0.01333250 </v>
    <v>       0.50441600       0.99903407       0.24488034 </v>
    <v>       0.99539082       0.48039072       0.24402376 </v>
    <v>       0.50525284       0.75972337       0.00653673 </v>
    <v>       0.98795254       0.00238978       0.74284570 </v>
    <v>       0.75528957       0.24345005       0.74866641 </v>
    <v>       0.73617456       0.00630842       0.51070349 </v>
    <v>       0.50649652       0.23161785       0.49830561 </v>
    <v>       0.49875632       0.00084963       0.73609792 </v>
    <v>       0.99850208       0.00318267       0.25259541 </v>
    <v>       0.50389434       0.24988499       0.00165105 </v>
    <v>       0.25316886       0.74962619       0.24866147 </v>
    <v>       0.24563407       0.49977899       0.99615369 </v>
    <v>       0.99935767       0.74482251       0.00321436 </v>
    <v>       0.75551669       0.74395209       0.25198449 </v>
    <v>       0.75670036       0.49964643       0.00313861 </v>
    <v>       0.49791238       0.50132199       0.25411021 </v>
    <v>       0.25037247       0.25236404       0.74853052 </v>
    <v>       0.25273173       0.99762974       0.50260663 </v>
    <v>       0.99774531       0.24610606       0.50110880 </v>
    <v>       0.24385116       0.75377311       0.75038770 </v>
    <v>       0.25459700       0.49966144       0.49966688 </v>
    <v>       0.99423311       0.75842855       0.50124998 </v>
    <v>       0.99494026       0.50027464       0.74838529 </v>
    <v>       0.74826615       0.75509405       0.74943668 </v>
    <v>       0.74687533       0.49579476       0.50251103 </v>
    <v>       0.50315390       0.75649299       0.49887098 </v>
    <v>       0.49954836       0.50082192       0.74460691 </v>
    <v>       0.51720545       0.01527173       0.98028864 </v>
    <v>       0.00005451       0.50981896       0.98545313 </v>
    <v>       0.50286415       0.73898457       0.25907209 </v>
    <v>       0.23678605       0.01138920       0.74776644 </v>
    <v>       0.48166869       0.98549327       0.49355047 </v>
    <v>       0.74192858       0.97795305       0.76664117 </v>
    <v>       0.99907668       0.77608051       0.25963269 </v>
    <v>       0.73506492       0.50917506       0.26018934 </v>
    <v>       0.01902553       0.00028392       0.49442337 </v>
    <v>       0.50273282       0.52281028       0.49741606 </v>
    <v>       0.74187300       0.52286532       0.74541271 </v>
    <v>       0.75379076       0.73446031       0.49118579 </v>
   </varray>
  </structure>
  <varray name="forces" >
   <v>       0.23778564       0.45139352      -0.17924609 </v>
   <v>      -0.01032151       0.14154372      -0.12840090 </v>
   <v>      -0.50994165      -0.22532236       0.01567242 </v>
   <v>      -0.12617768       0.44890424      -0.06328737 </v>
   <v>      -0.06483857       0.07929762       0.07744644 </v>
   <v>       0.28102586      -0.08420292      -0.01929689 </v>
   <v>      -0.24815370      -0.34981430       0.24856183 </v>
   <v>       0.06969074       0.64178551      -0.36795207 </v>
   <v>       0.08145400       0.04598422      -0.44046282 </v>
   <v>       0.02353830      -0.11804467       0.42797333 </v>
   <v>       0.06355222      -0.43803715      -0.18954549 </v>
   <v>       0.06238968      -0.05596586       0.37144928 </v>
   <v>      -0.37589218       0.24743269       0.04782912 </v>
   <v>       0.53829591       0.26031313      -0.21302038 </v>
   <v>       0.15125008      -0.07203724      -0.28668311 </v>
   <v>       0.03581122       0.27020998       0.18677234 </v>
   <v>      -0.53163510      -0.25781950       0.14151498 </v>
   <v>      -0.28970726      -0.36425056       0.14625618 </v>
   <v>      -0.45184419      -0.08407179       0.18985363 </v>
   <v>       0.15970055      -0.01844674      -0.08167748 </v>
   <v>       0.00763283      -0.11176049      -0.01560451 </v>
   <v>      -0.09172595      -0.03747102       0.11962249 </v>
   <v>      -0.07645203      -0.03295099       0.02945720 </v>
   <v>      -0.16379150      -0.09145181      -0.27978398 </v>
   <v>       0.21143966      -0.00618407       0.22251818 </v>
   <v>      -0.05881349      -0.23625687      -0.55140156 </v>
   <v>       0.33688329       0.37787070       0.14969100 </v>
   <v>      -0.10595781      -0.10435415      -0.14893632 </v>
   <v>      -0.14243769       0.06159750       0.34605839 </v>
   <v>      -0.09822354       0.12258637      -0.07332463 </v>
   <v>       0.47525684       0.00824343       0.53757593 </v>
   <v>       0.01238320       0.47811135       0.10708028 </v>
   <v>      -0.31945808       0.07923940       0.06205501 </v>
   <v>       0.18094211      -0.24450045      -0.37737325 </v>
   <v>      -0.24030776       0.28365658      -0.12853143 </v>
   <v>       0.16394007       0.00177475      -0.05636072 </v>
   <v>       0.18964049      -0.15001215       0.04243482 </v>
   <v>      -0.12608164       0.31878377       0.17483494 </v>
   <v>      -0.20527031      -0.23941417      -0.11774007 </v>
   <v>      -0.01097123      -0.14383824       0.10417707 </v>
   <v>      -0.17975538       0.02000610      -0.19754750 </v>
   <v>       0.22450567       0.06879851      -0.07236755 </v>
   <v>      -0.50053958       0.17782068       0.11520775 </v>
   <v>       0.06965500       0.35000524       0.11238198 </v>
   <v>       0.16904803       0.04445704       0.02660370 </v>
   <v>      -0.08396593      -0.07294016      -0.06415984 </v>
   <v>       0.21977588      -0.24604418       0.12153565 </v>
   <v>       0.43396970      -0.03637188      -0.08792701 </v>
   <v>       0.04475005      -0.64769589      -0.10410426 </v>
   <v>       0.02366886       0.42962273      -0.06235505 </v>
   <v>      -0.08710576      -0.65249982       0.15663863 </v>
   <v>      -0.03638192       0.14507495       0.06330485 </v>
   <v>      -0.01789315      -0.27334584       0.36876114 </v>
   <v>      -0.08450225      -0.44038482      -0.08169006 </v>
   <v>      -0.22896091      -0.03286421       0.21719855 </v>
   <v>      -0.13706156      -0.37950263       0.03153840 </v>
   <v>       1.08063768       0.78790141      -0.89743602 </v>
   <v>      -0.15500783       0.91293968       0.28930777 </v>
   <v>       0.25709254      -0.10988776      -0.26468714 </v>
   <v>      -0.35019620      -0.54736048      -0.42819636 </v>
   <v>      -0.00395950       0.28563859      -0.13638308 </v>
   <v>       0.16177167      -0.30256247      -0.27044031 </v>
   <v>       0.38893011      -0.23780897       1.23035334 </v>
   <v>      -0.24308507      -0.09551679      -0.09574336 </v>
  </varray>
  <varray name="stress" >
   <v>      96.88040437       0.65868867      -0.02287966 </v>
   <v>       0.65868813      92.88532066       0.11270452 </v>
   <v>      -0.02288014       0.11270550      85.57319254 </v>
  </varray>
  <energy>
   <i name="e_fr_energy">   -674.08993684 </i>
   <i name="e_wo_entrp">   -674.03286488 </i>
   <i name="e_0_energy">     -0.11414391 </i>
  </energy>
  <time name="totalsc">  461.36  462.46</time>
 </calculation>
 <calculation>
  <scstep>
   <time name="dav">   23.03   23.11</time>
   <time name="total">   23.31   23.39</time>
   <energy>
    <i name="alphaZ">   4071.80551111 </i>
    <i name="ewald"> -36161.61125665 </i>
    <i name="hartreedc">  -5063.97038968 </i>
    <i name="XCdc">   1071.96373708 </i>
    <i name="pawpsdc">  24746.09023345 </i>
    <i name="pawaedc"> -24020.00330699 </i>
    <i name="eentropy">     -0.11690448 </i>
    <i name="bandstr">  -3595.65559655 </i>
    <i name="atom">  38277.18391613 </i>
    <i name="e_fr_energy">   -674.31405658 </i>
    <i name="e_wo_entrp">   -674.19715210 </i>
    <i name="e_0_energy">   -674.25560434 </i>
   </energy>
  </scstep>
  <scstep>
   <time name="diag">    1.65    1.65</time>
   <time name="diis">   20.43   20.45</time>
   <time name="orth">    0.37    0.37</time>
   <time name="total">   22.72   22.75</time>
   <energy>
    <i name="e_fr_energy">   -674.34095050 </i>
    <i name="e_wo_entrp">   -674.22325418 </i>
    <i name="e_0_energy">   -674.28210234 </i>
   </energy>
  </scstep>
  <scstep>
   <time name="diag">    1.64    1.64</time>
   <time name="diis">   20.02   20.06</time>
   <time name="orth">    0.38    0.38</time>
   <time name="total">   22.31   22.36</time>
   <energy>
    <i name="e_fr_energy">   -674.30097628 </i>
    <i name="e_wo_entrp">   -674.18405271 </i>
    <i name="e_0_energy">   -674.24251449 </i>
   </energy>
  </scstep>
  <scstep>
   <time name="diag">    1.66    1.66</time>
   <time name="diis">   19.58   19.65</time>
   <time name="orth">    0.37    0.37</time>
   <time name="total">   21.89   21.97</time>
   <energy>
    <i name="e_fr_energy">   -674.25993166 </i>
    <i name="e_wo_entrp">   -674.14324603 </i>
    <i name="e_0_energy">   -674.20158884 </i>
   </energy>
  </scstep>
  <scstep>
   <time name="diag">    1.66    1.67</time>
   <time name="diis">   19.63   19.66</time>
   <time name="orth">    0.37    0.37</time>
   <time name="total">   21.94   21.98</time>
   <energy>
    <i name="e_fr_energy">   -674.25454019 </i>
    <i name="e_wo_entrp">   -674.13713416 </i>
    <i name="e_0_energy">   -674.19583718 </i>
   </energy>
  </scstep>
  <scstep>
   <time name="diag">    1.64    1.64</time>
   <time name="diis">   20.96   21.06</time>
   <time name="orth">    0.37    0.37</time>
   <time name="total">   23.25   23.35</time>
   <energy>
    <i name="e_fr_energy">   -674.25288145 </i>
    <i name="e_wo_entrp">   -674.13582758 </i>
    <i name="e_0_energy">   -674.19435451 </i>
   </energy>
  </scstep>
  <scstep>
   <time name="diag">    1.64    1.65</time>
   <time name="diis">   22.78   22.88</time>
   <time name="orth">    0.37    0.37</time>
   <time name="total">   25.07   25.18</time>
   <energy>
    <i name="e_fr_energy">   -674.25272541 </i>
    <i name="e_wo_entrp">   -674.13565934 </i>
    <i name="e_0_energy">   -674.19419238 </i>
   </energy>
  </scstep>
  <scstep>
   <time name="diag">    1.64    1.64</time>
   <time name="diis">   22.73   22.81</time>
   <time name="orth">    0.37    0.37</time>
   <time name="total">   25.02   25.10</time>
   <energy>
    <i name="e_fr_energy">   -674.25278002 </i>
    <i name="e_wo_entrp">   -674.13568915 </i>
    <i name="e_0_energy">   -674.19423458 </i>
   </energy>
  </scstep>
  <scstep>
   <time name="diag">    1.65    1.66</time>
   <time name="diis">   21.84   21.90</time>
   <time name="orth">    0.37    0.37</time>
   <time name="total">   24.14   24.20</time>
   <energy>
    <i name="e_fr_energy">   -674.25285056 </i>
    <i name="e_wo_entrp">   -674.13577463 </i>
    <i name="e_0_energy">   -674.19431260 </i>
   </energy>
  </scstep>
  <scstep>
   <time name="diag">    1.67    1.67</time>
   <time name="diis">   20.32   20.36</time>
   <time name="orth">    0.37    0.37</time>
   <time name="total">   22.63   22.68</time>
   <energy>
    <i name="e_fr_energy">   -674.25289616 </i>
    <i name="e_wo_entrp">   -674.13580079 </i>
    <i name="e_0_energy">   -674.19434847 </i>
   </energy>
  </scstep>
  <scstep>
   <time name="diag">    1.64    1.64</time>
   <time name="diis">   18.68   18.73</time>
   <time name="orth">    0.37    0.37</time>
   <time name="total">   20.97   21.03</time>
   <energy>
    <i name="e_fr_energy">   -674.25292251 </i>
    <i name="e_wo_entrp">   -674.13583603 </i>
    <i name="e_0_energy">   -674.19437927 </i>
   </energy>
  </scstep>
  <scstep>
   <time name="diag">    1.64    1.65</time>
   <time name="diis">   19.20   19.23</time>
   <time name="orth">    0.37    0.37</time>
   <time name="total">   21.49   21.53</time>
   <energy>
    <i name="e_fr_energy">   -674.25293523 </i>
    <i name="e_wo_entrp">   -674.13584486 </i>
    <i name="e_0_energy">   -674.19439005 </i>
   </energy>
  </scstep>
  <scstep>
   <time name="diag">    1.65    1.65</time>
   <time name="diis">   15.32   15.33</time>
   <time name="orth">    0.37    0.37</time>
   <time name="total">   17.62   17.64</time>
   <energy>
    <i name="e_fr_energy">   -674.25294111 </i>
    <i name="e_wo_entrp">   -674.13585313 </i>
    <i name="e_0_energy">   -674.19439712 </i>
   </energy>
  </scstep>
  <scstep>
   <time name="diag">    1.65    1.65</time>
   <time name="diis">   13.65   13.69</time>
   <time name="orth">    0.39    0.39</time>
   <time name="total">   15.71   15.77</time>
   <energy>
    <i name="alphaZ">   4071.80551111 </i>
    <i name="ewald"> -36161.61125665 </i>
    <i name="hartreedc">  -5118.12036400 </i>
    <i name="XCdc">   1074.97226934 </i>
    <i name="pawpsdc">  24623.14327148 </i>
    <i name="pawaedc"> -23896.50277785 </i>
    <i name="eentropy">     -0.11708776 </i>
    <i name="bandstr">  -3545.00642926 </i>
    <i name="atom">  38277.18391613 </i>
    <i name="e_fr_energy">   -674.25294745 </i>
    <i name="e_wo_entrp">   -674.13585969 </i>
    <i name="e_0_energy">   -674.19440357 </i>
   </energy>
  </scstep>
  <structure>
   <crystal>
    <varray name="basis" >
     <v>       8.83604134       0.00584817       0.01069449 </v>
     <v>       0.01161963       8.93008460      -0.00691296 </v>
     <v>       0.04244487      -0.02233355       8.86512280 </v>
    </varray>
    <i name="volume">    699.51064523 </i>
    <varray name="rec_basis" >
     <v>       0.11317361      -0.00014768      -0.00054223 </v>
     <v>      -0.00007446       0.11198134       0.00028247 </v>
     <v>      -0.00013659       0.00008750       0.11280247 </v>
    </varray>
   </crystal>
   <varray name="positions" >
    <v>       0.99709473       0.99350124       0.99858666 </v>
    <v>       0.25560651       0.99789175       0.24738849 </v>
    <v>       0.24854339       0.50078282       0.24835047 </v>
    <v>       0.50398888       0.49516515       0.99881316 </v>
    <v>       0.50394038       0.24579000       0.74837246 </v>
    <v>       0.99680781       0.50309722       0.49913873 </v>
    <v>       0.49721181       0.75652070       0.74988785 </v>
    <v>       0.99375581       0.23505760       0.26268627 </v>
    <v>       0.75779717       0.74226277       0.01048488 </v>
    <v>       0.00430502       0.25514464       0.74112954 </v>
    <v>       0.75229241       0.26045314       0.50348854 </v>
    <v>       0.99848538       0.74489253       0.74724049 </v>
    <v>       0.25549450       0.49550456       0.74676327 </v>
    <v>       0.25162732       0.25151822       0.99416647 </v>
    <v>       0.50919827       0.25718276       0.25063792 </v>
    <v>       0.74845927       0.98732409       0.27138302 </v>
    <v>       0.75269599       0.25730632       0.99586964 </v>
    <v>       0.24387448       0.74628975       0.99990184 </v>
    <v>       0.25073534       0.25028236       0.50194564 </v>
    <v>       0.24452009       0.74854767       0.49960849 </v>
    <v>       0.24920403       0.24910463       0.24815575 </v>
    <v>       0.26052123       0.99965391       0.99416933 </v>
    <v>       0.00278811       0.24899210       0.00115941 </v>
    <v>       0.75344777       0.24521418       0.25468900 </v>
    <v>       0.74928797       0.99691918       0.01299513 </v>
    <v>       0.50512279       0.99922523       0.24535643 </v>
    <v>       0.99413105       0.48051825       0.24324868 </v>
    <v>       0.50523537       0.76013636       0.00705642 </v>
    <v>       0.98821839       0.00229191       0.74136074 </v>
    <v>       0.75584848       0.24369137       0.74874405 </v>
    <v>       0.73621275       0.00575248       0.51068389 </v>
    <v>       0.50627573       0.23188561       0.49756977 </v>
    <v>       0.49910220       0.00078667       0.73574192 </v>
    <v>       0.99816363       0.00176459       0.25424624 </v>
    <v>       0.50399451       0.24906501       0.00189992 </v>
    <v>       0.25269524       0.74961473       0.24877790 </v>
    <v>       0.24502488       0.50002647       0.99588575 </v>
    <v>       0.99910182       0.74438571       0.00357168 </v>
    <v>       0.75572606       0.74264270       0.25344909 </v>
    <v>       0.75713704       0.50055933       0.00307216 </v>
    <v>       0.50026247       0.50184312       0.25531388 </v>
    <v>       0.25001957       0.25256867       0.74853376 </v>
    <v>       0.25059017       0.99779034       0.50268078 </v>
    <v>       0.99782245       0.24511664       0.50115180 </v>
    <v>       0.24331259       0.75367914       0.75033492 </v>
    <v>       0.25558317       0.49991017       0.50008415 </v>
    <v>       0.99313799       0.75939594       0.50027532 </v>
    <v>       0.99418814       0.50035027       0.74915894 </v>
    <v>       0.74881045       0.75347772       0.74895011 </v>
    <v>       0.74518802       0.49740105       0.50204065 </v>
    <v>       0.50382830       0.75469491       0.49843704 </v>
    <v>       0.50096419       0.50117226       0.74318988 </v>
    <v>       0.51686512       0.01483238       0.98040774 </v>
    <v>      -0.00036890       0.50980678       0.98562839 </v>
    <v>       0.50310377       0.73905854       0.25906609 </v>
    <v>       0.23704937       0.01124056       0.74733091 </v>
    <v>       0.48112705       0.98486736       0.49448676 </v>
    <v>       0.74215230       0.97814645       0.76609136 </v>
    <v>       0.99896572       0.77599245       0.25999057 </v>
    <v>       0.73517613       0.51060769       0.26185948 </v>
    <v>       0.02021500      -0.00035474       0.49471649 </v>
    <v>       0.50341864       0.52424501       0.49787138 </v>
    <v>       0.74106889       0.52427170       0.74354241 </v>
    <v>       0.75384614       0.73313961       0.49118023 </v>
   </varray>
  </structure>
  <varray name="forces" >
   <v>       0.17879392       0.43278662      -0.17894600 </v>
   <v>       0.11531648       0.15225654      -0.20397769 </v>
   <v>      -0.30686927      -0.22573804      -0.07712730 </v>
   <v>      -0.16814196       0.12238188      -0.00938317 </v>
   <v>      -0.11920008       0.01026626       0.16212800 </v>
   <v>       0.40114114      -0.16577315       0.08989195 </v>
   <v>      -0.34120954      -0.13229958       0.29088641 </v>
   <v>       0.00137613       0.34829557      -0.34521225 </v>
   <v>       0.10462592       0.13869387      -0.34457009 </v>
[...]
      </set>
     </set>
    </set>
   </array>
  </eigenvalues>
  <separator name="orbital magnetization" >
   <v name="MAGDIPOLOUT">      0.00000000      0.00000000      0.00000000</v>
  </separator>
  <dos>
   <i name="efermi">      9.33210979 </i>
   <total>
    <array>
     <dimension dim="1">gridpoints</dimension>
     <dimension dim="2">spin</dimension>
     <field>energy</field>
     <field>total</field>
     <field>integrated</field>
     <set>
      <set comment="spin 1">
       <r>   -49.6688     0.0000     0.0000 </r>
       <r>   -49.4533     0.0000     0.0000 </r>
       <r>   -49.2378     0.0000     0.0000 </r>
       <r>   -49.0223     0.0000     0.0000 </r>
       <r>   -48.8068     0.0000     0.0000 </r>
       <r>   -48.5913     0.0000     0.0000 </r>
       <r>   -48.3758     0.0000     0.0000 </r>
       <r>   -48.1603     0.0000     0.0000 </r>
       <r>   -47.9448     0.0000     0.0000 </r>
       <r>   -47.7292     0.0000     0.0000 </r>
       <r>   -47.5137     0.0000     0.0000 </r>
       <r>   -47.2982     0.0000     0.0000 </r>
       <r>   -47.0827     0.0000     0.0000 </r>
       <r>   -46.8672     0.2436     0.0525 </r>
       <r>   -46.6517    10.9358     2.4093 </r>
       <r>   -46.4362    33.0253     9.5265 </r>
       <r>   -46.2207    20.5412    13.9534 </r>
       <r>   -46.0052     0.2164    14.0000 </r>
       <r>   -45.7897     0.0000    14.0000 </r>
       <r>   -45.5741     0.0000    14.0000 </r>
       <r>   -45.3586     0.0000    14.0000 </r>
       <r>   -45.1431     0.0000    14.0000 </r>
       <r>   -44.9276     0.0000    14.0000 </r>
       <r>   -44.7121     0.0000    14.0000 </r>
       <r>   -44.4966     0.0000    14.0000 </r>
       <r>   -44.2811     0.0000    14.0000 </r>
       <r>   -44.0656     0.0000    14.0000 </r>
       <r>   -43.8501     0.0000    14.0000 </r>
       <r>   -43.6346     0.0000    14.0000 </r>
       <r>   -43.4190     0.0000    14.0000 </r>
       <r>   -43.2035     0.0000    14.0000 </r>
       <r>   -42.9880     0.0000    14.0000 </r>
       <r>   -42.7725     0.0000    14.0000 </r>
       <r>   -42.5570     0.0000    14.0000 </r>
       <r>   -42.3415     0.0000    14.0000 </r>
       <r>   -42.1260     0.0000    14.0000 </r>
       <r>   -41.9105     0.0000    14.0000 </r>
       <r>   -41.6950     0.0000    14.0000 </r>
       <r>   -41.4795     0.0000    14.0000 </r>
       <r>   -41.2639     0.0000    14.0000 </r>
       <r>   -41.0484     0.0000    14.0000 </r>
       <r>   -40.8329     0.0000    14.0000 </r>
       <r>   -40.6174     0.0000    14.0000 </r>
       <r>   -40.4019     0.0000    14.0000 </r>
       <r>   -40.1864     0.0000    14.0000 </r>
       <r>   -39.9709     0.0000    14.0000 </r>
       <r>   -39.7554     0.0000    14.0000 </r>
       <r>   -39.5399     0.0000    14.0000 </r>
       <r>   -39.3244     0.0000    14.0000 </r>
       <r>   -39.1089     0.0000    14.0000 </r>
       <r>   -38.8933     0.0000    14.0000 </r>
       <r>   -38.6778     0.0000    14.0000 </r>
       <r>   -38.4623     0.0000    14.0000 </r>
       <r>   -38.2468     0.0000    14.0000 </r>
       <r>   -38.0313     0.0000    14.0000 </r>
       <r>   -37.8158     0.0000    14.0000 </r>
       <r>   -37.6003     0.0000    14.0000 </r>
       <r>   -37.3848     0.0000    14.0000 </r>
       <r>   -37.1693     0.0000    14.0000 </r>
       <r>   -36.9538     0.0000    14.0000 </r>
       <r>   -36.7382     0.0000    14.0000 </r>
       <r>   -36.5227     0.0000    14.0000 </r>
       <r>   -36.3072     0.0000    14.0000 </r>
       <r>   -36.0917     0.0000    14.0000 </r>
       <r>   -35.8762     0.0000    14.0000 </r>
       <r>   -35.6607     0.0000    14.0000 </r>
       <r>   -35.4452     0.0000    14.0000 </r>
       <r>   -35.2297     0.0000    14.0000 </r>
       <r>   -35.0142     0.0000    14.0000 </r>
       <r>   -34.7987     0.0000    14.0000 </r>
       <r>   -34.5831     0.0000    14.0000 </r>
       <r>   -34.3676     0.0000    14.0000 </r>
       <r>   -34.1521     0.0000    14.0000 </r>
       <r>   -33.9366     0.0000    14.0000 </r>
       <r>   -33.7211     0.0000    14.0000 </r>
       <r>   -33.5056     0.0000    14.0000 </r>
       <r>   -33.2901     0.0000    14.0000 </r>
       <r>   -33.0746     0.0000    14.0000 </r>
       <r>   -32.8591     0.0000    14.0000 </r>
       <r>   -32.6436     0.0000    14.0000 </r>
       <r>   -32.4281     0.0000    14.0000 </r>
       <r>   -32.2125     0.0000    14.0000 </r>
       <r>   -31.9970     0.0000    14.0000 </r>
       <r>   -31.7815     0.0000    14.0000 </r>
       <r>   -31.5660     0.0000    14.0000 </r>
       <r>   -31.3505     0.0000    14.0000 </r>
       <r>   -31.1350     0.0000    14.0000 </r>
       <r>   -30.9195     0.0000    14.0000 </r>
       <r>   -30.7040     0.0000    14.0000 </r>
       <r>   -30.4885     0.0516    14.0111 </r>
       <r>   -30.2730    11.6521    16.5223 </r>
       <r>   -30.0574    47.6669    26.7949 </r>
       <r>   -29.8419    69.3460    41.7397 </r>
       <r>   -29.6264    35.8202    49.4593 </r>
       <r>   -29.4109     2.5089    50.0000 </r>
       <r>   -29.1954     0.0002    50.0000 </r>
       <r>   -28.9799     0.0000    50.0000 </r>
       <r>   -28.7644     0.0000    50.0000 </r>
       <r>   -28.5489     0.0000    50.0000 </r>
       <r>   -28.3334     0.0000    50.0000 </r>
       <r>   -28.1179     0.0000    50.0000 </r>
       <r>   -27.9023     0.0000    50.0000 </r>
       <r>   -27.6868     0.0000    50.0000 </r>
       <r>   -27.4713     0.0000    50.0000 </r>
       <r>   -27.2558     0.0000    50.0000 </r>
       <r>   -27.0403     0.0000    50.0000 </r>
       <r>   -26.8248     0.0000    50.0000 </r>
       <r>   -26.6093     0.1793    50.0386 </r>
       <r>   -26.3938    10.6809    52.3405 </r>
       <r>   -26.1783    48.9515    62.8900 </r>
       <r>   -25.9628    61.3163    76.1042 </r>
       <r>   -25.7473    40.3416    84.7983 </r>
       <r>   -25.5317     5.5732    85.9993 </r>
       <r>   -25.3162     0.0031    86.0000 </r>
       <r>   -25.1007     0.0000    86.0000 </r>
       <r>   -24.8852     0.0000    86.0000 </r>
       <r>   -24.6697     0.0000    86.0000 </r>
       <r>   -24.4542     0.0000    86.0000 </r>
       <r>   -24.2387     0.0000    86.0000 </r>
       <r>   -24.0232     0.0000    86.0000 </r>
       <r>   -23.8077     0.0000    86.0000 </r>
       <r>   -23.5922     0.0000    86.0000 </r>
       <r>   -23.3766     0.0000    86.0000 </r>
       <r>   -23.1611     0.4882    86.1052 </r>
       <r>   -22.9456    16.7214    89.7088 </r>
       <r>   -22.7301    50.1663   100.5201 </r>
       <r>   -22.5146   108.3366   123.8677 </r>
       <r>   -22.2991    19.2181   128.0094 </r>
       <r>   -22.0836    12.4507   130.6927 </r>
       <r>   -21.8681    15.2199   133.9727 </r>
       <r>   -21.6526    15.7329   137.3633 </r>
       <r>   -21.4371    74.9388   153.5133 </r>
       <r>   -21.2215    63.1227   167.1169 </r>
       <r>   -21.0060    13.1840   169.9582 </r>
       <r>   -20.7905     0.1940   170.0000 </r>
       <r>   -20.5750     0.0000   170.0000 </r>
       <r>   -20.3595     0.0000   170.0000 </r>
       <r>   -20.1440     0.0000   170.0000 </r>
       <r>   -19.9285     0.0000   170.0000 </r>
       <r>   -19.7130     0.0000   170.0000 </r>
       <r>   -19.4975     0.0000   170.0000 </r>
       <r>   -19.2820     0.0000   170.0000 </r>
       <r>   -19.0664     0.0000   170.0000 </r>
       <r>   -18.8509     0.0000   170.0000 </r>
       <r>   -18.6354     0.0000   170.0000 </r>
       <r>   -18.4199     0.0000   170.0000 </r>
       <r>   -18.2044     0.0000   170.0000 </r>
       <r>   -17.9889     0.0000   170.0000 </r>
       <r>   -17.7734     0.0000   170.0000 </r>
       <r>   -17.5579     0.0000   170.0000 </r>
       <r>   -17.3424     0.0000   170.0000 </r>
       <r>   -17.1269     0.0000   170.0000 </r>
       <r>   -16.9114     0.0000   170.0000 </r>
       <r>   -16.6958     0.0000   170.0000 </r>
       <r>   -16.4803     0.0000   170.0000 </r>
       <r>   -16.2648     0.0000   170.0000 </r>
       <r>   -16.0493     0.0000   170.0000 </r>
       <r>   -15.8338     0.0000   170.0000 </r>
       <r>   -15.6183     0.0000   170.0000 </r>
       <r>   -15.4028     0.0000   170.0000 </r>
       <r>   -15.1873     0.0000   170.0000 </r>
       <r>   -14.9718     0.0000   170.0000 </r>
       <r>   -14.7563     0.0000   170.0000 </r>
       <r>   -14.5407     0.0000   170.0000 </r>
       <r>   -14.3252     0.0000   170.0000 </r>
       <r>   -14.1097     0.0000   170.0000 </r>
       <r>   -13.8942     0.0000   170.0000 </r>
       <r>   -13.6787     0.0000   170.0000 </r>
       <r>   -13.4632     0.0000   170.0000 </r>
       <r>   -13.2477     0.0000   170.0000 </r>
       <r>   -13.0322     0.0000   170.0000 </r>
       <r>   -12.8167     0.0000   170.0000 </r>
       <r>   -12.6012     0.0000   170.0000 </r>
       <r>   -12.3856     0.0000   170.0000 </r>
       <r>   -12.1701     0.0000   170.0000 </r>
       <r>   -11.9546     0.0000   170.0000 </r>
       <r>   -11.7391     0.0000   170.0000 </r>
       <r>   -11.5236     0.0000   170.0000 </r>
       <r>   -11.3081     0.0000   170.0000 </r>
       <r>   -11.0926     0.0000   170.0000 </r>
       <r>   -10.8771     0.0000   170.0000 </r>
       <r>   -10.6616     0.0000   170.0000 </r>
       <r>   -10.4461     0.0000   170.0000 </r>
       <r>   -10.2306     0.0000   170.0000 </r>
       <r>   -10.0150     0.0000   170.0000 </r>
       <r>    -9.7995     0.0000   170.0000 </r>
       <r>    -9.5840     0.0000   170.0000 </r>
       <r>    -9.3685     0.0000   170.0000 </r>
       <r>    -9.1530     0.0000   170.0000 </r>
       <r>    -8.9375     0.0000   170.0000 </r>
       <r>    -8.7220     0.0000   170.0000 </r>
       <r>    -8.5065     0.0000   170.0000 </r>
       <r>    -8.2910     0.0000   170.0000 </r>
       <r>    -8.0755     0.0000   170.0000 </r>
       <r>    -7.8599     0.0000   170.0000 </r>
       <r>    -7.6444     0.0383   170.0083 </r>
       <r>    -7.4289     2.2333   170.4895 </r>
       <r>    -7.2134     6.1729   171.8199 </r>
       <r>    -6.9979     4.0597   172.6948 </r>
       <r>    -6.7824    17.1337   176.3872 </r>
       <r>    -6.5669    11.0542   178.7695 </r>
       <r>    -6.3514    11.9252   181.3395 </r>
       <r>    -6.1359    17.8369   185.1835 </r>
       <r>    -5.9204    25.5798   190.6962 </r>
       <r>    -5.7048    14.4553   193.8115 </r>
       <r>    -5.4893     9.8119   195.9260 </r>
       <r>    -5.2738     0.3431   196.0000 </r>
       <r>    -5.0583     0.0000   196.0000 </r>
       <r>    -4.8428     0.0000   196.0000 </r>
       <r>    -4.6273     0.0000   196.0000 </r>
       <r>    -4.4118     0.0000   196.0000 </r>
       <r>    -4.1963     0.0000   196.0000 </r>
       <r>    -3.9808     0.0116   196.0025 </r>
       <r>    -3.7653     1.8047   196.3914 </r>
       <r>    -3.5497     6.6071   197.8153 </r>
       <r>    -3.3342     4.8042   198.8507 </r>
       <r>    -3.1187     7.8427   200.5409 </r>
       <r>    -2.9032    13.5442   203.4598 </r>
       <r>    -2.6877    22.5457   208.3186 </r>
       <r>    -2.4722    29.6457   214.7075 </r>
       <r>    -2.2567    30.0433   221.1821 </r>
       <r>    -2.0412    19.6381   225.4143 </r>
       <r>    -1.8257    14.1440   228.4625 </r>
       <r>    -1.6102    11.6241   230.9676 </r>
       <r>    -1.3947    10.8045   233.2961 </r>
       <r>    -1.1791     2.9692   233.9360 </r>
       <r>    -0.9636     0.2954   233.9996 </r>
       <r>    -0.7481     0.0018   234.0000 </r>
       <r>    -0.5326     0.0000   234.0000 </r>
       <r>    -0.3171     0.0000   234.0000 </r>
       <r>    -0.1016     0.0000   234.0000 </r>
       <r>     0.1139     0.0000   234.0000 </r>
       <r>     0.3294     0.0000   234.0000 </r>
       <r>     0.5449     0.0302   234.0065 </r>
       <r>     0.7604     0.8236   234.1840 </r>
       <r>     0.9760     2.6786   234.7613 </r>
       <r>     1.1915     8.7000   236.6362 </r>
       <r>     1.4070     9.1996   238.6188 </r>
       <r>     1.6225    14.0209   241.6404 </r>
       <r>     1.8380    16.7543   245.2512 </r>
       <r>     2.0535    20.8538   249.7454 </r>
       <r>     2.2690    26.4869   255.4535 </r>
       <r>     2.4845    25.8112   261.0161 </r>
       <r>     2.7000    26.8874   266.8106 </r>
       <r>     2.9155    31.7061   273.6436 </r>
       <r>     3.1311    31.1209   280.3504 </r>
       <r>     3.3466    31.7646   287.1960 </r>
       <r>     3.5621    42.9647   296.4553 </r>
       <r>     3.7776    47.2418   306.6364 </r>
       <r>     3.9931    57.8674   319.1074 </r>
       <r>     4.2086    66.6887   333.4794 </r>
       <r>     4.4241    69.3135   348.4172 </r>
       <r>     4.6396    70.6467   363.6422 </r>
       <r>     4.8551    63.3825   377.3018 </r>
       <r>     5.0706    51.4052   388.3801 </r>
       <r>     5.2861    39.1743   396.8225 </r>
       <r>     5.5017    31.7057   403.6554 </r>
       <r>     5.7172    24.8851   409.0184 </r>
       <r>     5.9327    24.5981   414.3195 </r>
       <r>     6.1482    19.3209   418.4834 </r>
       <r>     6.3637    18.0608   422.3756 </r>
       <r>     6.5792    11.3676   424.8255 </r>
       <r>     6.7947     9.0607   426.7781 </r>
       <r>     7.0102    12.8147   429.5398 </r>
       <r>     7.2257    16.0043   432.9889 </r>
       <r>     7.4412    16.3069   436.5032 </r>
       <r>     7.6568    20.0402   440.8221 </r>
       <r>     7.8723    20.7114   445.2856 </r>
       <r>     8.0878    18.6427   449.3033 </r>
       <r>     8.3033    17.4600   453.0661 </r>
       <r>     8.5188    25.9878   458.6667 </r>
       <r>     8.7343    25.4297   464.1470 </r>
       <r>     8.9498    21.0860   468.6913 </r>
       <r>     9.1653    19.2332   472.8362 </r>
       <r>     9.3808    19.0694   476.9458 </r>
       <r>     9.5963    22.1647   481.7225 </r>
       <r>     9.8119    25.5128   487.2208 </r>
       <r>    10.0274    29.3559   493.5473 </r>
       <r>    10.2429    33.2670   500.7166 </r>
       <r>    10.4584    38.6400   509.0439 </r>
       <r>    10.6739    39.2478   517.5022 </r>
       <r>    10.8894    41.5608   526.4589 </r>
       <r>    11.1049    45.6952   536.3067 </r>
       <r>    11.3204    46.0708   546.2354 </r>
       <r>    11.5359    49.4186   556.8856 </r>
       <r>    11.7514    49.9746   567.6556 </r>
       <r>    11.9670    31.0244   574.3417 </r>
       <r>    12.1825     7.6029   575.9802 </r>
       <r>    12.3980     0.0920   576.0000 </r>
       <r>    12.6135     0.0000   576.0000 </r>
       <r>    12.8290     0.0000   576.0000 </r>
       <r>    13.0445     0.0000   576.0000 </r>
       <r>    13.2600     0.0000   576.0000 </r>
       <r>    13.4755     0.0000   576.0000 </r>
       <r>    13.6910     0.0000   576.0000 </r>
       <r>    13.9065     0.0000   576.0000 </r>
       <r>    14.1220     0.0000   576.0000 </r>
       <r>    14.3376     0.0000   576.0000 </r>
       <r>    14.5531     0.0000   576.0000 </r>
       <r>    14.7686     0.0000   576.0000 </r>
       <r>    14.9841     0.0000   576.0000 </r>
      </set>
     </set>
    </array>
   </total>
  </dos>
 </calculation>
 <structure name="finalpos" >
  <crystal>
   <varray name="basis" >
    <v>       8.90599269       0.00550944       0.00732699 </v>
    <v>       0.01147924       8.91697692      -0.00584289 </v>
    <v>       0.03933874      -0.02116996       8.92889520 </v>
   </varray>
   <i name="volume">    709.07978800 </i>
   <varray name="rec_basis" >
    <v>       0.11228444      -0.00014487      -0.00049504 </v>
    <v>      -0.00006959       0.11214589       0.00026620 </v>
    <v>      -0.00009219       0.00007350       0.11199652 </v>
   </varray>
  </crystal>
  <varray name="positions" >
   <v>       0.00017833      -0.00012167       0.99879669 </v>
   <v>       0.25596388       0.99976649       0.24767210 </v>
   <v>       0.24697502       0.49738262       0.25074980 </v>
   <v>       0.50361731       0.49922298       0.99857011 </v>
   <v>       0.50034450       0.24834491       0.74470850 </v>
   <v>      -0.00343355       0.50448186       0.49876566 </v>
   <v>       0.49876288       0.75650387       0.75084583 </v>
   <v>       0.99222672       0.23819896       0.25982215 </v>
   <v>       0.76167208       0.74104287       0.00637443 </v>
   <v>       0.00056913       0.26117633       0.74582659 </v>
   <v>       0.75255932       0.25546902       0.49394510 </v>
   <v>      -0.00217208       0.74415250       0.74936167 </v>
   <v>       0.25408914       0.50139011       0.74498372 </v>
   <v>       0.25357412       0.26118307       0.99017811 </v>
   <v>       0.51050609       0.24965516       0.24342494 </v>
   <v>       0.74443755       0.98827548       0.27423057 </v>
   <v>       0.73832705       0.24254448       0.99429436 </v>
   <v>       0.23658801       0.73959463       0.00268581 </v>
   <v>       0.23868026       0.24597108       0.50587943 </v>
   <v>       0.24830747       0.75668490       0.49854648 </v>
   <v>       0.24747741       0.24810236       0.24733057 </v>
   <v>       0.25552345       0.00084203       0.99362460 </v>
   <v>      -0.00311142       0.24887334       0.00067619 </v>
   <v>       0.75362742       0.24499518       0.24641251 </v>
   <v>       0.75358052       0.99001072       0.02158644 </v>
   <v>       0.50131263       0.98683915       0.22978098 </v>
   <v>      -0.00095839       0.48746418       0.24737351 </v>
   <v>       0.50445432       0.75645197       0.00313234 </v>
   <v>       0.98663685       0.00411662       0.74841453 </v>
   <v>       0.75130931       0.24537908       0.74464669 </v>
   <v>       0.74869761       0.00531743       0.52794926 </v>
   <v>       0.50293465       0.24208040       0.49654834 </v>
   <v>       0.49060811       0.00239935       0.74062640 </v>
   <v>      -0.00100189       0.00417004       0.25355493 </v>
   <v>       0.49543496       0.25166503      -0.00480596 </v>
   <v>       0.25498530       0.74940937       0.24817970 </v>
   <v>       0.24776057       0.49893930       0.99711544 </v>
   <v>       0.99793882       0.74658300       0.00425699 </v>
   <v>       0.75358782       0.74043703       0.25110920 </v>
   <v>       0.75758717       0.49261703       0.01279120 </v>
   <v>       0.49411905       0.49751709       0.24980374 </v>
   <v>       0.24651393       0.25058940       0.74876055 </v>
   <v>       0.26958119       0.00228612       0.50011372 </v>
   <v>       0.99536503       0.25079558       0.50248672 </v>
   <v>       0.24494060       0.75599139       0.75213080 </v>
   <v>       0.25410090       0.50002092       0.50031673 </v>
   <v>       0.99521323       0.75821479       0.50332610 </v>
   <v>       0.00312684       0.50277003       0.74631380 </v>
   <v>       0.75032000       0.75464065       0.75102540 </v>
   <v>       0.74667062       0.49692922       0.50946579 </v>
   <v>       0.49950590       0.75546499       0.50052224 </v>
   <v>       0.50265758       0.50356436       0.74412367 </v>
   <v>       0.52238779       0.01428493       0.98456972 </v>
   <v>      -0.00207027       0.50490058       0.98351181 </v>
   <v>       0.50115855       0.73831355       0.26358198 </v>
   <v>       0.23405797       0.00386793       0.73332075 </v>
   <v>       0.51406995       0.99359301       0.47275846 </v>
   <v>       0.73727930       0.98867734       0.77457039 </v>
   <v>       0.00286693       0.77460330       0.25908915 </v>
   <v>       0.72817462       0.50557459       0.26179157 </v>
   <v>       0.02127480       0.00191505       0.49905127 </v>
   <v>       0.50772402       0.51836067       0.48981789 </v>
   <v>       0.75472930       0.51592116       0.76646519 </v>
   <v>       0.74607405       0.73359085       0.49311680 </v>
  </varray>
 </structure>
</modeling>
