 running on   24 total cores
 distrk:  each k-point on   24 cores,    1 groups
 distr:  one band on    1 cores,   24 groups
 using from now: INCAR     
 vasp.5.4.4.18Apr17-6-g9f103f2a35 (build Oct 18 2021 20:38:43) complex          
  
 POSCAR found type information on POSCAR  Ta W  Nb N  C  Cr Mo
 POSCAR found :  7 types and      64 ions
 scaLAPACK will be used

 ----------------------------------------------------------------------------- 
|                                                                             |
|           W    W    AA    RRRRR   N    N  II  N    N   GGGG   !!!           |
|           W    W   A  A   R    R  NN   N  II  NN   N  G    G  !!!           |
|           W    W  A    A  R    R  N N  N  II  N N  N  G       !!!           |
|           W WW W  AAAAAA  RRRRR   N  N N  II  N  N N  G  GGG   !            |
|           WW  WW  A    A  R   R   N   NN  II  N   NN  G    G                |
|           W    W  A    A  R    R  N    N  II  N    N   GGGG   !!!           |
|                                                                             |
|      For optimal performance we recommend to set                            |
|        NCORE= 4 - approx SQRT( number of cores)                             |
|      NCORE specifies how many cores store one orbital (NPAR=cpu/NCORE).     |
|      This setting can  greatly improve the performance of VASP for DFT.     |
|      The default,   NCORE=1            might be grossly inefficient         |
|      on modern multi-core architectures or massively parallel machines.     |
|      Do your own testing !!!!                                               |
|      Unfortunately you need to use the default for GW and RPA calculations. |
|      (for HF NCORE is supported but not extensively tested yet)             |
|                                                                             |
 ----------------------------------------------------------------------------- 


 ----------------------------------------------------------------------------- 
|                                                                             |
|  ADVICE TO THIS USER RUNNING 'VASP/VAMP'   (HEAR YOUR MASTER'S VOICE ...):  |
|                                                                             |
|      You have a (more or less) 'large supercell' and for larger cells       |
|      it might be more efficient to use real space projection operators      |
|      So try LREAL= Auto  in the INCAR   file.                               |
|      Mind: If you want to do a very accurate calculations keep the          |
|      reciprocal projection scheme          (i.e. LREAL=.FALSE.)             |
|                                                                             |
 ----------------------------------------------------------------------------- 

 LDA part: xc-table for Pade appr. of Perdew
 POSCAR, INCAR and KPOINTS ok, starting setup
 FFT: planning ...
 WAVECAR not read
 entering main loop
       N       E                     dE             d eps       ncg     rms          rms(c)
DAV:   1     0.626480562701E+04    0.62648E+04   -0.20072E+05  8736   0.147E+03
DAV:   2     0.219688383847E+03   -0.60451E+04   -0.57980E+04  9024   0.612E+02
DAV:   3    -0.687803821071E+03   -0.90749E+03   -0.84750E+03 14016   0.211E+02
DAV:   4    -0.772829090104E+03   -0.85025E+02   -0.82174E+02 15168   0.796E+01
DAV:   5    -0.783467425108E+03   -0.10638E+02   -0.10450E+02 17208   0.232E+01    0.677E+01
RMM:   6    -0.829045494604E+03   -0.45578E+02   -0.13881E+03 10104   0.112E+02    0.106E+02
RMM:   7    -0.681960651681E+03    0.14708E+03   -0.27371E+02 12986   0.341E+01    0.460E+01
RMM:   8    -0.661216229083E+03    0.20744E+02   -0.42256E+01 12652   0.175E+01    0.169E+01
RMM:   9    -0.661551068753E+03   -0.33484E+00   -0.13292E+01 13543   0.837E+00    0.226E+01
RMM:  10    -0.658834382702E+03    0.27167E+01   -0.54108E+00 13532   0.612E+00    0.893E+00
RMM:  11    -0.658618905423E+03    0.21548E+00   -0.41077E+00 13510   0.408E+00    0.109E+01
RMM:  12    -0.658419516042E+03    0.19939E+00   -0.15492E+00 12727   0.394E+00    0.883E+00
RMM:  13    -0.658612538048E+03   -0.19302E+00   -0.20109E+00 13216   0.317E+00    0.100E+01
RMM:  14    -0.658161033479E+03    0.45150E+00   -0.61540E-01 12628   0.251E+00    0.325E+00
RMM:  15    -0.658120268859E+03    0.40765E-01   -0.64032E-01 13843   0.126E+00    0.300E+00
RMM:  16    -0.658104471037E+03    0.15798E-01   -0.24083E-01 13960   0.133E+00    0.240E+00
RMM:  17    -0.658096710608E+03    0.77604E-02   -0.38340E-01 14464   0.880E-01    0.933E-01
RMM:  18    -0.658119114720E+03   -0.22404E-01   -0.11127E-01 12284   0.105E+00    0.186E+00
RMM:  19    -0.658112447207E+03    0.66675E-02   -0.11795E-01 13979   0.474E-01    0.827E-01
RMM:  20    -0.658103276165E+03    0.91710E-02   -0.57905E-02 13568   0.492E-01    0.316E-01
RMM:  21    -0.658104598464E+03   -0.13223E-02   -0.38474E-02 13459   0.400E-01    0.118E-01
RMM:  22    -0.658106829130E+03   -0.22307E-02   -0.25679E-02 12320   0.323E-01    0.822E-02
RMM:  23    -0.658107264502E+03   -0.43537E-03   -0.74304E-03 12817   0.175E-01    0.523E-02
RMM:  24    -0.658107869821E+03   -0.60532E-03   -0.66863E-03 12366   0.130E-01    0.263E-02
RMM:  25    -0.658108136001E+03   -0.26618E-03   -0.31777E-03 12108   0.841E-02    0.333E-02
RMM:  26    -0.658108338011E+03   -0.20201E-03   -0.21831E-03 11221   0.678E-02    0.199E-02
RMM:  27    -0.658108414639E+03   -0.76628E-04   -0.84891E-04 10708   0.484E-02    0.122E-02
RMM:  28    -0.658108467669E+03   -0.53030E-04   -0.53917E-04 10050   0.436E-02    0.546E-03
RMM:  29    -0.658108501538E+03   -0.33869E-04   -0.36010E-04  9890   0.295E-02    0.106E-02
RMM:  30    -0.658108518158E+03   -0.16620E-04   -0.16339E-04  9342   0.278E-02    0.231E-03
RMM:  31    -0.658108529858E+03   -0.11699E-04   -0.12112E-04  8837   0.208E-02    0.908E-03
WARNING in EDDRMM: call to ZHEGV failed, returncode =   6  3     11
RMM:  32    -0.658108537257E+03   -0.73996E-05   -0.73223E-05  8262   0.192E-02
   1 F= -.65810854E+03 E0= -.65803121E+03  d E =-.658109E+03
 curvature:   0.00 expect dE= 0.000E+00 dE for cont linesearch  0.000E+00
 trial: gam= 0.00000 g(F)=  0.514E-03 g(S)=  0.270E-01 ort = 0.000E+00 (trialstep = 0.100E+01)
 search vector abs. value=  0.276E-01
 bond charge predicted
       N       E                     dE             d eps       ncg     rms          rms(c)
DAV:   1    -0.658327592785E+03   -0.21906E+00   -0.58876E+00 13104   0.110E+01    0.467E+00
RMM:   2    -0.661380268915E+03   -0.30527E+01   -0.39550E+00 10184   0.749E+00    0.206E+01
RMM:   3    -0.658189360262E+03    0.31909E+01   -0.11603E+00 10456   0.460E+00    0.338E+00
RMM:   4    -0.658148599995E+03    0.40760E-01   -0.12238E-01 11907   0.116E+00    0.262E+00
RMM:   5    -0.658118006510E+03    0.30593E-01   -0.76649E-02 11001   0.888E-01    0.203E+00
RMM:   6    -0.658108747753E+03    0.92588E-02   -0.41798E-02 10610   0.738E-01    0.173E+00
RMM:   7    -0.658096250048E+03    0.12498E-01   -0.28683E-02 11995   0.464E-01    0.956E-01
RMM:   8    -0.658093507971E+03    0.27421E-02   -0.86849E-03 11083   0.311E-01    0.657E-01
RMM:   9    -0.658091251662E+03    0.22563E-02   -0.42332E-03 11924   0.163E-01    0.209E-01
RMM:  10    -0.658091632327E+03   -0.38066E-03   -0.16499E-03 11330   0.107E-01    0.326E-01
RMM:  11    -0.658091189321E+03    0.44301E-03   -0.84693E-04 11887   0.803E-02    0.888E-02
RMM:  12    -0.658091310655E+03   -0.12133E-03   -0.62593E-04 12462   0.455E-02    0.904E-02
RMM:  13    -0.658091375197E+03   -0.64542E-04   -0.24175E-04 10025   0.467E-02    0.102E-01
RMM:  14    -0.658091423029E+03   -0.47832E-04   -0.29004E-04 11373   0.350E-02    0.414E-02
RMM:  15    -0.658091483359E+03   -0.60331E-04   -0.21542E-04 11770   0.309E-02    0.182E-02
RMM:  16    -0.658091500005E+03   -0.16646E-04   -0.11737E-04  9424   0.283E-02    0.122E-02
RMM:  17    -0.658091508987E+03   -0.89817E-05   -0.83175E-05  8411   0.216E-02
   2 F= -.65809151E+03 E0= -.65801515E+03  d E =0.170283E-01
 trial-energy change:    0.017028  1 .order    0.016576   -0.027550    0.060701
 step:   0.3056(harm=  0.3122)  dis= 0.00049  next Energy=  -658.112735 (dE=-0.420E-02)
 bond charge predicted
       N       E                     dE             d eps       ncg     rms          rms(c)
DAV:   1    -0.658229679138E+03   -0.13818E+00   -0.28557E+00 12768   0.760E+00    0.338E+00
RMM:   2    -0.659837805577E+03   -0.16081E+01   -0.14894E+00 10669   0.443E+00    0.144E+01
RMM:   3    -0.658151165274E+03    0.16866E+01   -0.61130E-01 10504   0.330E+00    0.181E+00
RMM:   4    -0.658154452046E+03   -0.32868E-02   -0.72102E-02 11637   0.847E-01    0.251E+00
RMM:   5    -0.658125725816E+03    0.28726E-01   -0.38800E-02 11078   0.633E-01    0.139E+00
RMM:   6    -0.658122910480E+03    0.28153E-02   -0.20137E-02 10657   0.494E-01    0.130E+00
RMM:   7    -0.658114633748E+03    0.82767E-02   -0.12690E-02 11701   0.310E-01    0.529E-01
RMM:   8    -0.658114559959E+03    0.73789E-04   -0.41180E-03 10584   0.222E-01    0.548E-01
RMM:   9    -0.658112709130E+03    0.18508E-02   -0.18663E-03 11286   0.126E-01    0.807E-02
RMM:  10    -0.658112819829E+03   -0.11070E-03   -0.91616E-04 12308   0.633E-02    0.156E-01
RMM:  11    -0.658112725669E+03    0.94160E-04   -0.26424E-04 10148   0.523E-02    0.743E-02
RMM:  12    -0.658112722483E+03    0.31868E-05   -0.22712E-04 11072   0.300E-02    0.441E-02
RMM:  13    -0.658112744494E+03   -0.22012E-04   -0.11608E-04  9324   0.287E-02    0.624E-02
RMM:  14    -0.658112741283E+03    0.32111E-05   -0.89882E-05  8778   0.291E-02
   3 F= -.65811274E+03 E0= -.65803570E+03  d E =-.420403E-02
 curvature:  -0.16 expect dE=-0.181E-03 dE for cont linesearch -0.813E-05
 ZBRENT: interpolating
 opt :   0.2929  next Energy=  -658.112749 (dE=-0.421E-02)
 bond charge predicted
       N       E                     dE             d eps       ncg     rms          rms(c)
DAV:   1    -0.658112778412E+03   -0.33917E-04   -0.10989E-03 14040   0.144E-01    0.680E-02
RMM:   2    -0.658113416895E+03   -0.63848E-03   -0.67348E-04  9222   0.951E-02    0.300E-01
RMM:   3    -0.658112757474E+03    0.65942E-03   -0.25559E-04  8459   0.699E-02    0.501E-02
RMM:   4    -0.658112749256E+03    0.82172E-05   -0.25732E-05  5811   0.204E-02
   4 F= -.65811275E+03 E0= -.65803571E+03  d E =-.421200E-02
 curvature:  -0.15 expect dE=-0.160E-03 dE for cont linesearch -0.941E-05
 ZBRENT: bisectioning
 opt :   0.1465  next Energy=  -658.113056 (dE=-0.452E-02)
 bond charge predicted
       N       E                     dE             d eps       ncg     rms          rms(c)
DAV:   1    -0.658116904811E+03   -0.41473E-02   -0.12528E-01 12768   0.159E+00    0.713E-01
RMM:   2    -0.658190394500E+03   -0.73490E-01   -0.74567E-02 10411   0.101E+00    0.320E+00
RMM:   3    -0.658114190000E+03    0.76204E-01   -0.27787E-02 10317   0.703E-01    0.549E-01
RMM:   4    -0.658113080756E+03    0.11092E-02   -0.29359E-03 11120   0.184E-01    0.453E-01
RMM:   5    -0.658112582830E+03    0.49793E-03   -0.18395E-03 10816   0.134E-01    0.387E-01
RMM:   6    -0.658111942123E+03    0.64071E-03   -0.96347E-04 10201   0.120E-01    0.216E-01
RMM:   7    -0.658111708174E+03    0.23395E-03   -0.63002E-04 11566   0.653E-02    0.126E-01
RMM:   8    -0.658111665903E+03    0.42271E-04   -0.18234E-04  8556   0.576E-02    0.101E-01
RMM:   9    -0.658111601031E+03    0.64872E-04   -0.83895E-05  7287   0.258E-02    0.269E-02
RMM:  10    -0.658111607957E+03   -0.69257E-05   -0.31395E-05  6085   0.218E-02
   5 F= -.65811161E+03 E0= -.65803440E+03  d E =-.307070E-02
 curvature:  -4.77 expect dE=-0.346E-01 dE for cont linesearch -0.334E-01
 ZBRENT: interpolating
 opt :   0.2801  next Energy=  -658.112758 (dE=-0.422E-02)
 bond charge predicted
       N       E                     dE             d eps       ncg     rms          rms(c)
DAV:   1    -0.658116984611E+03   -0.53836E-02   -0.10558E-01 12768   0.146E+00    0.636E-01
RMM:   2    -0.658175203206E+03   -0.58219E-01   -0.63268E-02 10459   0.935E-01    0.288E+00
RMM:   3    -0.658114717815E+03    0.60485E-01   -0.21947E-02 10412   0.626E-01    0.482E-01
RMM:   4    -0.658113832747E+03    0.88507E-03   -0.23551E-03 11531   0.168E-01    0.394E-01
RMM:   5    -0.658113496677E+03    0.33607E-03   -0.15198E-03 11191   0.125E-01    0.364E-01
RMM:   6    -0.658112947027E+03    0.54965E-03   -0.81958E-04 10136   0.109E-01    0.199E-01
RMM:   7    -0.658112800229E+03    0.14680E-03   -0.53889E-04 10839   0.618E-02    0.139E-01
RMM:   8    -0.658112732180E+03    0.68049E-04   -0.15449E-04  8073   0.549E-02    0.875E-02
RMM:   9    -0.658112693329E+03    0.38851E-04   -0.64883E-05  6257   0.233E-02    0.308E-02
RMM:  10    -0.658112700746E+03   -0.74173E-05   -0.22487E-05  5701   0.221E-02
   6 F= -.65811270E+03 E0= -.65803566E+03  d E =-.416349E-02
 curvature:  -0.00 expect dE=-0.138E-05 dE for cont linesearch -0.313E-06
 ZBRENT: interpolating
 opt :   0.2886  next Energy=  -658.112752 (dE=-0.421E-02)
 bond charge predicted
       N       E                     dE             d eps       ncg     rms          rms(c)
DAV:   1    -0.658112725351E+03   -0.32022E-04   -0.49166E-04 12744   0.102E-01    0.455E-02
RMM:   2    -0.658113040365E+03   -0.31501E-03   -0.29243E-04  8179   0.626E-02    0.206E-01
RMM:   3    -0.658112721400E+03    0.31897E-03   -0.11100E-04  7191   0.468E-02    0.340E-02
RMM:   4    -0.658112717118E+03    0.42816E-05   -0.10522E-05  5016   0.137E-02
   7 F= -.65811272E+03 E0= -.65803567E+03  d E =-.417986E-02
 curvature:  -0.01 expect dE=-0.150E-04 dE for cont linesearch -0.519E-05
 ZBRENT: interpolating
 opt :   0.2918  next Energy=  -658.112750 (dE=-0.421E-02)
 bond charge predicted
       N       E                     dE             d eps       ncg     rms          rms(c)
DAV:   1    -0.658112725348E+03   -0.39485E-05   -0.59352E-05  9288   0.377E-02    0.258E-02
RMM:   2    -0.658112881193E+03   -0.15584E-03   -0.86873E-05  6687   0.346E-02    0.168E-01
RMM:   3    -0.658112731709E+03    0.14948E-03   -0.41865E-05  5969   0.300E-02    0.341E-02
RMM:   4    -0.658112724744E+03    0.69657E-05   -0.66838E-06  4568   0.103E-02
   8 F= -.65811272E+03 E0= -.65803568E+03  d E =-.418749E-02
 curvature:  -0.00 expect dE=-0.193E-05 dE for cont linesearch -0.488E-06
 ZBRENT: interpolating
 opt :   0.2925  next Energy=  -658.112749 (dE=-0.421E-02)
 bond charge predicted
       N       E                     dE             d eps       ncg     rms          rms(c)
DAV:   1    -0.658112726470E+03    0.52392E-05   -0.62803E-06  5376   0.164E-02    0.101E-02
RMM:   2    -0.658112747451E+03   -0.20981E-04   -0.11964E-05  5423   0.159E-02    0.574E-02
RMM:   3    -0.658112728133E+03    0.19318E-04   -0.71556E-06  4952   0.136E-02    0.885E-03
RMM:   4    -0.658112728174E+03   -0.41022E-07   -0.18641E-06  4386   0.435E-03
   9 F= -.65811273E+03 E0= -.65803569E+03  d E =-.419092E-02
 curvature:  -0.00 expect dE=-0.885E-06 dE for cont linesearch -0.140E-06
 ZBRENT: interpolating
 opt :   0.2928  next Energy=  -658.112749 (dE=-0.421E-02)
 bond charge predicted
       N       E                     dE             d eps       ncg     rms          rms(c)
DAV:   1    -0.658112728835E+03   -0.70232E-06   -0.20792E-06  4848   0.963E-03    0.536E-03
RMM:   2    -0.658112736225E+03   -0.73898E-05   -0.32934E-06  4480   0.826E-03
  10 F= -.65811274E+03 E0= -.65803569E+03  d E =-.419897E-02
 curvature:  -0.00 expect dE=-0.557E-06 dE for cont linesearch -0.371E-09
 trial: gam= 0.04256 g(F)=  0.872E-03 g(S)=  0.163E-03 ort =-0.138E-03 (trialstep = 0.859E+00)
 search vector abs. value=  0.107E-02
 bond charge predicted
       N       E                     dE             d eps       ncg     rms          rms(c)
DAV:   1    -0.658111005099E+03    0.17237E-02   -0.14084E-01  9408   0.183E+00    0.130E-01
RMM:   2    -0.658113471414E+03   -0.24663E-02   -0.26770E-02 13926   0.417E-01    0.211E-01
RMM:   3    -0.658113539986E+03   -0.68572E-04   -0.18674E-03  9709   0.206E-01    0.217E-01
RMM:   4    -0.658113470297E+03    0.69689E-04   -0.70373E-04 11960   0.808E-02    0.177E-01
RMM:   5    -0.658113277419E+03    0.19288E-03   -0.19292E-04  8162   0.531E-02    0.593E-02
RMM:   6    -0.658113348589E+03   -0.71170E-04   -0.18701E-04  9340   0.399E-02    0.128E-01
RMM:   7    -0.658113250768E+03    0.97821E-04   -0.10046E-04  7730   0.344E-02    0.321E-02
RMM:   8    -0.658113258882E+03   -0.81137E-05   -0.63034E-05  6681   0.225E-02
  11 F= -.65811326E+03 E0= -.65803615E+03  d E =-.522657E-03
 trial-energy change:   -0.000523  1 .order   -0.000534   -0.000883   -0.000186
 step:   1.0871(harm=  1.0871)  dis= 0.00187  next Energy=  -658.113295 (dE=-0.559E-03)
 bond charge predicted
       N       E                     dE             d eps       ncg     rms          rms(c)
DAV:   1    -0.658113092420E+03    0.15835E-03   -0.98992E-03 10080   0.491E-01    0.356E-02
RMM:   2    -0.658113286566E+03   -0.19415E-03   -0.19576E-03 13527   0.112E-01    0.781E-02
RMM:   3    -0.658113273643E+03    0.12923E-04   -0.16241E-04  7858   0.637E-02    0.507E-02
RMM:   4    -0.658113279354E+03   -0.57116E-05   -0.70790E-05  7058   0.260E-02
  12 F= -.65811328E+03 E0= -.65803617E+03  d E =-.543129E-03
 curvature:  -0.57 expect dE=-0.116E-02 dE for cont linesearch -0.479E-06
 trial: gam= 2.25708 g(F)=  0.387E-03 g(S)=  0.166E-02 ort =-0.301E-04 (trialstep = 0.132E+00)
 search vector abs. value=  0.738E-02
 bond charge predicted
       N       E                     dE             d eps       ncg     rms          rms(c)
DAV:   1    -0.658113387288E+03   -0.11365E-03   -0.24026E-02 12408   0.749E-01    0.176E-01
RMM:   2    -0.658117597590E+03   -0.42103E-02   -0.67454E-03 10962   0.307E-01    0.753E-01
RMM:   3    -0.658113425309E+03    0.41723E-02   -0.18403E-03 10237   0.175E-01    0.126E-01
RMM:   4    -0.658113430558E+03   -0.52493E-05   -0.39578E-04 10485   0.668E-02    0.139E-01
RMM:   5    -0.658113323964E+03    0.10659E-03   -0.15702E-04  9384   0.416E-02    0.576E-02
RMM:   6    -0.658113339300E+03   -0.15335E-04   -0.84734E-05  7052   0.329E-02    0.867E-02
RMM:   7    -0.658113304596E+03    0.34704E-04   -0.43597E-05  5992   0.247E-02    0.342E-02
RMM:   8    -0.658113309157E+03   -0.45615E-05   -0.27551E-05  5904   0.208E-02
  13 F= -.65811331E+03 E0= -.65803619E+03  d E =-.298032E-04
 trial-energy change:   -0.000030  1 .order   -0.000140   -0.000260   -0.000020
 step:   0.1427(harm=  0.1427)  dis= 0.00046  next Energy=  -658.113421 (dE=-0.141E-03)
 bond charge predicted
       N       E                     dE             d eps       ncg     rms          rms(c)
DAV:   1    -0.658113302365E+03    0.22312E-05   -0.21456E-04 13440   0.744E-02    0.193E-02
RMM:   2    -0.658113378260E+03   -0.75895E-04   -0.66632E-05  6512   0.303E-02    0.108E-01
RMM:   3    -0.658113306319E+03    0.71941E-04   -0.28211E-05  5753   0.283E-02    0.212E-02
RMM:   4    -0.658113304261E+03    0.20582E-05   -0.55651E-06  4918   0.891E-03
  14 F= -.65811330E+03 E0= -.65803619E+03  d E =-.249066E-04
 curvature:  -0.27 expect dE=-0.207E-03 dE for cont linesearch -0.829E-07
 trial: gam= 0.07113 g(F)=  0.465E-03 g(S)=  0.314E-03 ort = 0.479E-04 (trialstep = 0.134E+00)
 search vector abs. value=  0.823E-03
 bond charge predicted
       N       E                     dE             d eps       ncg     rms          rms(c)
DAV:   1    -0.658113379256E+03   -0.72937E-04   -0.24093E-03 10320   0.231E-01    0.315E-02
RMM:   2    -0.658113485391E+03   -0.10613E-03   -0.47279E-04 12204   0.617E-02    0.107E-01
RMM:   3    -0.658113404697E+03    0.80694E-04   -0.59151E-05  6351   0.388E-02    0.312E-02
RMM:   4    -0.658113410843E+03   -0.61464E-05   -0.20355E-05  5672   0.191E-02
  15 F= -.65811341E+03 E0= -.65803630E+03  d E =-.106582E-03
 ZBRENT: can't locate minimum, use default step
 trial-energy change:   -0.000107  1 .order   -0.000100   -0.000105   -0.000094
 step:   0.5351(harm=  1.3869)  dis= 0.00060  next Energy=  -658.113846 (dE=-0.542E-03)
 bond charge predicted
       N       E                     dE             d eps       ncg     rms          rms(c)
DAV:   1    -0.658113384933E+03    0.19763E-04   -0.21606E-02  9984   0.692E-01    0.928E-02
RMM:   2    -0.658114145538E+03   -0.76060E-03   -0.42345E-03 13592   0.180E-01    0.273E-01
RMM:   3    -0.658113590498E+03    0.55504E-03   -0.50537E-04  9248   0.999E-02    0.664E-02
RMM:   4    -0.658113665310E+03   -0.74813E-04   -0.24843E-04  9754   0.463E-02    0.136E-01
RMM:   5    -0.658113557150E+03    0.10816E-03   -0.83486E-05  6836   0.360E-02    0.355E-02
RMM:   6    -0.658113548765E+03    0.83848E-05   -0.49814E-05  6704   0.208E-02
  16 F= -.65811355E+03 E0= -.65803647E+03  d E =-.244504E-03
 curvature:  -0.39 expect dE=-0.735E-04 dE for cont linesearch -0.249E-04
 ZBRENT: extrapolating
 opt :   0.7269  next Energy=  -658.113571 (dE=-0.266E-03)
 bond charge predicted
       N       E                     dE             d eps       ncg     rms          rms(c)
DAV:   1    -0.658113522273E+03    0.34877E-04   -0.49688E-03 11904   0.335E-01    0.555E-02
RMM:   2    -0.658113988297E+03   -0.46602E-03   -0.10826E-03 11315   0.106E-01    0.258E-01
RMM:   3    -0.658113560876E+03    0.42742E-03   -0.22873E-04  8033   0.669E-02    0.427E-02
RMM:   4    -0.658113569295E+03   -0.84192E-05   -0.69431E-05  7130   0.275E-02
  17 F= -.65811357E+03 E0= -.65803649E+03  d E =-.265035E-03
 curvature:  -0.35 expect dE=-0.748E-04 dE for cont linesearch -0.532E-05
 ZBRENT: increasing intervall
 opt :   1.1106  next Energy=  -658.113568 (dE=-0.264E-03)
 bond charge predicted
       N       E                     dE             d eps       ncg     rms          rms(c)
DAV:   1    -0.658113323296E+03    0.23758E-03   -0.19763E-02 10560   0.661E-01    0.108E-01
RMM:   2    -0.658114954335E+03   -0.16310E-02   -0.44196E-03 12595   0.196E-01    0.477E-01
RMM:   3    -0.658113527528E+03    0.14268E-02   -0.77235E-04  9394   0.117E-01    0.121E-01
RMM:   4    -0.658113516450E+03    0.11078E-04   -0.27809E-04  9669   0.518E-02    0.108E-01
RMM:   5    -0.658113485540E+03    0.30910E-04   -0.11013E-04  7966   0.333E-02    0.896E-02
RMM:   6    -0.658113439285E+03    0.46255E-04   -0.54522E-05  6236   0.288E-02    0.324E-02
RMM:   7    -0.658113439986E+03   -0.70110E-06   -0.36008E-05  6128   0.194E-02
  18 F= -.65811344E+03 E0= -.65803638E+03  d E =-.135725E-03
 curvature:   0.09 expect dE= 0.855E-04 dE for cont linesearch  0.227E-04
 ZBRENT: bracketing found
 ZBRENT: interpolating
 opt :   0.8015  next Energy=  -658.113573 (dE=-0.269E-03)
 bond charge predicted
       N       E                     dE             d eps       ncg     rms          rms(c)
DAV:   1    -0.658113457332E+03   -0.18047E-04   -0.13205E-02 10632   0.539E-01    0.705E-02
RMM:   2    -0.658113941535E+03   -0.48420E-03   -0.24591E-03 13296   0.141E-01    0.231E-01
RMM:   3    -0.658113578759E+03    0.36278E-03   -0.29523E-04  8585   0.788E-02    0.561E-02
RMM:   4    -0.658113621604E+03   -0.42845E-04   -0.11131E-04  7623   0.378E-02    0.109E-01
RMM:   5    -0.658113561005E+03    0.60599E-04   -0.48740E-05  6125   0.279E-02    0.504E-02
RMM:   6    -0.658113557145E+03    0.38594E-05   -0.26312E-05  5768   0.237E-02
  19 F= -.65811356E+03 E0= -.65803648E+03  d E =-.252885E-03
 curvature:  -0.02 expect dE=-0.904E-05 dE for cont linesearch -0.804E-06
 ZBRENT: interpolating
 opt :   0.7534  next Energy=  -658.113571 (dE=-0.267E-03)
 bond charge predicted
       N       E                     dE             d eps       ncg     rms          rms(c)
DAV:   1    -0.658113553061E+03    0.79436E-05   -0.36211E-04 13776   0.968E-02    0.223E-02
RMM:   2    -0.658113667795E+03   -0.11473E-03   -0.99555E-05  7048   0.348E-02    0.140E-01
RMM:   3    -0.658113554896E+03    0.11290E-03   -0.35881E-05  5866   0.303E-02    0.200E-02
RMM:   4    -0.658113553005E+03    0.18908E-05   -0.63067E-06  4577   0.107E-02
  20 F= -.65811355E+03 E0= -.65803647E+03  d E =-.248744E-03
 curvature:  -0.03 expect dE=-0.195E-04 dE for cont linesearch -0.757E-06
 ZBRENT: interpolating
 opt :   0.7385  next Energy=  -658.113570 (dE=-0.266E-03)
 bond charge predicted
       N       E                     dE             d eps       ncg     rms          rms(c)
DAV:   1    -0.658113553243E+03    0.16529E-05   -0.31359E-05  7152   0.346E-02    0.184E-02
RMM:   2    -0.658113641949E+03   -0.88706E-04   -0.62499E-05  6612   0.339E-02    0.131E-01
RMM:   3    -0.658113554676E+03    0.87273E-04   -0.25812E-05  5884   0.246E-02    0.213E-02
RMM:   4    -0.658113552160E+03    0.25163E-05   -0.43756E-06  4440   0.806E-03
  21 F= -.65811355E+03 E0= -.65803648E+03  d E =-.247899E-03
 curvature:  -0.03 expect dE=-0.127E-04 dE for cont linesearch -0.103E-06
 trial: gam= 0.72609 g(F)=  0.199E-03 g(S)=  0.301E-03 ort =-0.578E-04 (trialstep = 0.246E+00)
 search vector abs. value=  0.851E-03
 bond charge predicted
       N       E                     dE             d eps       ncg     rms          rms(c)
DAV:   1    -0.658113541650E+03    0.13026E-04   -0.96178E-03 12240   0.526E-01    0.879E-02
RMM:   2    -0.658114800209E+03   -0.12586E-02   -0.26643E-03 11077   0.178E-01    0.395E-01
RMM:   3    -0.658113662670E+03    0.11375E-02   -0.57632E-04  9211   0.929E-02    0.692E-02
RMM:   4    -0.658113655254E+03    0.74157E-05   -0.12479E-04  8238   0.380E-02    0.616E-02
RMM:   5    -0.658113641423E+03    0.13831E-04   -0.30702E-05  5879   0.221E-02    0.475E-02
RMM:   6    -0.658113631710E+03    0.97133E-05   -0.16348E-05  5560   0.197E-02
  22 F= -.65811363E+03 E0= -.65803654E+03  d E =-.795499E-04
 trial-energy change:   -0.000080  1 .order   -0.000083   -0.000113   -0.000054
 step:   0.4692(harm=  0.4692)  dis= 0.00063  next Energy=  -658.113660 (dE=-0.108E-03)
 bond charge predicted
       N       E                     dE             d eps       ncg     rms          rms(c)
DAV:   1    -0.658113593185E+03    0.48237E-04   -0.80261E-03 12600   0.476E-01    0.827E-02
RMM:   2    -0.658114690528E+03   -0.10973E-02   -0.21683E-03 11000   0.161E-01    0.379E-01
RMM:   3    -0.658113678460E+03    0.10121E-02   -0.49514E-04  8985   0.914E-02    0.681E-02
RMM:   4    -0.658113672395E+03    0.60645E-05   -0.11079E-04  8163   0.351E-02    0.597E-02
RMM:   5    -0.658113664160E+03    0.82352E-05   -0.29693E-05  5820   0.211E-02
  23 F= -.65811366E+03 E0= -.65803660E+03  d E =-.112000E-03
 curvature:  -0.43 expect dE=-0.145E-03 dE for cont linesearch -0.311E-05
 ZBRENT: increasing intervall
 opt :   0.9151  next Energy=  -658.113637 (dE=-0.843E-04)
 bond charge predicted
       N       E                     dE             d eps       ncg     rms          rms(c)
DAV:   1    -0.658113292075E+03    0.38032E-03   -0.31837E-02 12192   0.951E-01    0.157E-01
RMM:   2    -0.658117100679E+03   -0.38086E-02   -0.85517E-03 11214   0.316E-01    0.685E-01
RMM:   3    -0.658113654849E+03    0.34458E-02   -0.18148E-03 10190   0.162E-01    0.102E-01
RMM:   4    -0.658113679769E+03   -0.24921E-04   -0.48222E-04 10815   0.648E-02    0.120E-01
RMM:   5    -0.658113587943E+03    0.91827E-04   -0.10024E-04  7660   0.371E-02    0.437E-02
RMM:   6    -0.658113600528E+03   -0.12585E-04   -0.64224E-05  6575   0.283E-02    0.740E-02
RMM:   7    -0.658113570894E+03    0.29634E-04   -0.34028E-05  5827   0.246E-02    0.290E-02
RMM:   8    -0.658113579465E+03   -0.85711E-05   -0.24794E-05  5719   0.195E-02
  24 F= -.65811358E+03 E0= -.65803648E+03  d E =-.273050E-04
 curvature:   3.87 expect dE= 0.364E-02 dE for cont linesearch  0.548E-03
 ZBRENT: bracketing found
 ZBRENT: interpolating
 opt :   0.5511  next Energy=  -658.113667 (dE=-0.115E-03)
 bond charge predicted
       N       E                     dE             d eps       ncg     rms          rms(c)
DAV:   1    -0.658113469732E+03    0.10116E-03   -0.21906E-02 12480   0.782E-01    0.122E-01
RMM:   2    -0.658115732895E+03   -0.22632E-02   -0.52601E-03 11253   0.247E-01    0.525E-01
RMM:   3    -0.658113682307E+03    0.20506E-02   -0.10725E-03 10022   0.135E-01    0.796E-02
RMM:   4    -0.658113709797E+03   -0.27490E-04   -0.31348E-04 10279   0.536E-02    0.102E-01
RMM:   5    -0.658113646789E+03    0.63008E-04   -0.59130E-05  6760   0.300E-02    0.407E-02
RMM:   6    -0.658113652490E+03   -0.57006E-05   -0.31467E-05  5878   0.247E-02
  25 F= -.65811365E+03 E0= -.65803659E+03  d E =-.100330E-03
 curvature:  -0.02 expect dE=-0.166E-04 dE for cont linesearch -0.445E-06
 ZBRENT: interpolating
 opt :   0.5000  next Energy=  -658.113665 (dE=-0.113E-03)
 bond charge predicted
       N       E                     dE             d eps       ncg     rms          rms(c)
DAV:   1    -0.658113640541E+03    0.62485E-05   -0.50312E-04 13944   0.120E-01    0.371E-02
RMM:   2    -0.658113987770E+03   -0.34723E-03   -0.26697E-04  8105   0.559E-02    0.253E-01
RMM:   3    -0.658113652138E+03    0.33563E-03   -0.10377E-04  6862   0.451E-02    0.444E-02
RMM:   4    -0.658113639944E+03    0.12194E-04   -0.11852E-05  5222   0.152E-02    0.173E-02
RMM:   5    -0.658113640717E+03   -0.77379E-06   -0.53776E-06  4486   0.118E-02
  26 F= -.65811364E+03 E0= -.65803656E+03  d E =-.885577E-04
 curvature:  -0.06 expect dE=-0.344E-04 dE for cont linesearch -0.572E-06
 trial: gam= 1.04182 g(F)=  0.204E-03 g(S)=  0.362E-03 ort =-0.895E-04 (trialstep = 0.194E+00)
 search vector abs. value=  0.130E-02
 bond charge predicted
       N       E                     dE             d eps       ncg     rms          rms(c)
DAV:   1    -0.658113519235E+03    0.12071E-03   -0.92992E-03  9816   0.540E-01    0.288E-02
RMM:   2    -0.658113720155E+03   -0.20092E-03   -0.20474E-03 13306   0.112E-01    0.460E-02
RMM:   3    -0.658113721284E+03   -0.11285E-05   -0.11970E-04  7403   0.570E-02    0.428E-02
RMM:   4    -0.658113719869E+03    0.14142E-05   -0.38662E-05  6012   0.225E-02
  27 F= -.65811372E+03 E0= -.65803666E+03  d E =-.791521E-04
 trial-energy change:   -0.000079  1 .order   -0.000067   -0.000092   -0.000041
 step:   0.3543(harm=  0.3543)  dis= 0.00055  next Energy=  -658.113724 (dE=-0.837E-04)
 bond charge predicted
       N       E                     dE             d eps       ncg     rms          rms(c)
DAV:   1    -0.658113624572E+03    0.96712E-04   -0.65443E-03  9840   0.448E-01    0.262E-02
RMM:   2    -0.658113784672E+03   -0.16010E-03   -0.14725E-03 13065   0.939E-02    0.701E-02
RMM:   3    -0.658113767179E+03    0.17494E-04   -0.10200E-04  6890   0.542E-02    0.326E-02
RMM:   4    -0.658113765048E+03    0.21308E-05   -0.34202E-05  6105   0.192E-02
  28 F= -.65811377E+03 E0= -.65803672E+03  d E =-.124331E-03
 curvature:  -0.49 expect dE=-0.204E-03 dE for cont linesearch -0.107E-04
 ZBRENT: increasing intervall
 opt :   0.6751  next Energy=  -658.113805 (dE=-0.164E-03)
 bond charge predicted
       N       E                     dE             d eps       ncg     rms          rms(c)
DAV:   1    -0.658113279206E+03    0.48797E-03   -0.25683E-02  9720   0.892E-01    0.503E-02
RMM:   2    -0.658113965930E+03   -0.68672E-03   -0.58212E-03 13667   0.187E-01    0.179E-01
RMM:   3    -0.658113835831E+03    0.13010E-03   -0.38476E-04  8436   0.959E-02    0.562E-02
RMM:   4    -0.658113848083E+03   -0.12252E-04   -0.16472E-04  8766   0.324E-02    0.603E-02
RMM:   5    -0.658113829889E+03    0.18194E-04   -0.29250E-05  5868   0.227E-02    0.289E-02
RMM:   6    -0.658113830493E+03   -0.60365E-06   -0.18227E-05  5714   0.178E-02
  29 F= -.65811383E+03 E0= -.65803682E+03  d E =-.189775E-03
 curvature:  -1.82 expect dE=-0.338E-03 dE for cont linesearch -0.113E-04
 ZBRENT: increasing intervall
 opt :   1.3165  next Energy=  -658.113838 (dE=-0.197E-03)
 bond charge predicted
       N       E                     dE             d eps       ncg     rms          rms(c)
DAV:   1    -0.658111639176E+03    0.21907E-02   -0.10167E-01  9744   0.179E+00    0.964E-02
RMM:   2    -0.658114097416E+03   -0.24582E-02   -0.23199E-02 13810   0.362E-01    0.220E-01
RMM:   3    -0.658113861248E+03    0.23617E-03   -0.13405E-03  9672   0.178E-01    0.105E-01
RMM:   4    -0.658113949923E+03   -0.88675E-04   -0.61264E-04 11104   0.644E-02    0.147E-01
RMM:   5    -0.658113823867E+03    0.12606E-03   -0.11667E-04  7028   0.399E-02    0.396E-02
RMM:   6    -0.658113854325E+03   -0.30458E-04   -0.94886E-05  7326   0.271E-02    0.885E-02
RMM:   7    -0.658113817710E+03    0.36615E-04   -0.50691E-05  6519   0.268E-02    0.290E-02
RMM:   8    -0.658113823962E+03   -0.62521E-05   -0.35347E-05  6099   0.204E-02
  30 F= -.65811382E+03 E0= -.65803686E+03  d E =-.183245E-03
 curvature:  -1.15 expect dE=-0.388E-03 dE for cont linesearch -0.571E-05
 ZBRENT: bracketing found
 ZBRENT: interpolating
 opt :   1.0144  next Energy=  -658.113836 (dE=-0.195E-03)
 bond charge predicted
       N       E                     dE             d eps       ncg     rms          rms(c)
DAV:   1    -0.658113368301E+03    0.44941E-03   -0.22946E-02  9744   0.846E-01    0.451E-02
RMM:   2    -0.658113910020E+03   -0.54172E-03   -0.50988E-03 13536   0.172E-01    0.109E-01
RMM:   3    -0.658113860393E+03    0.49627E-04   -0.29254E-04  8167   0.874E-02    0.550E-02
RMM:   4    -0.658113871799E+03   -0.11406E-04   -0.10045E-04  6823   0.325E-02    0.642E-02
RMM:   5    -0.658113846601E+03    0.25198E-04   -0.23246E-05  5725   0.248E-02    0.187E-02
RMM:   6    -0.658113850938E+03   -0.43370E-05   -0.11663E-05  5395   0.151E-02
  31 F= -.65811385E+03 E0= -.65803686E+03  d E =-.210221E-03
 curvature:  -2.45 expect dE=-0.911E-03 dE for cont linesearch -0.219E-05
 trial: gam= 0.43488 g(F)=  0.176E-03 g(S)=  0.196E-03 ort = 0.341E-04 (trialstep = 0.358E+00)
 search vector abs. value=  0.648E-03
 bond charge predicted
       N       E                     dE             d eps       ncg     rms          rms(c)
DAV:   1    -0.658113767685E+03    0.78916E-04   -0.16252E-02 12600   0.732E-01    0.114E-01
RMM:   2    -0.658115680503E+03   -0.19128E-02   -0.44369E-03 11097   0.222E-01    0.484E-01
RMM:   3    -0.658113944995E+03    0.17355E-02   -0.89900E-04  9643   0.119E-01    0.792E-02
RMM:   4    -0.658113973097E+03   -0.28102E-04   -0.24733E-04  9563   0.485E-02    0.108E-01
RMM:   5    -0.658113916836E+03    0.56262E-04   -0.56390E-05  6257   0.302E-02    0.521E-02
RMM:   6    -0.658113913397E+03    0.34384E-05   -0.33009E-05  5832   0.246E-02
  32 F= -.65811391E+03 E0= -.65803698E+03  d E =-.624592E-04
 trial-energy change:   -0.000062  1 .order   -0.000101   -0.000138   -0.000064
 step:   0.6672(harm=  0.6672)  dis= 0.00053  next Energy=  -658.113980 (dE=-0.129E-03)
 bond charge predicted
       N       E                     dE             d eps       ncg     rms          rms(c)
DAV:   1    -0.658113808076E+03    0.10876E-03   -0.12019E-02 12936   0.631E-01    0.106E-01
RMM:   2    -0.658115520068E+03   -0.17120E-02   -0.35304E-03 10834   0.200E-01    0.467E-01
RMM:   3    -0.658113936427E+03    0.15836E-02   -0.80252E-04  9380   0.118E-01    0.771E-02
RMM:   4    -0.658113946208E+03   -0.97803E-05   -0.20161E-04  9487   0.433E-02    0.877E-02
RMM:   5    -0.658113922511E+03    0.23696E-04   -0.49407E-05  6101   0.283E-02    0.632E-02
RMM:   6    -0.658113904906E+03    0.17606E-04   -0.28552E-05  5796   0.243E-02    0.289E-02
RMM:   7    -0.658113905016E+03   -0.11082E-06   -0.19293E-05  5580   0.162E-02
  33 F= -.65811391E+03 E0= -.65803701E+03  d E =-.540784E-04
 curvature:  -0.56 expect dE=-0.116E-03 dE for cont linesearch -0.162E-07
 trial: gam= 0.56288 g(F)=  0.886E-04 g(S)=  0.119E-03 ort =-0.433E-05 (trialstep = 0.420E+00)
 search vector abs. value=  0.408E-03
 bond charge predicted
       N       E                     dE             d eps       ncg     rms          rms(c)
DAV:   1    -0.658113778701E+03    0.12620E-03   -0.13693E-02 11808   0.626E-01    0.694E-02
RMM:   2    -0.658114740408E+03   -0.96171E-03   -0.31818E-03 12502   0.153E-01    0.338E-01
RMM:   3    -0.658114009581E+03    0.73083E-03   -0.43684E-04  8831   0.896E-02    0.716E-02
RMM:   4    -0.658114002518E+03    0.70630E-05   -0.15762E-04  8502   0.352E-02    0.590E-02
RMM:   5    -0.658113990606E+03    0.11912E-04   -0.33225E-05  5893   0.220E-02    0.482E-02
RMM:   6    -0.658113981459E+03    0.91468E-05   -0.19717E-05  5660   0.217E-02
  34 F= -.65811398E+03 E0= -.65803706E+03  d E =-.764429E-04
 trial-energy change:   -0.000076  1 .order   -0.000065   -0.000086   -0.000044
 step:   0.8667(harm=  0.8667)  dis= 0.00066  next Energy=  -658.113994 (dE=-0.889E-04)
 reached required accuracy - stopping structural energy minimisation
