<?xml version="1.0" encoding="ISO-8859-1"?>
<modeling>
 <generator>
  <i name="program" type="string">vasp </i>
  <i name="version" type="string">5.4.4.18Apr17-6-g9f103f2a35  </i>
  <i name="subversion" type="string">(build Oct 18 2021 20:38:43) complex            parallel </i>
  <i name="platform" type="string">LinuxIFC </i>
  <i name="date" type="string">2024 06 19 </i>
  <i name="time" type="string">10:05:11 </i>
 </generator>
 <incar>
  <i type="string" name="SYSTEM">HECN</i>
  <i type="int" name="ISTART">     0</i>
  <i type="string" name="PREC">normal</i>
  <i type="string" name="ALGO">Fast</i>
  <i type="int" name="ICHARG">     2</i>
  <i type="int" name="NELM">    60</i>
  <i type="int" name="IBRION">     2</i>
  <i name="EDIFF">      0.00001000</i>
  <i name="EDIFFG">     -0.01000000</i>
  <i type="int" name="NSW">   100</i>
  <i type="int" name="ISIF">     3</i>
  <i name="ENCUT">    400.00000000</i>
  <i name="POTIM">      0.50000000</i>
  <i type="logical" name="LREAL"> F  </i>
  <i type="int" name="ISMEAR">     0</i>
  <i name="SIGMA">      0.10000000</i>
  <i type="logical" name="LWAVE"> F  </i>
  <i type="logical" name="LCHARG"> F  </i>
  <v type="int" name="KPOINT_BSE">    -1     0     0     0</v>
  <i type="int" name="NELM">    60</i>
 </incar>
 <structure name="primitive_cell" >
  <crystal>
   <varray name="basis" >
    <v>       8.69269967      -0.01223903       0.00314902 </v>
    <v>      -0.00668986       8.78257822       0.00158039 </v>
    <v>       0.03421837      -0.01340376       8.81137847 </v>
   </varray>
   <i name="volume">    672.69716758 </i>
   <varray name="rec_basis" >
    <v>       0.11503935       0.00008771      -0.00044661 </v>
    <v>       0.00016025       0.11386187       0.00017258 </v>
    <v>      -0.00004114      -0.00002045       0.11348975 </v>
   </varray>
  </crystal>
  <varray name="positions" >
   <v>      -0.00088043      -0.00846432       0.00724521 </v>
   <v>       0.24249407       0.00154585       0.00654817 </v>
   <v>      -0.00375993      -0.00894441      -0.23765265 </v>
   <v>      -0.00139039       0.23878836       0.00982874 </v>
   <v>      -0.25100305      -0.00483566       0.00385935 </v>
   <v>       0.00245881      -0.25784222       0.00186940 </v>
   <v>      -0.00224947      -0.00309624       0.26275672 </v>
   <v>      -0.00360671      -0.23457605       0.24468276 </v>
   <v>      -0.23756204      -0.25744471      -0.00257312 </v>
   <v>      -0.01083454       0.22798644       0.26136158 </v>
   <v>       0.24942840      -0.25344467      -0.00018806 </v>
   <v>       0.25825347      -0.00767741       0.25594780 </v>
   <v>       0.00281560      -0.26288307      -0.24769354 </v>
   <v>      -0.28008397      -0.01639713      -0.22258772 </v>
   <v>       0.22812846       0.00602447      -0.27733709 </v>
   <v>      -0.25273662       0.25591873      -0.01425235 </v>
   <v>       0.01500999       0.23446282      -0.26420373 </v>
   <v>       0.25170808       0.25983221      -0.00823052 </v>
   <v>      -0.26371301      -0.00210488       0.27169068 </v>
   <v>      -0.26082765      -0.24941539       0.24138085 </v>
   <v>      -0.24602935      -0.23783743      -0.25414090 </v>
   <v>       0.25011799      -0.23899903      -0.24903262 </v>
   <v>      -0.24689560       0.25339729       0.23778352 </v>
   <v>       0.25892336      -0.24962097       0.25003624 </v>
   <v>      -0.24524600       0.22484009      -0.25849403 </v>
   <v>       0.24405182       0.24939145       0.25121172 </v>
   <v>       0.25421469       0.24313496      -0.24955490 </v>
   <v>      -0.00248661      -0.47344767      -0.03499863 </v>
   <v>      -0.47245558       0.02284574      -0.01894457 </v>
   <v>       0.01134648       0.01303602      -0.48442799 </v>
   <v>       0.49666095      -0.01491484       0.23446488 </v>
   <v>      -0.23550215       0.49854010       0.00859560 </v>
   <v>      -0.49651905      -0.24843406      -0.00992175 </v>
   <v>       0.23968766      -0.49927297      -0.00006633 </v>
   <v>       0.49187178       0.00014251      -0.24307699 </v>
   <v>      -0.00301739      -0.24396155      -0.49627038 </v>
   <v>      -0.25904824      -0.00160657      -0.47940375 </v>
   <v>       0.00218799       0.48765829       0.25955273 </v>
   <v>       0.49882156       0.24931990       0.00262054 </v>
   <v>      -0.00414402       0.48610160      -0.24873551 </v>
   <v>       0.00314647       0.25657562      -0.49891401 </v>
   <v>       0.26547582       0.00267178      -0.49508325 </v>
   <v>      -0.23898027       0.23359214       0.48126632 </v>
   <v>      -0.25298041      -0.48006918      -0.24200486 </v>
   <v>       0.25221857      -0.49141030       0.24807900 </v>
   <v>      -0.26922103      -0.48445609       0.25879007 </v>
   <v>      -0.49363183       0.24349361       0.25179805 </v>
   <v>      -0.25075212      -0.26339356       0.49147689 </v>
   <v>       0.24848618      -0.24601129      -0.49870726 </v>
   <v>       0.24965388      -0.49815646      -0.24792721 </v>
   <v>      -0.49787265       0.24009207      -0.24399107 </v>
   <v>      -0.49896583      -0.24118401      -0.26042716 </v>
   <v>      -0.49572876      -0.26225293       0.28246979 </v>
   <v>       0.25584128       0.25053887      -0.49445775 </v>
   <v>       0.49850848       0.02311532       0.46561644 </v>
   <v>      -0.49635609      -0.49889983      -0.00613005 </v>
   <v>      -0.00635430      -0.49570401      -0.49554711 </v>
   <v>      -0.49695048      -0.23120985       0.49660334 </v>
   <v>       0.49515288      -0.49444821       0.24558146 </v>
   <v>       0.24997947      -0.49791877      -0.49921373 </v>
   <v>      -0.48995749       0.25058961      -0.49266289 </v>
   <v>       0.49816390      -0.49832425      -0.25520702 </v>
   <v>      -0.25329574       0.48586044      -0.49300478 </v>
   <v>      -0.49376891      -0.48083657       0.49194758 </v>
  </varray>
 </structure>
 <varray name="primitive_index" >
  <v type="int" >        1 </v>
  <v type="int" >       22 </v>
  <v type="int" >       29 </v>
  <v type="int" >       23 </v>
  <v type="int" >       25 </v>
  <v type="int" >       38 </v>
  <v type="int" >       34 </v>
  <v type="int" >       59 </v>
  <v type="int" >        9 </v>
  <v type="int" >        8 </v>
  <v type="int" >       18 </v>
  <v type="int" >        2 </v>
  <v type="int" >       12 </v>
  <v type="int" >       58 </v>
  <v type="int" >       56 </v>
  <v type="int" >       17 </v>
  <v type="int" >       10 </v>
  <v type="int" >       14 </v>
  <v type="int" >       16 </v>
  <v type="int" >       39 </v>
  <v type="int" >       49 </v>
  <v type="int" >       45 </v>
  <v type="int" >       24 </v>
  <v type="int" >       36 </v>
  <v type="int" >       30 </v>
  <v type="int" >       21 </v>
  <v type="int" >       42 </v>
  <v type="int" >       54 </v>
  <v type="int" >       53 </v>
  <v type="int" >       61 </v>
  <v type="int" >       26 </v>
  <v type="int" >       40 </v>
  <v type="int" >       28 </v>
  <v type="int" >       37 </v>
  <v type="int" >       33 </v>
  <v type="int" >       47 </v>
  <v type="int" >       31 </v>
  <v type="int" >       27 </v>
  <v type="int" >       35 </v>
  <v type="int" >       48 </v>
  <v type="int" >       44 </v>
  <v type="int" >       43 </v>
  <v type="int" >       11 </v>
  <v type="int" >       63 </v>
  <v type="int" >        3 </v>
  <v type="int" >       60 </v>
  <v type="int" >       15 </v>
  <v type="int" >       64 </v>
  <v type="int" >       20 </v>
  <v type="int" >       13 </v>
  <v type="int" >        5 </v>
  <v type="int" >        7 </v>
  <v type="int" >       55 </v>
  <v type="int" >       19 </v>
  <v type="int" >       57 </v>
  <v type="int" >        4 </v>
  <v type="int" >        6 </v>
  <v type="int" >       51 </v>
  <v type="int" >       41 </v>
  <v type="int" >       46 </v>
  <v type="int" >       32 </v>
  <v type="int" >       52 </v>
  <v type="int" >       50 </v>
  <v type="int" >       62 </v>
 </varray>
 <kpoints>
  <generation param="Gamma">
   <v type="int" name="divisions">       3        3        3 </v>
   <v name="usershift">      0.00000000       0.00000000       0.00000000 </v>
   <v name="genvec1">      0.33333333      -0.00000000       0.00000000 </v>
   <v name="genvec2">      0.00000000       0.33333333      -0.00000000 </v>
   <v name="genvec3">      0.00000000       0.00000000       0.33333333 </v>
   <v name="shift">      0.00000000       0.00000000       0.00000000 </v>
  </generation>
  <varray name="kpointlist" >
   <v>       0.00000000       0.00000000       0.00000000 </v>
   <v>       0.33333333       0.00000000      -0.00000000 </v>
   <v>      -0.00000000       0.33333333      -0.00000000 </v>
   <v>       0.33333333       0.33333333      -0.00000000 </v>
   <v>      -0.33333333       0.33333333       0.00000000 </v>
   <v>       0.00000000       0.00000000       0.33333333 </v>
   <v>       0.33333333       0.00000000       0.33333333 </v>
   <v>      -0.33333333       0.00000000       0.33333333 </v>
   <v>      -0.00000000       0.33333333       0.33333333 </v>
   <v>       0.33333333       0.33333333       0.33333333 </v>
   <v>      -0.33333333       0.33333333       0.33333333 </v>
   <v>       0.00000000      -0.33333333       0.33333333 </v>
   <v>       0.33333333      -0.33333333       0.33333333 </v>
   <v>      -0.33333333      -0.33333333       0.33333333 </v>
  </varray>
  <varray name="weights" >
   <v>       0.03703704 </v>
   <v>       0.07407407 </v>
   <v>       0.07407407 </v>
   <v>       0.07407407 </v>
   <v>       0.07407407 </v>
   <v>       0.07407407 </v>
   <v>       0.07407407 </v>
   <v>       0.07407407 </v>
   <v>       0.07407407 </v>
   <v>       0.07407407 </v>
   <v>       0.07407407 </v>
   <v>       0.07407407 </v>
   <v>       0.07407407 </v>
   <v>       0.07407407 </v>
  </varray>
 </kpoints>
 <parameters>
  <separator name="general" >
   <i type="string" name="SYSTEM">HECN</i>
   <i type="logical" name="LCOMPAT"> F  </i>
  </separator>
  <separator name="electronic" >
   <i type="string" name="PREC">normal</i>
   <i name="ENMAX">    400.00000000</i>
   <i name="ENAUG">    644.87300000</i>
   <i name="EDIFF">      0.00001000</i>
   <i type="int" name="IALGO">    68</i>
   <i type="int" name="IWAVPR">    11</i>
   <i type="int" name="NBANDS">   312</i>
   <i name="NELECT">    489.00000000</i>
   <i type="int" name="TURBO">     0</i>
   <i type="int" name="IRESTART">     0</i>
   <i type="int" name="NREBOOT">     0</i>
   <i type="int" name="NMIN">     0</i>
   <i name="EREF">      0.00000000</i>
   <separator name="electronic smearing" >
    <i type="int" name="ISMEAR">     0</i>
    <i name="SIGMA">      0.10000000</i>
    <i name="KSPACING">      0.50000000</i>
    <i type="logical" name="KGAMMA"> T  </i>
   </separator>
   <separator name="electronic projectors" >
    <i type="logical" name="LREAL"> F  </i>
    <v name="ROPT">      0.00000000      0.00000000      0.00000000      0.00000000      0.00000000      0.00000000      0.00000000</v>
    <i type="int" name="LMAXPAW">  -100</i>
    <i type="int" name="LMAXMIX">     2</i>
    <i type="logical" name="NLSPLINE"> F  </i>
   </separator>
   <separator name="electronic startup" >
    <i type="int" name="ISTART">     0</i>
    <i type="int" name="ICHARG">     2</i>
    <i type="int" name="INIWAV">     1</i>
   </separator>
   <separator name="electronic spin" >
    <i type="int" name="ISPIN">     1</i>
    <i type="logical" name="LNONCOLLINEAR"> F  </i>
    <v name="MAGMOM">      1.00000000      1.00000000      1.00000000      1.00000000      1.00000000      1.00000000      1.00000000      1.00000000      1.00000000      1.00000000      1.00000000      1.00000000      1.00000000      1.00000000      1.00000000      1.00000000      1.00000000      1.00000000      1.00000000      1.00000000
      1.00000000      1.00000000      1.00000000      1.00000000      1.00000000      1.00000000      1.00000000      1.00000000      1.00000000      1.00000000      1.00000000      1.00000000      1.00000000      1.00000000      1.00000000      1.00000000      1.00000000      1.00000000      1.00000000      1.00000000
      1.00000000      1.00000000      1.00000000      1.00000000      1.00000000      1.00000000      1.00000000      1.00000000      1.00000000      1.00000000      1.00000000      1.00000000      1.00000000      1.00000000      1.00000000      1.00000000      1.00000000      1.00000000      1.00000000      1.00000000
      1.00000000      1.00000000      1.00000000      1.00000000</v>
    <i name="NUPDOWN">     -1.00000000</i>
    <i type="logical" name="LSORBIT"> F  </i>
    <v name="SAXIS">      0.00000000      0.00000000      1.00000000</v>
    <i type="logical" name="LSPIRAL"> F  </i>
    <v name="QSPIRAL">      0.00000000      0.00000000      0.00000000</v>
    <i type="logical" name="LZEROZ"> F  </i>
   </separator>
   <separator name="electronic exchange-correlation" >
    <i type="logical" name="LASPH"> F  </i>
    <i type="logical" name="LMETAGGA"> F  </i>
   </separator>
   <separator name="electronic convergence" >
    <i type="int" name="NELM">    60</i>
    <i type="int" name="NELMDL">    -5</i>
    <i type="int" name="NELMIN">     2</i>
    <i name="ENINI">    400.00000000</i>
    <separator name="electronic convergence detail" >
     <i type="logical" name="LDIAG"> T  </i>
     <i type="logical" name="LSUBROT"> F  </i>
     <i name="WEIMIN">      0.00100000</i>
     <i name="EBREAK">      0.00000001</i>
     <i name="DEPER">      0.30000000</i>
     <i type="int" name="NRMM">     4</i>
     <i name="TIME">      0.40000000</i>
    </separator>
   </separator>
   <separator name="electronic mixer" >
    <i name="AMIX">      0.40000000</i>
    <i name="BMIX">      1.00000000</i>
    <i name="AMIN">      0.10000000</i>
    <i name="AMIX_MAG">      1.60000000</i>
    <i name="BMIX_MAG">      1.00000000</i>
    <separator name="electronic mixer details" >
     <i type="int" name="IMIX">     4</i>
     <i type="logical" name="MIXFIRST"> F  </i>
     <i type="int" name="MAXMIX">   -45</i>
     <i name="WC">    100.00000000</i>
     <i type="int" name="INIMIX">     1</i>
     <i type="int" name="MIXPRE">     1</i>
     <i type="int" name="MREMOVE">     5</i>
    </separator>
   </separator>
   <separator name="electronic dipolcorrection" >
    <i type="logical" name="LDIPOL"> F  </i>
    <i type="logical" name="LMONO"> F  </i>
    <i type="int" name="IDIPOL">     0</i>
    <i name="EPSILON">      1.00000000</i>
    <v name="DIPOL">   -100.00000000   -100.00000000   -100.00000000</v>
    <i name="EFIELD">      0.00000000</i>
   </separator>
  </separator>
  <separator name="grids" >
   <i type="int" name="NGX">    48</i>
   <i type="int" name="NGY">    48</i>
   <i type="int" name="NGZ">    48</i>
   <i type="int" name="NGXF">    96</i>
   <i type="int" name="NGYF">    96</i>
   <i type="int" name="NGZF">    96</i>
   <i type="logical" name="ADDGRID"> F  </i>
  </separator>
  <separator name="ionic" >
   <i type="int" name="NSW">   100</i>
   <i type="int" name="IBRION">     2</i>
   <i type="int" name="MDALGO">     0</i>
   <i type="int" name="ISIF">     3</i>
   <i name="PSTRESS">      0.00000000</i>
   <i name="EDIFFG">     -0.01000000</i>
   <i type="int" name="NFREE">     1</i>
   <i name="POTIM">      0.50000000</i>
   <i name="SMASS">     -3.00000000</i>
   <i name="SCALEE">      1.00000000</i>
  </separator>
  <separator name="ionic md" >
   <i name="TEBEG">      0.00010000</i>
   <i name="TEEND">      0.00010000</i>
   <i type="int" name="NBLOCK">     1</i>
   <i type="int" name="KBLOCK">   100</i>
   <i type="int" name="NPACO">   256</i>
   <i name="APACO">     16.00000000</i>
  </separator>
  <separator name="symmetry" >
   <i type="int" name="ISYM">     2</i>
   <i name="SYMPREC">      0.00001000</i>
  </separator>
  <separator name="dos" >
   <i type="int" name="LORBIT">     0</i>
   <v name="RWIGS">     -1.00000000     -1.00000000     -1.00000000     -1.00000000     -1.00000000     -1.00000000     -1.00000000</v>
   <i type="int" name="NEDOS">   301</i>
   <i name="EMIN">     10.00000000</i>
   <i name="EMAX">    -10.00000000</i>
   <i name="EFERMI">      0.00000000</i>
  </separator>
  <separator name="writing" >
   <i type="int" name="NWRITE">     2</i>
   <i type="logical" name="LWAVE"> F  </i>
   <i type="logical" name="LDOWNSAMPLE"> F  </i>
   <i type="logical" name="LCHARG"> F  </i>
   <i type="logical" name="LPARD"> F  </i>
   <i type="logical" name="LVTOT"> F  </i>
   <i type="logical" name="LVHAR"> F  </i>
   <i type="logical" name="LELF"> F  </i>
   <i type="logical" name="LOPTICS"> F  </i>
   <v name="STM">      0.00000000      0.00000000      0.00000000      0.00000000      0.00000000      0.00000000      0.00000000</v>
  </separator>
  <separator name="performance" >
   <i type="int" name="NPAR">    24</i>
   <i type="int" name="NSIM">     4</i>
   <i type="int" name="NBLK">    -1</i>
   <i type="logical" name="LPLANE"> T  </i>
   <i type="logical" name="LSCALAPACK"> T  </i>
   <i type="logical" name="LSCAAWARE"> F  </i>
   <i type="logical" name="LSCALU"> F  </i>
   <i type="logical" name="LASYNC"> F  </i>
   <i type="logical" name="LORBITALREAL"> F  </i>
  </separator>
  <separator name="miscellaneous" >
   <i type="int" name="IDIOT">     3</i>
   <i type="int" name="ISPECIAL">     0</i>
   <i type="logical" name="LMUSIC"> F  </i>
   <v name="POMASS">    180.94800000    183.85000000     92.91000000     14.00100000     12.01100000     51.99600000     95.94000000</v>
   <v name="DARWINR">      0.00000000      0.00000000      0.00000000      0.00000000      0.00000000      0.00000000      0.00000000</v>
   <v name="DARWINV">      1.00000000      1.00000000      1.00000000      1.00000000      1.00000000      1.00000000      1.00000000</v>
   <i type="logical" name="LCORR"> T  </i>
  </separator>
  <i type="logical" name="GGA_COMPAT"> T  </i>
  <i type="logical" name="LBERRY"> F  </i>
  <i type="int" name="ICORELEVEL">     0</i>
  <i type="logical" name="LDAU"> F  </i>
  <i type="int" name="I_CONSTRAINED_M">     0</i>
  <separator name="electronic exchange-correlation" >
   <i type="string" name="GGA">--</i>
   <i type="int" name="VOSKOWN">     0</i>
   <i type="logical" name="LHFCALC"> F  </i>
   <i type="string" name="PRECFOCK"></i>
   <i type="logical" name="LSYMGRAD"> F  </i>
   <i type="logical" name="LHFONE"> F  </i>
   <i type="logical" name="LRHFCALC"> F  </i>
   <i type="logical" name="LTHOMAS"> F  </i>
   <i type="logical" name="LMODELHF"> F  </i>
   <i name="ENCUT4O">     -1.00000000</i>
   <i type="int" name="EXXOEP">     0</i>
   <i type="int" name="FOURORBIT">     0</i>
   <i name="AEXX">      0.00000000</i>
   <i name="HFALPHA">      0.00000000</i>
   <i name="MCALPHA">      0.00000000</i>
   <i name="ALDAX">      1.00000000</i>
   <i name="AGGAX">      1.00000000</i>
   <i name="ALDAC">      1.00000000</i>
   <i name="AGGAC">      1.00000000</i>
   <i type="int" name="NKREDX">     1</i>
   <i type="int" name="NKREDY">     1</i>
   <i type="int" name="NKREDZ">     1</i>
   <i type="logical" name="SHIFTRED"> F  </i>
   <i type="logical" name="ODDONLY"> F  </i>
   <i type="logical" name="EVENONLY"> F  </i>
   <i type="int" name="LMAXFOCK">     0</i>
   <i type="int" name="NMAXFOCKAE">     0</i>
   <i type="logical" name="LFOCKAEDFT"> F  </i>
   <i name="HFSCREEN">      0.00000000</i>
   <i name="HFSCREENC">      0.00000000</i>
   <i type="int" name="NBANDSGWLOW">     0</i>
  </separator>
  <separator name="vdW DFT" >
   <i type="logical" name="LUSE_VDW"> F  </i>
   <i name="Zab_VDW">     -0.84910000</i>
   <i name="PARAM1">      0.12340000</i>
   <i name="PARAM2">      1.00000000</i>
   <i name="PARAM3">      0.00000000</i>
  </separator>
  <separator name="model GW" >
   <i type="int" name="MODEL_GW">     0</i>
   <i name="MODEL_EPS0">      6.30653595</i>
   <i name="MODEL_ALPHA">      1.00000000</i>
  </separator>
  <separator name="linear response parameters" >
   <i type="logical" name="LEPSILON"> F  </i>
   <i type="logical" name="LRPA"> F  </i>
   <i type="logical" name="LNABLA"> F  </i>
   <i type="logical" name="LVEL"> F  </i>
   <i type="int" name="KINTER">     0</i>
   <i name="CSHIFT">      0.10000000</i>
   <i name="OMEGAMAX">     -1.00000000</i>
   <i name="DEG_THRESHOLD">      0.00200000</i>
   <i name="RTIME">     -0.10000000</i>
   <i name="WPLASMAI">      0.00000000</i>
   <v name="DFIELD">      0.00000000      0.00000000      0.00000000</v>
   <v name="WPLASMA">      0.00000000      0.00000000      0.00000000      0.00000000      0.00000000      0.00000000      0.00000000      0.00000000      0.00000000</v>
  </separator>
  <separator name="orbital magnetization" >
   <i type="logical" name="NUCIND"> F  </i>
   <v name="MAGPOS">      0.00000000      0.00000000      0.00000000</v>
   <i type="logical" name="LNICSALL"> T  </i>
   <i type="logical" name="ORBITALMAG"> F  </i>
   <i type="logical" name="LMAGBLOCH"> F  </i>
   <i type="logical" name="LCHIMAG"> F  </i>
   <i type="logical" name="LGAUGE"> T  </i>
   <i type="int" name="MAGATOM">     0</i>
   <v name="MAGDIPOL">      0.00000000      0.00000000      0.00000000</v>
   <v name="AVECCONST">      0.00000000      0.00000000      0.00000000</v>
  </separator>
  <separator name="response functions" >
   <i type="logical" name="LADDER"> F  </i>
   <i type="logical" name="LRPAFORCE"> F  </i>
   <i type="logical" name="LFXC"> F  </i>
   <i type="logical" name="LHARTREE"> T  </i>
   <i type="int" name="IBSE">     0</i>
   <v type="int" name="KPOINT">    -1     0     0     0</v>
   <i type="logical" name="LTCTE"> F  </i>
   <i type="logical" name="LTETE"> F  </i>
   <i type="logical" name="LTRIPLET"> F  </i>
   <i type="logical" name="LFXCEPS"> F  </i>
   <i type="logical" name="LFXHEG"> F  </i>
   <i type="int" name="NATURALO">     2</i>
   <i type="logical" name="L2ORDER"> F  </i>
   <i type="logical" name="LMP2LT"> F  </i>
   <i type="logical" name="LUSEW"> F  </i>
   <i name="ENCUTGW">     -2.00000000</i>
   <i name="ENCUTGWSOFT">     -2.00000000</i>
   <i name="ENCUTLF">     -1.00000000</i>
   <i type="int" name="LMAXMP2">    -1</i>
   <i name="SCISSOR">      0.00000000</i>
   <i type="int" name="NOMEGA">     0</i>
   <i type="int" name="NOMEGAR">     0</i>
   <i type="int" name="NBANDSGW">    -1</i>
   <i type="int" name="NBANDSO">    -1</i>
   <i type="int" name="NBANDSV">    -1</i>
   <i type="int" name="NELM">    60</i>
   <i type="int" name="NELMHF">     1</i>
   <i type="int" name="DIM">     3</i>
   <i type="int" name="ANTIRES">     0</i>
   <i name="OMEGAMAX">    -30.00000000</i>
   <i name="OMEGAMIN">    -30.00000000</i>
   <i name="OMEGATL">   -200.00000000</i>
   <i type="int" name="OMEGAGRID">   140</i>
   <i name="CSHIFT">     -0.10000000</i>
   <i type="logical" name="SELFENERGY"> F  </i>
   <i type="logical" name="LSPECTRAL"> F  </i>
   <i type="logical" name="LSPECTRALGW"> F  </i>
   <i type="logical" name="LSINGLES"> F  </i>
   <i type="logical" name="LFERMIGW"> F  </i>
   <i type="logical" name="ODDONLYGW"> F  </i>
   <i type="logical" name="EVENONLYGW"> F  </i>
   <i type="int" name="NKREDLFX">     1</i>
   <i type="int" name="NKREDLFY">     1</i>
   <i type="int" name="NKREDLFZ">     1</i>
   <i type="int" name="MAXMEM">  2800</i>
   <i type="int" name="TELESCOPE">     0</i>
   <i type="int" name="TAUPAR">     1</i>
   <i type="int" name="OMEGAPAR">    -1</i>
   <i name="LAMBDA">      1.00000000</i>
  </separator>
  <separator name="External order field" >
   <i name="OFIELD_KAPPA">      0.00000000</i>
   <v name="OFIELD_K">      0.00000000      0.00000000      0.00000000</v>
   <i name="OFIELD_Q6_NEAR">      0.00000000</i>
   <i name="OFIELD_Q6_FAR">      0.00000000</i>
   <i name="OFIELD_A">      0.00000000</i>
  </separator>
 </parameters>
 <atominfo>
  <atoms>      64 </atoms>
  <types>       7 </types>
  <array name="atoms" >
   <dimension dim="1">ion</dimension>
   <field type="string">element</field>
   <field type="int">atomtype</field>
   <set>
    <rc><c>Ta</c><c>   1</c></rc>
    <rc><c>Ta</c><c>   1</c></rc>
    <rc><c>Ta</c><c>   1</c></rc>
    <rc><c>Ta</c><c>   1</c></rc>
    <rc><c>Ta</c><c>   1</c></rc>
    <rc><c>Ta</c><c>   1</c></rc>
    <rc><c>Ta</c><c>   1</c></rc>
    <rc><c>W </c><c>   2</c></rc>
    <rc><c>W </c><c>   2</c></rc>
    <rc><c>W </c><c>   2</c></rc>
    <rc><c>W </c><c>   2</c></rc>
    <rc><c>W </c><c>   2</c></rc>
    <rc><c>W </c><c>   2</c></rc>
    <rc><c>Nb</c><c>   3</c></rc>
    <rc><c>Nb</c><c>   3</c></rc>
    <rc><c>Nb</c><c>   3</c></rc>
    <rc><c>Nb</c><c>   3</c></rc>
    <rc><c>Nb</c><c>   3</c></rc>
    <rc><c>Nb</c><c>   3</c></rc>
    <rc><c>Nb</c><c>   3</c></rc>
    <rc><c>N </c><c>   4</c></rc>
    <rc><c>N </c><c>   4</c></rc>
    <rc><c>N </c><c>   4</c></rc>
    <rc><c>N </c><c>   4</c></rc>
    <rc><c>N </c><c>   4</c></rc>
    <rc><c>N </c><c>   4</c></rc>
    <rc><c>N </c><c>   4</c></rc>
    <rc><c>N </c><c>   4</c></rc>
    <rc><c>N </c><c>   4</c></rc>
    <rc><c>N </c><c>   4</c></rc>
    <rc><c>N </c><c>   4</c></rc>
    <rc><c>N </c><c>   4</c></rc>
    <rc><c>N </c><c>   4</c></rc>
    <rc><c>C </c><c>   5</c></rc>
    <rc><c>C </c><c>   5</c></rc>
    <rc><c>C </c><c>   5</c></rc>
    <rc><c>C </c><c>   5</c></rc>
    <rc><c>C </c><c>   5</c></rc>
    <rc><c>C </c><c>   5</c></rc>
    <rc><c>C </c><c>   5</c></rc>
    <rc><c>C </c><c>   5</c></rc>
    <rc><c>C </c><c>   5</c></rc>
    <rc><c>C </c><c>   5</c></rc>
    <rc><c>C </c><c>   5</c></rc>
    <rc><c>C </c><c>   5</c></rc>
    <rc><c>C </c><c>   5</c></rc>
    <rc><c>C </c><c>   5</c></rc>
    <rc><c>C </c><c>   5</c></rc>
    <rc><c>C </c><c>   5</c></rc>
    <rc><c>C </c><c>   5</c></rc>
    <rc><c>C </c><c>   5</c></rc>
    <rc><c>C </c><c>   5</c></rc>
    <rc><c>Cr</c><c>   6</c></rc>
    <rc><c>Cr</c><c>   6</c></rc>
    <rc><c>Cr</c><c>   6</c></rc>
    <rc><c>Cr</c><c>   6</c></rc>
    <rc><c>Cr</c><c>   6</c></rc>
    <rc><c>Cr</c><c>   6</c></rc>
    <rc><c>Mo</c><c>   7</c></rc>
    <rc><c>Mo</c><c>   7</c></rc>
    <rc><c>Mo</c><c>   7</c></rc>
    <rc><c>Mo</c><c>   7</c></rc>
    <rc><c>Mo</c><c>   7</c></rc>
    <rc><c>Mo</c><c>   7</c></rc>
   </set>
  </array>
  <array name="atomtypes" >
   <dimension dim="1">type</dimension>
   <field type="int">atomspertype</field>
   <field type="string">element</field>
   <field>mass</field>
   <field>valence</field>
   <field type="string">pseudopotential</field>
   <set>
    <rc><c>   7</c><c>Ta</c><c>    180.94800000</c><c>     11.00000000</c><c> PAW_PBE Ta_pv 07Sep2000                </c></rc>
    <rc><c>   6</c><c>W </c><c>    183.85000000</c><c>     12.00000000</c><c> PAW_PBE W_pv 06Sep2000                 </c></rc>
    <rc><c>   7</c><c>Nb</c><c>     92.91000000</c><c>     13.00000000</c><c> PAW_PBE Nb_sv 17Jan2003                </c></rc>
    <rc><c>  13</c><c>N </c><c>     14.00100000</c><c>      5.00000000</c><c> PAW_PBE N 08Apr2002                    </c></rc>
    <rc><c>  19</c><c>C </c><c>     12.01100000</c><c>      4.00000000</c><c> PAW_PBE C 08Apr2002                    </c></rc>
    <rc><c>   6</c><c>Cr</c><c>     51.99600000</c><c>     12.00000000</c><c> PAW_PBE Cr_pv 07Sep2000                </c></rc>
    <rc><c>   6</c><c>Mo</c><c>     95.94000000</c><c>      6.00000000</c><c> PAW_PBE Mo 08Apr2002                   </c></rc>
   </set>
  </array>
 </atominfo>
 <structure name="initialpos" >
  <crystal>
   <varray name="basis" >
    <v>       8.69269967      -0.01223903       0.00314902 </v>
    <v>      -0.00668986       8.78257822       0.00158039 </v>
    <v>       0.03421837      -0.01340376       8.81137847 </v>
   </varray>
   <i name="volume">    672.69716758 </i>
   <varray name="rec_basis" >
    <v>       0.11503935       0.00008771      -0.00044661 </v>
    <v>       0.00016025       0.11386187       0.00017258 </v>
    <v>      -0.00004114      -0.00002045       0.11348975 </v>
   </varray>
  </crystal>
  <varray name="positions" >
   <v>       0.99911957       0.99153568       0.00724521 </v>
   <v>       0.25825347       0.99232259       0.25594780 </v>
   <v>       0.25221857       0.50858970       0.24807900 </v>
   <v>       0.50364391       0.50110017       0.99386995 </v>
   <v>       0.50212735       0.24009207       0.75600893 </v>
   <v>       0.99364570       0.50429599       0.50445289 </v>
   <v>       0.50103417       0.75881599       0.73957284 </v>
   <v>       0.98916546       0.22798644       0.26136158 </v>
   <v>       0.76243796       0.74255529       0.99742688 </v>
   <v>       0.01500999       0.23446282       0.73579627 </v>
   <v>       0.76101973       0.23359214       0.48126632 </v>
   <v>       0.00281560       0.73711693       0.75230646 </v>
   <v>       0.24965388       0.50184354       0.75207279 </v>
   <v>       0.25170808       0.25983221       0.99176948 </v>
   <v>       0.50636817       0.24349361       0.25179805 </v>
   <v>       0.73628699       0.99789512       0.27169068 </v>
   <v>       0.74726338       0.25591873       0.98574765 </v>
   <v>       0.24942840       0.74655533       0.99981194 </v>
   <v>       0.25584128       0.25053887       0.50554225 </v>
   <v>       0.24848618       0.75398871       0.50129274 </v>
   <v>       0.24405182       0.24939145       0.25121172 </v>
   <v>       0.24249407       0.00154585       0.00654817 </v>
   <v>       0.99860961       0.23878836       0.00982874 </v>
   <v>       0.75310440       0.25339729       0.23778352 </v>
   <v>       0.74899695       0.99516434       0.00385935 </v>
   <v>       0.49666095       0.98508516       0.23446488 </v>
   <v>       0.00218799       0.48765829       0.25955273 </v>
   <v>       0.50348095       0.75156594       0.99007825 </v>
   <v>       0.99624007       0.99105559       0.76234735 </v>
   <v>       0.75475400       0.22484009       0.74150597 </v>
   <v>       0.74095176       0.99839343       0.52059625 </v>
   <v>       0.51004251       0.25058961       0.50733711 </v>
   <v>       0.49187178       0.00014251       0.75692301 </v>
   <v>       0.99775053       0.99690376       0.26275672 </v>
   <v>       0.49882156       0.24931990       0.00262054 </v>
   <v>       0.25892336       0.75037903       0.25003624 </v>
   <v>       0.23968766       0.50072703       0.99993367 </v>
   <v>       0.00245881       0.74215778       0.00186940 </v>
   <v>       0.73917235       0.75058461       0.24138085 </v>
   <v>       0.76449785       0.49854010       0.00859560 </v>
   <v>       0.49515288       0.50555179       0.24558146 </v>
   <v>       0.25421469       0.24313496       0.75044510 </v>
   <v>       0.26547582       0.00267178       0.50491675 </v>
   <v>       0.00314647       0.25657562       0.50108599 </v>
   <v>       0.25011799       0.76100097       0.75096738 </v>
   <v>       0.24997947       0.50208123       0.50078627 </v>
   <v>       0.99698261       0.75603845       0.50372962 </v>
   <v>       0.99585598       0.48610160       0.75126449 </v>
   <v>       0.75397065       0.76216257       0.74585910 </v>
   <v>       0.74670426       0.48586044       0.50699522 </v>
   <v>       0.50304952       0.76879015       0.49660334 </v>
   <v>       0.49816390       0.50167575       0.74479298 </v>
   <v>       0.52754442       0.02284574       0.98105543 </v>
   <v>       0.99751339       0.52655233       0.96500137 </v>
   <v>       0.50427124       0.73774707       0.28246979 </v>
   <v>       0.22812846       0.00602447       0.72266291 </v>
   <v>       0.49850848       0.02311532       0.46561644 </v>
   <v>       0.71991603       0.98360287       0.77741228 </v>
   <v>       0.99639329       0.76542395       0.24468276 </v>
   <v>       0.73077897       0.51554391       0.25879007 </v>
   <v>       0.01134648       0.01303602       0.51557201 </v>
   <v>       0.50623109       0.51916343       0.49194758 </v>
   <v>       0.74701959       0.51993082       0.75799514 </v>
   <v>       0.74924788       0.73660644       0.49147689 </v>
  </varray>
 </structure>
 <calculation>
  <scstep>
   <time name="dav">   18.43   18.56</time>
   <time name="total">   18.47   18.62</time>
   <energy>
    <i name="alphaZ">   4111.85979045 </i>
    <i name="ewald"> -38550.65978222 </i>
    <i name="hartreedc">  -7502.47664122 </i>
    <i name="XCdc">   1278.85780247 </i>
    <i name="pawpsdc">  26772.73438923 </i>
    <i name="pawaedc"> -26349.77125722 </i>
    <i name="eentropy">     -0.06566162 </i>
    <i name="bandstr">   3313.42270215 </i>
    <i name="atom">  43190.90428499 </i>
    <i name="e_fr_energy">   6264.80562701 </i>
    <i name="e_wo_entrp">   6264.87128863 </i>
    <i name="e_0_energy">   6264.83845782 </i>
   </energy>
  </scstep>
  <scstep>
   <time name="dav">   19.27   19.72</time>
   <time name="total">   19.28   19.72</time>
   <energy>
    <i name="e_fr_energy">    219.68838385 </i>
    <i name="e_wo_entrp">    219.78547603 </i>
    <i name="e_0_energy">    219.73692994 </i>
   </energy>
  </scstep>
  <scstep>
   <time name="dav">   28.11   28.19</time>
   <time name="total">   28.12   28.19</time>
   <energy>
    <i name="e_fr_energy">   -687.80382107 </i>
    <i name="e_wo_entrp">   -687.70211133 </i>
    <i name="e_0_energy">   -687.75296620 </i>
   </energy>
  </scstep>
  <scstep>
   <time name="dav">   29.67   29.75</time>
   <time name="total">   29.67   29.75</time>
   <energy>
    <i name="e_fr_energy">   -772.82909010 </i>
    <i name="e_wo_entrp">   -772.72709074 </i>
    <i name="e_0_energy">   -772.77809042 </i>
   </energy>
  </scstep>
  <scstep>
   <time name="dav">   33.34   33.41</time>
   <time name="total">   33.59   33.66</time>
   <energy>
    <i name="e_fr_energy">   -783.46742511 </i>
    <i name="e_wo_entrp">   -783.35808625 </i>
    <i name="e_0_energy">   -783.41275568 </i>
   </energy>
  </scstep>
  <scstep>
   <time name="diag">    1.72    1.72</time>
   <time name="diis">   14.57   14.58</time>
   <time name="orth">    0.39    0.39</time>
   <time name="total">   16.96   16.98</time>
   <energy>
    <i name="e_fr_energy">   -829.04549460 </i>
    <i name="e_wo_entrp">   -828.91622039 </i>
    <i name="e_0_energy">   -828.98085750 </i>
   </energy>
  </scstep>
  <scstep>
   <time name="diag">    1.69    1.73</time>
   <time name="diis">   18.09   18.64</time>
   <time name="orth">    0.39    0.39</time>
   <time name="total">   20.45   21.05</time>
   <energy>
    <i name="e_fr_energy">   -681.96065168 </i>
    <i name="e_wo_entrp">   -681.82201048 </i>
    <i name="e_0_energy">   -681.89133108 </i>
   </energy>
  </scstep>
  <scstep>
   <time name="diag">    1.81    1.83</time>
   <time name="diis">   18.11   18.19</time>
   <time name="orth">    0.39    0.39</time>
   <time name="total">   20.60   20.70</time>
   <energy>
    <i name="e_fr_energy">   -661.21622908 </i>
    <i name="e_wo_entrp">   -661.05162338 </i>
    <i name="e_0_energy">   -661.13392623 </i>
   </energy>
  </scstep>
  <scstep>
   <time name="diag">    1.69    1.73</time>
   <time name="diis">   18.92   19.49</time>
   <time name="orth">    0.39    0.39</time>
   <time name="total">   21.29   21.90</time>
   <energy>
    <i name="e_fr_energy">   -661.55106875 </i>
    <i name="e_wo_entrp">   -661.40114484 </i>
    <i name="e_0_energy">   -661.47610679 </i>
   </energy>
  </scstep>
  <scstep>
   <time name="diag">    1.73    1.73</time>
   <time name="diis">   20.07   20.10</time>
   <time name="orth">    0.39    0.39</time>
   <time name="total">   22.47   22.50</time>
   <energy>
    <i name="e_fr_energy">   -658.83438270 </i>
    <i name="e_wo_entrp">   -658.68053643 </i>
    <i name="e_0_energy">   -658.75745956 </i>
   </energy>
  </scstep>
  <scstep>
   <time name="diag">    1.72    1.72</time>
   <time name="diis">   19.24   19.26</time>
   <time name="orth">    0.39    0.39</time>
   <time name="total">   21.63   21.66</time>
   <energy>
    <i name="e_fr_energy">   -658.61890542 </i>
    <i name="e_wo_entrp">   -658.45806109 </i>
    <i name="e_0_energy">   -658.53848326 </i>
   </energy>
  </scstep>
  <scstep>
   <time name="diag">    1.71    1.71</time>
   <time name="diis">   18.70   18.71</time>
   <time name="orth">    0.39    0.39</time>
   <time name="total">   21.08   21.10</time>
   <energy>
    <i name="e_fr_energy">   -658.41951604 </i>
    <i name="e_wo_entrp">   -658.26597067 </i>
    <i name="e_0_energy">   -658.34274336 </i>
   </energy>
  </scstep>
  <scstep>
   <time name="diag">    1.74    1.75</time>
   <time name="diis">   18.73   18.78</time>
   <time name="orth">    0.40    0.40</time>
   <time name="total">   21.16   21.23</time>
   <energy>
    <i name="e_fr_energy">   -658.61253805 </i>
    <i name="e_wo_entrp">   -658.46072620 </i>
    <i name="e_0_energy">   -658.53663212 </i>
   </energy>
  </scstep>
  <scstep>
   <time name="diag">    1.77    1.77</time>
   <time name="diis">   17.97   17.99</time>
   <time name="orth">    0.39    0.39</time>
   <time name="total">   20.40   20.43</time>
   <energy>
    <i name="e_fr_energy">   -658.16103348 </i>
    <i name="e_wo_entrp">   -658.00993094 </i>
    <i name="e_0_energy">   -658.08548221 </i>
   </energy>
  </scstep>
  <scstep>
   <time name="diag">    1.72    1.72</time>
   <time name="diis">   20.45   20.46</time>
   <time name="orth">    0.40    0.40</time>
   <time name="total">   22.83   22.86</time>
   <energy>
    <i name="e_fr_energy">   -658.12026886 </i>
    <i name="e_wo_entrp">   -657.96348629 </i>
    <i name="e_0_energy">   -658.04187757 </i>
   </energy>
  </scstep>
  <scstep>
   <time name="diag">    1.72    1.72</time>
   <time name="diis">   19.79   19.83</time>
   <time name="orth">    0.39    0.39</time>
   <time name="total">   22.18   22.22</time>
   <energy>
    <i name="e_fr_energy">   -658.10447104 </i>
    <i name="e_wo_entrp">   -657.95208231 </i>
    <i name="e_0_energy">   -658.02827667 </i>
   </energy>
  </scstep>
  <scstep>
   <time name="diag">    1.72    1.72</time>
   <time name="diis">   20.33   20.37</time>
   <time name="orth">    0.39    0.39</time>
   <time name="total">   22.72   22.76</time>
   <energy>
    <i name="e_fr_energy">   -658.09671061 </i>
    <i name="e_wo_entrp">   -657.94141479 </i>
    <i name="e_0_energy">   -658.01906270 </i>
   </energy>
  </scstep>
  <scstep>
   <time name="diag">    1.71    1.71</time>
   <time name="diis">   18.02   18.06</time>
   <time name="orth">    0.39    0.39</time>
   <time name="total">   20.39   20.44</time>
   <energy>
    <i name="e_fr_energy">   -658.11911472 </i>
    <i name="e_wo_entrp">   -657.96534164 </i>
    <i name="e_0_energy">   -658.04222818 </i>
   </energy>
  </scstep>
  <scstep>
   <time name="diag">    1.71    1.71</time>
   <time name="diis">   19.36   19.46</time>
   <time name="orth">    0.39    0.39</time>
   <time name="total">   21.74   21.85</time>
   <energy>
    <i name="e_fr_energy">   -658.11244721 </i>
    <i name="e_wo_entrp">   -657.95745953 </i>
    <i name="e_0_energy">   -658.03495337 </i>
   </energy>
  </scstep>
  <scstep>
   <time name="diag">    1.71    1.71</time>
   <time name="diis">   19.03   19.09</time>
   <time name="orth">    0.39    0.39</time>
   <time name="total">   21.41   21.47</time>
   <energy>
    <i name="e_fr_energy">   -658.10327617 </i>
    <i name="e_wo_entrp">   -657.94883496 </i>
    <i name="e_0_energy">   -658.02605556 </i>
   </energy>
  </scstep>
  <scstep>
   <time name="diag">    1.71    1.71</time>
   <time name="diis">   19.08   19.12</time>
   <time name="orth">    0.40    0.40</time>
   <time name="total">   21.47   21.51</time>
   <energy>
    <i name="e_fr_energy">   -658.10459846 </i>
    <i name="e_wo_entrp">   -657.95007248 </i>
    <i name="e_0_energy">   -658.02733547 </i>
   </energy>
  </scstep>
  <scstep>
   <time name="diag">    1.76    1.77</time>
   <time name="diis">   18.25   18.30</time>
   <time name="orth">    0.39    0.39</time>
   <time name="total">   20.68   20.74</time>
   <energy>
    <i name="e_fr_energy">   -658.10682913 </i>
    <i name="e_wo_entrp">   -657.95219524 </i>
    <i name="e_0_energy">   -658.02951219 </i>
   </energy>
  </scstep>
  <scstep>
   <time name="diag">    1.72    1.72</time>
   <time name="diis">   18.95   18.97</time>
   <time name="orth">    0.40    0.40</time>
   <time name="total">   21.35   21.37</time>
   <energy>
    <i name="e_fr_energy">   -658.10726450 </i>
    <i name="e_wo_entrp">   -657.95262705 </i>
    <i name="e_0_energy">   -658.02994578 </i>
   </energy>
  </scstep>
  <scstep>
   <time name="diag">    1.72    1.72</time>
   <time name="diis">   17.85   17.93</time>
   <time name="orth">    0.42    0.42</time>
   <time name="total">   20.27   20.36</time>
   <energy>
    <i name="e_fr_energy">   -658.10786982 </i>
    <i name="e_wo_entrp">   -657.95322537 </i>
    <i name="e_0_energy">   -658.03054760 </i>
   </energy>
  </scstep>
  <scstep>
   <time name="diag">    1.72    1.72</time>
   <time name="diis">   17.93   17.97</time>
   <time name="orth">    0.39    0.39</time>
   <time name="total">   20.31   20.36</time>
   <energy>
    <i name="e_fr_energy">   -658.10813600 </i>
    <i name="e_wo_entrp">   -657.95348022 </i>
    <i name="e_0_energy">   -658.03080811 </i>
   </energy>
  </scstep>
  <scstep>
   <time name="diag">    1.72    1.72</time>
   <time name="diis">   16.36   16.39</time>
   <time name="orth">    0.39    0.39</time>
   <time name="total">   18.75   18.78</time>
   <energy>
    <i name="e_fr_energy">   -658.10833801 </i>
    <i name="e_wo_entrp">   -657.95368492 </i>
    <i name="e_0_energy">   -658.03101146 </i>
   </energy>
  </scstep>
  <scstep>
   <time name="diag">    1.71    1.71</time>
   <time name="diis">   15.49   15.51</time>
   <time name="orth">    0.39    0.39</time>
   <time name="total">   17.87   17.90</time>
   <energy>
    <i name="e_fr_energy">   -658.10841464 </i>
    <i name="e_wo_entrp">   -657.95376591 </i>
    <i name="e_0_energy">   -658.03109028 </i>
   </energy>
  </scstep>
  <scstep>
   <time name="diag">    1.76    1.76</time>
   <time name="diis">   15.33   15.37</time>
   <time name="orth">    0.39    0.39</time>
   <time name="total">   17.76   17.81</time>
   <energy>
    <i name="e_fr_energy">   -658.10846767 </i>
    <i name="e_wo_entrp">   -657.95381632 </i>
    <i name="e_0_energy">   -658.03114200 </i>
   </energy>
  </scstep>
  <scstep>
   <time name="diag">    1.72    1.73</time>
   <time name="diis">   14.76   14.81</time>
   <time name="orth">    0.40    0.40</time>
   <time name="total">   17.17   17.22</time>
   <energy>
    <i name="e_fr_energy">   -658.10850154 </i>
    <i name="e_wo_entrp">   -657.95384928 </i>
    <i name="e_0_energy">   -658.03117541 </i>
   </energy>
  </scstep>
  <scstep>
   <time name="diag">    1.71    1.71</time>
   <time name="diis">   13.82   13.83</time>
   <time name="orth">    0.40    0.40</time>
   <time name="total">   16.21   16.23</time>
   <energy>
    <i name="e_fr_energy">   -658.10851816 </i>
    <i name="e_wo_entrp">   -657.95386518 </i>
    <i name="e_0_energy">   -658.03119167 </i>
   </energy>
  </scstep>
  <scstep>
   <time name="diag">    1.72    1.72</time>
   <time name="diis">   12.84   12.92</time>
   <time name="orth">    0.40    0.40</time>
   <time name="total">   15.24   15.32</time>
   <energy>
    <i name="e_fr_energy">   -658.10852986 </i>
    <i name="e_wo_entrp">   -657.95387610 </i>
    <i name="e_0_energy">   -658.03120298 </i>
   </energy>
  </scstep>
  <scstep>
   <time name="diag">    1.71    1.71</time>
   <time name="diis">   12.04   12.06</time>
   <time name="orth">    0.39    0.39</time>
   <time name="total">   14.19   14.21</time>
   <energy>
    <i name="alphaZ">   4111.85979045 </i>
    <i name="ewald"> -38550.65978222 </i>
    <i name="hartreedc">  -7110.83367365 </i>
    <i name="XCdc">   1275.32826353 </i>
    <i name="pawpsdc">  28405.18957108 </i>
    <i name="pawaedc"> -28042.43050215 </i>
    <i name="eentropy">     -0.15465382 </i>
    <i name="bandstr">  -3937.31183547 </i>
    <i name="atom">  43190.90428499 </i>
    <i name="e_fr_energy">   -658.10853726 </i>
    <i name="e_wo_entrp">   -657.95388344 </i>
    <i name="e_0_energy">   -658.03121035 </i>
   </energy>
  </scstep>
  <structure>
   <crystal>
    <varray name="basis" >
     <v>       8.69269967      -0.01223903       0.00314902 </v>
     <v>      -0.00668986       8.78257822       0.00158039 </v>
     <v>       0.03421837      -0.01340376       8.81137847 </v>
    </varray>
    <i name="volume">    672.69716758 </i>
    <varray name="rec_basis" >
     <v>       0.11503935       0.00008771      -0.00044661 </v>
     <v>       0.00016025       0.11386187       0.00017258 </v>
     <v>      -0.00004114      -0.00002045       0.11348975 </v>
    </varray>
   </crystal>
   <varray name="positions" >
    <v>       0.99911957       0.99153568       0.00724521 </v>
    <v>       0.25825347       0.99232259       0.25594780 </v>
    <v>       0.25221857       0.50858970       0.24807900 </v>
    <v>       0.50364391       0.50110017       0.99386995 </v>
    <v>       0.50212735       0.24009207       0.75600893 </v>
    <v>       0.99364570       0.50429599       0.50445289 </v>
    <v>       0.50103417       0.75881599       0.73957284 </v>
    <v>       0.98916546       0.22798644       0.26136158 </v>
    <v>       0.76243796       0.74255529       0.99742688 </v>
    <v>       0.01500999       0.23446282       0.73579627 </v>
    <v>       0.76101973       0.23359214       0.48126632 </v>
    <v>       0.00281560       0.73711693       0.75230646 </v>
    <v>       0.24965388       0.50184354       0.75207279 </v>
    <v>       0.25170808       0.25983221       0.99176948 </v>
    <v>       0.50636817       0.24349361       0.25179805 </v>
    <v>       0.73628699       0.99789512       0.27169068 </v>
    <v>       0.74726338       0.25591873       0.98574765 </v>
    <v>       0.24942840       0.74655533       0.99981194 </v>
    <v>       0.25584128       0.25053887       0.50554225 </v>
    <v>       0.24848618       0.75398871       0.50129274 </v>
    <v>       0.24405182       0.24939145       0.25121172 </v>
    <v>       0.24249407       0.00154585       0.00654817 </v>
    <v>       0.99860961       0.23878836       0.00982874 </v>
    <v>       0.75310440       0.25339729       0.23778352 </v>
    <v>       0.74899695       0.99516434       0.00385935 </v>
    <v>       0.49666095       0.98508516       0.23446488 </v>
    <v>       0.00218799       0.48765829       0.25955273 </v>
    <v>       0.50348095       0.75156594       0.99007825 </v>
    <v>       0.99624007       0.99105559       0.76234735 </v>
    <v>       0.75475400       0.22484009       0.74150597 </v>
    <v>       0.74095176       0.99839343       0.52059625 </v>
    <v>       0.51004251       0.25058961       0.50733711 </v>
    <v>       0.49187178       0.00014251       0.75692301 </v>
    <v>       0.99775053       0.99690376       0.26275672 </v>
    <v>       0.49882156       0.24931990       0.00262054 </v>
    <v>       0.25892336       0.75037903       0.25003624 </v>
    <v>       0.23968766       0.50072703       0.99993367 </v>
    <v>       0.00245881       0.74215778       0.00186940 </v>
    <v>       0.73917235       0.75058461       0.24138085 </v>
    <v>       0.76449785       0.49854010       0.00859560 </v>
    <v>       0.49515288       0.50555179       0.24558146 </v>
    <v>       0.25421469       0.24313496       0.75044510 </v>
    <v>       0.26547582       0.00267178       0.50491675 </v>
    <v>       0.00314647       0.25657562       0.50108599 </v>
    <v>       0.25011799       0.76100097       0.75096738 </v>
    <v>       0.24997947       0.50208123       0.50078627 </v>
    <v>       0.99698261       0.75603845       0.50372962 </v>
    <v>       0.99585598       0.48610160       0.75126449 </v>
    <v>       0.75397065       0.76216257       0.74585910 </v>
    <v>       0.74670426       0.48586044       0.50699522 </v>
    <v>       0.50304952       0.76879015       0.49660334 </v>
    <v>       0.49816390       0.50167575       0.74479298 </v>
    <v>       0.52754442       0.02284574       0.98105543 </v>
    <v>       0.99751339       0.52655233       0.96500137 </v>
    <v>       0.50427124       0.73774707       0.28246979 </v>
    <v>       0.22812846       0.00602447       0.72266291 </v>
    <v>       0.49850848       0.02311532       0.46561644 </v>
    <v>       0.71991603       0.98360287       0.77741228 </v>
    <v>       0.99639329       0.76542395       0.24468276 </v>
    <v>       0.73077897       0.51554391       0.25879007 </v>
    <v>       0.01134648       0.01303602       0.51557201 </v>
    <v>       0.50623109       0.51916343       0.49194758 </v>
    <v>       0.74701959       0.51993082       0.75799514 </v>
    <v>       0.74924788       0.73660644       0.49147689 </v>
   </varray>
  </structure>
  <varray name="forces" >
   <v>       0.00021196      -0.00383260      -0.00018693 </v>
   <v>      -0.00034186      -0.00152970      -0.00309536 </v>
   <v>      -0.00289773      -0.00296184      -0.00241887 </v>
   <v>       0.00363780      -0.00843961       0.00523766 </v>
   <v>       0.00454243       0.00562856       0.00152841 </v>
   <v>      -0.00283250      -0.00136545      -0.00254871 </v>
   <v>       0.00127378      -0.00043844      -0.00036733 </v>
   <v>      -0.00740369       0.03355751       0.00001668 </v>
   <v>       0.01579610       0.00258416      -0.00202017 </v>
   <v>       0.01527261       0.01388387       0.01160871 </v>
   <v>       0.01657300       0.01292850       0.00360630 </v>
   <v>       0.00441307       0.00361290      -0.00004337 </v>
   <v>       0.00141694      -0.00349015       0.00131627 </v>
   <v>       0.01486224      -0.00481892      -0.00589598 </v>
   <v>      -0.00220162      -0.00155175      -0.00027768 </v>
   <v>      -0.00655204      -0.00734068      -0.00204302 </v>
   <v>      -0.00787693       0.00787526       0.00311744 </v>
   <v>      -0.01033284      -0.00377489       0.00060584 </v>
   <v>      -0.00008577       0.00167722       0.00485834 </v>
   <v>      -0.00181475       0.00138177      -0.00151371 </v>
   <v>      -0.01235329      -0.00104366      -0.00345880 </v>
   <v>      -0.00176770       0.00352163      -0.00296694 </v>
   <v>       0.00232072       0.00836505       0.00244201 </v>
   <v>       0.01734481       0.00256107      -0.00011354 </v>
   <v>      -0.00764969       0.00214077      -0.00545787 </v>
   <v>      -0.01015111      -0.01198371      -0.00466289 </v>
   <v>       0.00015206       0.00321006      -0.00255198 </v>
   <v>       0.00638080       0.00760013       0.00185546 </v>
   <v>      -0.00218547       0.00174547      -0.00281381 </v>
   <v>       0.00535698       0.00271421      -0.00443633 </v>
   <v>      -0.00277729      -0.00006616       0.01192527 </v>
   <v>       0.01333331      -0.00506676       0.00355636 </v>
   <v>       0.00776418      -0.00433185      -0.00290824 </v>
   <v>       0.01026498      -0.03827850      -0.00752429 </v>
   <v>       0.00189670      -0.00233375      -0.00063155 </v>
   <v>       0.00147429       0.00326527       0.00127242 </v>
   <v>      -0.00087043      -0.00051945       0.00096613 </v>
   <v>      -0.00873041      -0.01398776       0.00282011 </v>
   <v>      -0.00180683      -0.00153557      -0.00690906 </v>
   <v>       0.00225438       0.00256756       0.00559664 </v>
   <v>       0.01117972       0.00603682       0.00449271 </v>
   <v>      -0.00982363      -0.00465376      -0.00032620 </v>
   <v>      -0.00058842      -0.00029559       0.00505124 </v>
   <v>      -0.00623275       0.01331894      -0.01423604 </v>
   <v>       0.00181131       0.00087305      -0.00054105 </v>
   <v>       0.00204070       0.00308601      -0.00132401 </v>
   <v>      -0.00379681       0.00480917      -0.00153362 </v>
   <v>      -0.00194686      -0.00132428      -0.00072734 </v>
   <v>      -0.00103449       0.01128232      -0.00321504 </v>
   <v>      -0.00076826      -0.00381089       0.00520906 </v>
   <v>       0.00369649       0.00471235      -0.00022598 </v>
   <v>      -0.00118844      -0.00148669      -0.00291760 </v>
   <v>       0.00884802       0.00140910      -0.00900089 </v>
   <v>      -0.00348419       0.01532381       0.01259660 </v>
   <v>       0.00332564      -0.00289480      -0.00570738 </v>
   <v>      -0.01299422      -0.00316598       0.00383078 </v>
   <v>      -0.01458051      -0.00337969       0.00608629 </v>
   <v>      -0.01570543      -0.01316210      -0.00488400 </v>
   <v>      -0.00142098       0.01531309       0.00361976 </v>
   <v>      -0.01437776      -0.01070801      -0.00298543 </v>
   <v>       0.00116409      -0.01445221       0.00327456 </v>
   <v>      -0.00000849      -0.00799401       0.00399987 </v>
   <v>      -0.00177335      -0.01248929      -0.00135397 </v>
   <v>       0.00174743       0.00152284       0.00333405 </v>
  </varray>
  <varray name="stress" >
   <v>      -9.54251454      -0.16682950       0.10831154 </v>
   <v>      -0.16682862      -8.55711313       0.01757668 </v>
   <v>       0.10831024       0.01757733      -6.25298194 </v>
  </varray>
  <energy>
   <i name="e_fr_energy">   -658.10853726 </i>
   <i name="e_wo_entrp">   -658.03121035 </i>
   <i name="e_0_energy">     -0.15465382 </i>
  </energy>
  <time name="totalsc">  708.18  711.43</time>
 </calculation>
 <calculation>
  <scstep>
   <time name="dav">   26.23   26.30</time>
   <time name="total">   26.51   26.58</time>
   <energy>
    <i name="alphaZ">   4143.71612581 </i>
    <i name="ewald"> -38650.54210133 </i>
    <i name="hartreedc">  -7128.51598757 </i>
    <i name="XCdc">   1279.89337272 </i>
    <i name="pawpsdc">  28405.26158450 </i>
    <i name="pawaedc"> -28042.47512822 </i>
    <i name="eentropy">     -0.14698878 </i>
    <i name="bandstr">  -3856.42275490 </i>
    <i name="atom">  43190.90428499 </i>
    <i name="e_fr_energy">   -658.32759279 </i>
    <i name="e_wo_entrp">   -658.18060401 </i>
    <i name="e_0_energy">   -658.25409840 </i>
   </energy>
  </scstep>
  <scstep>
   <time name="diag">    1.72    1.72</time>
   <time name="diis">   15.01   15.05</time>
   <time name="orth">    0.40    0.40</time>
   <time name="total">   17.40   17.45</time>
   <energy>
    <i name="e_fr_energy">   -661.38026891 </i>
    <i name="e_wo_entrp">   -661.21603140 </i>
    <i name="e_0_energy">   -661.29815016 </i>
   </energy>
  </scstep>
  <scstep>
   <time name="diag">    1.73    1.74</time>
   <time name="diis">   15.10   15.19</time>
   <time name="orth">    0.39    0.39</time>
   <time name="total">   17.51   17.61</time>
   <energy>
    <i name="e_fr_energy">   -658.18936026 </i>
    <i name="e_wo_entrp">   -658.04127184 </i>
    <i name="e_0_energy">   -658.11531605 </i>
   </energy>
  </scstep>
  <scstep>
   <time name="diag">    1.72    1.72</time>
   <time name="diis">   16.82   16.88</time>
   <time name="orth">    0.39    0.40</time>
   <time name="total">   19.21   19.29</time>
   <energy>
    <i name="e_fr_energy">   -658.14859999 </i>
    <i name="e_wo_entrp">   -657.99476308 </i>
    <i name="e_0_energy">   -658.07168154 </i>
   </energy>
  </scstep>
  <scstep>
   <time name="diag">    1.72    1.72</time>
   <time name="diis">   16.00   16.05</time>
   <time name="orth">    0.40    0.40</time>
   <time name="total">   18.39   18.45</time>
   <energy>
    <i name="e_fr_energy">   -658.11800651 </i>
    <i name="e_wo_entrp">   -657.96533024 </i>
    <i name="e_0_energy">   -658.04166838 </i>
   </energy>
  </scstep>
  <scstep>
   <time name="diag">    1.72    1.72</time>
   <time name="diis">   15.18   15.24</time>
   <time name="orth">    0.41    0.42</time>
   <time name="total">   17.60   17.67</time>
   <energy>
    <i name="e_fr_energy">   -658.10874775 </i>
    <i name="e_wo_entrp">   -657.95783977 </i>
    <i name="e_0_energy">   -658.03329376 </i>
   </energy>
  </scstep>
  <scstep>
   <time name="diag">    1.78    1.79</time>
   <time name="diis">   17.69   17.72</time>
   <time name="orth">    0.39    0.39</time>
   <time name="total">   20.15   20.19</time>
   <energy>
    <i name="e_fr_energy">   -658.09625005 </i>
    <i name="e_wo_entrp">   -657.94298391 </i>
    <i name="e_0_energy">   -658.01961698 </i>
   </energy>
  </scstep>
  <scstep>
   <time name="diag">    1.71    1.71</time>
   <time name="diis">   15.88   15.91</time>
   <time name="orth">    0.40    0.40</time>
   <time name="total">   18.27   18.30</time>
   <energy>
    <i name="e_fr_energy">   -658.09350797 </i>
    <i name="e_wo_entrp">   -657.94104092 </i>
    <i name="e_0_energy">   -658.01727444 </i>
   </energy>
  </scstep>
  <scstep>
   <time name="diag">    1.71    1.71</time>
   <time name="diis">   16.99   17.01</time>
   <time name="orth">    0.39    0.39</time>
   <time name="total">   19.37   19.39</time>
   <energy>
    <i name="e_fr_energy">   -658.09125166 </i>
    <i name="e_wo_entrp">   -657.93851944 </i>
    <i name="e_0_energy">   -658.01488555 </i>
   </energy>
  </scstep>
  <scstep>
   <time name="diag">    1.71    1.71</time>
   <time name="diis">   16.27   16.33</time>
   <time name="orth">    0.39    0.39</time>
   <time name="total">   18.65   18.72</time>
   <energy>
    <i name="e_fr_energy">   -658.09163233 </i>
    <i name="e_wo_entrp">   -657.93921382 </i>
    <i name="e_0_energy">   -658.01542307 </i>
   </energy>
  </scstep>
  <scstep>
   <time name="diag">    1.73    1.75</time>
   <time name="diis">   16.93   16.97</time>
   <time name="orth">    0.39    0.39</time>
   <time name="total">   19.33   19.39</time>
   <energy>
    <i name="e_fr_energy">   -658.09118932 </i>
    <i name="e_wo_entrp">   -657.93849653 </i>
    <i name="e_0_energy">   -658.01484293 </i>
   </energy>
  </scstep>
  <scstep>
   <time name="diag">    1.72    1.72</time>
   <time name="diis">   17.93   17.98</time>
   <time name="orth">    0.39    0.39</time>
   <time name="total">   20.32   20.37</time>
   <energy>
    <i name="e_fr_energy">   -658.09131065 </i>
    <i name="e_wo_entrp">   -657.93863245 </i>
    <i name="e_0_energy">   -658.01497155 </i>
   </energy>
  </scstep>
  <scstep>
   <time name="diag">    1.71    1.71</time>
   <time name="diis">   14.72   14.75</time>
   <time name="orth">    0.40    0.40</time>
   <time name="total">   17.11   17.15</time>
   <energy>
    <i name="e_fr_energy">   -658.09137520 </i>
    <i name="e_wo_entrp">   -657.93870512 </i>
    <i name="e_0_energy">   -658.01504016 </i>
   </energy>
  </scstep>
  <scstep>
   <time name="diag">    1.72    1.73</time>
   <time name="diis">   16.54   16.56</time>
   <time name="orth">    0.39    0.39</time>
   <time name="total">   18.94   18.96</time>
   <energy>
    <i name="e_fr_energy">   -658.09142303 </i>
    <i name="e_wo_entrp">   -657.93871353 </i>
    <i name="e_0_energy">   -658.01506828 </i>
   </energy>
  </scstep>
  <scstep>
   <time name="diag">    1.74    1.76</time>
   <time name="diis">   16.68   16.70</time>
   <time name="orth">    0.40    0.40</time>
   <time name="total">   19.09   19.13</time>
   <energy>
    <i name="e_fr_energy">   -658.09148336 </i>
    <i name="e_wo_entrp">   -657.93874086 </i>
    <i name="e_0_energy">   -658.01511211 </i>
   </energy>
  </scstep>
  <scstep>
   <time name="diag">    1.72    1.72</time>
   <time name="diis">   13.84   13.88</time>
   <time name="orth">    0.39    0.39</time>
   <time name="total">   16.23   16.28</time>
   <energy>
    <i name="e_fr_energy">   -658.09150001 </i>
    <i name="e_wo_entrp">   -657.93877850 </i>
    <i name="e_0_energy">   -658.01513925 </i>
   </energy>
  </scstep>
  <scstep>
   <time name="diag">    1.72    1.72</time>
   <time name="diis">   12.69   12.72</time>
   <time name="orth">    0.39    0.39</time>
   <time name="total">   14.84   14.87</time>
   <energy>
    <i name="alphaZ">   4143.71612581 </i>
    <i name="ewald"> -38650.54210133 </i>
    <i name="hartreedc">  -7081.96587981 </i>
    <i name="XCdc">   1277.42553393 </i>
    <i name="pawpsdc">  28488.64604320 </i>
    <i name="pawaedc"> -28126.46808354 </i>
    <i name="eentropy">     -0.15272292 </i>
    <i name="bandstr">  -3899.65470932 </i>
    <i name="atom">  43190.90428499 </i>
    <i name="e_fr_energy">   -658.09150899 </i>
    <i name="e_wo_entrp">   -657.93878607 </i>
    <i name="e_0_energy">   -658.01514753 </i>
   </energy>
  </scstep>
  <structure>
   <crystal>
    <varray name="basis" >
     <v>       8.66644750      -0.01266484       0.00344070 </v>
     <v>      -0.00713332       8.75879323       0.00162589 </v>
     <v>       0.03441778      -0.01332024       8.79394179 </v>
    </varray>
    <i name="volume">    667.52556173 </i>
    <varray name="rec_basis" >
     <v>       0.11538785       0.00009406      -0.00045146 </v>
     <v>       0.00016678       0.11417108       0.00017228 </v>
     <v>      -0.00004518      -0.00002115       0.11371479 </v>
    </varray>
   </crystal>
   <varray name="positions" >
    <v>       0.99912073       0.99151463       0.00724419 </v>
    <v>       0.25825164       0.99231416       0.25593086 </v>
    <v>       0.25220253       0.50857339       0.24806577 </v>
    <v>       0.50366395       0.50105388       0.99389863 </v>
    <v>       0.50215255       0.24012303       0.75601728 </v>
    <v>       0.99363003       0.50428844       0.50443894 </v>
    <v>       0.50104125       0.75881359       0.73957082 </v>
    <v>       0.98912451       0.22817071       0.26136165 </v>
    <v>       0.76252568       0.74256959       0.99741579 </v>
    <v>       0.01509456       0.23453930       0.73585978 </v>
    <v>       0.76111168       0.23366332       0.48128602 </v>
    <v>       0.00284011       0.73713681       0.75230621 </v>
    <v>       0.24966171       0.50182439       0.75208000 </v>
    <v>       0.25179067       0.25980581       0.99173718 </v>
    <v>       0.50635595       0.24348507       0.25179654 </v>
    <v>       0.73625064       0.99785473       0.27167951 </v>
    <v>       0.74721963       0.25596196       0.98576473 </v>
    <v>       0.24937102       0.74653451       0.99981528 </v>
    <v>       0.25584070       0.25054813       0.50556885 </v>
    <v>       0.24847615       0.75399627       0.50128446 </v>
    <v>       0.24398333       0.24938560       0.25119281 </v>
    <v>       0.24248433       0.00156515       0.00653193 </v>
    <v>       0.99862247       0.23883435       0.00984210 </v>
    <v>       0.75320068       0.25341149       0.23778286 </v>
    <v>       0.74895462       0.99517599       0.00382948 </v>
    <v>       0.49660467       0.98501922       0.23443938 </v>
    <v>       0.00218890       0.48767590       0.25953876 </v>
    <v>       0.50351636       0.75160776       0.99008838 </v>
    <v>       0.99622801       0.99106513       0.76233194 </v>
    <v>       0.75478384       0.22485501       0.74148167 </v>
    <v>       0.74093609       0.99839315       0.52066155 </v>
    <v>       0.51011641       0.25056191       0.50735656 </v>
    <v>       0.49191492       0.00011875       0.75690708 </v>
    <v>       0.99780750       0.99669351       0.26271554 </v>
    <v>       0.49883209       0.24930709       0.00261708 </v>
    <v>       0.25893152       0.75039699       0.25004320 </v>
    <v>       0.23968281       0.50072417       0.99993896 </v>
    <v>       0.00241024       0.74208090       0.00188487 </v>
    <v>       0.73916246       0.75057610       0.24134303 </v>
    <v>       0.76451025       0.49855427       0.00862624 </v>
    <v>       0.49521485       0.50558507       0.24560603 </v>
    <v>       0.25416016       0.24310932       0.75044334 </v>
    <v>       0.26547245       0.00267019       0.50494440 </v>
    <v>       0.00311224       0.25664862       0.50100805 </v>
    <v>       0.25012806       0.76100577       0.75096441 </v>
    <v>       0.24999084       0.50209819       0.50077902 </v>
    <v>       0.99696159       0.75606483       0.50372123 </v>
    <v>       0.99584519       0.48609431       0.75126052 </v>
    <v>       0.75396502       0.76222451       0.74584148 </v>
    <v>       0.74669987       0.48583955       0.50702375 </v>
    <v>       0.50307006       0.76881606       0.49660209 </v>
    <v>       0.49815736       0.50166755       0.74477701 </v>
    <v>       0.52759373       0.02285347       0.98100613 </v>
    <v>       0.99749384       0.52663658       0.96507032 </v>
    <v>       0.50428980       0.73773115       0.28243854 </v>
    <v>       0.22805625       0.00600701       0.72268391 </v>
    <v>       0.49842742       0.02309669       0.46564979 </v>
    <v>       0.71982892       0.98353041       0.77738558 </v>
    <v>       0.99638539       0.76550809       0.24470256 </v>
    <v>       0.73069919       0.51548496       0.25877376 </v>
    <v>       0.01135281       0.01295667       0.51558995 </v>
    <v>       0.50623093       0.51911955       0.49196949 </v>
    <v>       0.74700972       0.51986219       0.75798774 </v>
    <v>       0.74925751       0.73661485       0.49149514 </v>
   </varray>
  </structure>
  <varray name="forces" >
   <v>      -0.01768151       0.01277425       0.00121263 </v>
   <v>      -0.03236727       0.03989381      -0.00749278 </v>
   <v>      -0.02033020      -0.03689384      -0.00219216 </v>
   <v>      -0.00960279       0.00654137       0.00980133 </v>
   <v>       0.01884568       0.03613521      -0.01946685 </v>
   <v>       0.01955237       0.00451896      -0.00029692 </v>
   <v>      -0.00843146      -0.01474933       0.00800338 </v>
   <v>       0.06302561       0.03431869      -0.03995775 </v>
   <v>      -0.06763824       0.03471965      -0.01134172 </v>
   <v>      -0.07074444       0.02982809       0.05002141 </v>
   <v>      -0.03896776       0.03737623       0.03065918 </v>
   <v>      -0.00201031       0.04141101      -0.00849710 </v>
   <v>       0.00073708      -0.00919132      -0.00620593 </v>
   <v>      -0.01920940      -0.04000553       0.02787448 </v>
   <v>      -0.03095774       0.01362209       0.00452644 </v>
   <v>       0.02901231      -0.00513046      -0.02512817 </v>
   <v>       0.03344511      -0.01616821       0.00247464 </v>
   <v>       0.03302233       0.03213047       0.00742668 </v>
   <v>       0.01882237       0.01948052      -0.02581414 </v>
   <v>       0.00922708      -0.00244848      -0.00684202 </v>
   <v>       0.00320426       0.00725864      -0.00727722 </v>
   <v>       0.07100325       0.00875638      -0.04194935 </v>
   <v>       0.00473055       0.05695608      -0.01306553 </v>
   <v>      -0.02296301       0.01950555      -0.02964472 </v>
   <v>       0.00274828       0.01022063       0.02231181 </v>
   <v>       0.01791190      -0.03256572      -0.03804135 </v>
   <v>      -0.03521237       0.00510007      -0.04936409 </v>
   <v>       0.00763544       0.05058687       0.03812761 </v>
   <v>      -0.04539714      -0.01587877      -0.00038978 </v>
   <v>       0.01946372       0.01401187      -0.02491443 </v>
   <v>      -0.00748990      -0.03866187       0.04841790 </v>
   <v>       0.00409934       0.02020660       0.00467348 </v>
   <v>      -0.05191796      -0.00161445      -0.03601258 </v>
   <v>      -0.00732429       0.02489451       0.01008498 </v>
   <v>      -0.00181167      -0.00488955       0.02008867 </v>
   <v>       0.01127486      -0.00452707      -0.00360994 </v>
   <v>      -0.01793828       0.00013658       0.00564426 </v>
   <v>       0.02765664       0.01341606       0.01223056 </v>
   <v>      -0.00553522       0.02041979      -0.00908262 </v>
   <v>       0.01766134      -0.00903259       0.02205835 </v>
   <v>      -0.02051407      -0.00970658      -0.01402012 </v>
   <v>       0.03021783      -0.00959495       0.00114148 </v>
   <v>       0.01831491      -0.00250259       0.00338044 </v>
   <v>       0.03091362       0.01237856       0.00475716 </v>
   <v>       0.00608842       0.02125275       0.00333480 </v>
   <v>       0.00432714      -0.00137688      -0.00214243 </v>
   <v>       0.00236584       0.02119037      -0.00941592 </v>
   <v>      -0.00311051      -0.01897181      -0.00269362 </v>
   <v>       0.00965392       0.01621333      -0.01790232 </v>
   <v>      -0.00178663      -0.02141774       0.01675980 </v>
   <v>      -0.00760977       0.04667406       0.00358703 </v>
   <v>       0.00304634      -0.01021641      -0.01425432 </v>
   <v>      -0.08047570      -0.05098928       0.02375753 </v>
   <v>       0.01364500      -0.07953922       0.05325465 </v>
   <v>      -0.01992110       0.03189812      -0.05303402 </v>
   <v>       0.04485422      -0.02192699       0.05395004 </v>
   <v>      -0.00481224      -0.03694374       0.03582857 </v>
   <v>       0.05702436       0.02303445      -0.03252333 </v>
   <v>       0.00867887      -0.09384226       0.01674347 </v>
   <v>       0.08668115      -0.06055085      -0.00093029 </v>
   <v>      -0.03934309      -0.03031952      -0.01428274 </v>
   <v>      -0.04143702      -0.04748835       0.01831352 </v>
   <v>      -0.00378997      -0.07483169       0.00016425 </v>
   <v>       0.00743990       0.03511444       0.00717569 </v>
  </varray>
  <varray name="stress" >
   <v>      20.83502103      -0.02726154      -0.00857376 </v>
   <v>      -0.02726152      18.21580132       0.21865821 </v>
   <v>      -0.00857162       0.21865785      16.70299740 </v>
  </varray>
  <energy>
   <i name="e_fr_energy">   -658.09150899 </i>
   <i name="e_wo_entrp">   -658.01514753 </i>
   <i name="e_0_energy">     -0.15272292 </i>
  </energy>
  <time name="totalsc">  358.80  359.77</time>
 </calculation>
 <calculation>
  <scstep>
   <time name="dav">   26.11   26.17</time>
   <time name="total">   26.39   26.45</time>
   <energy>
    <i name="alphaZ">   4121.56156435 </i>
    <i name="ewald"> -38581.13542809 </i>
    <i name="hartreedc">  -7069.77070808 </i>
    <i name="XCdc">   1274.25883586 </i>
    <i name="pawpsdc">  28488.52950493 </i>
    <i name="pawaedc"> -28126.32561942 </i>
    <i name="eentropy">     -0.15814335 </i>
    <i name="bandstr">  -3956.09397033 </i>
    <i name="atom">  43190.90428499 </i>
    <i name="e_fr_energy">   -658.22967914 </i>
    <i name="e_wo_entrp">   -658.07153579 </i>
    <i name="e_0_energy">   -658.15060746 </i>
   </energy>
  </scstep>
  <scstep>
   <time name="diag">    1.71    1.72</time>
   <time name="diis">   15.24   15.27</time>
   <time name="orth">    0.39    0.39</time>
   <time name="total">   17.62   17.66</time>
   <energy>
    <i name="e_fr_energy">   -659.83780558 </i>
    <i name="e_wo_entrp">   -659.69607504 </i>
    <i name="e_0_energy">   -659.76694031 </i>
   </energy>
  </scstep>
  <scstep>
   <time name="diag">    1.73    1.74</time>
   <time name="diis">   15.18   15.20</time>
   <time name="orth">    0.39    0.39</time>
   <time name="total">   17.58   17.61</time>
   <energy>
    <i name="e_fr_energy">   -658.15116527 </i>
    <i name="e_wo_entrp">   -657.99740454 </i>
    <i name="e_0_energy">   -658.07428491 </i>
   </energy>
  </scstep>
  <scstep>
   <time name="diag">    1.71    1.71</time>
   <time name="diis">   16.52   16.64</time>
   <time name="orth">    0.39    0.39</time>
   <time name="total">   18.89   19.03</time>
   <energy>
    <i name="e_fr_energy">   -658.15445205 </i>
    <i name="e_wo_entrp">   -658.00135222 </i>
    <i name="e_0_energy">   -658.07790213 </i>
   </energy>
  </scstep>
  <scstep>
   <time name="diag">    1.71    1.72</time>
   <time name="diis">   16.03   16.04</time>
   <time name="orth">    0.39    0.39</time>
   <time name="total">   18.41   18.43</time>
   <energy>
    <i name="e_fr_energy">   -658.12572582 </i>
    <i name="e_wo_entrp">   -657.97212937 </i>
    <i name="e_0_energy">   -658.04892759 </i>
   </energy>
  </scstep>
  <scstep>
   <time name="diag">    1.71    1.72</time>
   <time name="diis">   15.39   15.43</time>
   <time name="orth">    0.39    0.39</time>
   <time name="total">   17.77   17.82</time>
   <energy>
    <i name="e_fr_energy">   -658.12291048 </i>
    <i name="e_wo_entrp">   -657.96696514 </i>
    <i name="e_0_energy">   -658.04493781 </i>
   </energy>
  </scstep>
  <scstep>
   <time name="diag">    1.72    1.72</time>
   <time name="diis">   17.41   17.43</time>
   <time name="orth">    0.39    0.39</time>
   <time name="total">   19.80   19.83</time>
   <energy>
    <i name="e_fr_energy">   -658.11463375 </i>
    <i name="e_wo_entrp">   -657.96063481 </i>
    <i name="e_0_energy">   -658.03763428 </i>
   </energy>
  </scstep>
  <scstep>
   <time name="diag">    1.72    1.72</time>
   <time name="diis">   15.16   15.18</time>
   <time name="orth">    0.39    0.39</time>
   <time name="total">   17.55   17.58</time>
   <energy>
    <i name="e_fr_energy">   -658.11455996 </i>
    <i name="e_wo_entrp">   -657.96063524 </i>
    <i name="e_0_energy">   -658.03759760 </i>
   </energy>
  </scstep>
  <scstep>
   <time name="diag">    1.72    1.72</time>
   <time name="diis">   15.96   15.98</time>
   <time name="orth">    0.39    0.39</time>
   <time name="total">   18.35   18.37</time>
   <energy>
    <i name="e_fr_energy">   -658.11270913 </i>
    <i name="e_wo_entrp">   -657.95855268 </i>
    <i name="e_0_energy">   -658.03563090 </i>
   </energy>
  </scstep>
  <scstep>
   <time name="diag">    1.71    1.72</time>
   <time name="diis">   17.56   17.65</time>
   <time name="orth">    0.39    0.39</time>
   <time name="total">   19.95   20.04</time>
   <energy>
    <i name="e_fr_energy">   -658.11281983 </i>
    <i name="e_wo_entrp">   -657.95888863 </i>
    <i name="e_0_energy">   -658.03585423 </i>
   </energy>
  </scstep>
  <scstep>
   <time name="diag">    1.71    1.71</time>
   <time name="diis">   14.93   14.95</time>
   <time name="orth">    0.40    0.40</time>
   <time name="total">   17.32   17.34</time>
   <energy>
    <i name="e_fr_energy">   -658.11272567 </i>
    <i name="e_wo_entrp">   -657.95860693 </i>
    <i name="e_0_energy">   -658.03566630 </i>
   </energy>
  </scstep>
  <scstep>
   <time name="diag">    1.72    1.74</time>
   <time name="diis">   16.25   16.27</time>
   <time name="orth">    0.39    0.39</time>
   <time name="total">   18.64   18.68</time>
   <energy>
    <i name="e_fr_energy">   -658.11272248 </i>
    <i name="e_wo_entrp">   -657.95865156 </i>
    <i name="e_0_energy">   -658.03568702 </i>
   </energy>
  </scstep>
  <scstep>
   <time name="diag">    1.73    1.73</time>
   <time name="diis">   13.73   13.76</time>
   <time name="orth">    0.39    0.39</time>
   <time name="total">   16.14   16.16</time>
   <energy>
    <i name="e_fr_energy">   -658.11274449 </i>
    <i name="e_wo_entrp">   -657.95868048 </i>
    <i name="e_0_energy">   -658.03571249 </i>
   </energy>
  </scstep>
  <scstep>
   <time name="diag">    1.72    1.72</time>
   <time name="diis">   12.76   12.77</time>
   <time name="orth">    0.39    0.39</time>
   <time name="total">   14.91   14.92</time>
   <energy>
    <i name="alphaZ">   4121.56156435 </i>
    <i name="ewald"> -38581.13542809 </i>
    <i name="hartreedc">  -7102.42220617 </i>
    <i name="XCdc">   1275.98519815 </i>
    <i name="pawpsdc">  28434.43441634 </i>
    <i name="pawaedc"> -28071.44822565 </i>
    <i name="eentropy">     -0.15407802 </i>
    <i name="bandstr">  -3925.83826717 </i>
    <i name="atom">  43190.90428499 </i>
    <i name="e_fr_energy">   -658.11274128 </i>
    <i name="e_wo_entrp">   -657.95866326 </i>
    <i name="e_0_energy">   -658.03570227 </i>
   </energy>
  </scstep>
  <structure>
   <crystal>
    <varray name="basis" >
     <v>       8.68467578      -0.01236918       0.00323817 </v>
     <v>      -0.00682540       8.77530842       0.00159430 </v>
     <v>       0.03427932      -0.01337823       8.80604901 </v>
    </varray>
    <i name="volume">    671.11370080 </i>
    <varray name="rec_basis" >
     <v>       0.11514564       0.00008964      -0.00044809 </v>
     <v>       0.00016224       0.11395620       0.00017249 </v>
     <v>      -0.00004237      -0.00002066       0.11355844 </v>
    </varray>
   </crystal>
   <varray name="positions" >
    <v>       0.99911992       0.99152928       0.00724490 </v>
    <v>       0.25825292       0.99232003       0.25594265 </v>
    <v>       0.25221371       0.50858475       0.24807498 </v>
    <v>       0.50364999       0.50108611       0.99387868 </v>
    <v>       0.50213500       0.24010147       0.75601147 </v>
    <v>       0.99364095       0.50429370       0.50444865 </v>
    <v>       0.50103632       0.75881526       0.73957222 </v>
    <v>       0.98915302       0.22804241       0.26136160 </v>
    <v>       0.76246458       0.74255963       0.99742351 </v>
    <v>       0.01503566       0.23448605       0.73581559 </v>
    <v>       0.76104764       0.23361376       0.48127232 </v>
    <v>       0.00282304       0.73712297       0.75230638 </v>
    <v>       0.24965626       0.50183772       0.75207498 </v>
    <v>       0.25173315       0.25982419       0.99175965 </v>
    <v>       0.50636446       0.24349102       0.25179759 </v>
    <v>       0.73627596       0.99788285       0.27168728 </v>
    <v>       0.74725010       0.25593186       0.98575285 </v>
    <v>       0.24941098       0.74654901       0.99981296 </v>
    <v>       0.25584110       0.25054168       0.50555034 </v>
    <v>       0.24848313       0.75399101       0.50129022 </v>
    <v>       0.24403103       0.24938968       0.25120596 </v>
    <v>       0.24249111       0.00155171       0.00654323 </v>
    <v>       0.99861352       0.23880233       0.00983280 </v>
    <v>       0.75313363       0.25340160       0.23778332 </v>
    <v>       0.74898410       0.99516788       0.00385026 </v>
    <v>       0.49664387       0.98506513       0.23445712 </v>
    <v>       0.00218826       0.48766364       0.25954848 </v>
    <v>       0.50349170       0.75157864       0.99008133 </v>
    <v>       0.99623641       0.99105849       0.76234266 </v>
    <v>       0.75476306       0.22484462       0.74149858 </v>
    <v>       0.74094701       0.99839335       0.52061612 </v>
    <v>       0.51006494       0.25058119       0.50734303 </v>
    <v>       0.49188488       0.00013529       0.75691817 </v>
    <v>       0.99776783       0.99683989       0.26274419 </v>
    <v>       0.49882476       0.24931601       0.00261949 </v>
    <v>       0.25892583       0.75038449       0.25003835 </v>
    <v>       0.23968619       0.50072616       0.99993528 </v>
    <v>       0.00244407       0.74213443       0.00187410 </v>
    <v>       0.73916935       0.75058202       0.24136934 </v>
    <v>       0.76450161       0.49854441       0.00860492 </v>
    <v>       0.49517169       0.50556190       0.24558894 </v>
    <v>       0.25419814       0.24312717       0.75044456 </v>
    <v>       0.26547480       0.00267130       0.50492516 </v>
    <v>       0.00313607       0.25659780       0.50106228 </v>
    <v>       0.25012105       0.76100243       0.75096648 </v>
    <v>       0.24998292       0.50208638       0.50078406 </v>
    <v>       0.99697623       0.75604646       0.50372707 </v>
    <v>       0.99585270       0.48609939       0.75126328 </v>
    <v>       0.75396894       0.76218139       0.74585374 </v>
    <v>       0.74670293       0.48585410       0.50700390 </v>
    <v>       0.50305575       0.76879802       0.49660296 </v>
    <v>       0.49816192       0.50167325       0.74478812 </v>
    <v>       0.52755939       0.02284808       0.98104043 </v>
    <v>       0.99750745       0.52657792       0.96502235 </v>
    <v>       0.50427687       0.73774223       0.28246028 </v>
    <v>       0.22810654       0.00601917       0.72266930 </v>
    <v>       0.49848387       0.02310966       0.46562658 </v>
[...]
      </set>
     </set>
    </set>
   </array>
  </eigenvalues>
  <separator name="orbital magnetization" >
   <v name="MAGDIPOLOUT">      0.00000000      0.00000000      0.00000000</v>
  </separator>
  <dos>
   <i name="efermi">      9.56182106 </i>
   <total>
    <array>
     <dimension dim="1">gridpoints</dimension>
     <dimension dim="2">spin</dimension>
     <field>energy</field>
     <field>total</field>
     <field>integrated</field>
     <set>
      <set comment="spin 1">
       <r>   -49.4916     0.0000     0.0000 </r>
       <r>   -49.2748     0.0000     0.0000 </r>
       <r>   -49.0580     0.0000     0.0000 </r>
       <r>   -48.8413     0.0000     0.0000 </r>
       <r>   -48.6245     0.0000     0.0000 </r>
       <r>   -48.4078     0.0000     0.0000 </r>
       <r>   -48.1910     0.0000     0.0000 </r>
       <r>   -47.9742     0.0000     0.0000 </r>
       <r>   -47.7575     0.0000     0.0000 </r>
       <r>   -47.5407     0.0000     0.0000 </r>
       <r>   -47.3240     0.0000     0.0000 </r>
       <r>   -47.1072     0.0000     0.0000 </r>
       <r>   -46.8905     0.0000     0.0000 </r>
       <r>   -46.6737     0.2803     0.0608 </r>
       <r>   -46.4569    17.8699     3.9342 </r>
       <r>   -46.2402    34.5201    11.4167 </r>
       <r>   -46.0234     8.8971    13.3452 </r>
       <r>   -45.8067     3.0188    13.9996 </r>
       <r>   -45.5899     0.0020    14.0000 </r>
       <r>   -45.3732     0.0000    14.0000 </r>
       <r>   -45.1564     0.0000    14.0000 </r>
       <r>   -44.9396     0.0000    14.0000 </r>
       <r>   -44.7229     0.0000    14.0000 </r>
       <r>   -44.5061     0.0000    14.0000 </r>
       <r>   -44.2894     0.0000    14.0000 </r>
       <r>   -44.0726     0.0000    14.0000 </r>
       <r>   -43.8558     0.0000    14.0000 </r>
       <r>   -43.6391     0.0000    14.0000 </r>
       <r>   -43.4223     0.0000    14.0000 </r>
       <r>   -43.2056     0.0000    14.0000 </r>
       <r>   -42.9888     0.0000    14.0000 </r>
       <r>   -42.7721     0.0000    14.0000 </r>
       <r>   -42.5553     0.0000    14.0000 </r>
       <r>   -42.3385     0.0000    14.0000 </r>
       <r>   -42.1218     0.0000    14.0000 </r>
       <r>   -41.9050     0.0000    14.0000 </r>
       <r>   -41.6883     0.0000    14.0000 </r>
       <r>   -41.4715     0.0000    14.0000 </r>
       <r>   -41.2548     0.0000    14.0000 </r>
       <r>   -41.0380     0.0000    14.0000 </r>
       <r>   -40.8212     0.0000    14.0000 </r>
       <r>   -40.6045     0.0000    14.0000 </r>
       <r>   -40.3877     0.0000    14.0000 </r>
       <r>   -40.1710     0.0000    14.0000 </r>
       <r>   -39.9542     0.0000    14.0000 </r>
       <r>   -39.7374     0.0000    14.0000 </r>
       <r>   -39.5207     0.0000    14.0000 </r>
       <r>   -39.3039     0.0000    14.0000 </r>
       <r>   -39.0872     0.0000    14.0000 </r>
       <r>   -38.8704     0.0000    14.0000 </r>
       <r>   -38.6537     0.0000    14.0000 </r>
       <r>   -38.4369     0.0000    14.0000 </r>
       <r>   -38.2201     0.0000    14.0000 </r>
       <r>   -38.0034     0.0000    14.0000 </r>
       <r>   -37.7866     0.0000    14.0000 </r>
       <r>   -37.5699     0.0000    14.0000 </r>
       <r>   -37.3531     0.0000    14.0000 </r>
       <r>   -37.1364     0.0000    14.0000 </r>
       <r>   -36.9196     0.0000    14.0000 </r>
       <r>   -36.7028     0.0000    14.0000 </r>
       <r>   -36.4861     0.0000    14.0000 </r>
       <r>   -36.2693     0.0000    14.0000 </r>
       <r>   -36.0526     0.0000    14.0000 </r>
       <r>   -35.8358     0.0000    14.0000 </r>
       <r>   -35.6190     0.0000    14.0000 </r>
       <r>   -35.4023     0.0000    14.0000 </r>
       <r>   -35.1855     0.0000    14.0000 </r>
       <r>   -34.9688     0.0000    14.0000 </r>
       <r>   -34.7520     0.0000    14.0000 </r>
       <r>   -34.5353     0.0369    14.0080 </r>
       <r>   -34.3185     6.2016    15.3522 </r>
       <r>   -34.1017    43.4385    24.7679 </r>
       <r>   -33.8850    95.5746    45.4844 </r>
       <r>   -33.6682    20.7428    49.9806 </r>
       <r>   -33.4515     0.0895    50.0000 </r>
       <r>   -33.2347     0.0000    50.0000 </r>
       <r>   -33.0180     0.0000    50.0000 </r>
       <r>   -32.8012     0.0000    50.0000 </r>
       <r>   -32.5844     0.0000    50.0000 </r>
       <r>   -32.3677     0.0000    50.0000 </r>
       <r>   -32.1509     0.0000    50.0000 </r>
       <r>   -31.9342     0.0000    50.0000 </r>
       <r>   -31.7174     0.0000    50.0000 </r>
       <r>   -31.5006     0.0000    50.0000 </r>
       <r>   -31.2839     0.0000    50.0000 </r>
       <r>   -31.0671     0.0000    50.0000 </r>
       <r>   -30.8504     0.0000    50.0000 </r>
       <r>   -30.6336     0.0000    50.0000 </r>
       <r>   -30.4169     0.1636    50.0355 </r>
       <r>   -30.2001    11.6505    52.5608 </r>
       <r>   -29.9833    24.4487    57.8602 </r>
       <r>   -29.7666    76.4908    74.4402 </r>
       <r>   -29.5498    51.7047    85.6476 </r>
       <r>   -29.3331     1.6256    86.0000 </r>
       <r>   -29.1163     0.0001    86.0000 </r>
       <r>   -28.8996     0.0000    86.0000 </r>
       <r>   -28.6828     0.0000    86.0000 </r>
       <r>   -28.4660     0.0000    86.0000 </r>
       <r>   -28.2493     0.0000    86.0000 </r>
       <r>   -28.0325     0.0000    86.0000 </r>
       <r>   -27.8158     0.0000    86.0000 </r>
       <r>   -27.5990     0.0000    86.0000 </r>
       <r>   -27.3822     0.0000    86.0000 </r>
       <r>   -27.1655     0.0000    86.0000 </r>
       <r>   -26.9487     0.0000    86.0000 </r>
       <r>   -26.7320     0.0000    86.0000 </r>
       <r>   -26.5152     0.0147    86.0032 </r>
       <r>   -26.2985     7.0423    87.5297 </r>
       <r>   -26.0817    20.2839    91.9264 </r>
       <r>   -25.8649    59.2400   104.7671 </r>
       <r>   -25.6482    89.6759   124.2051 </r>
       <r>   -25.4314    17.4643   127.9906 </r>
       <r>   -25.2147     0.0434   128.0000 </r>
       <r>   -24.9979     0.0000   128.0000 </r>
       <r>   -24.7812     0.0000   128.0000 </r>
       <r>   -24.5644     0.0000   128.0000 </r>
       <r>   -24.3476     0.0000   128.0000 </r>
       <r>   -24.1309     0.0000   128.0000 </r>
       <r>   -23.9141     0.0000   128.0000 </r>
       <r>   -23.6974     0.0000   128.0000 </r>
       <r>   -23.4806     0.0000   128.0000 </r>
       <r>   -23.2638     0.0000   128.0000 </r>
       <r>   -23.0471     0.3584   128.0777 </r>
       <r>   -22.8303    11.2276   130.5114 </r>
       <r>   -22.6136    51.7143   141.7208 </r>
       <r>   -22.3968    89.0070   161.0138 </r>
       <r>   -22.1801    36.6980   168.9684 </r>
       <r>   -21.9633     4.7578   169.9997 </r>
       <r>   -21.7465     0.0016   170.0000 </r>
       <r>   -21.5298     0.0000   170.0000 </r>
       <r>   -21.3130     0.0000   170.0000 </r>
       <r>   -21.0963     0.0000   170.0000 </r>
       <r>   -20.8795     0.0000   170.0000 </r>
       <r>   -20.6628     0.0000   170.0000 </r>
       <r>   -20.4460     0.0000   170.0000 </r>
       <r>   -20.2292     0.0000   170.0000 </r>
       <r>   -20.0125     0.0000   170.0000 </r>
       <r>   -19.7957     0.0000   170.0000 </r>
       <r>   -19.5790     0.0000   170.0000 </r>
       <r>   -19.3622     0.0000   170.0000 </r>
       <r>   -19.1454     0.0000   170.0000 </r>
       <r>   -18.9287     0.0000   170.0000 </r>
       <r>   -18.7119     0.0000   170.0000 </r>
       <r>   -18.4952     0.0000   170.0000 </r>
       <r>   -18.2784     0.0000   170.0000 </r>
       <r>   -18.0617     0.0000   170.0000 </r>
       <r>   -17.8449     0.0000   170.0000 </r>
       <r>   -17.6281     0.0000   170.0000 </r>
       <r>   -17.4114     0.0000   170.0000 </r>
       <r>   -17.1946     0.0000   170.0000 </r>
       <r>   -16.9779     0.0000   170.0000 </r>
       <r>   -16.7611     0.0000   170.0000 </r>
       <r>   -16.5444     0.0000   170.0000 </r>
       <r>   -16.3276     0.0000   170.0000 </r>
       <r>   -16.1108     0.0000   170.0000 </r>
       <r>   -15.8941     0.0000   170.0000 </r>
       <r>   -15.6773     0.0000   170.0000 </r>
       <r>   -15.4606     0.0000   170.0000 </r>
       <r>   -15.2438     0.0000   170.0000 </r>
       <r>   -15.0270     0.0000   170.0000 </r>
       <r>   -14.8103     0.0000   170.0000 </r>
       <r>   -14.5935     0.0000   170.0000 </r>
       <r>   -14.3768     0.0000   170.0000 </r>
       <r>   -14.1600     0.0000   170.0000 </r>
       <r>   -13.9433     0.0000   170.0000 </r>
       <r>   -13.7265     0.0000   170.0000 </r>
       <r>   -13.5097     0.0000   170.0000 </r>
       <r>   -13.2930     0.0000   170.0000 </r>
       <r>   -13.0762     0.0000   170.0000 </r>
       <r>   -12.8595     0.0000   170.0000 </r>
       <r>   -12.6427     0.0000   170.0000 </r>
       <r>   -12.4260     0.0000   170.0000 </r>
       <r>   -12.2092     0.0000   170.0000 </r>
       <r>   -11.9924     0.0000   170.0000 </r>
       <r>   -11.7757     0.0000   170.0000 </r>
       <r>   -11.5589     0.0000   170.0000 </r>
       <r>   -11.3422     0.0000   170.0000 </r>
       <r>   -11.1254     0.0000   170.0000 </r>
       <r>   -10.9087     0.0000   170.0000 </r>
       <r>   -10.6919     0.0000   170.0000 </r>
       <r>   -10.4751     0.0000   170.0000 </r>
       <r>   -10.2584     0.0000   170.0000 </r>
       <r>   -10.0416     0.0000   170.0000 </r>
       <r>    -9.8249     0.0000   170.0000 </r>
       <r>    -9.6081     0.0000   170.0000 </r>
       <r>    -9.3913     0.0000   170.0000 </r>
       <r>    -9.1746     0.0000   170.0000 </r>
       <r>    -8.9578     0.0000   170.0000 </r>
       <r>    -8.7411     0.0000   170.0000 </r>
       <r>    -8.5243     0.0000   170.0000 </r>
       <r>    -8.3076     0.0000   170.0000 </r>
       <r>    -8.0908     0.0000   170.0000 </r>
       <r>    -7.8740     0.0000   170.0000 </r>
       <r>    -7.6573     0.0000   170.0000 </r>
       <r>    -7.4405     0.0200   170.0043 </r>
       <r>    -7.2238     1.9310   170.4229 </r>
       <r>    -7.0070     6.5582   171.8444 </r>
       <r>    -6.7903     7.0620   173.3752 </r>
       <r>    -6.5735     7.4541   174.9909 </r>
       <r>    -6.3567    15.9380   178.4456 </r>
       <r>    -6.1400    13.1116   181.2876 </r>
       <r>    -5.9232    19.2086   185.4513 </r>
       <r>    -5.7065    13.0597   188.2820 </r>
       <r>    -5.4897    27.1730   194.1720 </r>
       <r>    -5.2729     8.4159   195.9962 </r>
       <r>    -5.0562     0.0175   196.0000 </r>
       <r>    -4.8394     0.0000   196.0000 </r>
       <r>    -4.6227     0.0000   196.0000 </r>
       <r>    -4.4059     0.0000   196.0000 </r>
       <r>    -4.1892     0.0000   196.0000 </r>
       <r>    -3.9724     0.2070   196.0449 </r>
       <r>    -3.7556     6.4118   197.4347 </r>
       <r>    -3.5389     2.7818   198.0376 </r>
       <r>    -3.3221     7.7808   199.7242 </r>
       <r>    -3.1054    11.9735   202.3196 </r>
       <r>    -2.8886    12.2414   204.9730 </r>
       <r>    -2.6719    22.1818   209.7811 </r>
       <r>    -2.4551    23.1352   214.7958 </r>
       <r>    -2.2383    27.8159   220.8251 </r>
       <r>    -2.0216    24.9071   226.2239 </r>
       <r>    -1.8048    17.2647   229.9662 </r>
       <r>    -1.5881    12.4143   232.6571 </r>
       <r>    -1.3713     5.5866   233.8680 </r>
       <r>    -1.1545     0.5999   233.9980 </r>
       <r>    -0.9378     0.0090   234.0000 </r>
       <r>    -0.7210     0.0000   234.0000 </r>
       <r>    -0.5043     0.0000   234.0000 </r>
       <r>    -0.2875     0.0000   234.0000 </r>
       <r>    -0.0708     0.0000   234.0000 </r>
       <r>     0.1460     0.0000   234.0000 </r>
       <r>     0.3628     0.0000   234.0000 </r>
       <r>     0.5795     0.0163   234.0035 </r>
       <r>     0.7963     0.3498   234.0794 </r>
       <r>     1.0130     1.6500   234.4370 </r>
       <r>     1.2298     4.9006   235.4992 </r>
       <r>     1.4465     9.9776   237.6620 </r>
       <r>     1.6633    11.6060   240.1777 </r>
       <r>     1.8801    16.7298   243.8040 </r>
       <r>     2.0968    20.4173   248.2296 </r>
       <r>     2.3136    26.9373   254.0685 </r>
       <r>     2.5303    27.9444   260.1256 </r>
       <r>     2.7471    25.9757   265.7561 </r>
       <r>     2.9639    31.9772   272.6874 </r>
       <r>     3.1806    29.0495   278.9841 </r>
       <r>     3.3974    33.8784   286.3275 </r>
       <r>     3.6141    41.4483   295.3117 </r>
       <r>     3.8309    53.9530   307.0065 </r>
       <r>     4.0476    57.4358   319.4561 </r>
       <r>     4.2644    62.9728   333.1060 </r>
       <r>     4.4812    68.0833   347.8636 </r>
       <r>     4.6979    68.2024   362.6470 </r>
       <r>     4.9147    60.1900   375.6936 </r>
       <r>     5.1314    49.7660   386.4808 </r>
       <r>     5.3482    37.7734   394.6685 </r>
       <r>     5.5649    31.9087   401.5850 </r>
       <r>     5.7817    29.0538   407.8826 </r>
       <r>     5.9985    25.4641   413.4022 </r>
       <r>     6.2152    23.0886   418.4068 </r>
       <r>     6.4320    18.4961   422.4160 </r>
       <r>     6.6487    11.3643   424.8793 </r>
       <r>     6.8655     7.1328   426.4254 </r>
       <r>     7.0823    14.7140   429.6147 </r>
       <r>     7.2990    16.2895   433.1456 </r>
       <r>     7.5158    18.2527   437.1020 </r>
       <r>     7.7325    19.7210   441.3767 </r>
       <r>     7.9493    20.1735   445.7495 </r>
       <r>     8.1660    20.6207   450.2192 </r>
       <r>     8.3828    25.6973   455.7892 </r>
       <r>     8.5996    30.9990   462.5085 </r>
       <r>     8.8163    30.9943   469.2268 </r>
       <r>     9.0331    24.8244   474.6077 </r>
       <r>     9.2498    25.7988   480.1998 </r>
       <r>     9.4666    27.4335   486.1462 </r>
       <r>     9.6833    30.7275   492.8066 </r>
       <r>     9.9001    34.6275   500.3124 </r>
       <r>    10.1169    39.4566   508.8649 </r>
       <r>    10.3336    44.3175   518.4711 </r>
       <r>    10.5504    48.1063   528.8985 </r>
       <r>    10.7671    51.0650   539.9673 </r>
       <r>    10.9839    48.3781   550.4536 </r>
       <r>    11.2007    48.6318   560.9949 </r>
       <r>    11.4174    47.9871   571.3965 </r>
       <r>    11.6342    50.2546   582.2896 </r>
       <r>    11.8509    49.0659   592.9250 </r>
       <r>    12.0677    48.8444   603.5124 </r>
       <r>    12.2844    49.9272   614.3345 </r>
       <r>    12.5012    37.4568   622.4536 </r>
       <r>    12.7180     7.0863   623.9896 </r>
       <r>    12.9347     0.0481   624.0000 </r>
       <r>    13.1515     0.0000   624.0000 </r>
       <r>    13.3682     0.0000   624.0000 </r>
       <r>    13.5850     0.0000   624.0000 </r>
       <r>    13.8017     0.0000   624.0000 </r>
       <r>    14.0185     0.0000   624.0000 </r>
       <r>    14.2353     0.0000   624.0000 </r>
       <r>    14.4520     0.0000   624.0000 </r>
       <r>    14.6688     0.0000   624.0000 </r>
       <r>    14.8855     0.0000   624.0000 </r>
       <r>    15.1023     0.0000   624.0000 </r>
       <r>    15.3191     0.0000   624.0000 </r>
       <r>    15.5358     0.0000   624.0000 </r>
      </set>
     </set>
    </array>
   </total>
  </dos>
 </calculation>
 <structure name="finalpos" >
  <crystal>
   <varray name="basis" >
    <v>       8.68417613      -0.01265759       0.00353549 </v>
    <v>      -0.00712430       8.77015615       0.00243509 </v>
    <v>       0.03458031      -0.01252762       8.80681834 </v>
   </varray>
   <i name="volume">    670.73960421 </i>
   <varray name="rec_basis" >
    <v>       0.11515229       0.00009367      -0.00045202 </v>
    <v>       0.00016613       0.11402315       0.00016154 </v>
    <v>      -0.00004627      -0.00003157       0.11354852 </v>
   </varray>
  </crystal>
  <varray name="positions" >
   <v>       0.99900163       0.99164049       0.00726797 </v>
   <v>       0.25812139       0.99248057       0.25597114 </v>
   <v>       0.25217412       0.50845069       0.24790147 </v>
   <v>       0.50363991       0.50105605       0.99406992 </v>
   <v>       0.50240916       0.24033098       0.75600129 </v>
   <v>       0.99373433       0.50435627       0.50451320 </v>
   <v>       0.50116042       0.75867652       0.73953505 </v>
   <v>       0.98930088       0.22830311       0.26130501 </v>
   <v>       0.76236463       0.74260413       0.99706840 </v>
   <v>       0.01492887       0.23480352       0.73597741 </v>
   <v>       0.76125613       0.23389094       0.48123634 </v>
   <v>       0.00283478       0.73726483       0.75240677 </v>
   <v>       0.24972029       0.50169891       0.75221328 </v>
   <v>       0.25194668       0.25932961       0.99165894 </v>
   <v>       0.50625505       0.24330407       0.25197799 </v>
   <v>       0.73633158       0.99776701       0.27172436 </v>
   <v>       0.74725583       0.25608014       0.98577209 </v>
   <v>       0.24946872       0.74673197       0.99991264 </v>
   <v>       0.25601955       0.25068254       0.50566665 </v>
   <v>       0.24858519       0.75396956       0.50119414 </v>
   <v>       0.24400530       0.24946111       0.25118094 </v>
   <v>       0.24294631       0.00164736       0.00616645 </v>
   <v>       0.99874964       0.23935586       0.00968978 </v>
   <v>       0.75319124       0.25335687       0.23760653 </v>
   <v>       0.74885850       0.99533496       0.00381342 </v>
   <v>       0.49665825       0.98475106       0.23438377 </v>
   <v>       0.00198984       0.48781575       0.25927435 </v>
   <v>       0.50365948       0.75210966       0.99024548 </v>
   <v>       0.99575337       0.99115316       0.76236826 </v>
   <v>       0.75498620       0.22522265       0.74126513 </v>
   <v>       0.74081845       0.99842743       0.52092380 </v>
   <v>       0.51034006       0.25046345       0.50744354 </v>
   <v>       0.49171998       0.00015292       0.75647902 </v>
   <v>       0.99779831       0.99673009       0.26267997 </v>
   <v>       0.49899612       0.24924671       0.00274746 </v>
   <v>       0.25895767       0.75041160       0.25003193 </v>
   <v>       0.23975250       0.50064483       0.99991963 </v>
   <v>       0.00245722       0.74210930       0.00196320 </v>
   <v>       0.73920017       0.75048630       0.24119818 </v>
   <v>       0.76449304       0.49862030       0.00889082 </v>
   <v>       0.49519811       0.50554828       0.24558721 </v>
   <v>       0.25433752       0.24295113       0.75040263 </v>
   <v>       0.26529933       0.00271616       0.50508047 </v>
   <v>       0.00338065       0.25675529       0.50100608 </v>
   <v>       0.25021130       0.76103638       0.75098363 </v>
   <v>       0.24994513       0.50214876       0.50073315 </v>
   <v>       0.99697786       0.75619001       0.50374584 </v>
   <v>       0.99592670       0.48623253       0.75134382 </v>
   <v>       0.75405159       0.76214467       0.74565096 </v>
   <v>       0.74668975       0.48579471       0.50727886 </v>
   <v>       0.50312130       0.76890281       0.49654062 </v>
   <v>       0.49808691       0.50165167       0.74480915 </v>
   <v>       0.52698978       0.02241107       0.98081071 </v>
   <v>       0.99755141       0.52636123       0.96529389 </v>
   <v>       0.50436435       0.73792857       0.28228763 </v>
   <v>       0.22783713       0.00569981       0.72291615 </v>
   <v>       0.49802107       0.02276236       0.46577415 </v>
   <v>       0.71977885       0.98374234       0.77714351 </v>
   <v>       0.99633148       0.76518577       0.24473234 </v>
   <v>       0.73086625       0.51524384       0.25910616 </v>
   <v>       0.01108143       0.01296926       0.51553529 </v>
   <v>       0.50598454       0.51890475       0.49191615 </v>
   <v>       0.74685862       0.51922124       0.75823642 </v>
   <v>       0.74926851       0.73657387       0.49143956 </v>
  </varray>
 </structure>
</modeling>
