HECN                                    
           1
     8.692700   -0.012239    0.003149
    -0.006690    8.782578    0.001580
     0.034218   -0.013404    8.811378
   Ta   W    Nb   N    C    Cr   Mo
   7   6   7  13  19   6   6
Direct configuration=     1
   0.99911957  0.99153568  0.00724521
   0.25825347  0.99232259  0.25594780
   0.25221857  0.50858970  0.24807900
   0.50364391  0.50110017  0.99386995
   0.50212735  0.24009207  0.75600893
   0.99364570  0.50429599  0.50445289
   0.50103417  0.75881599  0.73957284
   0.98916546  0.22798644  0.26136158
   0.76243796  0.74255529  0.99742688
   0.01500999  0.23446282  0.73579627
   0.76101973  0.23359214  0.48126632
   0.00281560  0.73711693  0.75230646
   0.24965388  0.50184354  0.75207279
   0.25170808  0.25983221  0.99176948
   0.50636817  0.24349361  0.25179805
   0.73628699  0.99789512  0.27169068
   0.74726338  0.25591873  0.98574765
   0.24942840  0.74655533  0.99981194
   0.25584128  0.25053887  0.50554225
   0.24848618  0.75398871  0.50129274
   0.24405182  0.24939145  0.25121172
   0.24249407  0.00154585  0.00654817
   0.99860961  0.23878836  0.00982874
   0.75310440  0.25339729  0.23778352
   0.74899695  0.99516434  0.00385935
   0.49666095  0.98508516  0.23446488
   0.00218799  0.48765829  0.25955273
   0.50348095  0.75156594  0.99007825
   0.99624007  0.99105559  0.76234735
   0.75475400  0.22484009  0.74150597
   0.74095176  0.99839343  0.52059625
   0.51004251  0.25058961  0.50733711
   0.49187178  0.00014251  0.75692301
   0.99775053  0.99690376  0.26275672
   0.49882156  0.24931990  0.00262054
   0.25892336  0.75037903  0.25003624
   0.23968766  0.50072703  0.99993367
   0.00245881  0.74215778  0.00186940
   0.73917235  0.75058461  0.24138085
   0.76449785  0.49854010  0.00859560
   0.49515288  0.50555179  0.24558146
   0.25421469  0.24313496  0.75044510
   0.26547582  0.00267178  0.50491675
   0.00314647  0.25657562  0.50108599
   0.25011799  0.76100097  0.75096738
   0.24997947  0.50208123  0.50078627
   0.99698261  0.75603845  0.50372962
   0.99585598  0.48610160  0.75126449
   0.75397065  0.76216257  0.74585910
   0.74670426  0.48586044  0.50699522
   0.50304952  0.76879015  0.49660334
   0.49816390  0.50167575  0.74479298
   0.52754442  0.02284574  0.98105543
   0.99751339  0.52655233  0.96500137
   0.50427124  0.73774707  0.28246979
   0.22812846  0.00602447  0.72266291
   0.49850848  0.02311532  0.46561644
   0.71991603  0.98360287  0.77741228
   0.99639329  0.76542395  0.24468276
   0.73077897  0.51554391  0.25879007
   0.01134648  0.01303602  0.51557201
   0.50623109  0.51916343  0.49194758
   0.74701959  0.51993082  0.75799514
   0.74924788  0.73660644  0.49147689
HECN                                    
           1
     8.666447   -0.012665    0.003441
    -0.007133    8.758793    0.001626
     0.034418   -0.013320    8.793942
   Ta   W    Nb   N    C    Cr   Mo
   7   6   7  13  19   6   6
Direct configuration=     2
   0.99912073  0.99151463  0.00724419
   0.25825164  0.99231416  0.25593086
   0.25220253  0.50857339  0.24806577
   0.50366395  0.50105388  0.99389863
   0.50215255  0.24012303  0.75601728
   0.99363003  0.50428844  0.50443894
   0.50104125  0.75881359  0.73957082
   0.98912451  0.22817071  0.26136165
   0.76252568  0.74256959  0.99741579
   0.01509456  0.23453930  0.73585978
   0.76111168  0.23366332  0.48128602
   0.00284011  0.73713681  0.75230621
   0.24966171  0.50182439  0.75208000
   0.25179067  0.25980581  0.99173718
   0.50635595  0.24348507  0.25179654
   0.73625064  0.99785473  0.27167951
   0.74721963  0.25596196  0.98576473
   0.24937102  0.74653451  0.99981528
   0.25584070  0.25054813  0.50556885
   0.24847615  0.75399627  0.50128446
   0.24398333  0.24938560  0.25119281
   0.24248433  0.00156515  0.00653193
   0.99862247  0.23883435  0.00984210
   0.75320068  0.25341149  0.23778286
   0.74895462  0.99517599  0.00382948
   0.49660467  0.98501922  0.23443938
   0.00218890  0.48767590  0.25953876
   0.50351636  0.75160776  0.99008838
   0.99622801  0.99106513  0.76233194
   0.75478384  0.22485501  0.74148167
   0.74093609  0.99839315  0.52066155
   0.51011641  0.25056191  0.50735656
   0.49191492  0.00011875  0.75690708
   0.99780750  0.99669351  0.26271554
   0.49883209  0.24930709  0.00261708
   0.25893152  0.75039699  0.25004320
   0.23968281  0.50072417  0.99993896
   0.00241024  0.74208090  0.00188487
   0.73916246  0.75057610  0.24134303
   0.76451025  0.49855427  0.00862624
   0.49521485  0.50558507  0.24560603
   0.25416016  0.24310932  0.75044334
   0.26547245  0.00267019  0.50494440
   0.00311224  0.25664862  0.50100805
   0.25012806  0.76100577  0.75096441
   0.24999084  0.50209819  0.50077902
   0.99696159  0.75606483  0.50372123
   0.99584519  0.48609431  0.75126052
   0.75396502  0.76222451  0.74584148
   0.74669987  0.48583955  0.50702375
   0.50307006  0.76881606  0.49660209
   0.49815736  0.50166755  0.74477701
   0.52759373  0.02285347  0.98100613
   0.99749384  0.52663658  0.96507032
   0.50428980  0.73773115  0.28243854
   0.22805625  0.00600701  0.72268391
   0.49842742  0.02309669  0.46564979
   0.71982892  0.98353041  0.77738558
   0.99638539  0.76550809  0.24470256
   0.73069919  0.51548496  0.25877376
   0.01135281  0.01295667  0.51558995
   0.50623093  0.51911955  0.49196949
   0.74700972  0.51986219  0.75798774
   0.74925751  0.73661485  0.49149514
HECN                                    
           1
     8.684676   -0.012369    0.003238
    -0.006825    8.775308    0.001594
     0.034279   -0.013378    8.806049
   Ta   W    Nb   N    C    Cr   Mo
   7   6   7  13  19   6   6
Direct configuration=     3
   0.99911992  0.99152928  0.00724490
   0.25825292  0.99232003  0.25594265
   0.25221371  0.50858475  0.24807498
   0.50364999  0.50108611  0.99387868
   0.50213500  0.24010147  0.75601147
   0.99364095  0.50429370  0.50444865
   0.50103632  0.75881526  0.73957222
   0.98915302  0.22804241  0.26136160
   0.76246458  0.74255963  0.99742351
   0.01503566  0.23448605  0.73581559
   0.76104764  0.23361376  0.48127232
   0.00282304  0.73712297  0.75230638
   0.24965626  0.50183772  0.75207498
   0.25173315  0.25982419  0.99175965
   0.50636446  0.24349102  0.25179759
   0.73627596  0.99788285  0.27168728
   0.74725010  0.25593186  0.98575285
   0.24941098  0.74654901  0.99981296
   0.25584110  0.25054168  0.50555034
   0.24848313  0.75399101  0.50129022
   0.24403103  0.24938968  0.25120596
   0.24249111  0.00155171  0.00654323
   0.99861352  0.23880233  0.00983280
   0.75313363  0.25340160  0.23778332
   0.74898410  0.99516788  0.00385026
   0.49664387  0.98506513  0.23445712
   0.00218826  0.48766364  0.25954848
   0.50349170  0.75157864  0.99008133
   0.99623641  0.99105849  0.76234266
   0.75476306  0.22484462  0.74149858
   0.74094701  0.99839335  0.52061612
   0.51006494  0.25058119  0.50734303
   0.49188488  0.00013529  0.75691817
   0.99776783  0.99683989  0.26274419
   0.49882476  0.24931601  0.00261949
   0.25892583  0.75038449  0.25003835
   0.23968619  0.50072616  0.99993528
   0.00244407  0.74213443  0.00187410
   0.73916935  0.75058202  0.24136934
   0.76450161  0.49854441  0.00860492
   0.49517169  0.50556190  0.24558894
   0.25419814  0.24312717  0.75044456
   0.26547480  0.00267130  0.50492516
   0.00313607  0.25659780  0.50106228
   0.25012105  0.76100243  0.75096648
   0.24998292  0.50208638  0.50078406
   0.99697623  0.75604646  0.50372707
   0.99585270  0.48609939  0.75126328
   0.75396894  0.76218139  0.74585374
   0.74670293  0.48585410  0.50700390
   0.50305575  0.76879802  0.49660296
   0.49816192  0.50167325  0.74478812
   0.52755939  0.02284808  0.98104043
   0.99750745  0.52657792  0.96502235
   0.50427687  0.73774223  0.28246028
   0.22810654  0.00601917  0.72266930
   0.49848387  0.02310966  0.46562658
   0.71988959  0.98358087  0.77740415
   0.99639089  0.76544951  0.24468878
   0.73075475  0.51552601  0.25878510
   0.01134841  0.01301192  0.51557747
   0.50623105  0.51915010  0.49195425
   0.74701660  0.51990997  0.75799289
   0.74925080  0.73660900  0.49148244
HECN                                    
           1
     8.685010   -0.012364    0.003234
    -0.006820    8.775611    0.001594
     0.034277   -0.013379    8.806271
   Ta   W    Nb   N    C    Cr   Mo
   7   6   7  13  19   6   6
Direct configuration=     4
   0.99911991  0.99152955  0.00724491
   0.25825294  0.99232014  0.25594286
   0.25221391  0.50858496  0.24807515
   0.50364974  0.50108670  0.99387831
   0.50213467  0.24010108  0.75601136
   0.99364115  0.50429379  0.50444883
   0.50103623  0.75881530  0.73957225
   0.98915355  0.22804006  0.26136160
   0.76246346  0.74255944  0.99742365
   0.01503458  0.23448507  0.73581479
   0.76104647  0.23361285  0.48127207
   0.00282273  0.73712272  0.75230639
   0.24965616  0.50183797  0.75207489
   0.25173210  0.25982453  0.99176006
   0.50636462  0.24349113  0.25179761
   0.73627642  0.99788336  0.27168742
   0.74725066  0.25593131  0.98575263
   0.24941172  0.74654927  0.99981291
   0.25584111  0.25054157  0.50555001
   0.24848326  0.75399091  0.50129033
   0.24403190  0.24938975  0.25120620
   0.24249124  0.00155147  0.00654344
   0.99861335  0.23880175  0.00983263
   0.75313240  0.25340142  0.23778333
   0.74898464  0.99516773  0.00385064
   0.49664459  0.98506597  0.23445744
   0.00218825  0.48766342  0.25954866
   0.50349125  0.75157811  0.99008120
   0.99623656  0.99105836  0.76234286
   0.75476268  0.22484443  0.74149889
   0.74094721  0.99839335  0.52061529
   0.51006400  0.25058155  0.50734278
   0.49188433  0.00013559  0.75691837
   0.99776710  0.99684257  0.26274471
   0.49882463  0.24931617  0.00261953
   0.25892573  0.75038426  0.25003827
   0.23968625  0.50072620  0.99993521
   0.00244469  0.74213541  0.00187391
   0.73916947  0.75058213  0.24136982
   0.76450145  0.49854423  0.00860453
   0.49517090  0.50556147  0.24558863
   0.25419883  0.24312750  0.75044458
   0.26547484  0.00267132  0.50492481
   0.00313651  0.25659687  0.50106327
   0.25012092  0.76100237  0.75096652
   0.24998277  0.50208617  0.50078416
   0.99697649  0.75604613  0.50372718
   0.99585284  0.48609948  0.75126333
   0.75396901  0.76218060  0.74585396
   0.74670299  0.48585436  0.50700354
   0.50305549  0.76879769  0.49660297
   0.49816200  0.50167336  0.74478832
   0.52755876  0.02284798  0.98104106
   0.99750770  0.52657685  0.96502147
   0.50427664  0.73774244  0.28246068
   0.22810746  0.00601939  0.72266903
   0.49848491  0.02310990  0.46562616
   0.71989070  0.98358179  0.77740449
   0.99639099  0.76544844  0.24468853
   0.73075577  0.51552676  0.25878531
   0.01134833  0.01301293  0.51557724
   0.50623105  0.51915066  0.49195397
   0.74701672  0.51991085  0.75799298
   0.74925068  0.73660889  0.49148221
HECN                                    
           1
     8.688855   -0.012301    0.003192
    -0.006755    8.779095    0.001587
     0.034248   -0.013392    8.808825
   Ta   W    Nb   N    C    Cr   Mo
   7   6   7  13  19   6   6
Direct configuration=     5
   0.99911974  0.99153264  0.00724506
   0.25825321  0.99232137  0.25594535
   0.25221626  0.50858735  0.24807708
   0.50364680  0.50109348  0.99387411
   0.50213098  0.24009654  0.75601014
   0.99364344  0.50429490  0.50445087
   0.50103519  0.75881565  0.73957254
   0.98915955  0.22801305  0.26136159
   0.76245061  0.74255735  0.99742527
   0.01502218  0.23447386  0.73580548
   0.76103299  0.23360242  0.48126918
   0.00281913  0.73711980  0.75230642
   0.24965501  0.50184077  0.75207384
   0.25171999  0.25982840  0.99176480
   0.50636641  0.24349238  0.25179783
   0.73628175  0.99788928  0.27168906
   0.74725707  0.25592498  0.98575013
   0.24942013  0.74655232  0.99981242
   0.25584119  0.25054021  0.50554611
   0.24848473  0.75398980  0.50129154
   0.24404194  0.24939061  0.25120897
   0.24249266  0.00154864  0.00654582
   0.99861147  0.23879501  0.00983068
   0.75311829  0.25339934  0.23778342
   0.74899084  0.99516602  0.00385502
   0.49665284  0.98507564  0.23446118
   0.00218812  0.48766083  0.25955071
   0.50348606  0.75157198  0.99007972
   0.99623833  0.99105697  0.76234511
   0.75475830  0.22484225  0.74150245
   0.74094950  0.99839339  0.52060572
   0.51005317  0.25058561  0.50733993
   0.49187801  0.00013907  0.75692070
   0.99775875  0.99687339  0.26275075
   0.49882308  0.24931805  0.00262004
   0.25892453  0.75038163  0.25003725
   0.23968696  0.50072661  0.99993443
   0.00245181  0.74214668  0.00187164
   0.73917092  0.75058338  0.24137536
   0.76449964  0.49854215  0.00860004
   0.49516181  0.50555659  0.24558503
   0.25420683  0.24313126  0.75044484
   0.26547534  0.00267155  0.50492076
   0.00314153  0.25658617  0.50107469
   0.25011945  0.76100166  0.75096695
   0.24998111  0.50208368  0.50078522
   0.99697958  0.75604226  0.50372841
   0.99585442  0.48610055  0.75126392
   0.75396983  0.76217152  0.74585654
   0.74670363  0.48585743  0.50699936
   0.50305248  0.76879389  0.49660316
   0.49816296  0.50167456  0.74479066
   0.52755153  0.02284685  0.98104828
   0.99751057  0.52656450  0.96501136
   0.50427391  0.73774477  0.28246526
   0.22811805  0.00602195  0.72266595
   0.49849679  0.02311263  0.46562127
   0.71990347  0.98359241  0.77740841
   0.99639214  0.76543611  0.24468563
   0.73076746  0.51553540  0.25878770
   0.01134740  0.01302456  0.51557461
   0.50623107  0.51915709  0.49195076
   0.74701817  0.51992091  0.75799406
   0.74924926  0.73660766  0.49147954
HECN                                    
           1
     8.685346   -0.012358    0.003231
    -0.006814    8.775916    0.001593
     0.034274   -0.013380    8.806494
   Ta   W    Nb   N    C    Cr   Mo
   7   6   7  13  19   6   6
Direct configuration=     6
   0.99911989  0.99152982  0.00724492
   0.25825296  0.99232024  0.25594308
   0.25221412  0.50858517  0.24807532
   0.50364948  0.50108730  0.99387794
   0.50213435  0.24010068  0.75601126
   0.99364135  0.50429389  0.50444900
   0.50103614  0.75881533  0.73957228
   0.98915407  0.22803769  0.26136160
   0.76246233  0.74255926  0.99742379
   0.01503349  0.23448409  0.73581397
   0.76104528  0.23361194  0.48127182
   0.00282241  0.73712246  0.75230639
   0.24965606  0.50183821  0.75207480
   0.25173103  0.25982487  0.99176048
   0.50636478  0.24349124  0.25179763
   0.73627689  0.99788388  0.27168756
   0.74725122  0.25593076  0.98575241
   0.24941245  0.74654954  0.99981287
   0.25584112  0.25054145  0.50554966
   0.24848339  0.75399081  0.50129043
   0.24403278  0.24938983  0.25120645
   0.24249136  0.00155122  0.00654365
   0.99861319  0.23880115  0.00983246
   0.75313116  0.25340124  0.23778334
   0.74898518  0.99516758  0.00385103
   0.49664531  0.98506682  0.23445777
   0.00218824  0.48766319  0.25954884
   0.50349079  0.75157757  0.99008107
   0.99623672  0.99105824  0.76234305
   0.75476229  0.22484424  0.74149920
   0.74094741  0.99839336  0.52061445
   0.51006305  0.25058190  0.50734253
   0.49188377  0.00013590  0.75691857
   0.99776637  0.99684528  0.26274524
   0.49882449  0.24931634  0.00261958
   0.25892562  0.75038403  0.25003818
   0.23968631  0.50072623  0.99993514
   0.00244531  0.74213640  0.00187371
   0.73916960  0.75058224  0.24137031
   0.76450129  0.49854404  0.00860414
   0.49517010  0.50556105  0.24558831
   0.25419954  0.24312783  0.75044461
   0.26547488  0.00267134  0.50492445
   0.00313695  0.25659593  0.50106427
   0.25012079  0.76100230  0.75096655
   0.24998263  0.50208595  0.50078425
   0.99697677  0.75604579  0.50372729
   0.99585298  0.48609957  0.75126338
   0.75396908  0.76217980  0.74585419
   0.74670305  0.48585463  0.50700317
   0.50305523  0.76879736  0.49660299
   0.49816208  0.50167347  0.74478852
   0.52755812  0.02284788  0.98104169
   0.99750795  0.52657576  0.96502058
   0.50427640  0.73774264  0.28246108
   0.22810839  0.00601962  0.72266876
   0.49848595  0.02311014  0.46562573
   0.71989182  0.98358272  0.77740484
   0.99639109  0.76544736  0.24468827
   0.73075680  0.51552752  0.25878552
   0.01134825  0.01301395  0.51557701
   0.50623105  0.51915122  0.49195369
   0.74701685  0.51991173  0.75799308
   0.74925055  0.73660878  0.49148198
HECN                                    
           1
     8.685122   -0.012362    0.003233
    -0.006818    8.775713    0.001594
     0.034276   -0.013380    8.806346
   Ta   W    Nb   N    C    Cr   Mo
   7   6   7  13  19   6   6
Direct configuration=     7
   0.99911990  0.99152964  0.00724491
   0.25825295  0.99232017  0.25594294
   0.25221398  0.50858503  0.24807520
   0.50364965  0.50108690  0.99387819
   0.50213456  0.24010094  0.75601133
   0.99364121  0.50429383  0.50444889
   0.50103620  0.75881531  0.73957226
   0.98915372  0.22803927  0.26136160
   0.76246308  0.74255938  0.99742370
   0.01503421  0.23448474  0.73581451
   0.76104607  0.23361255  0.48127199
   0.00282262  0.73712263  0.75230639
   0.24965613  0.50183805  0.75207486
   0.25173174  0.25982464  0.99176020
   0.50636467  0.24349116  0.25179762
   0.73627658  0.99788354  0.27168747
   0.74725085  0.25593113  0.98575256
   0.24941196  0.74654936  0.99981290
   0.25584111  0.25054153  0.50554989
   0.24848330  0.75399088  0.50129036
   0.24403220  0.24938978  0.25120628
   0.24249128  0.00155138  0.00654351
   0.99861330  0.23880155  0.00983258
   0.75313198  0.25340136  0.23778333
   0.74898482  0.99516768  0.00385077
   0.49664483  0.98506626  0.23445755
   0.00218825  0.48766334  0.25954872
   0.50349110  0.75157793  0.99008116
   0.99623661  0.99105832  0.76234292
   0.75476255  0.22484437  0.74149899
   0.74094728  0.99839335  0.52061501
   0.51006368  0.25058167  0.50734270
   0.49188414  0.00013569  0.75691844
   0.99776685  0.99684348  0.26274489
   0.49882458  0.24931623  0.00261955
   0.25892569  0.75038418  0.25003824
   0.23968627  0.50072621  0.99993519
   0.00244490  0.74213574  0.00187384
   0.73916951  0.75058217  0.24136998
   0.76450140  0.49854417  0.00860440
   0.49517063  0.50556133  0.24558852
   0.25419907  0.24312761  0.75044459
   0.26547485  0.00267133  0.50492469
   0.00313666  0.25659655  0.50106361
   0.25012088  0.76100235  0.75096653
   0.24998272  0.50208609  0.50078419
   0.99697659  0.75604601  0.50372721
   0.99585289  0.48609951  0.75126335
   0.75396903  0.76218033  0.74585404
   0.74670301  0.48585445  0.50700342
   0.50305540  0.76879758  0.49660298
   0.49816203  0.50167339  0.74478839
   0.52755855  0.02284795  0.98104127
   0.99750779  0.52657648  0.96502117
   0.50427656  0.73774251  0.28246081
   0.22810777  0.00601947  0.72266894
   0.49848526  0.02310998  0.46562601
   0.71989108  0.98358210  0.77740461
   0.99639102  0.76544808  0.24468844
   0.73075611  0.51552701  0.25878538
   0.01134830  0.01301327  0.51557717
   0.50623105  0.51915085  0.49195388
   0.74701677  0.51991115  0.75799301
   0.74925063  0.73660885  0.49148213
HECN                                    
           1
     8.685040   -0.012363    0.003234
    -0.006819    8.775639    0.001594
     0.034277   -0.013379    8.806291
   Ta   W    Nb   N    C    Cr   Mo
   7   6   7  13  19   6   6
Direct configuration=     8
   0.99911990  0.99152958  0.00724491
   0.25825294  0.99232015  0.25594288
   0.25221393  0.50858498  0.24807516
   0.50364971  0.50108676  0.99387828
   0.50213464  0.24010104  0.75601135
   0.99364117  0.50429380  0.50444884
   0.50103622  0.75881530  0.73957225
   0.98915360  0.22803984  0.26136160
   0.76246336  0.74255943  0.99742366
   0.01503448  0.23448498  0.73581471
   0.76104635  0.23361277  0.48127205
   0.00282270  0.73712269  0.75230639
   0.24965615  0.50183799  0.75207488
   0.25173200  0.25982456  0.99176010
   0.50636463  0.24349114  0.25179761
   0.73627647  0.99788341  0.27168743
   0.74725071  0.25593126  0.98575261
   0.24941179  0.74654930  0.99981291
   0.25584111  0.25054156  0.50554997
   0.24848327  0.75399090  0.50129034
   0.24403198  0.24938976  0.25120623
   0.24249125  0.00155144  0.00654346
   0.99861334  0.23880169  0.00983262
   0.75313228  0.25340140  0.23778333
   0.74898469  0.99516771  0.00385068
   0.49664466  0.98506605  0.23445747
   0.00218825  0.48766339  0.25954868
   0.50349121  0.75157806  0.99008119
   0.99623657  0.99105835  0.76234287
   0.75476264  0.22484441  0.74149892
   0.74094723  0.99839335  0.52061521
   0.51006391  0.25058158  0.50734276
   0.49188428  0.00013562  0.75691839
   0.99776703  0.99684283  0.26274476
   0.49882461  0.24931619  0.00261954
   0.25892572  0.75038424  0.25003826
   0.23968626  0.50072620  0.99993520
   0.00244475  0.74213550  0.00187389
   0.73916948  0.75058214  0.24136987
   0.76450144  0.49854421  0.00860450
   0.49517082  0.50556143  0.24558860
   0.25419890  0.24312753  0.75044459
   0.26547484  0.00267132  0.50492478
   0.00313655  0.25659678  0.50106336
   0.25012091  0.76100236  0.75096652
   0.24998276  0.50208615  0.50078417
   0.99697652  0.75604610  0.50372719
   0.99585286  0.48609949  0.75126334
   0.75396902  0.76218053  0.74585398
   0.74670299  0.48585439  0.50700350
   0.50305546  0.76879766  0.49660297
   0.49816201  0.50167337  0.74478834
   0.52755870  0.02284797  0.98104112
   0.99750772  0.52657675  0.96502139
   0.50427661  0.73774246  0.28246072
   0.22810755  0.00601941  0.72266900
   0.49848501  0.02310992  0.46562612
   0.71989081  0.98358188  0.77740453
   0.99639100  0.76544834  0.24468851
   0.73075587  0.51552683  0.25878533
   0.01134832  0.01301303  0.51557722
   0.50623105  0.51915071  0.49195394
   0.74701673  0.51991093  0.75799299
   0.74925066  0.73660888  0.49148219
HECN                                    
           1
     8.685020   -0.012364    0.003234
    -0.006820    8.775620    0.001594
     0.034277   -0.013379    8.806277
   Ta   W    Nb   N    C    Cr   Mo
   7   6   7  13  19   6   6
Direct configuration=     9
   0.99911991  0.99152956  0.00724491
   0.25825294  0.99232014  0.25594287
   0.25221392  0.50858496  0.24807515
   0.50364973  0.50108672  0.99387830
   0.50213466  0.24010106  0.75601136
   0.99364115  0.50429380  0.50444883
   0.50103623  0.75881530  0.73957225
   0.98915356  0.22803999  0.26136160
   0.76246343  0.74255944  0.99742365
   0.01503454  0.23448504  0.73581476
   0.76104643  0.23361282  0.48127206
   0.00282272  0.73712271  0.75230639
   0.24965616  0.50183797  0.75207489
   0.25173206  0.25982454  0.99176008
   0.50636462  0.24349113  0.25179761
   0.73627644  0.99788338  0.27168743
   0.74725067  0.25593129  0.98575262
   0.24941174  0.74654928  0.99981291
   0.25584111  0.25054156  0.50554999
   0.24848327  0.75399091  0.50129033
   0.24403193  0.24938975  0.25120621
   0.24249124  0.00155146  0.00654344
   0.99861335  0.23880173  0.00983263
   0.75313236  0.25340142  0.23778333
   0.74898466  0.99516772  0.00385066
   0.49664461  0.98506600  0.23445745
   0.00218825  0.48766341  0.25954867
   0.50349123  0.75157809  0.99008120
   0.99623657  0.99105836  0.76234286
   0.75476266  0.22484443  0.74149890
   0.74094721  0.99839335  0.52061526
   0.51006397  0.25058156  0.50734277
   0.49188431  0.00013560  0.75691837
   0.99776708  0.99684266  0.26274473
   0.49882462  0.24931618  0.00261953
   0.25892573  0.75038425  0.25003826
   0.23968625  0.50072620  0.99993521
   0.00244471  0.74213544  0.00187390
   0.73916948  0.75058214  0.24136984
   0.76450145  0.49854422  0.00860452
   0.49517087  0.50556146  0.24558862
   0.25419886  0.24312751  0.75044458
   0.26547484  0.00267132  0.50492480
   0.00313652  0.25659683  0.50106330
   0.25012092  0.76100236  0.75096652
   0.24998277  0.50208616  0.50078416
   0.99697650  0.75604612  0.50372718
   0.99585285  0.48609948  0.75126333
   0.75396901  0.76218057  0.74585397
   0.74670299  0.48585437  0.50700353
   0.50305548  0.76879768  0.49660297
   0.49816200  0.50167336  0.74478833
   0.52755874  0.02284798  0.98104108
   0.99750771  0.52657681  0.96502144
   0.50427663  0.73774244  0.28246069
   0.22810749  0.00601940  0.72266902
   0.49848494  0.02310991  0.46562614
   0.71989074  0.98358182  0.77740450
   0.99639099  0.76544840  0.24468852
   0.73075580  0.51552678  0.25878532
   0.01134833  0.01301296  0.51557724
   0.50623105  0.51915068  0.49195396
   0.74701673  0.51991088  0.75799298
   0.74925067  0.73660889  0.49148220
HECN                                    
           1
     8.685014   -0.012364    0.003234
    -0.006820    8.775615    0.001594
     0.034277   -0.013379    8.806273
   Ta   W    Nb   N    C    Cr   Mo
   7   6   7  13  19   6   6
Direct configuration=    10
   0.99911991  0.99152956  0.00724491
   0.25825294  0.99232014  0.25594287
   0.25221391  0.50858496  0.24807515
   0.50364973  0.50108671  0.99387831
   0.50213467  0.24010107  0.75601136
   0.99364115  0.50429379  0.50444883
   0.50103623  0.75881530  0.73957225
   0.98915355  0.22804003  0.26136160
   0.76246345  0.74255944  0.99742365
   0.01503456  0.23448506  0.73581477
   0.76104645  0.23361284  0.48127207
   0.00282272  0.73712271  0.75230639
   0.24965616  0.50183797  0.75207489
   0.25173208  0.25982453  0.99176007
   0.50636462  0.24349113  0.25179761
   0.73627643  0.99788337  0.27168742
   0.74725066  0.25593130  0.98575263
   0.24941173  0.74654928  0.99981291
   0.25584111  0.25054156  0.50555000
   0.24848326  0.75399091  0.50129033
   0.24403191  0.24938975  0.25120621
   0.24249124  0.00155146  0.00654344
   0.99861335  0.23880174  0.00983263
   0.75313238  0.25340142  0.23778333
   0.74898465  0.99516773  0.00385065
   0.49664460  0.98506599  0.23445745
   0.00218825  0.48766341  0.25954866
   0.50349124  0.75157810  0.99008120
   0.99623656  0.99105836  0.76234286
   0.75476267  0.22484443  0.74149889
   0.74094721  0.99839335  0.52061528
   0.51006398  0.25058155  0.50734278
   0.49188432  0.00013559  0.75691837
   0.99776709  0.99684261  0.26274472
   0.49882462  0.24931618  0.00261953
   0.25892573  0.75038426  0.25003826
   0.23968625  0.50072620  0.99993521
   0.00244470  0.74213543  0.00187390
   0.73916947  0.75058213  0.24136983
   0.76450145  0.49854422  0.00860453
   0.49517089  0.50556147  0.24558862
   0.25419885  0.24312750  0.75044458
   0.26547484  0.00267132  0.50492480
   0.00313652  0.25659685  0.50106328
   0.25012092  0.76100237  0.75096652
   0.24998277  0.50208616  0.50078416
   0.99697650  0.75604612  0.50372718
   0.99585284  0.48609948  0.75126333
   0.75396901  0.76218059  0.74585396
   0.74670299  0.48585437  0.50700353
   0.50305549  0.76879768  0.49660297
   0.49816200  0.50167336  0.74478832
   0.52755875  0.02284798  0.98104107
   0.99750770  0.52657683  0.96502146
   0.50427663  0.73774244  0.28246068
   0.22810748  0.00601939  0.72266902
   0.49848492  0.02310990  0.46562615
   0.71989072  0.98358180  0.77740450
   0.99639099  0.76544842  0.24468853
   0.73075578  0.51552677  0.25878531
   0.01134833  0.01301295  0.51557724
   0.50623105  0.51915067  0.49195397
   0.74701672  0.51991086  0.75799298
   0.74925067  0.73660889  0.49148221
HECN                                    
           1
     8.683755   -0.012663    0.003415
    -0.007123    8.774221    0.001821
     0.034455   -0.013151    8.808149
   Ta   W    Nb   N    C    Cr   Mo
   7   6   7  13  19   6   6
Direct configuration=    11
   0.99909437  0.99153476  0.00724184
   0.25820552  0.99237027  0.25592054
   0.25217280  0.50852116  0.24806191
   0.50364883  0.50106511  0.99390971
   0.50218076  0.24016326  0.75599049
   0.99365742  0.50429221  0.50443697
   0.50103507  0.75880688  0.73958378
   0.98921414  0.22820836  0.26130765
   0.76242385  0.74262009  0.99739819
   0.01499004  0.23457351  0.73592499
   0.76105085  0.23371043  0.48133076
   0.00283298  0.73718961  0.75229713
   0.24966112  0.50181372  0.75207276
   0.25175590  0.25974886  0.99177859
   0.50631209  0.24350724  0.25180238
   0.73629515  0.99784740  0.27164000
   0.74727186  0.25592994  0.98576390
   0.24942121  0.74658258  0.99982225
   0.25586700  0.25057241  0.50553192
   0.24848932  0.75399505  0.50127996
   0.24399387  0.24939543  0.25118494
   0.24258225  0.00157494  0.00647647
   0.99862832  0.23890860  0.00982331
   0.75315900  0.25343543  0.23774229
   0.74895802  0.99518928  0.00385763
   0.49663572  0.98497970  0.23438997
   0.00213981  0.48768109  0.25947322
   0.50352297  0.75167379  0.99014077
   0.99616760  0.99104280  0.76233071
   0.75480845  0.22487089  0.74145081
   0.74092679  0.99834197  0.52072224
   0.51011445  0.25059132  0.50736011
   0.49184379  0.00011720  0.75686088
   0.99779243  0.99674007  0.26273175
   0.49882892  0.24930055  0.00264583
   0.25894439  0.75038984  0.25003911
   0.23965482  0.50072500  0.99994603
   0.00245215  0.74209916  0.00189981
   0.73915781  0.75060719  0.24133521
   0.76453640  0.49854002  0.00865353
   0.49518169  0.50556558  0.24558460
   0.25420437  0.24309413  0.75044524
   0.26549789  0.00266711  0.50495126
   0.00315765  0.25666063  0.50101845
   0.25013565  0.76103682  0.75096940
   0.24999517  0.50209551  0.50077663
   0.99696730  0.75609197  0.50370937
   0.99584203  0.48606992  0.75126167
   0.75398258  0.76225533  0.74581540
   0.74669733  0.48581242  0.50704425
   0.50305657  0.76888086  0.49661034
   0.49816162  0.50165509  0.74475959
   0.52748135  0.02278112  0.98103620
   0.99751299  0.52652059  0.96513159
   0.50425364  0.73778147  0.28236486
   0.22812649  0.00598004  0.72275322
   0.49842371  0.02304876  0.46570046
   0.71992621  0.98357036  0.77734805
   0.99639732  0.76537425  0.24472286
   0.73082678  0.51540150  0.25877002
   0.01129869  0.01291928  0.51557182
   0.50617382  0.51905539  0.49199534
   0.74700423  0.51975951  0.75798853
   0.74926707  0.73666499  0.49151065
HECN                                    
           1
     8.683420   -0.012742    0.003463
    -0.007204    8.773850    0.001881
     0.034502   -0.013090    8.808648
   Ta   W    Nb   N    C    Cr   Mo
   7   6   7  13  19   6   6
Direct configuration=    12
   0.99908757  0.99153615  0.00724102
   0.25819290  0.99238362  0.25591459
   0.25216186  0.50850417  0.24805839