  64  64   0   0
  0.1153890E+02  0.9031530E-09  0.9071330E-09  0.9014085E-09  0.5000000E-15
  1.000000000000000E-004
  CAR 
 HEBCN                                   
     15.39936421    -50.01706907  301      8.75361255      1.00000000
    -50.017  0.0000E+00  0.0000E+00
    -49.799  0.0000E+00  0.0000E+00
    -49.581  0.0000E+00  0.0000E+00
    -49.363  0.0000E+00  0.0000E+00
    -49.145  0.0000E+00  0.0000E+00
    -48.927  0.0000E+00  0.0000E+00
    -48.709  0.0000E+00  0.0000E+00
    -48.491  0.0000E+00  0.0000E+00
    -48.273  0.0000E+00  0.0000E+00
    -48.055  0.0000E+00  0.0000E+00
    -47.837  0.0000E+00  0.0000E+00
    -47.618  0.2037E-14  0.4441E-15
    -47.400  0.2437E-05  0.5314E-06
    -47.182  0.4006E+00  0.8734E-01
    -46.964  0.3136E+02  0.6927E+01
    -46.746  0.2218E+02  0.1176E+02
    -46.528  0.1087E+01  0.1200E+02
    -46.310  0.8686E-04  0.1200E+02
    -46.092  0.8382E-12  0.1200E+02
    -45.874  0.0000E+00  0.1200E+02
    -45.656  0.0000E+00  0.1200E+02
    -45.438  0.0000E+00  0.1200E+02
    -45.220  0.0000E+00  0.1200E+02
    -45.002  0.0000E+00  0.1200E+02
    -44.784  0.0000E+00  0.1200E+02
    -44.566  0.0000E+00  0.1200E+02
    -44.348  0.0000E+00  0.1200E+02
    -44.130  0.0000E+00  0.1200E+02
    -43.912  0.0000E+00  0.1200E+02
    -43.693  0.0000E+00  0.1200E+02
    -43.475  0.0000E+00  0.1200E+02
    -43.257  0.0000E+00  0.1200E+02
    -43.039  0.0000E+00  0.1200E+02
    -42.821  0.0000E+00  0.1200E+02
    -42.603  0.0000E+00  0.1200E+02
    -42.385  0.0000E+00  0.1200E+02
    -42.167  0.0000E+00  0.1200E+02
    -41.949  0.0000E+00  0.1200E+02
    -41.731  0.0000E+00  0.1200E+02
    -41.513  0.0000E+00  0.1200E+02
    -41.295  0.0000E+00  0.1200E+02
    -41.077  0.5985E-10  0.1200E+02
    -40.859  0.1052E-02  0.1200E+02
    -40.641  0.2513E+01  0.1255E+02
    -40.423  0.6693E+01  0.1401E+02
    -40.205  0.1274E+02  0.1679E+02
    -39.987  0.3243E+02  0.2386E+02
    -39.768  0.9776E+01  0.2599E+02
    -39.550  0.5205E-01  0.2600E+02
    -39.332  0.8430E-07  0.2600E+02
    -39.114  0.0000E+00  0.2600E+02
    -38.896  0.0000E+00  0.2600E+02
    -38.678  0.0000E+00  0.2600E+02
    -38.460  0.0000E+00  0.2600E+02
    -38.242  0.0000E+00  0.2600E+02
    -38.024  0.0000E+00  0.2600E+02
    -37.806  0.0000E+00  0.2600E+02
    -37.588  0.0000E+00  0.2600E+02
    -37.370  0.0000E+00  0.2600E+02
    -37.152  0.0000E+00  0.2600E+02
    -36.934  0.0000E+00  0.2600E+02
    -36.716  0.0000E+00  0.2600E+02
    -36.498  0.0000E+00  0.2600E+02
    -36.280  0.0000E+00  0.2600E+02
    -36.062  0.0000E+00  0.2600E+02
    -35.844  0.0000E+00  0.2600E+02
    -35.625  0.0000E+00  0.2600E+02
    -35.407  0.0000E+00  0.2600E+02
    -35.189  0.0000E+00  0.2600E+02
    -34.971  0.0000E+00  0.2600E+02
    -34.753  0.0000E+00  0.2600E+02
    -34.535  0.0000E+00  0.2600E+02
    -34.317  0.0000E+00  0.2600E+02
    -34.099  0.0000E+00  0.2600E+02
    -33.881  0.0000E+00  0.2600E+02
    -33.663  0.0000E+00  0.2600E+02
    -33.445  0.0000E+00  0.2600E+02
    -33.227  0.0000E+00  0.2600E+02
    -33.009  0.0000E+00  0.2600E+02
    -32.791  0.0000E+00  0.2600E+02
    -32.573  0.0000E+00  0.2600E+02
    -32.355  0.0000E+00  0.2600E+02
    -32.137  0.0000E+00  0.2600E+02
    -31.919  0.0000E+00  0.2600E+02
    -31.700  0.0000E+00  0.2600E+02
    -31.482  0.0000E+00  0.2600E+02
    -31.264  0.2507E-07  0.2600E+02
    -31.046  0.2745E-01  0.2601E+02
    -30.828  0.5895E+01  0.2729E+02
    -30.610  0.3483E+02  0.3489E+02
    -30.392  0.8761E+02  0.5399E+02
    -30.174  0.3640E+02  0.6193E+02
    -29.956  0.3318E+00  0.6200E+02
    -29.738  0.2380E-05  0.6200E+02
    -29.520  0.2037E-14  0.6200E+02
    -29.302  0.0000E+00  0.6200E+02
    -29.084  0.0000E+00  0.6200E+02
    -28.866  0.0000E+00  0.6200E+02
    -28.648  0.0000E+00  0.6200E+02
    -28.430  0.0000E+00  0.6200E+02
    -28.212  0.0000E+00  0.6200E+02
    -27.994  0.0000E+00  0.6200E+02
    -27.775  0.0000E+00  0.6200E+02
    -27.557  0.3197E-08  0.6200E+02
    -27.339  0.9504E-02  0.6200E+02
    -27.121  0.6547E+01  0.6343E+02
    -26.903  0.4772E+02  0.7384E+02
    -26.685  0.5065E+02  0.8488E+02
    -26.467  0.3847E+02  0.9327E+02
    -26.249  0.2150E+02  0.9796E+02
    -26.031  0.2017E+00  0.9800E+02
    -25.813  0.7847E-06  0.9800E+02
    -25.595  0.0000E+00  0.9800E+02
    -25.377  0.0000E+00  0.9800E+02
    -25.159  0.0000E+00  0.9800E+02
    -24.941  0.0000E+00  0.9800E+02
    -24.723  0.0000E+00  0.9800E+02
    -24.505  0.0000E+00  0.9800E+02
    -24.287  0.0000E+00  0.9800E+02
    -24.069  0.0000E+00  0.9800E+02
    -23.850  0.2701E-09  0.9800E+02
    -23.632  0.2655E-02  0.9800E+02
    -23.414  0.5496E+01  0.9920E+02
    -23.196  0.5268E+02  0.1107E+03
    -22.978  0.7635E+02  0.1273E+03
    -22.760  0.3057E+02  0.1340E+03
    -22.542  0.1731E+02  0.1378E+03
    -22.324  0.5053E+02  0.1488E+03
    -22.106  0.1718E+02  0.1525E+03
    -21.888  0.5815E+02  0.1652E+03
    -21.670  0.2228E+02  0.1701E+03
    -21.452  0.2184E+02  0.1748E+03
    -21.234  0.5295E+01  0.1760E+03
    -21.016  0.1286E-02  0.1760E+03
    -20.798  0.4620E-10  0.1760E+03
    -20.580  0.0000E+00  0.1760E+03
    -20.362  0.0000E+00  0.1760E+03
    -20.144  0.0000E+00  0.1760E+03
    -19.926  0.0000E+00  0.1760E+03
    -19.707  0.0000E+00  0.1760E+03
    -19.489  0.1324E-13  0.1760E+03
    -19.271  0.7560E-05  0.1760E+03
    -19.053  0.6001E+00  0.1761E+03
    -18.835  0.2236E+02  0.1810E+03
    -18.617  0.2218E+02  0.1858E+03
    -18.399  0.8051E+02  0.2034E+03
    -18.181  0.5073E+02  0.2145E+03
    -17.963  0.1553E+02  0.2178E+03
    -17.745  0.6971E+00  0.2180E+03
    -17.527  0.2800E-04  0.2180E+03
    -17.309  0.1297E-12  0.2180E+03
    -17.091  0.0000E+00  0.2180E+03
    -16.873  0.0000E+00  0.2180E+03
    -16.655  0.0000E+00  0.2180E+03
    -16.437  0.0000E+00  0.2180E+03
    -16.219  0.0000E+00  0.2180E+03
    -16.001  0.0000E+00  0.2180E+03
    -15.782  0.0000E+00  0.2180E+03
    -15.564  0.0000E+00  0.2180E+03
    -15.346  0.0000E+00  0.2180E+03
    -15.128  0.0000E+00  0.2180E+03
    -14.910  0.0000E+00  0.2180E+03
    -14.692  0.0000E+00  0.2180E+03
    -14.474  0.0000E+00  0.2180E+03
    -14.256  0.0000E+00  0.2180E+03
    -14.038  0.0000E+00  0.2180E+03
    -13.820  0.0000E+00  0.2180E+03
    -13.602  0.0000E+00  0.2180E+03
    -13.384  0.0000E+00  0.2180E+03
    -13.166  0.0000E+00  0.2180E+03
    -12.948  0.0000E+00  0.2180E+03
    -12.730  0.0000E+00  0.2180E+03
    -12.512  0.0000E+00  0.2180E+03
    -12.294  0.0000E+00  0.2180E+03
    -12.076  0.0000E+00  0.2180E+03
    -11.857  0.0000E+00  0.2180E+03
    -11.639  0.0000E+00  0.2180E+03
    -11.421  0.0000E+00  0.2180E+03
    -11.203  0.0000E+00  0.2180E+03
    -10.985  0.0000E+00  0.2180E+03
    -10.767  0.0000E+00  0.2180E+03
    -10.549  0.0000E+00  0.2180E+03
    -10.331  0.0000E+00  0.2180E+03
    -10.113  0.0000E+00  0.2180E+03
     -9.895  0.0000E+00  0.2180E+03
     -9.677  0.0000E+00  0.2180E+03
     -9.459  0.0000E+00  0.2180E+03
     -9.241  0.0000E+00  0.2180E+03
     -9.023  0.0000E+00  0.2180E+03
     -8.805  0.0000E+00  0.2180E+03
     -8.587  0.0000E+00  0.2180E+03
     -8.369  0.7826E-14  0.2180E+03
     -8.151  0.1593E-05  0.2180E+03
     -7.932  0.5248E-01  0.2180E+03
     -7.714  0.2943E+01  0.2187E+03
     -7.496  0.7078E+01  0.2202E+03
     -7.278  0.7962E+01  0.2219E+03
     -7.060  0.8501E+01  0.2238E+03
     -6.842  0.1349E+02  0.2267E+03
     -6.624  0.1592E+02  0.2302E+03
     -6.406  0.1991E+02  0.2345E+03
     -6.188  0.3589E+02  0.2424E+03
     -5.970  0.7472E+01  0.2440E+03
     -5.752  0.9932E-02  0.2440E+03
     -5.534  0.3577E-08  0.2440E+03
     -5.316  0.0000E+00  0.2440E+03
     -5.098  0.0000E+00  0.2440E+03
     -4.880  0.0000E+00  0.2440E+03
     -4.662  0.1071E-10  0.2440E+03
     -4.444  0.1578E-03  0.2440E+03
     -4.226  0.5786E+00  0.2441E+03
     -4.008  0.7103E+01  0.2457E+03
     -3.789  0.1508E+01  0.2460E+03
     -3.571  0.4706E+01  0.2470E+03
     -3.353  0.1036E+02  0.2493E+03
     -3.135  0.1737E+02  0.2531E+03
     -2.917  0.2121E+02  0.2577E+03
     -2.699  0.2174E+02  0.2624E+03
     -2.481  0.2571E+02  0.2681E+03
     -2.263  0.1952E+02  0.2723E+03
     -2.045  0.1957E+02  0.2766E+03
     -1.827  0.1273E+02  0.2794E+03
     -1.609  0.9206E+01  0.2814E+03
     -1.391  0.2747E+01  0.2820E+03
     -1.173  0.1895E+00  0.2820E+03
     -0.955  0.8176E-04  0.2820E+03
     -0.737  0.6206E-11  0.2820E+03
     -0.519  0.0000E+00  0.2820E+03
     -0.301  0.0000E+00  0.2820E+03
     -0.083  0.1942E-13  0.2820E+03
      0.136  0.2971E-05  0.2820E+03
      0.354  0.6183E-01  0.2820E+03
      0.572  0.9388E+00  0.2822E+03
      0.790  0.4120E+01  0.2831E+03
      1.008  0.1017E+02  0.2853E+03
      1.226  0.1109E+02  0.2878E+03
      1.444  0.1269E+02  0.2905E+03
      1.662  0.1848E+02  0.2945E+03
      1.880  0.2429E+02  0.2998E+03
      2.098  0.2434E+02  0.3052E+03
      2.316  0.2523E+02  0.3107E+03
      2.534  0.2798E+02  0.3168E+03
      2.752  0.3216E+02  0.3238E+03
      2.970  0.3272E+02  0.3309E+03
      3.188  0.3977E+02  0.3396E+03
      3.406  0.4672E+02  0.3498E+03
      3.624  0.5438E+02  0.3616E+03
      3.842  0.6296E+02  0.3753E+03
      4.061  0.6660E+02  0.3899E+03
      4.279  0.6451E+02  0.4039E+03
      4.497  0.6038E+02  0.4171E+03
      4.715  0.5448E+02  0.4290E+03
      4.933  0.4676E+02  0.4392E+03
      5.151  0.3930E+02  0.4478E+03
      5.369  0.3209E+02  0.4548E+03
      5.587  0.2435E+02  0.4601E+03
      5.805  0.2275E+02  0.4650E+03
      6.023  0.1720E+02  0.4688E+03
      6.241  0.1633E+02  0.4723E+03
      6.459  0.8046E+01  0.4741E+03
      6.677  0.8360E+01  0.4759E+03
      6.895  0.1774E+02  0.4798E+03
      7.113  0.1367E+02  0.4828E+03
      7.331  0.1466E+02  0.4860E+03
      7.549  0.1440E+02  0.4891E+03
      7.767  0.1587E+02  0.4926E+03
      7.986  0.1559E+02  0.4960E+03
      8.204  0.1752E+02  0.4998E+03
      8.422  0.1900E+02  0.5039E+03
      8.640  0.2173E+02  0.5087E+03
      8.858  0.2009E+02  0.5130E+03
      9.076  0.1815E+02  0.5170E+03
      9.294  0.2420E+02  0.5223E+03
      9.512  0.2731E+02  0.5282E+03
      9.730  0.2948E+02  0.5347E+03
      9.948  0.3417E+02  0.5421E+03
     10.166  0.3858E+02  0.5505E+03
     10.384  0.3673E+02  0.5585E+03
     10.602  0.3723E+02  0.5666E+03
     10.820  0.4155E+02  0.5757E+03
     11.038  0.4114E+02  0.5847E+03
     11.256  0.4155E+02  0.5937E+03
     11.474  0.4153E+02  0.6028E+03
     11.692  0.3689E+02  0.6108E+03
     11.910  0.3061E+02  0.6175E+03
     12.129  0.1958E+02  0.6218E+03
     12.347  0.7960E+01  0.6235E+03
     12.565  0.2183E+01  0.6240E+03
     12.783  0.1876E-01  0.6240E+03
     13.001  0.1536E-06  0.6240E+03
     13.219  0.1509E-15  0.6240E+03
     13.437  0.0000E+00  0.6240E+03
     13.655  0.0000E+00  0.6240E+03
     13.873  0.0000E+00  0.6240E+03
     14.091  0.0000E+00  0.6240E+03
     14.309  0.0000E+00  0.6240E+03
     14.527  0.0000E+00  0.6240E+03
     14.745  0.0000E+00  0.6240E+03
     14.963  0.0000E+00  0.6240E+03
     15.181  0.0000E+00  0.6240E+03
     15.399  0.0000E+00  0.6240E+03
