HEBCN                                   
           1
     8.981740    0.003002   -0.001318
     0.002991    9.040842    0.000611
    -0.001325    0.000639    8.983983
   Ti   Nb   Hf   N    C    Zr   Ta
   7   6   6  13  19   7   6
Direct configuration=     1
   0.00020198  0.99776398  0.01199979
   0.24335097  0.99645924  0.25122035
   0.25636450  0.50537613  0.24860313
   0.49937042  0.50015461  0.99937361
   0.49068499  0.25878873  0.75443522
   0.00379417  0.49962173  0.49760474
   0.49893801  0.73983614  0.74977415
   0.99903062  0.23860309  0.25989754
   0.75432275  0.74434720  0.99693073
   0.00485340  0.26409593  0.73844632
   0.75931875  0.26431460  0.50156459
   0.99900570  0.73667910  0.74909737
   0.25394934  0.49946688  0.75228009
   0.24674941  0.25195014  0.00208810
   0.49792776  0.25275477  0.24749151
   0.75441866  0.99739595  0.25013812
   0.75112982  0.25428459  0.99563967
   0.24874602  0.74843539  0.99977764
   0.24777147  0.25318173  0.49768615
   0.25020470  0.24949376  0.24945691
   0.24340150  0.00120563  0.00636600
   0.99987617  0.24201577  0.00017335
   0.74920365  0.25115523  0.24934900
   0.75633664  0.00353943  0.00180431
   0.50128156  0.00489956  0.24969106
   0.99721978  0.49970813  0.25636043
   0.49870735  0.74668527  0.99467255
   0.99723949  0.00269763  0.74861418
   0.74681312  0.25246008  0.74935119
   0.75512159  0.00143849  0.49816600
   0.50164852  0.25276058  0.50150350
   0.50254414  0.00219665  0.75010072
   0.00278020  0.99758368  0.24814079
   0.49941088  0.25281315  0.99694966
   0.24562492  0.74902615  0.24772702
   0.25413245  0.49944570  0.00491503
   0.99866106  0.75573694  0.00118479
   0.75334256  0.74661370  0.25116306
   0.74558348  0.50044526  0.00072325
   0.49974189  0.49837487  0.25021474
   0.25240038  0.25272892  0.75045009
   0.24530877  0.00269173  0.49407936
   0.00113581  0.25261804  0.49958473
   0.25326337  0.74690222  0.75288850
   0.24962339  0.49795407  0.49533222
   0.99584399  0.74945534  0.49851286
   0.99786942  0.50046275  0.74346998
   0.74597397  0.74569888  0.74926267
   0.75393600  0.50054968  0.49930472
   0.50416015  0.74532936  0.50631163
   0.50186922  0.49876009  0.75110763
   0.49905149  0.00113072  0.99694579
   0.00100109  0.50098237  0.00362134
   0.49887555  0.74856746  0.24961970
   0.24485922  0.99989016  0.74977251
   0.49798284  0.99819449  0.50281020
   0.75473270  0.99579102  0.74947638
   0.24832615  0.74627925  0.50098588
   0.00077496  0.75834811  0.25087401
   0.74477605  0.50466663  0.24868912
   0.00375016  0.00067042  0.49077054
   0.49848548  0.50031292  0.50104026
   0.74573929  0.50196192  0.75153869
   0.75145685  0.73624852  0.50287552
