       N       E                     dE             d eps       ncg     rms          rms(c)
DAV:   1     0.742044389397E+04    0.74204E+04   -0.21413E+05  9600   0.151E+03
DAV:   2     0.531221309480E+03   -0.68892E+04   -0.66420E+04  9408   0.644E+02
DAV:   3    -0.629211687221E+03   -0.11604E+04   -0.10667E+04 14328   0.232E+02
DAV:   4    -0.779263066030E+03   -0.15005E+03   -0.14550E+03 16248   0.101E+02
DAV:   5    -0.797576080024E+03   -0.18313E+02   -0.18018E+02 18816   0.315E+01    0.812E+01
RMM:   6    -0.875398890367E+03   -0.77823E+02   -0.21613E+03 12404   0.124E+02    0.120E+02
RMM:   7    -0.658347850733E+03    0.21705E+03   -0.25074E+02 14515   0.426E+01    0.526E+01
RMM:   8    -0.642409245227E+03    0.15939E+02   -0.61823E+01 14706   0.177E+01    0.299E+01
RMM:   9    -0.634092411166E+03    0.83168E+01   -0.22413E+01 14823   0.118E+01    0.180E+01
RMM:  10    -0.633174511769E+03    0.91790E+00   -0.98958E+00 15134   0.702E+00    0.148E+01
RMM:  11    -0.632654666414E+03    0.51985E+00   -0.48929E+00 14826   0.548E+00    0.122E+01
RMM:  12    -0.632276701359E+03    0.37797E+00   -0.34318E+00 14928   0.398E+00    0.102E+01
RMM:  13    -0.632508975895E+03   -0.23227E+00   -0.24217E+00 14720   0.416E+00    0.124E+01
RMM:  14    -0.632216979801E+03    0.29200E+00   -0.22113E+00 14651   0.373E+00    0.862E+00
RMM:  15    -0.632203153023E+03    0.13827E-01   -0.12829E+00 14977   0.285E+00    0.777E+00
RMM:  16    -0.632109747515E+03    0.93406E-01   -0.69784E-01 14132   0.221E+00    0.694E+00
RMM:  17    -0.631886155825E+03    0.22359E+00   -0.61060E-01 15103   0.182E+00    0.282E+00
RMM:  18    -0.631873491854E+03    0.12664E-01   -0.39372E-01 14922   0.134E+00    0.323E+00
RMM:  19    -0.631839572823E+03    0.33919E-01   -0.20409E-01 14904   0.102E+00    0.159E+00
RMM:  20    -0.631844745004E+03   -0.51722E-02   -0.14644E-01 14552   0.702E-01    0.149E+00
RMM:  21    -0.631840404172E+03    0.43408E-02   -0.77770E-02 14973   0.631E-01    0.126E+00
RMM:  22    -0.631847231383E+03   -0.68272E-02   -0.44801E-02 14635   0.535E-01    0.161E+00
RMM:  23    -0.631836241073E+03    0.10990E-01   -0.35056E-02 14652   0.417E-01    0.454E-01
RMM:  24    -0.631837060947E+03   -0.81987E-03   -0.21495E-02 14508   0.304E-01    0.477E-01
RMM:  25    -0.631836087834E+03    0.97311E-03   -0.12972E-02 14532   0.227E-01    0.154E-01
RMM:  26    -0.631836472817E+03   -0.38498E-03   -0.74084E-03 13889   0.156E-01    0.133E-01
RMM:  27    -0.631836718798E+03   -0.24598E-03   -0.41871E-03 13350   0.114E-01    0.105E-01
RMM:  28    -0.631836838012E+03   -0.11921E-03   -0.25588E-03 13363   0.822E-02    0.595E-02
RMM:  29    -0.631836933406E+03   -0.95394E-04   -0.16151E-03 12788   0.693E-02    0.300E-02
RMM:  30    -0.631836996193E+03   -0.62787E-04   -0.95426E-04 12135   0.550E-02    0.158E-02
RMM:  31    -0.631837043021E+03   -0.46829E-04   -0.60481E-04 11723   0.429E-02    0.123E-02
RMM:  32    -0.631837073880E+03   -0.30858E-04   -0.38130E-04 11411   0.328E-02    0.628E-03
RMM:  33    -0.631837096539E+03   -0.22660E-04   -0.25479E-04 11292   0.278E-02    0.426E-03
RMM:  34    -0.631837110951E+03   -0.14412E-04   -0.16579E-04 10993   0.229E-02    0.271E-03
RMM:  35    -0.631837120442E+03   -0.94906E-05   -0.11046E-04 10518   0.199E-02    0.133E-03
RMM:  36    -0.631837126446E+03   -0.60041E-05   -0.74225E-05 10108   0.170E-02
   1 F= -.63183713E+03 E0= -.63176855E+03  d E =-.631837E+03
       N       E                     dE             d eps       ncg     rms          rms(c)
DAV:   1    -0.632412305308E+03   -0.57518E+00   -0.13706E+01 13080   0.152E+01    0.661E+00
RMM:   2    -0.634678956660E+03   -0.22667E+01   -0.64817E+00 11647   0.911E+00    0.181E+01
RMM:   3    -0.632523494648E+03    0.21555E+01   -0.16960E+00 11891   0.517E+00    0.959E+00
RMM:   4    -0.631949933440E+03    0.57356E+00   -0.47285E-01 13424   0.213E+00    0.392E+00
RMM:   5    -0.631996168419E+03   -0.46235E-01   -0.20253E-01 12697   0.145E+00    0.524E+00
RMM:   6    -0.631855683643E+03    0.14048E+00   -0.12662E-01 13091   0.114E+00    0.215E+00
RMM:   7    -0.631848618723E+03    0.70649E-02   -0.68069E-02 13305   0.712E-01    0.229E+00
RMM:   8    -0.631839701053E+03    0.89177E-02   -0.34481E-02 11818   0.626E-01    0.213E+00
RMM:   9    -0.631819313821E+03    0.20387E-01   -0.18947E-02 13508   0.402E-01    0.669E-01
RMM:  10    -0.631819828977E+03   -0.51516E-03   -0.81965E-03 13893   0.245E-01    0.756E-01
RMM:  11    -0.631817717249E+03    0.21117E-02   -0.36282E-03 12816   0.188E-01    0.440E-01
RMM:  12    -0.631816978974E+03    0.73828E-03   -0.21207E-03 13282   0.114E-01    0.201E-01
RMM:  13    -0.631817242472E+03   -0.26350E-03   -0.11583E-03 13248   0.864E-02    0.249E-01
RMM:  14    -0.631817146969E+03    0.95503E-04   -0.74198E-04 12437   0.699E-02    0.137E-01
RMM:  15    -0.631817325615E+03   -0.17865E-03   -0.68529E-04 13175   0.525E-02    0.126E-01
RMM:  16    -0.631817439280E+03   -0.11367E-03   -0.55906E-04 12971   0.501E-02    0.808E-02
RMM:  17    -0.631817622077E+03   -0.18280E-03   -0.52148E-04 12965   0.498E-02    0.119E-01
RMM:  18    -0.631817617833E+03    0.42441E-05   -0.34532E-04 11988   0.471E-02    0.727E-02
RMM:  19    -0.631817633621E+03   -0.15788E-04   -0.25100E-04 12075   0.362E-02    0.540E-02
RMM:  20    -0.631817636625E+03   -0.30040E-05   -0.16193E-04 11794   0.276E-02    0.187E-02
RMM:  21    -0.631817644490E+03   -0.78650E-05   -0.99032E-05 10928   0.213E-02
   2 F= -.63181764E+03 E0= -.63175022E+03  d E =0.194820E-01
       N       E                     dE             d eps       ncg     rms          rms(c)
DAV:   1    -0.632096878233E+03   -0.27924E+00   -0.56805E+00 12960   0.977E+00    0.438E+00
RMM:   2    -0.633154286293E+03   -0.10574E+01   -0.24709E+00 12136   0.542E+00    0.121E+01
RMM:   3    -0.632089187990E+03    0.10651E+01   -0.79118E-01 11631   0.359E+00    0.580E+00
RMM:   4    -0.631942995845E+03    0.14619E+00   -0.21346E-01 13283   0.138E+00    0.375E+00
RMM:   5    -0.631913009333E+03    0.29987E-01   -0.89510E-02 12747   0.100E+00    0.317E+00
RMM:   6    -0.631868063307E+03    0.44946E-01   -0.55476E-02 13099   0.699E-01    0.176E+00
RMM:   7    -0.631864769995E+03    0.32933E-02   -0.27762E-02 12809   0.540E-01    0.183E+00
RMM:   8    -0.631855253899E+03    0.95161E-02   -0.18142E-02 12498   0.430E-01    0.121E+00
RMM:   9    -0.631847970322E+03    0.72836E-02   -0.87312E-03 13287   0.267E-01    0.520E-01
RMM:  10    -0.631848348756E+03   -0.37843E-03   -0.40096E-03 13392   0.193E-01    0.629E-01
RMM:  11    -0.631846639846E+03    0.17089E-02   -0.19333E-03 12376   0.140E-01    0.280E-01
RMM:  12    -0.631846281578E+03    0.35827E-03   -0.11003E-03 12902   0.826E-02    0.144E-01
RMM:  13    -0.631846368965E+03   -0.87386E-04   -0.53653E-04 12338   0.664E-02    0.192E-01
RMM:  14    -0.631846250180E+03    0.11878E-03   -0.37281E-04 11652   0.505E-02    0.875E-02
RMM:  15    -0.631846293056E+03   -0.42876E-04   -0.30599E-04 12401   0.356E-02    0.863E-02
RMM:  16    -0.631846301935E+03   -0.88784E-05   -0.21508E-04 11959   0.335E-02    0.628E-02
RMM:  17    -0.631846346173E+03   -0.44239E-04   -0.16853E-04 11579   0.324E-02    0.876E-02
RMM:  18    -0.631846341369E+03    0.48047E-05   -0.17241E-04 11399   0.316E-02    0.441E-02
RMM:  19    -0.631846347131E+03   -0.57625E-05   -0.13734E-04 11847   0.260E-02    0.343E-02
RMM:  20    -0.631846340479E+03    0.66526E-05   -0.89884E-05 11062   0.214E-02
   3 F= -.63184634E+03 E0= -.63177818E+03  d E =-.921403E-02
       N       E                     dE             d eps       ncg     rms          rms(c)
DAV:   1    -0.631843173729E+03    0.31734E-02   -0.17610E-01 10752   0.250E+00    0.150E-01
RMM:   2    -0.631847531762E+03   -0.43580E-02   -0.43197E-02 15035   0.535E-01    0.293E-01
RMM:   3    -0.631847361554E+03    0.17021E-03   -0.32033E-03 12457   0.207E-01    0.237E-01
RMM:   4    -0.631847273641E+03    0.87912E-04   -0.99100E-04 13461   0.906E-02    0.168E-01
RMM:   5    -0.631847130989E+03    0.14265E-03   -0.31202E-04 12165   0.594E-02    0.112E-01
RMM:   6    -0.631847090401E+03    0.40589E-04   -0.19320E-04 11990   0.380E-02    0.921E-02
RMM:   7    -0.631847115848E+03   -0.25447E-04   -0.13349E-04 11449   0.342E-02    0.116E-01
RMM:   8    -0.631847078179E+03    0.37669E-04   -0.10688E-04 11127   0.319E-02    0.814E-02
RMM:   9    -0.631847045966E+03    0.32213E-04   -0.58294E-05 10409   0.246E-02    0.435E-02
RMM:  10    -0.631847041651E+03    0.43154E-05   -0.35166E-05  8685   0.171E-02
   4 F= -.63184704E+03 E0= -.63177879E+03  d E =-.701172E-03
       N       E                     dE             d eps       ncg     rms          rms(c)
DAV:   1    -0.631845847887E+03    0.11981E-02   -0.58435E-02 10752   0.144E+00    0.876E-02
RMM:   2    -0.631847352233E+03   -0.15043E-02   -0.14453E-02 14955   0.309E-01    0.193E-01
RMM:   3    -0.631847225959E+03    0.12627E-03   -0.10680E-03 12580   0.120E-01    0.130E-01
RMM:   4    -0.631847216353E+03    0.96060E-05   -0.37746E-04 12687   0.554E-02    0.105E-01
RMM:   5    -0.631847164710E+03    0.51643E-04   -0.12646E-04 11554   0.353E-02    0.689E-02
RMM:   6    -0.631847154040E+03    0.10670E-04   -0.69360E-05 10844   0.241E-02    0.627E-02
RMM:   7    -0.631847148630E+03    0.54102E-05   -0.51225E-05 10237   0.208E-02
   5 F= -.63184715E+03 E0= -.63177882E+03  d E =-.808151E-03
       N       E                     dE             d eps       ncg     rms          rms(c)
DAV:   1    -0.631845169447E+03    0.19846E-02   -0.12294E-01 11520   0.205E+00    0.168E-01
RMM:   2    -0.631849230524E+03   -0.40611E-02   -0.30656E-02 14609   0.485E-01    0.495E-01
RMM:   3    -0.631848115341E+03    0.11152E-02   -0.29022E-03 12492   0.195E-01    0.353E-01
RMM:   4    -0.631847580794E+03    0.53455E-03   -0.90136E-04 12931   0.911E-02    0.138E-01
RMM:   5    -0.631847566281E+03    0.14513E-04   -0.30948E-04 11681   0.557E-02    0.146E-01
RMM:   6    -0.631847470457E+03    0.95824E-04   -0.14350E-04 10959   0.365E-02    0.875E-02
RMM:   7    -0.631847449588E+03    0.20869E-04   -0.85818E-05 10393   0.283E-02    0.686E-02
RMM:   8    -0.631847450835E+03   -0.12470E-05   -0.73636E-05  9280   0.296E-02
   6 F= -.63184745E+03 E0= -.63177913E+03  d E =-.302205E-03
       N       E                     dE             d eps       ncg     rms          rms(c)
DAV:   1    -0.631846364248E+03    0.10853E-02   -0.59763E-02 11976   0.144E+00    0.129E-01
RMM:   2    -0.631848740917E+03   -0.23767E-02   -0.15310E-02 14422   0.343E-01    0.416E-01
RMM:   3    -0.631847738868E+03    0.10020E-02   -0.15847E-03 11772   0.149E-01    0.225E-01
RMM:   4    -0.631847520106E+03    0.21876E-03   -0.48983E-04 12255   0.671E-02    0.113E-01
RMM:   5    -0.631847507366E+03    0.12740E-04   -0.16638E-04 10940   0.402E-02    0.105E-01
RMM:   6    -0.631847459008E+03    0.48359E-04   -0.76833E-05  9711   0.278E-02    0.615E-02
RMM:   7    -0.631847445035E+03    0.13973E-04   -0.46257E-05  8810   0.207E-02    0.422E-02
RMM:   8    -0.631847450045E+03   -0.50102E-05   -0.41991E-05  7851   0.225E-02
   7 F= -.63184745E+03 E0= -.63177912E+03  d E =-.301415E-03
       N       E                     dE             d eps       ncg     rms          rms(c)
DAV:   1    -0.631846235892E+03    0.12091E-02   -0.55858E-02 10440   0.148E+00    0.103E-01
RMM:   2    -0.631848433003E+03   -0.21971E-02   -0.15343E-02 15171   0.334E-01    0.395E-01
RMM:   3    -0.631847692912E+03    0.74009E-03   -0.14150E-03 11640   0.141E-01    0.148E-01
RMM:   4    -0.631847645625E+03    0.47286E-04   -0.44581E-04 12688   0.631E-02    0.109E-01
RMM:   5    -0.631847601785E+03    0.43840E-04   -0.13412E-04 11400   0.367E-02    0.689E-02
RMM:   6    -0.631847585502E+03    0.16284E-04   -0.68522E-05 10576   0.243E-02    0.603E-02
RMM:   7    -0.631847574303E+03    0.11199E-04   -0.35036E-05  8075   0.203E-02    0.406E-02
RMM:   8    -0.631847577498E+03   -0.31952E-05   -0.30607E-05  7545   0.197E-02
   8 F= -.63184758E+03 E0= -.63177922E+03  d E =-.127453E-03
       N       E                     dE             d eps       ncg     rms          rms(c)
DAV:   1    -0.631847190196E+03    0.38411E-03   -0.17666E-02 11664   0.832E-01    0.672E-02
RMM:   2    -0.631848293865E+03   -0.11037E-02   -0.48274E-03 14663   0.190E-01    0.369E-01
RMM:   3    -0.631847623540E+03    0.67032E-03   -0.54213E-04 10429   0.880E-02    0.818E-02
RMM:   4    -0.631847603801E+03    0.19739E-04   -0.16950E-04 11271   0.390E-02    0.676E-02
RMM:   5    -0.631847592295E+03    0.11506E-04   -0.48945E-05  8846   0.249E-02    0.469E-02
RMM:   6    -0.631847583547E+03    0.87481E-05   -0.22860E-05  6638   0.186E-02
   9 F= -.63184758E+03 E0= -.63177918E+03  d E =-.133501E-03
       N       E                     dE             d eps       ncg     rms          rms(c)
DAV:   1    -0.631847416389E+03    0.17591E-03   -0.16547E-02 11160   0.695E-01    0.555E-02
RMM:   2    -0.631847960991E+03   -0.54460E-03   -0.34480E-03 14965   0.170E-01    0.223E-01
RMM:   3    -0.631847729077E+03    0.23191E-03   -0.34719E-04 10604   0.733E-02    0.724E-02
RMM:   4    -0.631847730728E+03   -0.16503E-05   -0.11526E-04 10264   0.379E-02    0.740E-02
RMM:   5    -0.631847708820E+03    0.21907E-04   -0.41663E-05  7934   0.224E-02    0.387E-02
RMM:   6    -0.631847704026E+03    0.47939E-05   -0.20837E-05  6382   0.185E-02
  10 F= -.63184770E+03 E0= -.63177931E+03  d E =-.120480E-03
       N       E                     dE             d eps       ncg     rms          rms(c)
DAV:   1    -0.631847526427E+03    0.18239E-03   -0.12759E-02 11568   0.610E-01    0.489E-02
RMM:   2    -0.631847984885E+03   -0.45846E-03   -0.26576E-03 14868   0.150E-01    0.212E-01
RMM:   3    -0.631847765405E+03    0.21948E-03   -0.28721E-04 10403   0.658E-02    0.603E-02
RMM:   4    -0.631847772333E+03   -0.69280E-05   -0.95344E-05  9985   0.329E-02
  11 F= -.63184777E+03 E0= -.63177934E+03  d E =-.188787E-03
       N       E                     dE             d eps       ncg     rms          rms(c)
DAV:   1    -0.631847932995E+03   -0.16759E-03   -0.18838E-02 13248   0.761E-01    0.182E-01
RMM:   2    -0.631849863199E+03   -0.19302E-02   -0.63749E-03 12627   0.280E-01    0.493E-01
RMM:   3    -0.631848214958E+03    0.16482E-02   -0.15319E-03 11270   0.148E-01    0.268E-01
RMM:   4    -0.631847861597E+03    0.35336E-03   -0.43684E-04 11843   0.689E-02    0.147E-01
RMM:   5    -0.631847836104E+03    0.25493E-04   -0.16259E-04 10145   0.439E-02    0.138E-01
RMM:   6    -0.631847760073E+03    0.76031E-04   -0.11953E-04 10434   0.325E-02    0.838E-02
RMM:   7    -0.631847742150E+03    0.17923E-04   -0.56358E-05  7511   0.280E-02    0.738E-02
RMM:   8    -0.631847728020E+03    0.14129E-04   -0.40554E-05  6644   0.232E-02    0.530E-02
RMM:   9    -0.631847712115E+03    0.15905E-04   -0.21821E-05  6194   0.189E-02    0.221E-02
RMM:  10    -0.631847712744E+03   -0.62912E-06   -0.12451E-05  5776   0.150E-02
  12 F= -.63184771E+03 E0= -.63177928E+03  d E =0.595888E-04
       N       E                     dE             d eps       ncg     rms          rms(c)
DAV:   1    -0.631847771151E+03   -0.59036E-04   -0.37004E-03 13416   0.339E-01    0.738E-02
RMM:   2    -0.631848121775E+03   -0.35062E-03   -0.11244E-03 12161   0.120E-01    0.220E-01
RMM:   3    -0.631847821830E+03    0.29995E-03   -0.27312E-04  9810   0.653E-02    0.113E-01
RMM:   4    -0.631847763032E+03    0.58798E-04   -0.78271E-05  8856   0.324E-02    0.658E-02
RMM:   5    -0.631847755465E+03    0.75676E-05   -0.28947E-05  6433   0.223E-02
  13 F= -.63184776E+03 E0= -.63177935E+03  d E =0.168684E-04
       N       E                     dE             d eps       ncg     rms          rms(c)
DAV:   1    -0.631847768723E+03   -0.56903E-05   -0.11912E-03 13704   0.202E-01    0.617E-02
RMM:   2    -0.631848354364E+03   -0.58564E-03   -0.63351E-04 10681   0.864E-02    0.342E-01
RMM:   3    -0.631847797792E+03    0.55657E-03   -0.21317E-04  8328   0.627E-02    0.881E-02
RMM:   4    -0.631847762287E+03    0.35505E-04   -0.55255E-05  7371   0.287E-02    0.642E-02
RMM:   5    -0.631847747063E+03    0.15224E-04   -0.18380E-05  6016   0.203E-02    0.357E-02
RMM:   6    -0.631847746644E+03    0.41971E-06   -0.12763E-05  5524   0.151E-02
  14 F= -.63184775E+03 E0= -.63177934E+03  d E =0.256896E-04
       N       E                     dE             d eps       ncg     rms          rms(c)
DAV:   1    -0.631847748863E+03   -0.17994E-05   -0.46955E-04 13344   0.130E-01    0.357E-02
RMM:   2    -0.631847889042E+03   -0.14018E-03   -0.20561E-04  8785   0.520E-02    0.150E-01
RMM:   3    -0.631847753712E+03    0.13533E-03   -0.65405E-05  7111   0.361E-02    0.430E-02
RMM:   4    -0.631847748637E+03    0.50753E-05   -0.14780E-05  6005   0.169E-02
  15 F= -.63184775E+03 E0= -.63177935E+03  d E =0.236968E-04
       N       E                     dE             d eps       ncg     rms          rms(c)
DAV:   1    -0.631847746940E+03    0.67724E-05   -0.14154E-04 13248   0.679E-02    0.242E-02
RMM:   2    -0.631847801748E+03   -0.54808E-04   -0.87413E-05  8196   0.289E-02    0.908E-02
RMM:   3    -0.631847758008E+03    0.43740E-04   -0.22441E-05  6164   0.229E-02    0.517E-02
RMM:   4    -0.631847743919E+03    0.14089E-04   -0.99197E-06  5435   0.143E-02    0.143E-02
RMM:   5    -0.631847744319E+03   -0.40037E-06   -0.34243E-06  4778   0.824E-03
  16 F= -.63184774E+03 E0= -.63177934E+03  d E =0.280144E-04
       N       E                     dE             d eps       ncg     rms          rms(c)
DAV:   1    -0.631847743806E+03    0.11257E-06   -0.28816E-05  7440   0.355E-02    0.194E-02
RMM:   2    -0.631847848649E+03   -0.10484E-03   -0.55849E-05  7305   0.284E-02    0.148E-01
RMM:   3    -0.631847748233E+03    0.10042E-03   -0.24172E-05  6245   0.216E-02    0.260E-02
RMM:   4    -0.631847743828E+03    0.44052E-05   -0.41116E-06  4770   0.796E-03
  17 F= -.63184774E+03 E0= -.63177934E+03  d E =0.285051E-04
       N       E                     dE             d eps       ncg     rms          rms(c)
DAV:   1    -0.631847651163E+03    0.97070E-04   -0.61013E-03 11472   0.472E-01    0.306E-02
RMM:   2    -0.631847836994E+03   -0.18583E-03   -0.14749E-03 14126   0.974E-02    0.911E-02
RMM:   3    -0.631847789178E+03    0.47816E-04   -0.12320E-04  8131   0.482E-02    0.388E-02
RMM:   4    -0.631847787307E+03    0.18713E-05   -0.30014E-05  6414   0.202E-02
  18 F= -.63184779E+03 E0= -.63177938E+03  d E =-.434790E-04
